 Entering Gaussian System, Link 0=/uufs/chpc.utah.edu/sys/installdir/gaussian16/B01/E6B/g16/g16
 Input=R-C4-Tunephos_3_SPE_NoPd.com
 Output=R-C4-Tunephos_3_SPE_NoPd.log
 Initial command:
 /uufs/chpc.utah.edu/sys/installdir/gaussian16/B01/E6B/g16/l1.exe "/scratch/general/lustre/u1010977/3354029/notchpeak.peaks/Gau-130458.inp" -scrdir="/scratch/general/lustre/u1010977/3354029/notchpeak.peaks/"
 Entering Link 1 = /uufs/chpc.utah.edu/sys/installdir/gaussian16/B01/E6B/g16/l1.exe PID=    130460.
  
 Copyright (c) 1988-2017, Gaussian, Inc.  All Rights Reserved.
  
 This is part of the Gaussian(R) 16 program.  It is based on
 the Gaussian(R) 09 system (copyright 2009, Gaussian, Inc.),
 the Gaussian(R) 03 system (copyright 2003, Gaussian, Inc.),
 the Gaussian(R) 98 system (copyright 1998, Gaussian, Inc.),
 the Gaussian(R) 94 system (copyright 1995, Gaussian, Inc.),
 the Gaussian 92(TM) system (copyright 1992, Gaussian, Inc.),
 the Gaussian 90(TM) system (copyright 1990, Gaussian, Inc.),
 the Gaussian 88(TM) system (copyright 1988, Gaussian, Inc.),
 the Gaussian 86(TM) system (copyright 1986, Carnegie Mellon
 University), and the Gaussian 82(TM) system (copyright 1983,
 Carnegie Mellon University). Gaussian is a federally registered
 trademark of Gaussian, Inc.
  
 This software contains proprietary and confidential information,
 including trade secrets, belonging to Gaussian, Inc.
  
 This software is provided under written license and may be
 used, copied, transmitted, or stored only in accord with that
 written license.
  
 The following legend is applicable only to US Government
 contracts under FAR:
  
                    RESTRICTED RIGHTS LEGEND
  
 Use, reproduction and disclosure by the US Government is
 subject to restrictions as set forth in subparagraphs (a)
 and (c) of the Commercial Computer Software - Restricted
 Rights clause in FAR 52.227-19.
  
 Gaussian, Inc.
 340 Quinnipiac St., Bldg. 40, Wallingford CT 06492
  
  
 ---------------------------------------------------------------
 Warning -- This program may not be used in any manner that
 competes with the business of Gaussian, Inc. or will provide
 assistance to any competitor of Gaussian, Inc.  The licensee
 of this program is prohibited from giving any competitor of
 Gaussian, Inc. access to this program.  By using this program,
 the user acknowledges that Gaussian, Inc. is engaged in the
 business of creating and licensing software in the field of
 computational chemistry and represents and warrants to the
 licensee that it is not a competitor of Gaussian, Inc. and that
 it will not use this program in any manner prohibited above.
 ---------------------------------------------------------------
  

 Cite this work as:
 Gaussian 16, Revision B.01,
 M. J. Frisch, G. W. Trucks, H. B. Schlegel, G. E. Scuseria, 
 M. A. Robb, J. R. Cheeseman, G. Scalmani, V. Barone, 
 G. A. Petersson, H. Nakatsuji, X. Li, M. Caricato, A. V. Marenich, 
 J. Bloino, B. G. Janesko, R. Gomperts, B. Mennucci, H. P. Hratchian, 
 J. V. Ortiz, A. F. Izmaylov, J. L. Sonnenberg, D. Williams-Young, 
 F. Ding, F. Lipparini, F. Egidi, J. Goings, B. Peng, A. Petrone, 
 T. Henderson, D. Ranasinghe, V. G. Zakrzewski, J. Gao, N. Rega, 
 G. Zheng, W. Liang, M. Hada, M. Ehara, K. Toyota, R. Fukuda, 
 J. Hasegawa, M. Ishida, T. Nakajima, Y. Honda, O. Kitao, H. Nakai, 
 T. Vreven, K. Throssell, J. A. Montgomery, Jr., J. E. Peralta, 
 F. Ogliaro, M. J. Bearpark, J. J. Heyd, E. N. Brothers, K. N. Kudin, 
 V. N. Staroverov, T. A. Keith, R. Kobayashi, J. Normand, 
 K. Raghavachari, A. P. Rendell, J. C. Burant, S. S. Iyengar, 
 J. Tomasi, M. Cossi, J. M. Millam, M. Klene, C. Adamo, R. Cammi, 
 J. W. Ochterski, R. L. Martin, K. Morokuma, O. Farkas, 
 J. B. Foresman, and D. J. Fox, Gaussian, Inc., Wallingford CT, 2016.
 
 ******************************************
 Gaussian 16:  ES64L-G16RevB.01 20-Dec-2017
                 1-Nov-2021 
 ******************************************
 %NProcShared=32
 Will use up to   32 processors via shared memory.
 %mem=18GB
 %chk=R-C4-Tunephos_3_SPE_NoPd.chk
 ----------------------------------------------------------------------
 # PBE1PBE/def2TZVP int=(grid=ultrafine) empiricaldispersion=GD3BJ nmr=
 giao
 ----------------------------------------------------------------------
 1/38=1,172=1/1;
 2/12=2,17=6,18=5,40=1/2;
 3/5=44,7=101,11=2,25=1,30=1,74=-13,75=-5,124=41/1,2,3,8;
 4//1;
 5/5=2,38=5/2;
 8/6=1,10=90,11=11/1;
 10/13=100,45=16/2;
 6/7=2,8=2,9=2,10=2,28=1/1;
 99/9=1/99;
 -----
 title
 -----
 Symbolic Z-matrix:
 Charge =  0 Multiplicity = 1
 P                    -0.73656   1.66714  -0.03317 
 C                    -0.03549   2.13435  -1.656 
 C                    -0.83818   1.94451  -2.79716 
 C                    -0.34967   2.31596  -4.05643 
 C                     0.93152   2.87352  -4.18128 
 C                     1.7287    3.06571  -3.04313 
 C                     1.24891   2.6989   -1.77967 
 H                     1.88573   2.81459  -0.89694 
 H                     1.3109    3.15716  -5.16862 
 H                    -1.84242   1.52116  -2.67985 
 C                    -1.35663   3.23147   0.70563 
 C                    -0.80018   4.473     0.3505 
 C                    -1.2349    5.6424    0.9897 
 C                    -2.21679   5.57694   1.98745 
 C                    -2.77418   4.33896   2.3414 
 C                    -2.35459   3.16874   1.69833 
 H                    -2.81354   2.2059    1.94316 
 H                    -2.55661   6.49253   2.48252 
 H                    -0.03926   4.53064  -0.43354 
 C                     0.69793   1.24864   1.06212 
 C                     0.73321   1.81955   2.3504 
 C                     1.75128   1.47945   3.24511 
 C                     2.76847   0.6017    2.86139 
 C                     2.75763   0.05159   1.56958 
 C                     1.69994   0.32805   0.66587 
 C                     1.69654  -0.34827  -0.6637 
 C                     2.7582   -0.08425  -1.56649 
 C                     2.7637   -0.63445  -2.85829 
 C                     1.7366   -1.5002   -3.2429 
 C                     0.71383  -1.82832  -2.34908 
 C                     0.68413  -1.25702  -1.06083 
 P                    -0.75617  -1.65858   0.03316 
 C                    -0.06215  -2.134     1.65663 
 C                     1.21543  -2.71355   1.7815 
 C                     1.68971  -3.08597   3.0454 
 C                     0.89375  -2.88449   4.1828 
 C                    -0.3807   -2.31198   4.05676 
 C                    -0.86364  -1.9348    2.79704 
 H                    -1.86275  -1.49973   2.6788 
 H                     1.26885  -3.17258   5.17049 
 H                     1.85169  -2.83668   0.89937 
 C                    -1.39394  -3.21553  -0.70618 
 C                    -2.39019  -3.14111  -1.69979 
 C                    -2.82292  -4.30634  -2.34321 
 C                    -2.28044  -5.55077  -1.98873 
 C                    -1.30029  -5.62773  -0.99009 
 C                    -0.85244  -4.4635   -0.35052 
 H                    -0.09295  -4.53005   0.4342 
 H                    -2.63054  -6.46232  -2.48408 
 H                    -2.83756  -2.17295  -1.94506 
 H                    -0.06649  -2.52863  -2.65342 
 H                     1.73413  -1.92475  -4.25179 
 H                     3.54868  -0.36218  -3.56867 
 O                     3.73112   0.76996  -1.11943 
 C                     5.07053   0.59002  -1.60842 
 H                     5.2996    1.41214  -2.31341 
 H                     5.14996  -0.36603  -2.15752 
 C                     6.06094   0.59434  -0.44416 
 H                     5.89595   1.50075   0.16836 
 H                     7.06612   0.70345  -0.89313 
 C                     6.05317  -0.6657    0.45012 
 H                     5.8781   -1.57012  -0.16255 
 H                     7.0566   -0.78659   0.89997 
 C                     5.06185  -0.64978   1.61352 
 H                     5.28066  -1.47452   2.3187 
 O                     3.72085  -0.81399   1.12337 
 H                     5.15202   0.30528   2.1627 
 H                     3.54958   0.32023   3.57245 
 H                     1.75292   1.90401   4.254 
 H                    -0.0391    2.52899   2.65406 
 H                    -0.80694   6.60788   0.70037 
 H                    -3.55469   4.28378   3.10682 
 H                    -0.97342   2.16682  -4.94365 
 H                     2.7327    3.49306  -3.13769 
 H                    -3.60203  -4.24201  -3.10934 
 H                    -0.88396  -6.59816  -0.70034 
 H                     2.68855  -3.52504   3.14089 
 H                    -1.00351  -2.15557   4.9434 
 
 Stoichiometry    C40H34O2P2
 Framework group  C1[X(C40H34O2P2)]
 Deg. of freedom   228
 Full point group                 C1      NOp   1
 Largest Abelian subgroup         C1      NOp   1
 Largest concise Abelian subgroup C1      NOp   1
                         Standard orientation:                         
 ---------------------------------------------------------------------
 Center     Atomic      Atomic             Coordinates (Angstroms)
 Number     Number       Type             X           Y           Z
 ---------------------------------------------------------------------
      1         15           0        1.661385   -1.493858    0.077076
      2          6           0        2.089832   -0.796143    1.712003
      3          6           0        1.865270   -1.598104    2.847360
      4          6           0        2.206313   -1.112247    4.116227
      5          6           0        2.767949    0.165569    4.256366
      6          6           0        2.994744    0.962009    3.124082
      7          6           0        2.658508    0.484845    1.851159
      8          1           0        2.801165    1.121291    0.972108
      9          1           0        3.027729    0.542914    5.251029
     10          1           0        1.439229   -2.599775    2.718434
     11          6           0        3.240937   -2.122909   -0.620598
     12          6           0        4.475949   -1.573947   -0.232610
     13          6           0        5.659184   -2.015353   -0.841024
     14          6           0        5.614230   -2.996482   -1.840656
     15          6           0        4.382730   -3.546404   -2.227360
     16          6           0        3.198481   -3.120130   -1.615113
     17          1           0        2.239720   -3.573280   -1.885448
     18          1           0        6.540511   -3.341534   -2.311616
     19          1           0        4.517420   -0.813655    0.553060
     20          6           0        1.280350   -0.056525   -1.028116
     21          6           0        1.885190   -0.024164   -2.300894
     22          6           0        1.574780    0.996217   -3.203727
     23          6           0        0.693253    2.018454   -2.842730
     24          6           0        0.109264    2.010407   -1.565865
     25          6           0        0.355582    0.950771   -0.655730
     26          6           0       -0.355520    0.950901    0.655577
     27          6           0       -0.109102    2.010657    1.565546
     28          6           0       -0.693086    2.018958    2.842412
     29          6           0       -1.574710    0.996861    3.203568
     30          6           0       -1.885216   -0.023633    2.300895
     31          6           0       -1.280378   -0.056252    1.028122
     32         15           0       -1.661497   -1.493765   -0.076805
     33          6           0       -2.089887   -0.796355   -1.711878
     34          6           0       -2.658391    0.484677   -1.851309
     35          6           0       -2.994595    0.961599   -3.124332
     36          6           0       -2.767945    0.164869   -4.256440
     37          6           0       -2.206485   -1.112996   -4.116023
     38          6           0       -1.865470   -1.598609   -2.847057
     39          1           0       -1.439568   -2.600311   -2.717913
     40          1           0       -3.027699    0.542023   -5.251182
     41          1           0       -2.800949    1.121340   -0.972398
     42          6           0       -3.241110   -2.122568    0.620959
     43          6           0       -3.198770   -3.119599    1.615668
     44          6           0       -4.383075   -3.545649    2.227963
     45          6           0       -5.614515   -2.995691    1.841119
     46          6           0       -5.659353   -2.014747    0.841300
     47          6           0       -4.476061   -1.573565    0.232834
     48          1           0       -4.517439   -0.813413   -0.552976
     49          1           0       -6.540841   -3.340567    2.312120
     50          1           0       -2.240058   -3.572778    1.886122
     51          1           0       -2.597898   -0.799907    2.586292
     52          1           0       -2.025693    0.996545    4.200932
     53          1           0       -0.434982    2.802055    3.560122
     54          8           0        0.762317    2.978669    1.141633
     55          6           0        0.577479    4.318941    1.626400
     56          1           0        1.382085    4.542894    2.352912
     57          1           0       -0.392216    4.403839    2.150177
     58          6           0        0.618300    5.309731    0.463163
     59          1           0        1.539538    5.139593   -0.125363
     60          1           0        0.721487    6.314079    0.915363
     61          6           0       -0.617778    5.309731   -0.463986
     62          1           0       -1.539036    5.139797    0.124566
     63          1           0       -0.720845    6.314019   -0.916346
     64          6           0       -0.577076    4.318755   -1.627071
     65          1           0       -1.381663    4.542690   -2.353610
     66          8           0       -0.762063    2.978573   -1.142106
     67          1           0        0.392624    4.403466   -2.150868
     68          1           0        0.435227    2.801465   -3.560562
     69          1           0        2.025765    0.995704   -4.201090
     70          1           0        2.597805   -0.800546   -2.586166
     71          1           0        6.619222   -1.593211   -0.526148
     72          1           0        4.343109   -4.326305   -2.994374
     73          1           0        2.030176   -1.735424    4.998892
     74          1           0        3.425378    1.963429    3.230373
     75          1           0       -4.343547   -4.325405    2.995129
     76          1           0       -6.619344   -1.592574    0.526321
     77          1           0       -3.425091    1.963056   -3.230838
     78          1           0       -2.030466   -1.736401   -4.998551
 ---------------------------------------------------------------------
 Rotational constants (GHZ):           0.0834397           0.0685298           0.0639404
 Standard basis: def2TZVP (5D, 7F)
 There are  1800 symmetry adapted cartesian basis functions of A   symmetry.
 There are  1580 symmetry adapted basis functions of A   symmetry.
  1580 basis functions,  2552 primitive gaussians,  1800 cartesian basis functions
   160 alpha electrons      160 beta electrons
       nuclear repulsion energy      5864.6656699596 Hartrees.
 NAtoms=   78 NActive=   78 NUniq=   78 SFac= 1.00D+00 NAtFMM=   60 NAOKFM=T Big=T
 Integral buffers will be    131072 words long.
 Raffenetti 2 integral format.
 Two-electron integral symmetry is turned on.
 Nuclear repulsion after empirical dispersion term =     5864.5363139149 Hartrees.
 One-electron integrals computed using PRISM.
   1 Symmetry operations used in ECPInt.
 ECPInt:  NShTT=  195000 NPrTT=  604449 LenC2=  154132 LenP2D=  314453.
 LDataN:  DoStor=T MaxTD1= 6 Len=  172
 Number of processors reduced to  24 by ecpmxn.
 NBasis=  1580 RedAO= T EigKep=  3.74D-06  NBF=  1580
 NBsUse=  1580 1.00D-06 EigRej= -1.00D+00 NBFU=  1580
 ExpMin= 9.04D-02 ExpMax= 5.24D+04 ExpMxC= 1.79D+03 IAcc=3 IRadAn=         5 AccDes= 0.00D+00
 Harris functional with IExCor= 1009 and IRadAn=       5 diagonalized for initial guess.
 HarFok:  IExCor= 1009 AccDes= 0.00D+00 IRadAn=         5 IDoV= 1 UseB2=F ITyADJ=14
 ICtDFT=  3500011 ScaDFX=  1.000000  1.000000  1.000000  1.000000
 FoFCou: FMM=F IPFlag=           0 FMFlag=      100000 FMFlg1=        2001
         NFxFlg=           0 DoJE=T BraDBF=F KetDBF=T FulRan=T
         wScrn=  0.000000 ICntrl=       500 IOpCl=  0 I1Cent=   200000004 NGrid=           0
         NMat0=    1 NMatS0=      1 NMatT0=    0 NMatD0=    1 NMtDS0=    0 NMtDT0=    0
 Petite list used in FoFCou.
 Requested convergence on RMS density matrix=1.00D-08 within 128 cycles.
 Requested convergence on MAX density matrix=1.00D-06.
 Requested convergence on             energy=1.00D-06.
 No special actions if energy rises.
 Integral accuracy reduced to 1.0D-05 until final iterations.
 Problem detected with inexpensive integrals.
 Switching to full accuracy and repeating last cycle.
 SCF Done:  E(RPBE1PBE) =  -2376.32783259     A.U. after   15 cycles
            NFock= 15  Conv=0.35D-08     -V/T= 2.0048
 DoSCS=F DFT=T ScalE2(SS,OS)=  1.000000  1.000000
 Range of M.O.s used for correlation:     1  1580
 NBasis=  1580 NAE=   160 NBE=   160 NFC=     0 NFV=     0
 NROrb=   1580 NOA=   160 NOB=   160 NVA=  1420 NVB=  1420

 **** Warning!!: The largest alpha MO coefficient is  0.46595315D+02

          Differentiating once with respect to magnetic field using GIAOs.
          Electric field/nuclear overlap derivatives assumed to be zero.
 FoFCou: FMM=F IPFlag=           0 FMFlag=      100000 FMFlg1=        2001
         NFxFlg=           0 DoJE=F BraDBF=F KetDBF=T FulRan=T
         wScrn=  0.000000 ICntrl=      6100 IOpCl=  0 I1Cent=           7 NGrid=          78
         NMat0=    1 NMatS0=      1 NMatT0=    0 NMatD0=    1 NMtDS0=    0 NMtDT0=    0
 Symmetry not used in FoFCou.
   1 Symmetry operations used in ECPInt.
 ECPInt:  NShTT=  195000 NPrTT=  604449 LenC2=  195001 LenP2D=  604449.
 LDataN:  DoStor=T MaxTD1= 7 Len=  274
 Number of processors reduced to  15 by ecpmxn.
 FoFJK:  IHMeth= 1 ICntrl=    6127 DoSepK=F KAlg= 0 I1Cent=           0 FoldK=F
 IRaf=         1 NMat=       1 IRICut=       1 DoRegI=T DoRafI=F ISym2E= 0 IDoP0=0 IntGTp=1.
          There are     3 degrees of freedom in the 1st order CPHF.  IDoFFX=0 NUNeed=     3.
      3 vectors produced by pass  0 Test12= 7.57D-12 3.33D-08 XBig12= 1.80D+02 1.78D+00.
 AX will form     3 AO Fock derivatives at one time.
      3 vectors produced by pass  1 Test12= 7.57D-12 3.33D-08 XBig12= 7.59D-01 1.78D-01.
      3 vectors produced by pass  2 Test12= 7.57D-12 3.33D-08 XBig12= 3.27D-03 1.04D-02.
      3 vectors produced by pass  3 Test12= 7.57D-12 3.33D-08 XBig12= 1.01D-05 1.03D-03.
      3 vectors produced by pass  4 Test12= 7.57D-12 3.33D-08 XBig12= 6.27D-08 8.89D-05.
      3 vectors produced by pass  5 Test12= 7.57D-12 3.33D-08 XBig12= 3.39D-10 5.28D-06.
      3 vectors produced by pass  6 Test12= 7.57D-12 3.33D-08 XBig12= 1.95D-12 4.29D-07.
 InvSVY:  IOpt=1 It=  1 EMax= 3.55D-15
 Solved reduced A of dimension    21 with     3 vectors.
 Calculating GIAO nuclear magnetic shielding tensors.
 SCF GIAO Magnetic shielding tensor (ppm):
      1  P    Isotropic =   291.1103   Anisotropy =    57.4081
   XX=   278.2794   YX=    39.4084   ZX=   -10.0191
   XY=     4.1141   YY=   309.8895   ZY=   -30.5349
   XZ=    21.0227   YZ=   -16.3953   ZZ=   285.1619
   Eigenvalues:   256.7359   287.2125   329.3823
      2  C    Isotropic =    41.8975   Anisotropy =   206.5083
   XX=   146.5247   YX=   -72.8014   ZX=   -24.8834
   XY=   -67.4286   YY=    24.4400   ZY=    -8.5293
   XZ=   -18.8517   YZ=   -11.1121   ZZ=   -45.2720
   Eigenvalues:   -53.4072    -0.4700   179.5698
      3  C    Isotropic =    43.4686   Anisotropy =   186.5486
   XX=   128.6061   YX=   -92.1883   ZX=     1.0072
   XY=   -84.4172   YY=   -31.2924   ZY=   -12.2244
   XZ=   -12.7423   YZ=    -0.3577   ZZ=    33.0922
   Eigenvalues:   -71.0964    33.6679   167.8343
      4  C    Isotropic =    52.4063   Anisotropy =   186.4069
   XX=   152.5414   YX=   -57.2519   ZX=     2.1411
   XY=   -59.0478   YY=    27.1305   ZY=    49.7996
   XZ=     3.0362   YZ=    49.3707   ZZ=   -22.4530
   Eigenvalues:   -58.7110    39.2523   176.6776
      5  C    Isotropic =    51.5458   Anisotropy =   189.4279
   XX=   149.5140   YX=   -57.9548   ZX=   -36.0459
   XY=   -59.0109   YY=    46.3707   ZY=   -24.7319
   XZ=   -30.9544   YZ=   -26.1019   ZZ=   -41.2474
   Eigenvalues:   -60.0231    36.8294   177.8311
      6  C    Isotropic =    52.7390   Anisotropy =   186.3794
   XX=   139.6460   YX=   -85.0507   ZX=   -10.3855
   XY=   -85.9571   YY=   -23.3410   ZY=    -3.8152
   XZ=   -14.3239   YZ=    -3.8183   ZZ=    41.9121
   Eigenvalues:   -60.6528    41.8779   176.9919
      7  C    Isotropic =    41.3817   Anisotropy =   201.1738
   XX=   150.8244   YX=   -63.6287   ZX=    13.8552
   XY=   -62.3470   YY=     8.1661   ZY=    54.6352
   XZ=    -1.0978   YZ=    51.7669   ZZ=   -34.8453
   Eigenvalues:   -78.5344    27.1820   175.4976
      8  H    Isotropic =    23.5838   Anisotropy =     9.7485
   XX=    24.9754   YX=    -0.6012   ZX=     4.8420
   XY=    -0.0068   YY=    23.7200   ZY=     6.9380
   XZ=     4.1564   YZ=     3.7525   ZZ=    22.0560
   Eigenvalues:    15.9327    24.7359    30.0828
      9  H    Isotropic =    24.0962   Anisotropy =     3.7809
   XX=    22.4551   YX=     1.6746   ZX=     1.2633
   XY=     1.5124   YY=    24.9054   ZY=    -1.8810
   XZ=     0.7997   YZ=    -1.4215   ZZ=    24.9282
   Eigenvalues:    20.9426    24.7293    26.6169
     10  H    Isotropic =    23.6351   Anisotropy =     8.0973
   XX=    21.4932   YX=    -1.5821   ZX=     0.2935
   XY=     0.2063   YY=    21.0239   ZY=    -2.0135
   XZ=     0.1620   YZ=    -2.4489   ZZ=    28.3883
   Eigenvalues:    20.1315    21.7405    29.0333
     11  C    Isotropic =    39.9908   Anisotropy =   205.4977
   XX=   -35.4320   YX=     4.9075   ZX=    25.1037
   XY=     1.5740   YY=    79.7358   ZY=   -90.8891
   XZ=    32.6858   YZ=  -104.5867   ZZ=    75.6687
   Eigenvalues:   -52.8448    -4.1721   176.9893
     12  C    Isotropic =    43.5269   Anisotropy =   196.2238
   XX=    24.0558   YX=   -18.1778   ZX=     2.9975
   XY=    -5.1068   YY=    49.3815   ZY=  -128.4449
   XZ=    -2.1778   YZ=  -112.6516   ZZ=    57.1434
   Eigenvalues:   -68.0590    24.2969   174.3427
     13  C    Isotropic =    50.7646   Anisotropy =   185.4840
   XX=   -35.6620   YX=   -46.4632   ZX=   -17.8851
   XY=   -45.4571   YY=    89.1693   ZY=   -81.4429
   XZ=   -14.8844   YZ=   -75.2765   ZZ=    98.7866
   Eigenvalues:   -62.8150    40.6882   174.4206
     14  C    Isotropic =    52.0305   Anisotropy =   186.3062
   XX=   -28.5409   YX=    15.3925   ZX=    43.3482
   XY=    14.0678   YY=    99.4453   ZY=   -79.9329
   XZ=    46.7372   YZ=   -83.3236   ZZ=    85.1870
   Eigenvalues:   -57.5966    37.4534   176.2346
     15  C    Isotropic =    52.8519   Anisotropy =   182.7714
   XX=    43.2920   YX=   -12.2891   ZX=     7.7526
   XY=   -12.3731   YY=    57.4799   ZY=  -116.2083
   XZ=     7.0753   YZ=  -114.9597   ZZ=    57.7838
   Eigenvalues:   -58.0732    41.9294   174.6995
     16  C    Isotropic =    42.9886   Anisotropy =   183.7262
   XX=   -43.2774   YX=   -47.2682   ZX=   -11.6875
   XY=   -46.1905   YY=    74.3730   ZY=   -84.7100
   XZ=   -24.9019   YZ=   -69.3863   ZZ=    97.8704
   Eigenvalues:   -72.3125    35.8056   165.4727
     17  H    Isotropic =    23.1496   Anisotropy =    10.0941
   XX=    22.0453   YX=    -3.1219   ZX=    -3.2684
   XY=    -2.5868   YY=    25.2137   ZY=     4.3191
   XZ=    -3.1734   YZ=     2.9410   ZZ=    22.1899
   Eigenvalues:    18.8178    20.7520    29.8790
     18  H    Isotropic =    23.8881   Anisotropy =     3.8013
   XX=    25.1657   YX=     0.4640   ZX=     0.0826
   XY=     0.7980   YY=    23.4235   ZY=     2.9286
   XZ=     0.7611   YZ=     2.5118   ZZ=    23.0750
   Eigenvalues:    20.5201    24.7219    26.4223
     19  H    Isotropic =    23.9532   Anisotropy =    14.7163
   XX=    32.2424   YX=    -1.9858   ZX=    -5.3539
   XY=    -2.6842   YY=    18.7835   ZY=     3.5666
   XZ=    -1.5539   YZ=     1.0675   ZZ=    20.8337
   Eigenvalues:    17.2744    20.8211    33.7641
     20  C    Isotropic =    37.0560   Anisotropy =   189.7265
   XX=    85.2717   YX=    75.1415   ZX=    35.2261
   XY=    82.6426   YY=    26.4596   ZY=    57.8585
   XZ=    42.4943   YZ=    46.3977   ZZ=    -0.5632
   Eigenvalues:   -45.6494    -6.7230   163.5404
     21  C    Isotropic =    56.1576   Anisotropy =   180.5212
   XX=    76.9949   YX=   100.6949   ZX=    55.4228
   XY=    93.4826   YY=    40.8189   ZY=    10.1668
   XZ=    59.7129   YZ=     0.6337   ZZ=    50.6590
   Eigenvalues:   -51.5205    43.4882   176.5050
     22  C    Isotropic =    51.9848   Anisotropy =   183.2455
   XX=   102.5225   YX=    58.5832   ZX=    68.1230
   XY=    54.1356   YY=    81.9103   ZY=    22.0784
   XZ=    74.8961   YZ=    23.9413   ZZ=   -28.4786
   Eigenvalues:   -59.9739    41.7798   174.1484
     23  C    Isotropic =    68.7474   Anisotropy =   159.0315
   XX=   116.4449   YX=    70.9316   ZX=    19.3496
   XY=    57.2891   YY=    54.6172   ZY=    57.3774
   XZ=    25.3671   YZ=    54.8247   ZZ=    35.1801
   Eigenvalues:   -17.8453    49.3191   174.7684
     24  C    Isotropic =    18.6593   Anisotropy =   143.8226
   XX=    42.6747   YX=    89.6158   ZX=    33.1447
   XY=    71.9962   YY=    -3.0212   ZY=     7.7165
   XZ=    34.0115   YZ=    10.6646   ZZ=    16.3244
   Eigenvalues:   -66.3315     7.7683   114.5411
     25  C    Isotropic =    50.6553   Anisotropy =   158.5712
   XX=    93.1988   YX=    43.3011   ZX=    63.6702
   XY=    55.4292   YY=    62.1841   ZY=    13.0795
   XZ=    64.9758   YZ=    31.2107   ZZ=    -3.4170
   Eigenvalues:   -35.6160    31.2124   156.3694
     26  C    Isotropic =    50.6558   Anisotropy =   158.5714
   XX=    93.1899   YX=   -43.2929   ZX=    63.6786
   XY=   -55.4209   YY=    62.1858   ZY=   -13.0987
   XZ=    64.9817   YZ=   -31.2258   ZZ=    -3.4083
   Eigenvalues:   -35.6157    31.2129   156.3701
     27  C    Isotropic =    18.6594   Anisotropy =   143.8233
   XX=    42.6591   YX=   -89.6155   ZX=    33.1575
   XY=   -71.9959   YY=    -3.0083   ZY=    -7.7175
   XZ=    34.0215   YZ=   -10.6650   ZZ=    16.3274
   Eigenvalues:   -66.3317     7.7683   114.5416
     28  C    Isotropic =    68.7482   Anisotropy =   159.0315
   XX=   116.4334   YX=   -70.9345   ZX=    19.3550
   XY=   -57.2911   YY=    54.6135   ZY=   -57.3823
   XZ=    25.3704   YZ=   -54.8302   ZZ=    35.1976
   Eigenvalues:   -17.8446    49.3199   174.7692
     29  C    Isotropic =    51.9849   Anisotropy =   183.2468
   XX=   102.5127   YX=   -58.5748   ZX=    68.1300
   XY=   -54.1269   YY=    81.9136   ZY=   -22.1019
   XZ=    74.9026   YZ=   -23.9653   ZZ=   -28.4717
   Eigenvalues:   -59.9742    41.7794   174.1494
     30  C    Isotropic =    56.1581   Anisotropy =   180.5199
   XX=    76.9791   YX=  -100.6868   ZX=    55.4376
   XY=   -93.4765   YY=    40.8342   ZY=   -10.1697
   XZ=    59.7283   YZ=    -0.6365   ZZ=    50.6611
   Eigenvalues:   -51.5193    43.4889   176.5047
     31  C    Isotropic =    37.0577   Anisotropy =   189.7261
   XX=    85.2615   YX=   -75.1403   ZX=    35.2327
   XY=   -82.6393   YY=    26.4556   ZY=   -57.8658
   XZ=    42.5045   YZ=   -46.4070   ZZ=    -0.5442
   Eigenvalues:   -45.6487    -6.7201   163.5418
     32  P    Isotropic =   291.1095   Anisotropy =    57.4079
   XX=   278.2735   YX=   -39.4089   ZX=   -10.0039
   XY=    -4.1093   YY=   309.9003   ZY=    30.5319
   XZ=    21.0249   YZ=    16.3884   ZZ=   285.1547
   Eigenvalues:   256.7320   287.2151   329.3814
     33  C    Isotropic =    41.8982   Anisotropy =   206.5073
   XX=   146.5440   YX=    72.7765   ZX=   -24.9046
   XY=    67.4080   YY=    24.4251   ZY=     8.5167
   XZ=   -18.8691   YZ=    11.0972   ZZ=   -45.2745
   Eigenvalues:   -53.4067    -0.4685   179.5697
     34  C    Isotropic =    41.3821   Anisotropy =   201.1738
   XX=   150.8421   YX=    63.6119   ZX=    13.8306
   XY=    62.3260   YY=     8.1265   ZY=   -54.6475
   XZ=    -1.1225   YZ=   -51.7773   ZZ=   -34.8221
   Eigenvalues:   -78.5338    27.1822   175.4980
     35  C    Isotropic =    52.7388   Anisotropy =   186.3799
   XX=   139.6685   YX=    85.0277   ZX=   -10.4069
   XY=    85.9308   YY=   -23.3625   ZY=     3.8291
   XZ=   -14.3459   YZ=     3.8328   ZZ=    41.9105
   Eigenvalues:   -60.6530    41.8775   176.9921
     36  C    Isotropic =    51.5462   Anisotropy =   189.4273
   XX=   149.5284   YX=    57.9330   ZX=   -36.0622
   XY=    58.9897   YY=    46.3663   ZY=    24.7149
   XZ=   -30.9701   YZ=    26.0846   ZZ=   -41.2560
   Eigenvalues:   -60.0225    36.8300   177.8311
     37  C    Isotropic =    52.4066   Anisotropy =   186.4066
   XX=   152.5578   YX=    57.2338   ZX=     2.1154
   XY=    59.0290   YY=    27.0915   ZY=   -49.8133
   XZ=     3.0096   YZ=   -49.3842   ZZ=   -22.4296
   Eigenvalues:   -58.7104    39.2525   176.6776
     38  C    Isotropic =    43.4692   Anisotropy =   186.5478
   XX=   128.6306   YX=    92.1660   ZX=     0.9867
   XY=    84.3919   YY=   -31.3133   ZY=    12.2384
   XZ=   -12.7648   YZ=     0.3710   ZZ=    33.0903
   Eigenvalues:   -71.0955    33.6687   167.8344
     39  H    Isotropic =    23.6351   Anisotropy =     8.0978
   XX=    21.4932   YX=     1.5818   ZX=     0.2933
   XY=    -0.2065   YY=    21.0245   ZY=     2.0151
   XZ=     0.1622   YZ=     2.4505   ZZ=    28.3876
   Eigenvalues:    20.1315    21.7402    29.0336
     40  H    Isotropic =    24.0963   Anisotropy =     3.7811
   XX=    22.4546   YX=    -1.6739   ZX=     1.2639
   XY=    -1.5118   YY=    24.9067   ZY=     1.8808
   XZ=     0.8002   YZ=     1.4214   ZZ=    24.9276
   Eigenvalues:    20.9427    24.7292    26.6170
     41  H    Isotropic =    23.5838   Anisotropy =     9.7485
   XX=    24.9753   YX=     0.6021   ZX=     4.8414
   XY=     0.0080   YY=    23.7179   ZY=    -6.9387
   XZ=     4.1564   YZ=    -3.7532   ZZ=    22.0582
   Eigenvalues:    15.9325    24.7361    30.0827
     42  C    Isotropic =    39.9906   Anisotropy =   205.4983
   XX=   -35.4344   YX=    -4.8949   ZX=    25.1102
   XY=    -1.5603   YY=    79.7723   ZY=    90.8874
   XZ=    32.6920   YZ=   104.5823   ZZ=    75.6338
   Eigenvalues:   -52.8451    -4.1727   176.9894
     43  C    Isotropic =    42.9889   Anisotropy =   183.7258
   XX=   -43.2682   YX=    47.2742   ZX=   -11.6937
   XY=    46.1924   YY=    74.3957   ZY=    84.7162
   XZ=   -24.9091   YZ=    69.3948   ZZ=    97.8391
   Eigenvalues:   -72.3120    35.8059   165.4728
     44  C    Isotropic =    52.8520   Anisotropy =   182.7712
   XX=    43.2940   YX=    12.2886   ZX=     7.7601
   XY=    12.3723   YY=    57.5229   ZY=   116.2075
   XZ=     7.0829   YZ=   114.9598   ZZ=    57.7393
   Eigenvalues:   -58.0729    41.9295   174.6995
     45  C    Isotropic =    52.0304   Anisotropy =   186.3061
   XX=   -28.5459   YX=   -15.3749   ZX=    43.3553
   XY=   -14.0484   YY=    99.4792   ZY=    79.9255
   XZ=    46.7450   YZ=    83.3163   ZZ=    85.1581
   Eigenvalues:   -57.5965    37.4533   176.2345
     46  C    Isotropic =    50.7646   Anisotropy =   185.4844
   XX=   -35.6527   YX=    46.4696   ZX=   -17.8902
   XY=    45.4644   YY=    89.1902   ZY=    81.4479
   XZ=   -14.8891   YZ=    75.2809   ZZ=    98.7564
   Eigenvalues:   -62.8153    40.6883   174.4209
     47  C    Isotropic =    43.5258   Anisotropy =   196.2245
   XX=    24.0565   YX=    18.1782   ZX=     3.0048
   XY=     5.1040   YY=    49.4229   ZY=   128.4470
   XZ=    -2.1694   YZ=   112.6536   ZZ=    57.0980
   Eigenvalues:   -68.0603    24.2955   174.3421
     48  H    Isotropic =    23.9532   Anisotropy =    14.7166
   XX=    32.2431   YX=     1.9837   ZX=    -5.3548
   XY=     2.6828   YY=    18.7820   ZY=    -3.5656
   XZ=    -1.5545   YZ=    -1.0668   ZZ=    20.8346
   Eigenvalues:    17.2745    20.8209    33.7643
     49  H    Isotropic =    23.8881   Anisotropy =     3.8013
   XX=    25.1655   YX=    -0.4641   ZX=     0.0825
   XY=    -0.7979   YY=    23.4226   ZY=    -2.9287
   XZ=     0.7611   YZ=    -2.5120   ZZ=    23.0762
   Eigenvalues:    20.5201    24.7219    26.4223
     50  H    Isotropic =    23.1496   Anisotropy =    10.0940
   XX=    22.0457   YX=     3.1216   ZX=    -3.2694
   XY=     2.5866   YY=    25.2118   ZY=    -4.3192
   XZ=    -3.1740   YZ=    -2.9412   ZZ=    22.1913
   Eigenvalues:    18.8179    20.7520    29.8789
     51  H    Isotropic =    25.2265   Anisotropy =    12.5298
   XX=    22.5142   YX=     3.0815   ZX=    -0.3302
   XY=     4.9779   YY=    25.5910   ZY=     5.0016
   XZ=     3.4106   YZ=     6.1672   ZZ=    27.5741
   Eigenvalues:    19.0587    23.0410    33.5796
     52  H    Isotropic =    24.6664   Anisotropy =     4.8211
   XX=    24.2027   YX=     2.0750   ZX=    -1.1446
   XY=     2.4616   YY=    25.9090   ZY=     2.0287
   XZ=    -0.4541   YZ=     1.9145   ZZ=    23.8876
   Eigenvalues:    21.2968    24.8220    27.8805
     53  H    Isotropic =    25.2903   Anisotropy =     5.9922
   XX=    23.7250   YX=    -0.3652   ZX=    -3.0108
   XY=     1.7043   YY=    25.3589   ZY=    -1.9636
   XZ=    -3.0620   YZ=    -0.8997   ZZ=    26.7870
   Eigenvalues:    21.8452    24.7406    29.2851
     54  O    Isotropic =   201.9208   Anisotropy =    97.7985
   XX=   239.3418   YX=   -45.9282   ZX=    -2.9221
   XY=    -9.4612   YY=   196.2788   ZY=   -41.6937
   XZ=     1.8201   YZ=   -88.8937   ZZ=   170.1419
   Eigenvalues:   113.9732   224.6695   267.1198
     55  C    Isotropic =   107.8563   Anisotropy =    62.2215
   XX=    81.1511   YX=    -4.8165   ZX=    -7.1642
   XY=   -13.5358   YY=   145.8752   ZY=    12.3868
   XZ=    -7.1395   YZ=     7.2208   ZZ=    96.5424
   Eigenvalues:    77.9362    96.2952   149.3373
     56  H    Isotropic =    27.0293   Anisotropy =     8.1116
   XX=    23.0637   YX=     0.3639   ZX=     4.2138
   XY=     1.9250   YY=    29.5718   ZY=     2.3463
   XZ=     3.8170   YZ=     1.6418   ZZ=    28.4524
   Eigenvalues:    20.9218    27.7291    32.4370
     57  H    Isotropic =    27.4886   Anisotropy =     6.1636
   XX=    22.5604   YX=    -1.6556   ZX=    -1.5957
   XY=    -1.2817   YY=    31.1234   ZY=     1.3066
   XZ=    -3.4297   YZ=    -0.7107   ZZ=    28.7820
   Eigenvalues:    21.4994    29.3687    31.5977
     58  C    Isotropic =   151.0970   Anisotropy =    14.4842
   XX=   147.2507   YX=     0.6348   ZX=     7.0459
   XY=    -0.5930   YY=   148.5189   ZY=     1.6728
   XZ=     6.0995   YZ=    -2.9512   ZZ=   157.5213
   Eigenvalues:   144.0250   148.5128   160.7531
     59  H    Isotropic =    29.7323   Anisotropy =     5.0669
   XX=    31.5743   YX=     2.2328   ZX=    -0.7356
   XY=     2.0693   YY=    29.3879   ZY=    -0.4261
   XZ=    -1.3704   YZ=    -0.0590   ZZ=    28.2347
   Eigenvalues:    27.7059    28.3807    33.1103
     60  H    Isotropic =    29.7425   Anisotropy =    11.1135
   XX=    25.5616   YX=     2.1646   ZX=     3.1906
   XY=     2.2361   YY=    35.7855   ZY=     2.1552
   XZ=     2.5222   YZ=     2.4608   ZZ=    27.8804
   Eigenvalues:    23.6111    28.4649    37.1516
     61  C    Isotropic =   151.0967   Anisotropy =    14.4847
   XX=   147.2504   YX=    -0.6336   ZX=     7.0459
   XY=     0.5938   YY=   148.5187   ZY=    -1.6723
   XZ=     6.1001   YZ=     2.9515   ZZ=   157.5211
   Eigenvalues:   144.0246   148.5123   160.7532
     62  H    Isotropic =    29.7323   Anisotropy =     5.0672
   XX=    31.5739   YX=    -2.2333   ZX=    -0.7352
   XY=    -2.0699   YY=    29.3884   ZY=     0.4260
   XZ=    -1.3701   YZ=     0.0589   ZZ=    28.2346
   Eigenvalues:    27.7058    28.3806    33.1104
     63  H    Isotropic =    29.7425   Anisotropy =    11.1136
   XX=    25.5611   YX=    -2.1631   ZX=     3.1907
   XY=    -2.2346   YY=    35.7853   ZY=    -2.1568
   XZ=     2.5223   YZ=    -2.4624   ZZ=    27.8812
   Eigenvalues:    23.6111    28.4649    37.1516
     64  C    Isotropic =   107.8558   Anisotropy =    62.2225
   XX=    81.1520   YX=     4.8224   ZX=    -7.1660
   XY=    13.5417   YY=   145.8703   ZY=   -12.3943
   XZ=    -7.1424   YZ=    -7.2281   ZZ=    96.5451
   Eigenvalues:    77.9353    96.2946   149.3375
     65  H    Isotropic =    27.0292   Anisotropy =     8.1118
   XX=    23.0634   YX=    -0.3629   ZX=     4.2137
   XY=    -1.9238   YY=    29.5713   ZY=    -2.3470
   XZ=     3.8172   YZ=    -1.6424   ZZ=    28.4530
   Eigenvalues:    20.9217    27.7289    32.4371
     66  O    Isotropic =   201.9227   Anisotropy =    97.7984
   XX=   239.3497   YX=    45.9241   ZX=    -2.9256
   XY=     9.4570   YY=   196.2956   ZY=    41.6893
   XZ=     1.8286   YZ=    88.8880   ZZ=   170.1227
   Eigenvalues:   113.9757   224.6707   267.1216
     67  H    Isotropic =    27.4885   Anisotropy =     6.1636
   XX=    22.5605   YX=     1.6561   ZX=    -1.5961
   XY=     1.2819   YY=    31.1229   ZY=    -1.3068
   XZ=    -3.4298   YZ=     0.7107   ZZ=    28.7821
   Eigenvalues:    21.4992    29.3687    31.5975
     68  H    Isotropic =    25.2902   Anisotropy =     5.9923
   XX=    23.7246   YX=     0.3649   ZX=    -3.0104
   XY=    -1.7049   YY=    25.3593   ZY=     1.9642
   XZ=    -3.0616   YZ=     0.9001   ZZ=    26.7865
   Eigenvalues:    21.8451    24.7404    29.2850
     69  H    Isotropic =    24.6664   Anisotropy =     4.8210
   XX=    24.2022   YX=    -2.0749   ZX=    -1.1443
   XY=    -2.4616   YY=    25.9088   ZY=    -2.0288
   XZ=    -0.4540   YZ=    -1.9148   ZZ=    23.8883
   Eigenvalues:    21.2969    24.8220    27.8804
     70  H    Isotropic =    25.2265   Anisotropy =    12.5295
   XX=    22.5137   YX=    -3.0811   ZX=    -0.3300
   XY=    -4.9769   YY=    25.5899   ZY=    -5.0011
   XZ=     3.4109   YZ=    -6.1672   ZZ=    27.5760
   Eigenvalues:    19.0590    23.0410    33.5795
     71  H    Isotropic =    23.9928   Anisotropy =     7.1955
   XX=    25.9804   YX=    -2.0329   ZX=    -2.5623
   XY=    -2.0807   YY=    22.4846   ZY=     3.0988
   XZ=    -1.3583   YZ=     2.6931   ZZ=    23.5133
   Eigenvalues:    20.0358    23.1528    28.7898
     72  H    Isotropic =    23.7044   Anisotropy =     5.7631
   XX=    27.0240   YX=    -0.8069   ZX=    -1.4525
   XY=    -0.4965   YY=    22.2419   ZY=     1.7637
   XZ=    -1.1888   YZ=     1.4555   ZZ=    21.8474
   Eigenvalues:    20.3720    23.1948    27.5465
     73  H    Isotropic =    24.1259   Anisotropy =     4.9942
   XX=    22.1567   YX=     0.8784   ZX=     2.7927
   XY=     1.5634   YY=    24.3601   ZY=     0.5850
   XZ=     1.8233   YZ=     0.9263   ZZ=    25.8610
   Eigenvalues:    20.8655    24.0568    27.4554
     74  H    Isotropic =    24.0493   Anisotropy =     6.6440
   XX=    23.2538   YX=     0.7076   ZX=     2.5263
   XY=    -0.1458   YY=    21.5731   ZY=    -0.1320
   XZ=     2.3876   YZ=     0.1163   ZZ=    27.3210
   Eigenvalues:    21.4663    22.2029    28.4786
     75  H    Isotropic =    23.7044   Anisotropy =     5.7630
   XX=    27.0241   YX=     0.8063   ZX=    -1.4526
   XY=     0.4959   YY=    22.2412   ZY=    -1.7637
   XZ=    -1.1889   YZ=    -1.4555   ZZ=    21.8481
   Eigenvalues:    20.3721    23.1948    27.5464
     76  H    Isotropic =    23.9928   Anisotropy =     7.1956
   XX=    25.9809   YX=     2.0322   ZX=    -2.5630
   XY=     2.0802   YY=    22.4831   ZY=    -3.0983
   XZ=    -1.3589   YZ=    -2.6927   ZZ=    23.5144
   Eigenvalues:    20.0358    23.1527    28.7899
     77  H    Isotropic =    24.0493   Anisotropy =     6.6444
   XX=    23.2536   YX=    -0.7071   ZX=     2.5268
   XY=     0.1463   YY=    21.5732   ZY=     0.1331
   XZ=     2.3879   YZ=    -0.1152   ZZ=    27.3211
   Eigenvalues:    21.4664    22.2026    28.4789
     78  H    Isotropic =    24.1259   Anisotropy =     4.9941
   XX=    22.1563   YX=    -0.8774   ZX=     2.7928
   XY=    -1.5627   YY=    24.3601   ZY=    -0.5850
   XZ=     1.8234   YZ=    -0.9262   ZZ=    25.8613
   Eigenvalues:    20.8655    24.0569    27.4553
 End of Minotr F.D. properties file   721 does not exist.
 End of Minotr F.D. properties file   722 does not exist.
 End of Minotr F.D. properties file   788 does not exist.

 **********************************************************************

            Population analysis using the SCF Density.

 **********************************************************************

 Orbital symmetries:
       Occupied  (A) (A) (A) (A) (A) (A) (A) (A) (A) (A) (A) (A)
                 (A) (A) (A) (A) (A) (A) (A) (A) (A) (A) (A) (A)
                 (A) (A) (A) (A) (A) (A) (A) (A) (A) (A) (A) (A)
                 (A) (A) (A) (A) (A) (A) (A) (A) (A) (A) (A) (A)
                 (A) (A) (A) (A) (A) (A) (A) (A) (A) (A) (A) (A)
                 (A) (A) (A) (A) (A) (A) (A) (A) (A) (A) (A) (A)
                 (A) (A) (A) (A) (A) (A) (A) (A) (A) (A) (A) (A)
                 (A) (A) (A) (A) (A) (A) (A) (A) (A) (A) (A) (A)
                 (A) (A) (A) (A) (A) (A) (A) (A) (A) (A) (A) (A)
                 (A) (A) (A) (A) (A) (A) (A) (A) (A) (A) (A) (A)
                 (A) (A) (A) (A) (A) (A) (A) (A) (A) (A) (A) (A)
                 (A) (A) (A) (A) (A) (A) (A) (A) (A) (A) (A) (A)
                 (A) (A) (A) (A) (A) (A) (A) (A) (A) (A) (A) (A)
                 (A) (A) (A) (A)
       Virtual   (A) (A) (A) (A) (A) (A) (A) (A) (A) (A) (A) (A)
                 (A) (A) (A) (A) (A) (A) (A) (A) (A) (A) (A) (A)
                 (A) (A) (A) (A) (A) (A) (A) (A) (A) (A) (A) (A)
                 (A) (A) (A) (A) (A) (A) (A) (A) (A) (A) (A) (A)
                 (A) (A) (A) (A) (A) (A) (A) (A) (A) (A) (A) (A)
                 (A) (A) (A) (A) (A) (A) (A) (A) (A) (A) (A) (A)
                 (A) (A) (A) (A) (A) (A) (A) (A) (A) (A) (A) (A)
                 (A) (A) (A) (A) (A) (A) (A) (A) (A) (A) (A) (A)
                 (A) (A) (A) (A) (A) (A) (A) (A) (A) (A) (A) (A)
                 (A) (A) (A) (A) (A) (A) (A) (A) (A) (A) (A) (A)
                 (A) (A) (A) (A) (A) (A) (A) (A) (A) (A) (A) (A)
                 (A) (A) (A) (A) (A) (A) (A) (A) (A) (A) (A) (A)
                 (A) (A) (A) (A) (A) (A) (A) (A) (A) (A) (A) (A)
                 (A) (A) (A) (A) (A) (A) (A) (A) (A) (A) (A) (A)
                 (A) (A) (A) (A) (A) (A) (A) (A) (A) (A) (A) (A)
                 (A) (A) (A) (A) (A) (A) (A) (A) (A) (A) (A) (A)
                 (A) (A) (A) (A) (A) (A) (A) (A) (A) (A) (A) (A)
                 (A) (A) (A) (A) (A) (A) (A) (A) (A) (A) (A) (A)
                 (A) (A) (A) (A) (A) (A) (A) (A) (A) (A) (A) (A)
                 (A) (A) (A) (A) (A) (A) (A) (A) (A) (A) (A) (A)
                 (A) (A) (A) (A) (A) (A) (A) (A) (A) (A) (A) (A)
                 (A) (A) (A) (A) (A) (A) (A) (A) (A) (A) (A) (A)
                 (A) (A) (A) (A) (A) (A) (A) (A) (A) (A) (A) (A)
                 (A) (A) (A) (A) (A) (A) (A) (A) (A) (A) (A) (A)
                 (A) (A) (A) (A) (A) (A) (A) (A) (A) (A) (A) (A)
                 (A) (A) (A) (A) (A) (A) (A) (A) (A) (A) (A) (A)
                 (A) (A) (A) (A) (A) (A) (A) (A) (A) (A) (A) (A)
                 (A) (A) (A) (A) (A) (A) (A) (A) (A) (A) (A) (A)
                 (A) (A) (A) (A) (A) (A) (A) (A) (A) (A) (A) (A)
                 (A) (A) (A) (A) (A) (A) (A) (A) (A) (A) (A) (A)
                 (A) (A) (A) (A) (A) (A) (A) (A) (A) (A) (A) (A)
                 (A) (A) (A) (A) (A) (A) (A) (A) (A) (A) (A) (A)
                 (A) (A) (A) (A) (A) (A) (A) (A) (A) (A) (A) (A)
                 (A) (A) (A) (A) (A) (A) (A) (A) (A) (A) (A) (A)
                 (A) (A) (A) (A) (A) (A) (A) (A) (A) (A) (A) (A)
                 (A) (A) (A) (A) (A) (A) (A) (A) (A) (A) (A) (A)
                 (A) (A) (A) (A) (A) (A) (A) (A) (A) (A) (A) (A)
                 (A) (A) (A) (A) (A) (A) (A) (A) (A) (A) (A) (A)
                 (A) (A) (A) (A) (A) (A) (A) (A) (A) (A) (A) (A)
                 (A) (A) (A) (A) (A) (A) (A) (A) (A) (A) (A) (A)
                 (A) (A) (A) (A) (A) (A) (A) (A) (A) (A) (A) (A)
                 (A) (A) (A) (A) (A) (A) (A) (A) (A) (A) (A) (A)
                 (A) (A) (A) (A) (A) (A) (A) (A) (A) (A) (A) (A)
                 (A) (A) (A) (A) (A) (A) (A) (A) (A) (A) (A) (A)
                 (A) (A) (A) (A) (A) (A) (A) (A) (A) (A) (A) (A)
                 (A) (A) (A) (A) (A) (A) (A) (A) (A) (A) (A) (A)
                 (A) (A) (A) (A) (A) (A) (A) (A) (A) (A) (A) (A)
                 (A) (A) (A) (A) (A) (A) (A) (A) (A) (A) (A) (A)
                 (A) (A) (A) (A) (A) (A) (A) (A) (A) (A) (A) (A)
                 (A) (A) (A) (A) (A) (A) (A) (A) (A) (A) (A) (A)
                 (A) (A) (A) (A) (A) (A) (A) (A) (A) (A) (A) (A)
                 (A) (A) (A) (A) (A) (A) (A) (A) (A) (A) (A) (A)
                 (A) (A) (A) (A) (A) (A) (A) (A) (A) (A) (A) (A)
                 (A) (A) (A) (A) (A) (A) (A) (A) (A) (A) (A) (A)
                 (A) (A) (A) (A) (A) (A) (A) (A) (A) (A) (A) (A)
                 (A) (A) (A) (A) (A) (A) (A) (A) (A) (A) (A) (A)
                 (A) (A) (A) (A) (A) (A) (A) (A) (A) (A) (A) (A)
                 (A) (A) (A) (A) (A) (A) (A) (A) (A) (A) (A) (A)
                 (A) (A) (A) (A) (A) (A) (A) (A) (A) (A) (A) (A)
                 (A) (A) (A) (A) (A) (A) (A) (A) (A) (A) (A) (A)
                 (A) (A) (A) (A) (A) (A) (A) (A) (A) (A) (A) (A)
                 (A) (A) (A) (A) (A) (A) (A) (A) (A) (A) (A) (A)
                 (A) (A) (A) (A) (A) (A) (A) (A) (A) (A) (A) (A)
                 (A) (A) (A) (A) (A) (A) (A) (A) (A) (A) (A) (A)
                 (A) (A) (A) (A) (A) (A) (A) (A) (A) (A) (A) (A)
                 (A) (A) (A) (A) (A) (A) (A) (A) (A) (A) (A) (A)
                 (A) (A) (A) (A) (A) (A) (A) (A) (A) (A) (A) (A)
                 (A) (A) (A) (A) (A) (A) (A) (A) (A) (A) (A) (A)
                 (A) (A) (A) (A) (A) (A) (A) (A) (A) (A) (A) (A)
                 (A) (A) (A) (A) (A) (A) (A) (A) (A) (A) (A) (A)
                 (A) (A) (A) (A) (A) (A) (A) (A) (A) (A) (A) (A)
                 (A) (A) (A) (A) (A) (A) (A) (A) (A) (A) (A) (A)
                 (A) (A) (A) (A) (A) (A) (A) (A) (A) (A) (A) (A)
                 (A) (A) (A) (A) (A) (A) (A) (A) (A) (A) (A) (A)
                 (A) (A) (A) (A) (A) (A) (A) (A) (A) (A) (A) (A)
                 (A) (A) (A) (A) (A) (A) (A) (A) (A) (A) (A) (A)
                 (A) (A) (A) (A) (A) (A) (A) (A) (A) (A) (A) (A)
                 (A) (A) (A) (A) (A) (A) (A) (A) (A) (A) (A) (A)
                 (A) (A) (A) (A) (A) (A) (A) (A) (A) (A) (A) (A)
                 (A) (A) (A) (A) (A) (A) (A) (A) (A) (A) (A) (A)
                 (A) (A) (A) (A) (A) (A) (A) (A) (A) (A) (A) (A)
                 (A) (A) (A) (A) (A) (A) (A) (A) (A) (A) (A) (A)
                 (A) (A) (A) (A) (A) (A) (A) (A) (A) (A) (A) (A)
                 (A) (A) (A) (A) (A) (A) (A) (A) (A) (A) (A) (A)
                 (A) (A) (A) (A) (A) (A) (A) (A) (A) (A) (A) (A)
                 (A) (A) (A) (A) (A) (A) (A) (A) (A) (A) (A) (A)
                 (A) (A) (A) (A) (A) (A) (A) (A) (A) (A) (A) (A)
                 (A) (A) (A) (A) (A) (A) (A) (A) (A) (A) (A) (A)
                 (A) (A) (A) (A) (A) (A) (A) (A) (A) (A) (A) (A)
                 (A) (A) (A) (A) (A) (A) (A) (A) (A) (A) (A) (A)
                 (A) (A) (A) (A) (A) (A) (A) (A) (A) (A) (A) (A)
                 (A) (A) (A) (A) (A) (A) (A) (A) (A) (A) (A) (A)
                 (A) (A) (A) (A) (A) (A) (A) (A) (A) (A) (A) (A)
                 (A) (A) (A) (A) (A) (A) (A) (A) (A) (A) (A) (A)
                 (A) (A) (A) (A) (A) (A) (A) (A) (A) (A) (A) (A)
                 (A) (A) (A) (A) (A) (A) (A) (A) (A) (A) (A) (A)
                 (A) (A) (A) (A) (A) (A) (A) (A) (A) (A) (A) (A)
                 (A) (A) (A) (A) (A) (A) (A) (A) (A) (A) (A) (A)
                 (A) (A) (A) (A) (A) (A) (A) (A) (A) (A) (A) (A)
                 (A) (A) (A) (A) (A) (A) (A) (A) (A) (A) (A) (A)
                 (A) (A) (A) (A) (A) (A) (A) (A) (A) (A) (A) (A)
                 (A) (A) (A) (A) (A) (A) (A) (A) (A) (A) (A) (A)
                 (A) (A) (A) (A) (A) (A) (A) (A) (A) (A) (A) (A)
                 (A) (A) (A) (A) (A) (A) (A) (A) (A) (A) (A) (A)
                 (A) (A) (A) (A) (A) (A) (A) (A) (A) (A) (A) (A)
                 (A) (A) (A) (A) (A) (A) (A) (A) (A) (A) (A) (A)
                 (A) (A) (A) (A) (A) (A) (A) (A) (A) (A) (A) (A)
                 (A) (A) (A) (A) (A) (A) (A) (A) (A) (A) (A) (A)
                 (A) (A) (A) (A) (A) (A) (A) (A) (A) (A) (A) (A)
                 (A) (A) (A) (A) (A) (A) (A) (A) (A) (A) (A) (A)
                 (A) (A) (A) (A) (A) (A) (A) (A) (A) (A) (A) (A)
                 (A) (A) (A) (A) (A) (A) (A) (A) (A) (A) (A) (A)
                 (A) (A) (A) (A) (A) (A) (A) (A) (A) (A) (A) (A)
                 (A) (A) (A) (A) (A) (A) (A) (A) (A) (A) (A) (A)
                 (A) (A) (A) (A) (A) (A) (A) (A) (A) (A) (A) (A)
                 (A) (A) (A) (A) (A) (A) (A) (A) (A) (A) (A) (A)
                 (A) (A) (A) (A) (A) (A) (A) (A) (A) (A) (A) (A)
                 (A) (A) (A) (A) (A) (A) (A) (A) (A) (A) (A) (A)
                 (A) (A) (A) (A)
 The electronic state is 1-A.
 Alpha  occ. eigenvalues --  -77.18977 -77.18976 -19.22907 -19.22906 -10.28246
 Alpha  occ. eigenvalues --  -10.28246 -10.28138 -10.28138 -10.23643 -10.23643
 Alpha  occ. eigenvalues --  -10.23516 -10.23494 -10.23435 -10.23405 -10.23350
 Alpha  occ. eigenvalues --  -10.23350 -10.23177 -10.23177 -10.23001 -10.23001
 Alpha  occ. eigenvalues --  -10.22965 -10.22965 -10.22890 -10.22890 -10.22798
 Alpha  occ. eigenvalues --  -10.22798 -10.22770 -10.22770 -10.22751 -10.22751
 Alpha  occ. eigenvalues --  -10.22617 -10.22617 -10.22609 -10.22609 -10.22557
 Alpha  occ. eigenvalues --  -10.22557 -10.22464 -10.22464 -10.22364 -10.22364
 Alpha  occ. eigenvalues --  -10.22036 -10.22036 -10.21425 -10.21425  -6.58600
 Alpha  occ. eigenvalues --   -6.58600  -4.72188  -4.72188  -4.72184  -4.72184
 Alpha  occ. eigenvalues --   -4.71736  -4.71736  -1.08924  -1.07989  -0.88593
 Alpha  occ. eigenvalues --   -0.87683  -0.87441  -0.87078  -0.87019  -0.86066
 Alpha  occ. eigenvalues --   -0.82971  -0.79641  -0.78627  -0.78098  -0.77332
 Alpha  occ. eigenvalues --   -0.76470  -0.76465  -0.76176  -0.76175  -0.75775
 Alpha  occ. eigenvalues --   -0.75733  -0.75168  -0.74818  -0.71887  -0.68083
 Alpha  occ. eigenvalues --   -0.66404  -0.65718  -0.63293  -0.62513  -0.62004
 Alpha  occ. eigenvalues --   -0.61989  -0.61513  -0.61432  -0.60966  -0.60919
 Alpha  occ. eigenvalues --   -0.60086  -0.59398  -0.58865  -0.56847  -0.56156
 Alpha  occ. eigenvalues --   -0.54197  -0.53326  -0.52590  -0.52562  -0.50860
 Alpha  occ. eigenvalues --   -0.50645  -0.50238  -0.49777  -0.49335  -0.48325
 Alpha  occ. eigenvalues --   -0.48113  -0.47032  -0.46370  -0.46262  -0.46009
 Alpha  occ. eigenvalues --   -0.45956  -0.45951  -0.45868  -0.45417  -0.45226
 Alpha  occ. eigenvalues --   -0.44325  -0.43480  -0.43261  -0.43044  -0.43010
 Alpha  occ. eigenvalues --   -0.42732  -0.42730  -0.41938  -0.41598  -0.41394
 Alpha  occ. eigenvalues --   -0.41050  -0.40797  -0.39475  -0.39158  -0.38640
 Alpha  occ. eigenvalues --   -0.38516  -0.38229  -0.37530  -0.37323  -0.37283
 Alpha  occ. eigenvalues --   -0.37007  -0.36412  -0.36014  -0.35681  -0.35256
 Alpha  occ. eigenvalues --   -0.35237  -0.35067  -0.35040  -0.34573  -0.34309
 Alpha  occ. eigenvalues --   -0.33802  -0.33186  -0.32637  -0.32366  -0.31177
 Alpha  occ. eigenvalues --   -0.30977  -0.28699  -0.27963  -0.26620  -0.26607
 Alpha  occ. eigenvalues --   -0.26378  -0.26374  -0.26071  -0.26007  -0.25621
 Alpha  occ. eigenvalues --   -0.25153  -0.23247  -0.22018  -0.21708  -0.18512
 Alpha virt. eigenvalues --   -0.03006  -0.02665  -0.02397  -0.01615  -0.01411
 Alpha virt. eigenvalues --   -0.00970  -0.00710  -0.00540   0.00119   0.00515
 Alpha virt. eigenvalues --    0.01404   0.01823   0.03584   0.04688   0.05363
 Alpha virt. eigenvalues --    0.05691   0.06012   0.06310   0.06836   0.06921
 Alpha virt. eigenvalues --    0.07529   0.07667   0.08132   0.08188   0.08806
 Alpha virt. eigenvalues --    0.09176   0.09195   0.09439   0.09564   0.09942
 Alpha virt. eigenvalues --    0.09978   0.10357   0.10505   0.10850   0.10923
 Alpha virt. eigenvalues --    0.11228   0.11418   0.11596   0.12168   0.12347
 Alpha virt. eigenvalues --    0.12464   0.12696   0.12761   0.12934   0.13442
 Alpha virt. eigenvalues --    0.13463   0.13966   0.13978   0.14210   0.14270
 Alpha virt. eigenvalues --    0.14405   0.14653   0.14869   0.15407   0.15607
 Alpha virt. eigenvalues --    0.15929   0.16238   0.16766   0.17016   0.17034
 Alpha virt. eigenvalues --    0.17215   0.17895   0.18634   0.18762   0.19261
 Alpha virt. eigenvalues --    0.19453   0.20178   0.20346   0.20829   0.20888
 Alpha virt. eigenvalues --    0.21404   0.21496   0.21766   0.21874   0.22467
 Alpha virt. eigenvalues --    0.22505   0.22643   0.22801   0.22952   0.23119
 Alpha virt. eigenvalues --    0.23214   0.23353   0.23601   0.23841   0.24052
 Alpha virt. eigenvalues --    0.24222   0.24415   0.24618   0.24771   0.24907
 Alpha virt. eigenvalues --    0.25091   0.25138   0.25264   0.25587   0.26013
 Alpha virt. eigenvalues --    0.26116   0.26304   0.26874   0.26952   0.26968
 Alpha virt. eigenvalues --    0.27305   0.27441   0.27963   0.28258   0.28563
 Alpha virt. eigenvalues --    0.28609   0.29137   0.29272   0.29845   0.29995
 Alpha virt. eigenvalues --    0.30126   0.30134   0.30859   0.31044   0.31214
 Alpha virt. eigenvalues --    0.31536   0.31601   0.31660   0.32457   0.32534
 Alpha virt. eigenvalues --    0.32766   0.33003   0.33141   0.33486   0.33735
 Alpha virt. eigenvalues --    0.33882   0.34200   0.34386   0.34558   0.34894
 Alpha virt. eigenvalues --    0.35054   0.35247   0.35600   0.35740   0.36077
 Alpha virt. eigenvalues --    0.36285   0.36466   0.36759   0.37102   0.37162
 Alpha virt. eigenvalues --    0.37331   0.37776   0.37938   0.38210   0.38365
 Alpha virt. eigenvalues --    0.38734   0.38761   0.39109   0.39442   0.39571
 Alpha virt. eigenvalues --    0.39874   0.40042   0.40060   0.40385   0.40816
 Alpha virt. eigenvalues --    0.40851   0.40905   0.41222   0.41351   0.41540
 Alpha virt. eigenvalues --    0.41824   0.42084   0.42314   0.42422   0.42586
 Alpha virt. eigenvalues --    0.42661   0.42898   0.42960   0.43392   0.43658
 Alpha virt. eigenvalues --    0.43873   0.43879   0.44021   0.44217   0.44308
 Alpha virt. eigenvalues --    0.44724   0.44878   0.45149   0.45157   0.45326
 Alpha virt. eigenvalues --    0.45451   0.45709   0.45793   0.45967   0.46147
 Alpha virt. eigenvalues --    0.46159   0.46327   0.46382   0.46679   0.47204
 Alpha virt. eigenvalues --    0.47261   0.47467   0.47725   0.47769   0.48066
 Alpha virt. eigenvalues --    0.48344   0.48548   0.48720   0.48737   0.49337
 Alpha virt. eigenvalues --    0.49486   0.49506   0.49792   0.49919   0.50221
 Alpha virt. eigenvalues --    0.50248   0.50314   0.50558   0.50594   0.50901
 Alpha virt. eigenvalues --    0.51315   0.51505   0.51764   0.52042   0.52515
 Alpha virt. eigenvalues --    0.52732   0.52865   0.53217   0.53420   0.53515
 Alpha virt. eigenvalues --    0.53749   0.54007   0.54097   0.54409   0.54572
 Alpha virt. eigenvalues --    0.54902   0.55391   0.55646   0.55765   0.56420
 Alpha virt. eigenvalues --    0.56424   0.56503   0.57310   0.57433   0.57836
 Alpha virt. eigenvalues --    0.57890   0.58211   0.58722   0.59684   0.59800
 Alpha virt. eigenvalues --    0.59829   0.60189   0.60652   0.61093   0.61181
 Alpha virt. eigenvalues --    0.61392   0.61639   0.62416   0.63251   0.64201
 Alpha virt. eigenvalues --    0.64274   0.64569   0.64723   0.64741   0.65637
 Alpha virt. eigenvalues --    0.65698   0.66053   0.66457   0.66458   0.67148
 Alpha virt. eigenvalues --    0.67399   0.67550   0.67792   0.68046   0.68178
 Alpha virt. eigenvalues --    0.68321   0.68860   0.69149   0.69254   0.69338
 Alpha virt. eigenvalues --    0.69560   0.69653   0.69835   0.70041   0.70623
 Alpha virt. eigenvalues --    0.70793   0.71349   0.71377   0.71654   0.71940
 Alpha virt. eigenvalues --    0.72485   0.73249   0.73317   0.73437   0.73508
 Alpha virt. eigenvalues --    0.73822   0.74026   0.74124   0.74388   0.74522
 Alpha virt. eigenvalues --    0.75047   0.75327   0.75626   0.76056   0.76458
 Alpha virt. eigenvalues --    0.76515   0.77314   0.77365   0.77570   0.78157
 Alpha virt. eigenvalues --    0.78374   0.78397   0.78758   0.79200   0.79543
 Alpha virt. eigenvalues --    0.79750   0.79846   0.80150   0.80656   0.80743
 Alpha virt. eigenvalues --    0.80894   0.81343   0.81819   0.82071   0.82258
 Alpha virt. eigenvalues --    0.82882   0.83003   0.83340   0.83644   0.84045
 Alpha virt. eigenvalues --    0.84193   0.84306   0.84774   0.85040   0.85361
 Alpha virt. eigenvalues --    0.85841   0.85910   0.86697   0.86858   0.87486
 Alpha virt. eigenvalues --    0.87652   0.88060   0.88354   0.88417   0.88817
 Alpha virt. eigenvalues --    0.88867   0.89789   0.90615   0.90659   0.90912
 Alpha virt. eigenvalues --    0.91682   0.91944   0.92071   0.92523   0.92715
 Alpha virt. eigenvalues --    0.93124   0.93441   0.94011   0.94027   0.94283
 Alpha virt. eigenvalues --    0.94754   0.94790   0.95404   0.96219   0.96389
 Alpha virt. eigenvalues --    0.96637   0.96739   0.96872   0.97170   0.97210
 Alpha virt. eigenvalues --    0.97989   0.97992   0.98695   0.99079   0.99228
 Alpha virt. eigenvalues --    0.99546   1.00310   1.00616   1.00732   1.01400
 Alpha virt. eigenvalues --    1.01930   1.02960   1.02983   1.03219   1.03986
 Alpha virt. eigenvalues --    1.04330   1.04860   1.04965   1.05935   1.06360
 Alpha virt. eigenvalues --    1.06457   1.07163   1.07960   1.08136   1.08437
 Alpha virt. eigenvalues --    1.08930   1.09067   1.09578   1.09628   1.09702
 Alpha virt. eigenvalues --    1.10248   1.10449   1.10600   1.11566   1.11571
 Alpha virt. eigenvalues --    1.12038   1.12673   1.12746   1.13143   1.13396
 Alpha virt. eigenvalues --    1.13821   1.14312   1.14670   1.14885   1.15377
 Alpha virt. eigenvalues --    1.16125   1.16363   1.16468   1.16681   1.17445
 Alpha virt. eigenvalues --    1.17579   1.17789   1.18001   1.18184   1.18436
 Alpha virt. eigenvalues --    1.19134   1.19312   1.19896   1.20036   1.20376
 Alpha virt. eigenvalues --    1.20788   1.21209   1.21635   1.21649   1.22389
 Alpha virt. eigenvalues --    1.22516   1.22908   1.23578   1.23756   1.23780
 Alpha virt. eigenvalues --    1.24043   1.24851   1.25129   1.25248   1.25297
 Alpha virt. eigenvalues --    1.25878   1.25987   1.26124   1.26202   1.26852
 Alpha virt. eigenvalues --    1.26979   1.27038   1.27454   1.27484   1.27782
 Alpha virt. eigenvalues --    1.27884   1.28257   1.28455   1.29526   1.29842
 Alpha virt. eigenvalues --    1.29906   1.30174   1.30387   1.30763   1.31032
 Alpha virt. eigenvalues --    1.31559   1.31759   1.31941   1.32355   1.32517
 Alpha virt. eigenvalues --    1.32858   1.33251   1.33764   1.33948   1.34024
 Alpha virt. eigenvalues --    1.35034   1.35115   1.35469   1.35735   1.36083
 Alpha virt. eigenvalues --    1.37010   1.37300   1.38090   1.38446   1.38550
 Alpha virt. eigenvalues --    1.39377   1.39864   1.40267   1.41010   1.41114
 Alpha virt. eigenvalues --    1.41683   1.41859   1.42564   1.43110   1.43443
 Alpha virt. eigenvalues --    1.44214   1.44731   1.45120   1.45374   1.46154
 Alpha virt. eigenvalues --    1.46376   1.46563   1.46935   1.47503   1.47576
 Alpha virt. eigenvalues --    1.48010   1.48089   1.48910   1.49023   1.50020
 Alpha virt. eigenvalues --    1.50049   1.50188   1.50678   1.50847   1.50925
 Alpha virt. eigenvalues --    1.51232   1.52111   1.52271   1.52410   1.52729
 Alpha virt. eigenvalues --    1.52761   1.53459   1.54154   1.54313   1.54727
 Alpha virt. eigenvalues --    1.54913   1.55031   1.55615   1.55869   1.55942
 Alpha virt. eigenvalues --    1.56857   1.57082   1.57254   1.57385   1.58039
 Alpha virt. eigenvalues --    1.58364   1.59023   1.59223   1.59621   1.59623
 Alpha virt. eigenvalues --    1.60181   1.60724   1.60926   1.60997   1.62184
 Alpha virt. eigenvalues --    1.62296   1.62489   1.62590   1.63191   1.63420
 Alpha virt. eigenvalues --    1.63759   1.64025   1.64038   1.64241   1.64875
 Alpha virt. eigenvalues --    1.64948   1.65262   1.65349   1.65637   1.65859
 Alpha virt. eigenvalues --    1.66903   1.67423   1.67644   1.68096   1.68298
 Alpha virt. eigenvalues --    1.68536   1.68947   1.69511   1.69554   1.69666
 Alpha virt. eigenvalues --    1.70103   1.70140   1.70859   1.70992   1.71200
 Alpha virt. eigenvalues --    1.71669   1.71883   1.72054   1.72120   1.72207
 Alpha virt. eigenvalues --    1.72540   1.72667   1.73117   1.73438   1.73788
 Alpha virt. eigenvalues --    1.73807   1.74087   1.74184   1.74496   1.74920
 Alpha virt. eigenvalues --    1.75502   1.75548   1.76106   1.76663   1.76850
 Alpha virt. eigenvalues --    1.77104   1.77877   1.77959   1.78288   1.78644
 Alpha virt. eigenvalues --    1.78848   1.79099   1.79306   1.79563   1.80423
 Alpha virt. eigenvalues --    1.80653   1.81278   1.81685   1.81849   1.81945
 Alpha virt. eigenvalues --    1.82410   1.83059   1.83261   1.83932   1.84217
 Alpha virt. eigenvalues --    1.84822   1.85245   1.85977   1.86208   1.86709
 Alpha virt. eigenvalues --    1.87341   1.87545   1.87862   1.88119   1.88322
 Alpha virt. eigenvalues --    1.88835   1.89234   1.89269   1.89917   1.90336
 Alpha virt. eigenvalues --    1.90857   1.91421   1.92423   1.92625   1.92709
 Alpha virt. eigenvalues --    1.92926   1.93582   1.93777   1.94538   1.94956
 Alpha virt. eigenvalues --    1.95228   1.95386   1.95831   1.96861   1.97288
 Alpha virt. eigenvalues --    1.97584   1.97748   1.98311   1.98995   1.99820
 Alpha virt. eigenvalues --    2.00602   2.00854   2.01418   2.01668   2.02033
 Alpha virt. eigenvalues --    2.02614   2.02915   2.03491   2.03570   2.04350
 Alpha virt. eigenvalues --    2.04412   2.04870   2.05159   2.05575   2.06170
 Alpha virt. eigenvalues --    2.07251   2.07262   2.07542   2.08783   2.08847
 Alpha virt. eigenvalues --    2.09351   2.10272   2.10830   2.11102   2.11486
 Alpha virt. eigenvalues --    2.11507   2.12303   2.12579   2.12610   2.12683
 Alpha virt. eigenvalues --    2.13481   2.13576   2.14062   2.14070   2.14368
 Alpha virt. eigenvalues --    2.15018   2.15228   2.15923   2.16065   2.16270
 Alpha virt. eigenvalues --    2.17181   2.17481   2.17497   2.18078   2.18451
 Alpha virt. eigenvalues --    2.18458   2.19150   2.19411   2.19621   2.19943
 Alpha virt. eigenvalues --    2.20749   2.21273   2.21452   2.21584   2.22354
 Alpha virt. eigenvalues --    2.23385   2.23944   2.24153   2.24164   2.24934
 Alpha virt. eigenvalues --    2.25159   2.25825   2.26181   2.26832   2.26936
 Alpha virt. eigenvalues --    2.27265   2.27460   2.28531   2.28657   2.28754
 Alpha virt. eigenvalues --    2.29588   2.30582   2.31457   2.32349   2.32876
 Alpha virt. eigenvalues --    2.33081   2.34254   2.34855   2.35044   2.35238
 Alpha virt. eigenvalues --    2.35842   2.35912   2.36348   2.37955   2.39002
 Alpha virt. eigenvalues --    2.39026   2.40735   2.40903   2.41254   2.41822
 Alpha virt. eigenvalues --    2.42232   2.42777   2.43087   2.43640   2.43996
 Alpha virt. eigenvalues --    2.44317   2.44401   2.45136   2.45572   2.45655
 Alpha virt. eigenvalues --    2.46566   2.47079   2.47349   2.47787   2.47880
 Alpha virt. eigenvalues --    2.47946   2.48693   2.49079   2.49834   2.49843
 Alpha virt. eigenvalues --    2.50500   2.50569   2.51135   2.51945   2.52601
 Alpha virt. eigenvalues --    2.52620   2.53435   2.54353   2.54443   2.54707
 Alpha virt. eigenvalues --    2.54845   2.55210   2.55798   2.56048   2.56294
 Alpha virt. eigenvalues --    2.56934   2.57080   2.57312   2.57611   2.58649
 Alpha virt. eigenvalues --    2.58676   2.59897   2.60317   2.60916   2.61328
 Alpha virt. eigenvalues --    2.61797   2.61974   2.62126   2.62245   2.62438
 Alpha virt. eigenvalues --    2.62917   2.63155   2.63180   2.63502   2.63923
 Alpha virt. eigenvalues --    2.64321   2.64357   2.65066   2.65145   2.65356
 Alpha virt. eigenvalues --    2.65950   2.66297   2.66357   2.66453   2.66575
 Alpha virt. eigenvalues --    2.67162   2.67243   2.67340   2.67474   2.67698
 Alpha virt. eigenvalues --    2.68099   2.68376   2.68433   2.69066   2.69331
 Alpha virt. eigenvalues --    2.69365   2.69770   2.69907   2.70604   2.70705
 Alpha virt. eigenvalues --    2.71374   2.71715   2.71968   2.72128   2.72383
 Alpha virt. eigenvalues --    2.72558   2.72862   2.73263   2.73638   2.73711
 Alpha virt. eigenvalues --    2.74200   2.74230   2.74605   2.74658   2.74999
 Alpha virt. eigenvalues --    2.75420   2.76007   2.76051   2.76409   2.76512
 Alpha virt. eigenvalues --    2.76579   2.77070   2.77318   2.77815   2.78021
 Alpha virt. eigenvalues --    2.78049   2.78277   2.78573   2.78799   2.79128
 Alpha virt. eigenvalues --    2.79531   2.79892   2.80019   2.80382   2.80588
 Alpha virt. eigenvalues --    2.80679   2.81209   2.81737   2.81854   2.81995
 Alpha virt. eigenvalues --    2.82351   2.82827   2.82912   2.83905   2.83995
 Alpha virt. eigenvalues --    2.84294   2.84442   2.84926   2.84987   2.85353
 Alpha virt. eigenvalues --    2.85936   2.85978   2.86326   2.86705   2.86833
 Alpha virt. eigenvalues --    2.86929   2.87218   2.87714   2.88020   2.88120
 Alpha virt. eigenvalues --    2.88226   2.88485   2.88756   2.89319   2.89920
 Alpha virt. eigenvalues --    2.90116   2.90803   2.91259   2.91382   2.91493
 Alpha virt. eigenvalues --    2.92419   2.92666   2.93071   2.93438   2.93797
 Alpha virt. eigenvalues --    2.93904   2.94829   2.94884   2.95161   2.95695
 Alpha virt. eigenvalues --    2.96015   2.96270   2.96937   2.96998   2.97628
 Alpha virt. eigenvalues --    2.98026   2.98666   2.99064   2.99164   2.99549
 Alpha virt. eigenvalues --    3.00195   3.00285   3.01473   3.03016   3.03176
 Alpha virt. eigenvalues --    3.03493   3.03646   3.03660   3.04448   3.04548
 Alpha virt. eigenvalues --    3.05379   3.06138   3.06520   3.06832   3.07374
 Alpha virt. eigenvalues --    3.08220   3.08754   3.08757   3.09353   3.09756
 Alpha virt. eigenvalues --    3.10012   3.11013   3.11320   3.11552   3.12483
 Alpha virt. eigenvalues --    3.12582   3.13044   3.13437   3.13567   3.13774
 Alpha virt. eigenvalues --    3.13823   3.14234   3.14296   3.14604   3.14802
 Alpha virt. eigenvalues --    3.15310   3.15525   3.16078   3.16115   3.16553
 Alpha virt. eigenvalues --    3.17096   3.17413   3.17520   3.17592   3.17878
 Alpha virt. eigenvalues --    3.17973   3.18114   3.18755   3.18842   3.18932
 Alpha virt. eigenvalues --    3.19068   3.19593   3.19745   3.20326   3.20567
 Alpha virt. eigenvalues --    3.20961   3.21251   3.21320   3.21888   3.22695
 Alpha virt. eigenvalues --    3.22710   3.23004   3.23085   3.23901   3.24045
 Alpha virt. eigenvalues --    3.24207   3.24510   3.24719   3.25026   3.25508
 Alpha virt. eigenvalues --    3.25766   3.26183   3.26610   3.26735   3.26894
 Alpha virt. eigenvalues --    3.27370   3.27601   3.27625   3.28710   3.28776
 Alpha virt. eigenvalues --    3.29266   3.29794   3.29931   3.30065   3.30443
 Alpha virt. eigenvalues --    3.30706   3.30743   3.31359   3.31445   3.31788
 Alpha virt. eigenvalues --    3.31954   3.32273   3.32493   3.32831   3.32832
 Alpha virt. eigenvalues --    3.33044   3.33715   3.34293   3.34572   3.34844
 Alpha virt. eigenvalues --    3.34906   3.35349   3.35964   3.36138   3.36470
 Alpha virt. eigenvalues --    3.36707   3.37227   3.37264   3.37337   3.37951
 Alpha virt. eigenvalues --    3.37953   3.38685   3.38689   3.39469   3.39569
 Alpha virt. eigenvalues --    3.39692   3.39763   3.40093   3.40125   3.40439
 Alpha virt. eigenvalues --    3.40563   3.40906   3.41439   3.41883   3.42016
 Alpha virt. eigenvalues --    3.42658   3.42706   3.42949   3.43190   3.43303
 Alpha virt. eigenvalues --    3.43782   3.43817   3.44069   3.44373   3.44623
 Alpha virt. eigenvalues --    3.45140   3.45256   3.45344   3.45593   3.45996
 Alpha virt. eigenvalues --    3.46328   3.47123   3.47393   3.47520   3.47806
 Alpha virt. eigenvalues --    3.47809   3.48032   3.48082   3.48944   3.49152
 Alpha virt. eigenvalues --    3.49162   3.49475   3.49806   3.50142   3.50391
 Alpha virt. eigenvalues --    3.50851   3.51315   3.51520   3.52266   3.52389
 Alpha virt. eigenvalues --    3.52485   3.52867   3.52982   3.53551   3.53695
 Alpha virt. eigenvalues --    3.54284   3.54343   3.54789   3.54845   3.55038
 Alpha virt. eigenvalues --    3.55179   3.55877   3.55959   3.56330   3.56698
 Alpha virt. eigenvalues --    3.56769   3.56852   3.57663   3.58084   3.58133
 Alpha virt. eigenvalues --    3.58465   3.58972   3.59298   3.59533   3.59821
 Alpha virt. eigenvalues --    3.59856   3.59968   3.60868   3.61106   3.61620
 Alpha virt. eigenvalues --    3.62015   3.62941   3.63129   3.63235   3.64104
 Alpha virt. eigenvalues --    3.64373   3.64851   3.65875   3.66217   3.66920
 Alpha virt. eigenvalues --    3.67063   3.67761   3.68254   3.69771   3.70145
 Alpha virt. eigenvalues --    3.70428   3.71010   3.71365   3.71540   3.71810
 Alpha virt. eigenvalues --    3.72549   3.72712   3.73181   3.73299   3.74083
 Alpha virt. eigenvalues --    3.74660   3.75461   3.75716   3.75964   3.75972
 Alpha virt. eigenvalues --    3.77322   3.78127   3.78219   3.78573   3.79064
 Alpha virt. eigenvalues --    3.79340   3.79812   3.81216   3.82128   3.83044
 Alpha virt. eigenvalues --    3.83227   3.84941   3.85159   3.87512   3.87735
 Alpha virt. eigenvalues --    3.87886   3.88671   3.89295   3.89845   3.90431
 Alpha virt. eigenvalues --    3.90607   3.92599   3.93123   3.93406   3.94154
 Alpha virt. eigenvalues --    3.94466   3.95217   3.95537   3.95865   3.96042
 Alpha virt. eigenvalues --    3.96898   3.97475   3.97493   3.98747   3.98980
 Alpha virt. eigenvalues --    3.99674   4.02127   4.02355   4.02997   4.03141
 Alpha virt. eigenvalues --    4.03802   4.03995   4.04392   4.05015   4.05700
 Alpha virt. eigenvalues --    4.05903   4.06542   4.06718   4.06879   4.07959
 Alpha virt. eigenvalues --    4.08303   4.09479   4.10330   4.11234   4.11754
 Alpha virt. eigenvalues --    4.11966   4.12643   4.12755   4.13183   4.13325
 Alpha virt. eigenvalues --    4.13381   4.14107   4.14135   4.15094   4.15825
 Alpha virt. eigenvalues --    4.16135   4.17026   4.18469   4.18693   4.18927
 Alpha virt. eigenvalues --    4.19573   4.19748   4.20084   4.20558   4.20570
 Alpha virt. eigenvalues --    4.20852   4.20980   4.21261   4.21463   4.21608
 Alpha virt. eigenvalues --    4.21970   4.22314   4.22518   4.23071   4.23148
 Alpha virt. eigenvalues --    4.23203   4.23789   4.23876   4.24264   4.24403
 Alpha virt. eigenvalues --    4.24875   4.25234   4.25624   4.25636   4.26288
 Alpha virt. eigenvalues --    4.26366   4.27047   4.27320   4.27786   4.28112
 Alpha virt. eigenvalues --    4.28530   4.28669   4.29547   4.29823   4.30294
 Alpha virt. eigenvalues --    4.31185   4.31679   4.32842   4.33580   4.34173
 Alpha virt. eigenvalues --    4.34551   4.35063   4.35245   4.35541   4.36010
 Alpha virt. eigenvalues --    4.37168   4.37414   4.38132   4.38297   4.38879
 Alpha virt. eigenvalues --    4.39062   4.40862   4.42131   4.42191   4.44327
 Alpha virt. eigenvalues --    4.44352   4.47594   4.48156   4.50210   4.53010
 Alpha virt. eigenvalues --    4.53833   4.54504   4.57250   4.58399   4.59194
 Alpha virt. eigenvalues --    4.60718   4.61407   4.61679   4.61868   4.62962
 Alpha virt. eigenvalues --    4.63630   4.64200   4.64621   4.64840   4.65403
 Alpha virt. eigenvalues --    4.65472   4.66161   4.66180   4.66754   4.68014
 Alpha virt. eigenvalues --    4.68169   4.68260   4.70788   4.71412   4.73028
 Alpha virt. eigenvalues --    4.73499   4.74074   4.74189   4.74609   4.75790
 Alpha virt. eigenvalues --    4.75834   4.76989   4.78606   4.79213   4.79255
 Alpha virt. eigenvalues --    4.84611   4.86090   4.86104   4.86483   4.86793
 Alpha virt. eigenvalues --    4.88493   4.88874   4.89951   4.92921   4.93164
 Alpha virt. eigenvalues --    4.94886   4.95246   4.95468   4.96157   4.96710
 Alpha virt. eigenvalues --    4.97027   4.98052   4.99034   5.00241   5.00497
 Alpha virt. eigenvalues --    5.03644   5.06085   5.09247   5.11853   5.12665
 Alpha virt. eigenvalues --    5.12727   5.14106   5.14294   5.14642   5.14832
 Alpha virt. eigenvalues --    5.15246   5.15490   5.15818   5.16024   5.20518
 Alpha virt. eigenvalues --    5.20671   5.21771   5.26294   5.27405   5.27627
 Alpha virt. eigenvalues --    5.28376   5.28844   5.35391   5.35428   5.36253
 Alpha virt. eigenvalues --    5.36584   5.37814   5.39644   5.41661   5.42058
 Alpha virt. eigenvalues --    5.43163   5.43679   5.43800   5.47630   5.49976
 Alpha virt. eigenvalues --    5.51727   5.56865   5.58335   5.58538   5.58616
 Alpha virt. eigenvalues --    5.60176   5.62142   5.62958   5.68033   5.68140
 Alpha virt. eigenvalues --    5.90132   5.92321   6.01373   6.01489   6.04119
 Alpha virt. eigenvalues --    6.05194   6.35378   6.42674   6.48738   6.51842
 Alpha virt. eigenvalues --    6.81634   6.82617   6.87230   6.91030   7.01600
 Alpha virt. eigenvalues --    7.05444   7.29651   7.30935   7.49304   7.56428
 Alpha virt. eigenvalues --    7.83173   7.83215   8.08407   8.09453   8.11668
 Alpha virt. eigenvalues --    8.12701  16.02045  16.13947  22.21011  22.21928
 Alpha virt. eigenvalues --   22.25890  22.28629  22.46317  22.46341  22.52911
 Alpha virt. eigenvalues --   22.52948  22.58895  22.59175  22.62736  22.63073
 Alpha virt. eigenvalues --   22.63769  22.64024  22.65126  22.65838  22.67072
 Alpha virt. eigenvalues --   22.67279  22.73700  22.74780  22.76976  22.77896
 Alpha virt. eigenvalues --   22.79586  22.80828  22.81621  22.83185  22.84054
 Alpha virt. eigenvalues --   22.85308  22.89110  22.91797  22.96699  23.07914
 Alpha virt. eigenvalues --   23.09251  23.14099  23.15707  23.18025  23.19120
 Alpha virt. eigenvalues --   23.21206  23.39805  23.68485  44.61020  44.67719
          Condensed to atoms (all electrons):
 Mulliken charges:
               1
     1  P    0.030316
     2  C    0.160256
     3  C   -0.208883
     4  C   -0.110548
     5  C   -0.115127
     6  C   -0.137703
     7  C   -0.152310
     8  H    0.153016
     9  H    0.112930
    10  H    0.122658
    11  C    0.061069
    12  C   -0.118834
    13  C   -0.151914
    14  C   -0.101753
    15  C   -0.109951
    16  C   -0.210394
    17  H    0.125863
    18  H    0.117359
    19  H    0.139408
    20  C   -0.003952
    21  C   -0.193076
    22  C   -0.174037
    23  C   -0.251535
    24  C    0.261534
    25  C    0.037335
    26  C    0.037316
    27  C    0.261547
    28  C   -0.251541
    29  C   -0.174034
    30  C   -0.193087
    31  C   -0.003916
    32  P    0.030315
    33  C    0.160234
    34  C   -0.152282
    35  C   -0.137722
    36  C   -0.115112
    37  C   -0.110561
    38  C   -0.208874
    39  H    0.122657
    40  H    0.112930
    41  H    0.153015
    42  C    0.061074
    43  C   -0.210400
    44  C   -0.109950
    45  C   -0.101752
    46  C   -0.151917
    47  C   -0.118832
    48  H    0.139407
    49  H    0.117359
    50  H    0.125863
    51  H    0.137401
    52  H    0.108297
    53  H    0.129228
    54  O   -0.265083
    55  C   -0.137287
    56  H    0.114507
    57  H    0.110290
    58  C   -0.148324
    59  H    0.103061
    60  H    0.112938
    61  C   -0.148326
    62  H    0.103061
    63  H    0.112938
    64  C   -0.137284
    65  H    0.114508
    66  O   -0.265084
    67  H    0.110290
    68  H    0.129229
    69  H    0.108297
    70  H    0.137400
    71  H    0.115328
    72  H    0.117048
    73  H    0.113295
    74  H    0.107568
    75  H    0.117048
    76  H    0.115328
    77  H    0.107568
    78  H    0.113295
 Sum of Mulliken charges =  -0.00000
 Mulliken charges with hydrogens summed into heavy atoms:
               1
     1  P    0.030316
     2  C    0.160256
     3  C   -0.086225
     4  C    0.002747
     5  C   -0.002197
     6  C   -0.030135
     7  C    0.000706
    11  C    0.061069
    12  C    0.020574
    13  C   -0.036586
    14  C    0.015607
    15  C    0.007097
    16  C   -0.084531
    20  C   -0.003952
    21  C   -0.055675
    22  C   -0.065740
    23  C   -0.122306
    24  C    0.261534
    25  C    0.037335
    26  C    0.037316
    27  C    0.261547
    28  C   -0.122312
    29  C   -0.065737
    30  C   -0.055686
    31  C   -0.003916
    32  P    0.030315
    33  C    0.160234
    34  C    0.000733
    35  C   -0.030154
    36  C   -0.002182
    37  C    0.002735
    38  C   -0.086217
    42  C    0.061074
    43  C   -0.084537
    44  C    0.007097
    45  C    0.015608
    46  C   -0.036589
    47  C    0.020576
    54  O   -0.265083
    55  C    0.087510
    58  C    0.067676
    61  C    0.067674
    64  C    0.087514
    66  O   -0.265084
 Electronic spatial extent (au):  <R**2>=          21349.7101
 Charge=              0.0000 electrons
 Dipole moment (field-independent basis, Debye):
    X=              0.0002    Y=              4.0758    Z=             -0.0003  Tot=              4.0758
 Quadrupole moment (field-independent basis, Debye-Ang):
   XX=           -261.4538   YY=           -243.3249   ZZ=           -247.3501
   XY=              0.0012   XZ=             -3.2107   YZ=              0.0002
 Traceless Quadrupole moment (field-independent basis, Debye-Ang):
   XX=            -10.7442   YY=              7.3847   ZZ=              3.3595
   XY=              0.0012   XZ=             -3.2107   YZ=              0.0002
 Octapole moment (field-independent basis, Debye-Ang**2):
  XXX=              0.0021  YYY=            158.5857  ZZZ=             -0.0009  XYY=              0.0176
  XXY=              3.3832  XXZ=              0.0031  XZZ=             -0.0112  YZZ=             13.7068
  YYZ=             -0.0175  XYZ=             58.5074
 Hexadecapole moment (field-independent basis, Debye-Ang**3):
 XXXX=         -12046.6553 YYYY=          -8571.0199 ZZZZ=          -7304.6346 XXXY=             -0.0404
 XXXZ=           -298.8166 YYYX=             -0.0015 YYYZ=              0.0399 ZZZX=            113.1021
 ZZZY=             -0.0322 XXYY=          -3640.0882 XXZZ=          -3378.3334 YYZZ=          -2547.7096
 XXYZ=              0.0077 YYXZ=           -126.0175 ZZXY=              0.0520
 N-N= 5.864536313915D+03 E-N=-1.729190499469D+04  KE= 2.364984017836D+03
 1\1\GINC-NOTCH078\SP\RPBE1PBE\def2TZVP\C40H34O2P2\U1010977\01-Nov-2021
 \0\\# PBE1PBE/def2TZVP int=(grid=ultrafine) empiricaldispersion=GD3BJ 
 nmr=giao\\title\\0,1\P,0,-0.7365611582,1.6671397721,-0.0331672853\C,0,
 -0.0354897933,2.1343500883,-1.6559960212\C,0,-0.8381805199,1.944509595
 4,-2.7971585214\C,0,-0.3496679016,2.3159619529,-4.0564313582\C,0,0.931
 5150909,2.8735210901,-4.18127655\C,0,1.7287000054,3.0657075443,-3.0431
 284405\C,0,1.2489056263,2.698901252,-1.7796718671\H,0,1.8857329557,2.8
 145948678,-0.8969420699\H,0,1.3108978384,3.1571628865,-5.1686188175\H,
 0,-1.8424165061,1.5211572779,-2.6798541747\C,0,-1.3566295386,3.2314693
 879,0.7056342954\C,0,-0.8001832343,4.4729986355,0.350497401\C,0,-1.234
 9046862,5.6423956253,0.9897003747\C,0,-2.2167947628,5.5769439913,1.987
 4516056\C,0,-2.7741786254,4.3389648199,2.341397225\C,0,-2.3545934007,3
 .1687449292,1.6983294857\H,0,-2.8135372884,2.2058978102,1.9431630071\H
 ,0,-2.5566100718,6.4925297213,2.4825168981\H,0,-0.039256758,4.53064161
 55,-0.4335364582\C,0,0.6979286418,1.2486375133,1.0621211573\C,0,0.7332
 095655,1.8195541404,2.3503957222\C,0,1.7512762926,1.4794459394,3.24510
 67416\C,0,2.7684731729,0.6016953431,2.8613861665\C,0,2.7576316574,0.05
 15868654,1.5695834404\C,0,1.6999356547,0.3280503933,0.6658719696\C,0,1
 .6965382113,-0.3482668417,-0.6637048816\C,0,2.7581969319,-0.084251142,
 -1.5664917525\C,0,2.7637035432,-0.6344512911,-2.8582889143\C,0,1.73660
[...]
  1374. RY*(  13) C  64                  0.00004     1.70184   
  1375. RY*(  14) C  64                  0.00001     1.89591   
  1376. RY*(  15) C  64                  0.00001     3.13792   
  1377. RY*(  16) C  64                  0.00001     1.46212   
  1378. RY*(  17) C  64                  0.00001     3.01481   
  1379. RY*(  18) C  64                  0.00000    21.17372   
  1380. RY*(  19) C  64                  0.00001     2.68657   
  1381. RY*(  20) C  64                  0.00000     3.56482   
  1382. RY*(  21) C  64                  0.00000     3.29993   
  1383. RY*(  22) C  64                  0.00000     3.67698   
  1384. RY*(  23) C  64                  0.00000     3.73405   
  1385. RY*(  24) C  64                  0.00000     3.32793   
  1386. RY*(  25) C  64                  0.00000     3.77706   
  1387. RY*(  26) C  64                  0.00001     3.51407   
  1388. RY*(   1) H  65                  0.00084     0.86939   
  1389. RY*(   2) H  65                  0.00022     2.05589   
  1390. RY*(   3) H  65                  0.00014     2.40548   
  1391. RY*(   4) H  65                  0.00007     2.20733   
  1392. RY*(   5) H  65                  0.00001     2.99197   
  1393. RY*(   1) O  66                  0.00462     0.99729   
  1394. RY*(   2) O  66                  0.00328     0.92220   
  1395. RY*(   3) O  66                  0.00097     1.67330   
  1396. RY*(   4) O  66                  0.00046     1.82509   
  1397. RY*(   5) O  66                  0.00019     3.57890   
  1398. RY*(   6) O  66                  0.00015     2.26713   
  1399. RY*(   7) O  66                  0.00011     2.21713   
  1400. RY*(   8) O  66                  0.00009     2.34776   
  1401. RY*(   9) O  66                  0.00006     2.62763   
  1402. RY*(  10) O  66                  0.00003     4.96749   
  1403. RY*(  11) O  66                  0.00003     5.08626   
  1404. RY*(  12) O  66                  0.00001     5.17737   
  1405. RY*(  13) O  66                  0.00002     4.34743   
  1406. RY*(  14) O  66                  0.00001     5.87088   
  1407. RY*(  15) O  66                  0.00002     4.27509   
  1408. RY*(  16) O  66                  0.00000    42.11758   
  1409. RY*(  17) O  66                  0.00000     5.97557   
  1410. RY*(  18) O  66                  0.00000     6.33918   
  1411. RY*(  19) O  66                  0.00000     5.85890   
  1412. RY*(  20) O  66                  0.00000     5.29260   
  1413. RY*(  21) O  66                  0.00000     5.32139   
  1414. RY*(  22) O  66                  0.00000     5.57068   
  1415. RY*(  23) O  66                  0.00000     5.52247   
  1416. RY*(  24) O  66                  0.00000     5.21890   
  1417. RY*(  25) O  66                  0.00000     5.24799   
  1418. RY*(  26) O  66                  0.00000     5.03055   
  1419. RY*(   1) H  67                  0.00147     0.64670   
  1420. RY*(   2) H  67                  0.00029     2.32525   
  1421. RY*(   3) H  67                  0.00010     2.39672   
  1422. RY*(   4) H  67                  0.00010     2.39027   
  1423. RY*(   5) H  67                  0.00002     3.09627   
  1424. RY*(   1) H  68                  0.00048     2.02277   
  1425. RY*(   2) H  68                  0.00026     2.15617   
  1426. RY*(   3) H  68                  0.00009     2.71858   
  1427. RY*(   4) H  68                  0.00005     1.26106   
  1428. RY*(   5) H  68                  0.00001     2.99050   
  1429. RY*(   1) H  69                  0.00030     1.53335   
  1430. RY*(   2) H  69                  0.00021     2.18347   
  1431. RY*(   3) H  69                  0.00016     1.59465   
  1432. RY*(   4) H  69                  0.00013     2.83438   
  1433. RY*(   5) H  69                  0.00001     3.02966   
  1434. RY*(   1) H  70                  0.00113     0.66312   
  1435. RY*(   2) H  70                  0.00028     2.31624   
  1436. RY*(   3) H  70                  0.00026     2.25570   
  1437. RY*(   4) H  70                  0.00016     2.89743   
  1438. RY*(   5) H  70                  0.00002     3.26320   
  1439. RY*(   1) H  71                  0.00045     0.98849   
  1440. RY*(   2) H  71                  0.00019     1.85803   
  1441. RY*(   3) H  71                  0.00012     2.46028   
  1442. RY*(   4) H  71                  0.00012     2.40663   
  1443. RY*(   5) H  71                  0.00002     3.08721   
  1444. RY*(   1) H  72                  0.00035     0.91393   
  1445. RY*(   2) H  72                  0.00020     1.87638   
  1446. RY*(   3) H  72                  0.00012     2.67636   
  1447. RY*(   4) H  72                  0.00012     2.15870   
  1448. RY*(   5) H  72                  0.00002     3.09999   
  1449. RY*(   1) H  73                  0.00036     0.97485   
  1450. RY*(   2) H  73                  0.00020     1.89140   
  1451. RY*(   3) H  73                  0.00012     2.16515   
  1452. RY*(   4) H  73                  0.00008     2.76305   
  1453. RY*(   5) H  73                  0.00001     3.08743   
  1454. RY*(   1) H  74                  0.00042     1.20515   
  1455. RY*(   2) H  74                  0.00019     1.80973   
  1456. RY*(   3) H  74                  0.00017     2.18641   
  1457. RY*(   4) H  74                  0.00012     2.71406   
  1458. RY*(   5) H  74                  0.00001     3.07059   
  1459. RY*(   1) H  75                  0.00035     0.91393   
  1460. RY*(   2) H  75                  0.00020     1.87638   
  1461. RY*(   3) H  75                  0.00012     2.67637   
  1462. RY*(   4) H  75                  0.00012     2.15870   
  1463. RY*(   5) H  75                  0.00002     3.09999   
  1464. RY*(   1) H  76                  0.00045     0.98850   
  1465. RY*(   2) H  76                  0.00019     1.85803   
  1466. RY*(   3) H  76                  0.00012     2.46019   
  1467. RY*(   4) H  76                  0.00012     2.40671   
  1468. RY*(   5) H  76                  0.00002     3.08721   
  1469. RY*(   1) H  77                  0.00042     1.20515   
  1470. RY*(   2) H  77                  0.00019     1.80974   
  1471. RY*(   3) H  77                  0.00017     2.18642   
  1472. RY*(   4) H  77                  0.00012     2.71405   
  1473. RY*(   5) H  77                  0.00001     3.07059   
  1474. RY*(   1) H  78                  0.00036     0.97484   
  1475. RY*(   2) H  78                  0.00020     1.89140   
  1476. RY*(   3) H  78                  0.00012     2.16515   
  1477. RY*(   4) H  78                  0.00008     2.76305   
  1478. RY*(   5) H  78                  0.00001     3.08743   
  1479. BD*(   1) P   1 - C   2          0.03574     0.24752   
  1480. BD*(   1) P   1 - C  11          0.04538     0.24411   
  1481. BD*(   1) P   1 - C  20          0.04532     0.23343   
  1482. BD*(   1) C   2 - C   3          0.02390     0.53635   
  1483. BD*(   2) C   2 - C   3          0.36150     0.03611  1488(v),1493(v),1542(r)
                                                    1526(r),1480(v),217(g)
                                                    216(g),1512(r)
  1484. BD*(   1) C   2 - C   7          0.03205     0.53594   
  1485. BD*(   1) C   3 - C   4          0.01607     0.54883   
  1486. BD*(   1) C   3 - H  10          0.01600     0.40939   
  1487. BD*(   1) C   4 - C   5          0.01463     0.54322   
  1488. BD*(   2) C   4 - C   5          0.33244     0.03301  1483(v),1493(v),243(g)
                                                    269(g),1549(r)
  1489. BD*(   1) C   4 - H  73          0.01347     0.41038   
  1490. BD*(   1) C   5 - C   6          0.01489     0.54388   
  1491. BD*(   1) C   5 - H   9          0.01309     0.40951   
  1492. BD*(   1) C   6 - C   7          0.01753     0.55323   
  1493. BD*(   2) C   6 - C   7          0.31591     0.03998  1483(v),1488(v),1544(r)
                                                    1526(r),1528(r),295(g)
  1494. BD*(   1) C   6 - H  74          0.01439     0.40858   
  1495. BD*(   1) C   7 - H   8          0.01569     0.43309   
  1496. BD*(   1) C  11 - C  12          0.03062     0.53734   
  1497. BD*(   2) C  11 - C  12          0.35880     0.03356  1507(v),1502(v),1556(r)
                                                    1481(v),388(g)
  1498. BD*(   1) C  11 - C  16          0.02319     0.52792   
  1499. BD*(   1) C  12 - C  13          0.01708     0.54857   
  1500. BD*(   1) C  12 - H  19          0.01692     0.42277   
  1501. BD*(   1) C  13 - C  14          0.01462     0.54281   
  1502. BD*(   2) C  13 - C  14          0.33100     0.03121  1507(v),1497(v),440(g)
                                                    414(g)
  1503. BD*(   1) C  13 - H  71          0.01401     0.40866   
  1504. BD*(   1) C  14 - C  15          0.01485     0.54016   
  1505. BD*(   1) C  14 - H  18          0.01307     0.40832   
  1506. BD*(   1) C  15 - C  16          0.01620     0.54716   
  1507. BD*(   2) C  15 - C  16          0.32264     0.03271  1497(v),1502(v),466(g)
                                                    1558(r),492(g)
  1508. BD*(   1) C  15 - H  72          0.01357     0.40806   
  1509. BD*(   1) C  16 - H  17          0.01577     0.41497   
  1510. BD*(   1) C  20 - C  21          0.02181     0.54482   
  1511. BD*(   1) C  20 - C  25          0.03089     0.53177   
  1512. BD*(   2) C  20 - C  25          0.41089     0.04149  1526(v),1514(v),1519(v)
                                                    1544(r),1542(r),1479(v)
                                                    1524(v),1525(v),533(g)
                                                    558(v),662(g),1483(r),663(g)
  1513. BD*(   1) C  21 - C  22          0.01607     0.56404   
  1514. BD*(   2) C  21 - C  22          0.33262     0.04485  1533(r),1512(v),1519(v)
                                                    585(g),558(g),562(g)
  1515. BD*(   1) C  21 - H  70          0.01708     0.43269   
  1516. BD*(   1) C  22 - C  23          0.01310     0.56144   
  1517. BD*(   1) C  22 - H  69          0.01388     0.41491   
  1518. BD*(   1) C  23 - C  24          0.03125     0.53225   
  1519. BD*(   2) C  23 - C  24          0.38024     0.03561  1528(r),1512(v),1514(v)
                                                    1544(r),610(g),1579(v)
  1520. BD*(   1) C  23 - H  68          0.01361     0.41256   
  1521. BD*(   1) C  24 - C  25          0.03963     0.51448   
  1522. BD*(   1) C  24 - O  66          0.02798     0.36370   
  1523. BD*(   1) C  25 - C  26          0.03026     0.44549   
  1524. BD*(   1) C  26 - C  27          0.03963     0.51448   
  1525. BD*(   1) C  26 - C  31          0.03089     0.53177   
  1526. BD*(   2) C  26 - C  31          0.41089     0.04149  1512(v),1533(v),1528(v)
                                                    1493(r),1483(r),1538(v)
                                                    1521(v),1511(v),819(g)
                                                    792(v),688(g),1542(r),689(g)
  1527. BD*(   1) C  27 - C  28          0.03125     0.53225   
  1528. BD*(   2) C  27 - C  28          0.38024     0.03561  1519(r),1526(v),1533(v)
                                                    1493(r),740(g),1568(v)
  1529. BD*(   1) C  27 - O  54          0.02798     0.36370   
  1530. BD*(   1) C  28 - C  29          0.01310     0.56144   
  1531. BD*(   1) C  28 - H  53          0.01361     0.41256   
  1532. BD*(   1) C  29 - C  30          0.01607     0.56404   
  1533. BD*(   2) C  29 - C  30          0.33262     0.04485  1514(r),1526(v),1528(v)
                                                    767(g),792(g),796(g)
  1534. BD*(   1) C  29 - H  52          0.01388     0.41491   
  1535. BD*(   1) C  30 - C  31          0.02181     0.54481   
  1536. BD*(   1) C  30 - H  51          0.01708     0.43269   
  1537. BD*(   1) C  31 - P  32          0.04532     0.23343   
  1538. BD*(   1) P  32 - C  33          0.03574     0.24752   
  1539. BD*(   1) P  32 - C  42          0.04538     0.24411   
  1540. BD*(   1) C  33 - C  34          0.03205     0.53595   
  1541. BD*(   1) C  33 - C  38          0.02390     0.53635   
  1542. BD*(   2) C  33 - C  38          0.36150     0.03611  1549(v),1544(v),1483(r)
                                                    1512(r),1539(v),1003(g)
                                                    1002(g),1526(r)
  1543. BD*(   1) C  34 - C  35          0.01753     0.55322   
  1544. BD*(   2) C  34 - C  35          0.31591     0.03998  1542(v),1549(v),1493(r)
                                                    1512(r),1519(r),925(g)
  1545. BD*(   1) C  34 - H  41          0.01569     0.43309   
  1546. BD*(   1) C  35 - C  36          0.01489     0.54388   
  1547. BD*(   1) C  35 - H  77          0.01439     0.40858   
  1548. BD*(   1) C  36 - C  37          0.01463     0.54322   
  1549. BD*(   2) C  36 - C  37          0.33245     0.03301  1542(v),1544(v),977(g)
                                                    951(g),1488(r)
  1550. BD*(   1) C  36 - H  40          0.01309     0.40951   
  1551. BD*(   1) C  37 - C  38          0.01607     0.54884   
  1552. BD*(   1) C  37 - H  78          0.01347     0.41038   
  1553. BD*(   1) C  38 - H  39          0.01600     0.40939   
  1554. BD*(   1) C  42 - C  43          0.02319     0.52792   
  1555. BD*(   1) C  42 - C  47          0.03062     0.53734   
  1556. BD*(   2) C  42 - C  47          0.35880     0.03356  1558(v),1563(v),1497(r)
                                                    1537(v),1174(g)
  1557. BD*(   1) C  43 - C  44          0.01620     0.54716   
  1558. BD*(   2) C  43 - C  44          0.32264     0.03271  1556(v),1563(v),1096(g)
                                                    1507(r),1070(g)
  1559. BD*(   1) C  43 - H  50          0.01577     0.41498   
  1560. BD*(   1) C  44 - C  45          0.01485     0.54016   
  1561. BD*(   1) C  44 - H  75          0.01357     0.40806   
  1562. BD*(   1) C  45 - C  46          0.01462     0.54281   
  1563. BD*(   2) C  45 - C  46          0.33100     0.03121  1558(v),1556(v),1122(g)
                                                    1148(g)
  1564. BD*(   1) C  45 - H  49          0.01307     0.40832   
  1565. BD*(   1) C  46 - C  47          0.01708     0.54857   
  1566. BD*(   1) C  46 - H  76          0.01401     0.40866   
  1567. BD*(   1) C  47 - H  48          0.01692     0.42277   
  1568. BD*(   1) O  54 - C  55          0.02769     0.26874   
  1569. BD*(   1) C  55 - H  56          0.02513     0.33605   
  1570. BD*(   1) C  55 - H  57          0.02509     0.33688   
  1571. BD*(   1) C  55 - C  58          0.02082     0.34600   
  1572. BD*(   1) C  58 - H  59          0.01610     0.34848   
  1573. BD*(   1) C  58 - H  60          0.00912     0.34644   
  1574. BD*(   1) C  58 - C  61          0.01719     0.33630   
  1575. BD*(   1) C  61 - H  62          0.01610     0.34848   
  1576. BD*(   1) C  61 - H  63          0.00912     0.34644   
  1577. BD*(   1) C  61 - C  64          0.02082     0.34600   
  1578. BD*(   1) C  64 - H  65          0.02513     0.33605   
  1579. BD*(   1) C  64 - O  66          0.02769     0.26874   
  1580. BD*(   1) C  64 - H  67          0.02509     0.33688   
       -------------------------------
              Total Lewis  311.31294  ( 97.2853%)
        Valence non-Lewis    8.05407  (  2.5169%)
        Rydberg non-Lewis    0.63298  (  0.1978%)
       -------------------------------
            Total unit  1  320.00000  (100.0000%)
           Charge unit  1    0.00000
 1\1\GINC-NOTCH078\SP\RPBE1PBE\def2TZVP\C40H34O2P2\U1010977\01-Nov-2021
 \0\\# PBE1PBE/def2TZVP int=(grid=ultrafine) empiricaldispersion=GD3BJ 
 pop=nbo guess=read geom=check\\title\\0,1\P,0,-0.7365611582,1.66713977
 21,-0.0331672853\C,0,-0.0354897933,2.1343500883,-1.6559960212\C,0,-0.8
 381805199,1.9445095954,-2.7971585214\C,0,-0.3496679016,2.3159619529,-4
 .0564313582\C,0,0.9315150909,2.8735210901,-4.18127655\C,0,1.7287000054
 ,3.0657075443,-3.0431284405\C,0,1.2489056263,2.698901252,-1.7796718671
 \H,0,1.8857329557,2.8145948678,-0.8969420699\H,0,1.3108978384,3.157162
 8865,-5.1686188175\H,0,-1.8424165061,1.5211572779,-2.6798541747\C,0,-1
 .3566295386,3.2314693879,0.7056342954\C,0,-0.8001832343,4.4729986355,0
 .350497401\C,0,-1.2349046862,5.6423956253,0.9897003747\C,0,-2.21679476
 28,5.5769439913,1.9874516056\C,0,-2.7741786254,4.3389648199,2.34139722
 5\C,0,-2.3545934007,3.1687449292,1.6983294857\H,0,-2.8135372884,2.2058
 978102,1.9431630071\H,0,-2.5566100718,6.4925297213,2.4825168981\H,0,-0
 .039256758,4.5306416155,-0.4335364582\C,0,0.6979286418,1.2486375133,1.
 0621211573\C,0,0.7332095655,1.8195541404,2.3503957222\C,0,1.7512762926
 ,1.4794459394,3.2451067416\C,0,2.7684731729,0.6016953431,2.8613861665\
 C,0,2.7576316574,0.0515868654,1.5695834404\C,0,1.6999356547,0.32805039
 33,0.6658719696\C,0,1.6965382113,-0.3482668417,-0.6637048816\C,0,2.758
 1969319,-0.084251142,-1.5664917525\C,0,2.7637035432,-0.6344512911,-2.8
 582889143\C,0,1.7366024695,-1.5001958439,-3.2429007644\C,0,0.713829600
 2,-1.8283168412,-2.3490811025\C,0,0.6841305124,-1.2570184731,-1.060834
 1064\P,0,-0.7561744955,-1.6585836059,0.033159865\C,0,-0.0621455142,-2.
 133996901,1.6566342355\C,0,1.2154347004,-2.7135458734,1.7815044049\C,0
 ,1.6897092641,-3.0859693385,3.0454025455\C,0,0.8937512251,-2.884494858
 1,4.182801724\C,0,-0.3807023225,-2.3119802204,4.0567625613\C,0,-0.8636
 422436,-1.9348031868,2.7970427408\H,0,-1.862745038,-1.4997273622,2.678
 8013058\H,0,1.2688542389,-3.172578084,5.1704932386\H,0,1.8516945232,-2
 .8366784448,0.899371953\C,0,-1.3939394824,-3.2155276661,-0.7061817676\
 C,0,-2.3901919792,-3.1411120987,-1.6997866544\C,0,-2.8229161035,-4.306
 3427964,-2.3432075294\C,0,-2.2804397913,-5.5507747133,-1.9887278635\C,
 0,-1.3002903557,-5.6277271532,-0.9900861828\C,0,-0.8524389942,-4.46349
 80634,-0.3505151452\H,0,-0.0929478526,-4.5300501025,0.4342048639\H,0,-
 2.6305403146,-6.462320467,-2.4840816471\H,0,-2.8375618897,-2.172945893
 8,-1.9450636356\H,0,-0.0664942296,-2.5286310685,-2.6534230973\H,0,1.73
 41335594,-1.9247523392,-4.2517944628\H,0,3.5486789037,-0.3621779966,-3
 .5686742598\O,0,3.7311217935,0.7699606428,-1.119432934\C,0,5.070527581
 ,0.5900217275,-1.6084209251\H,0,5.2996015482,1.412138723,-2.313412909\
 H,0,5.1499644428,-0.3660315596,-2.1575199512\C,0,6.0609447486,0.594336
 2731,-0.4441578758\H,0,5.8959489317,1.5007492959,0.1683613345\H,0,7.06
 61161484,0.7034479608,-0.893125289\C,0,6.0531676883,-0.665703078,0.450
 120451\H,0,5.8780975053,-1.5701236968,-0.1625475105\H,0,7.0565975232,-
 0.7865867433,0.8999677291\C,0,5.0618537413,-0.6497759591,1.6135199887\
 H,0,5.2806594877,-1.4745248321,2.3186991598\O,0,3.7208515996,-0.813994
 4243,1.1233727741\H,0,5.1520217271,0.305278096,2.1627001676\H,0,3.5495
 782107,0.3202294747,3.5724545823\H,0,1.7529150666,1.9040092241,4.25399
 92608\H,0,-0.0390965359,2.5289926629,2.6540574255\H,0,-0.806937424,6.6
 078766622,0.7003653951\H,0,-3.5546932926,4.2837787615,3.1068229159\H,0
 ,-0.9734213379,2.1668179283,-4.9436515762\H,0,2.7327012898,3.493056344
 3,-3.1376851501\H,0,-3.6020312478,-4.2420143397,-3.1093449558\H,0,-0.8
 839568446,-6.5981604895,-0.7003448807\H,0,2.6885516518,-3.5250388854,3
 .1408933135\H,0,-1.0035090474,-2.1555719709,4.94339696\\Version=ES64L-
 G16RevB.01\State=1-A\HF=-2376.3278326\RMSD=2.205e-09\Dipole=1.6035324,
 -0.0093983,0.0006947\Quadrupole=5.4899439,-8.1060398,2.6160959,-0.0803
 512,0.0133981,2.1076602\PG=C01 [X(C40H34O2P2)]\\@


 RESEARCH IS WHAT I AM DOING WHEN I DON'T KNOW WHAT I AM DOING.
     -- WERNER VON BRAUN
 Job cpu time:       0 days  1 hours 32 minutes 47.5 seconds.
 Elapsed time:       0 days  0 hours  2 minutes 55.0 seconds.
 File lengths (MBytes):  RWF=   1275 Int=      0 D2E=      0 Chk=    192 Scr=      1
 Normal termination of Gaussian 16 at Mon Nov  1 20:10:42 2021.
