 Entering Gaussian System, Link 0=/uufs/chpc.utah.edu/sys/installdir/gaussian16/B01/E6B/g16/g16
 Input=R-C4-Tunephos_1.com
 Output=R-C4-Tunephos_1.log
 Initial command:
 /uufs/chpc.utah.edu/sys/installdir/gaussian16/B01/E6B/g16/l1.exe "/scratch/general/lustre/u1010977/3348967/notchpeak.peaks/Gau-106356.inp" -scrdir="/scratch/general/lustre/u1010977/3348967/notchpeak.peaks/"
 Entering Link 1 = /uufs/chpc.utah.edu/sys/installdir/gaussian16/B01/E6B/g16/l1.exe PID=    106358.
  
 Copyright (c) 1988-2017, Gaussian, Inc.  All Rights Reserved.
  
 This is part of the Gaussian(R) 16 program.  It is based on
 the Gaussian(R) 09 system (copyright 2009, Gaussian, Inc.),
 the Gaussian(R) 03 system (copyright 2003, Gaussian, Inc.),
 the Gaussian(R) 98 system (copyright 1998, Gaussian, Inc.),
 the Gaussian(R) 94 system (copyright 1995, Gaussian, Inc.),
 the Gaussian 92(TM) system (copyright 1992, Gaussian, Inc.),
 the Gaussian 90(TM) system (copyright 1990, Gaussian, Inc.),
 the Gaussian 88(TM) system (copyright 1988, Gaussian, Inc.),
 the Gaussian 86(TM) system (copyright 1986, Carnegie Mellon
 University), and the Gaussian 82(TM) system (copyright 1983,
 Carnegie Mellon University). Gaussian is a federally registered
 trademark of Gaussian, Inc.
  
 This software contains proprietary and confidential information,
 including trade secrets, belonging to Gaussian, Inc.
  
 This software is provided under written license and may be
 used, copied, transmitted, or stored only in accord with that
 written license.
  
 The following legend is applicable only to US Government
 contracts under FAR:
  
                    RESTRICTED RIGHTS LEGEND
  
 Use, reproduction and disclosure by the US Government is
 subject to restrictions as set forth in subparagraphs (a)
 and (c) of the Commercial Computer Software - Restricted
 Rights clause in FAR 52.227-19.
  
 Gaussian, Inc.
 340 Quinnipiac St., Bldg. 40, Wallingford CT 06492
  
  
 ---------------------------------------------------------------
 Warning -- This program may not be used in any manner that
 competes with the business of Gaussian, Inc. or will provide
 assistance to any competitor of Gaussian, Inc.  The licensee
 of this program is prohibited from giving any competitor of
 Gaussian, Inc. access to this program.  By using this program,
 the user acknowledges that Gaussian, Inc. is engaged in the
 business of creating and licensing software in the field of
 computational chemistry and represents and warrants to the
 licensee that it is not a competitor of Gaussian, Inc. and that
 it will not use this program in any manner prohibited above.
 ---------------------------------------------------------------
  

 Cite this work as:
 Gaussian 16, Revision B.01,
 M. J. Frisch, G. W. Trucks, H. B. Schlegel, G. E. Scuseria, 
 M. A. Robb, J. R. Cheeseman, G. Scalmani, V. Barone, 
 G. A. Petersson, H. Nakatsuji, X. Li, M. Caricato, A. V. Marenich, 
 J. Bloino, B. G. Janesko, R. Gomperts, B. Mennucci, H. P. Hratchian, 
 J. V. Ortiz, A. F. Izmaylov, J. L. Sonnenberg, D. Williams-Young, 
 F. Ding, F. Lipparini, F. Egidi, J. Goings, B. Peng, A. Petrone, 
 T. Henderson, D. Ranasinghe, V. G. Zakrzewski, J. Gao, N. Rega, 
 G. Zheng, W. Liang, M. Hada, M. Ehara, K. Toyota, R. Fukuda, 
 J. Hasegawa, M. Ishida, T. Nakajima, Y. Honda, O. Kitao, H. Nakai, 
 T. Vreven, K. Throssell, J. A. Montgomery, Jr., J. E. Peralta, 
 F. Ogliaro, M. J. Bearpark, J. J. Heyd, E. N. Brothers, K. N. Kudin, 
 V. N. Staroverov, T. A. Keith, R. Kobayashi, J. Normand, 
 K. Raghavachari, A. P. Rendell, J. C. Burant, S. S. Iyengar, 
 J. Tomasi, M. Cossi, J. M. Millam, M. Klene, C. Adamo, R. Cammi, 
 J. W. Ochterski, R. L. Martin, K. Morokuma, O. Farkas, 
 J. B. Foresman, and D. J. Fox, Gaussian, Inc., Wallingford CT, 2016.
 
 ******************************************
 Gaussian 16:  ES64L-G16RevB.01 20-Dec-2017
                29-Oct-2021 
 ******************************************
 %NProcShared=40
 Will use up to   40 processors via shared memory.
 %mem=18GB
 %chk=R-C4-Tunephos_1.chk
 ----------------------------------------------------------------------
 # PBEPBE gen 6D pseudo=read scf=maxcycles=500 denfit int=(grid=ultrafi
 ne) empiricaldispersion=GD3BJ opt freq=noraman
 ----------------------------------------------------------------------
 1/18=20,19=15,26=4,38=1/1,3;
 2/9=110,12=2,17=6,18=5,40=1/2;
 3/5=7,8=2,11=2,16=1,17=8,25=1,30=1,71=1,74=1009,75=-5,82=47,124=41/1,2,3;
 4//1;
 5/5=2,7=500,38=5/2;
 6/7=2,8=2,9=2,10=2,28=1/1;
 7//1,2,3,16;
 1/18=20,19=15,26=4/3(2);
 2/9=110/2;
 99//99;
 2/9=110/2;
 3/5=7,6=1,8=2,11=2,16=1,17=8,25=1,30=1,71=1,74=1009,75=-5,82=7,124=41/1,2,3;
 4/5=5,16=3,69=1/1;
 5/5=2,7=500,38=5/2;
 7//1,2,3,16;
 1/18=20,19=15,26=4/3(-5);
 2/9=110/2;
 6/7=2,8=2,9=2,10=2,19=2,28=1/1;
 99/9=1/99;
 -----
 title
 -----
 Symbolic Z-matrix:
 Charge =  0 Multiplicity = 1
 Pd                   -2.4042    0.0141   -0.0007 
 P                    -0.7158    1.7289    0.0411 
 C                    -0.105     2.2269   -1.6538 
 C                    -0.9295    2.0184   -2.779 
 C                    -0.4887    2.3803   -4.067 
 C                     0.7835    2.9577   -4.2394 
 C                     1.6104    3.1762   -3.1216 
 C                     1.1643    2.8153   -1.8359 
 H                     1.8087    2.9759   -0.9829 
 H                     1.1244    3.2333   -5.2268 
 H                    -1.9105    1.5834   -2.657 
 C                    -1.3011    3.3574    0.7877 
 C                    -0.9142    4.6101    0.2605 
 C                    -1.3629    5.8099    0.8461 
 C                    -2.2076    5.7734    1.9704 
 C                    -2.6019    4.5342    2.5062 
 C                    -2.1499    3.3377    1.9172 
 H                    -2.4617    2.3934    2.3385 
 H                    -2.5546    6.6935    2.4181 
 H                    -0.2697    4.6686   -0.6026 
 C                     0.7856    1.2619    1.0881 
 C                     0.9322    1.8614    2.3598 
 C                     1.99      1.5174    3.2144 
 C                     2.9224    0.5506    2.8163 
 C                     2.8095   -0.0627    1.5492 
 C                     1.7484    0.2986    0.674 
 C                     1.7454   -0.3194   -0.6715 
 C                     2.8112    0.0297   -1.546 
 C                     2.918    -0.5849   -2.813 
 C                     1.9745   -1.5406   -3.212 
 C                     0.912    -1.8722   -2.3583 
 C                     0.7716   -1.2712   -1.0867 
 P                    -0.7361   -1.7206   -0.0411 
 C                    -0.1328   -2.2257    1.6544 
 C                     1.1294   -2.8289    1.8377 
 C                     1.57     -3.195     3.1238 
 C                     0.7446   -2.967     4.2408 
 C                    -0.5206   -2.375     4.0672 
 C                    -0.9559   -2.0078    2.7788 
 H                    -1.9317   -1.5615    2.6559 
 H                     1.0812   -3.2467    5.2285 
 H                     1.7728   -2.9969    0.9853 
 C                    -1.3398   -3.342    -0.7882 
 C                    -2.1876   -3.3124   -1.9183 
 C                    -2.653    -4.5035   -2.5078 
 C                    -2.2734   -5.7473   -1.9719 
 C                    -1.43     -5.7937   -0.847 
 C                    -0.9678   -4.5992   -0.2609 
 H                    -0.3246   -4.6653    0.6026 
 H                    -2.6308   -6.6632   -2.4199 
 H                    -2.488    -2.3645   -2.3397 
 H                     0.2007   -2.6007   -2.7111 
 H                     2.0547   -2.0077   -4.1827 
 H                     3.6993   -0.3243   -3.5074 
 O                     3.6844    1.0146   -1.1251 
 C                     5.0485    0.965    -1.5241 
 H                     5.4896    1.9319   -1.2807 
 H                     5.1716    0.8629   -2.6005 
 C                     5.8049   -0.1369   -0.7627 
 H                     6.8357   -0.1527   -1.1171 
 H                     5.3917   -1.1131   -1.0201 
 C                     5.8055    0.0681    0.7684 
 H                     6.8362    0.0716    1.1236 
 H                     5.4038    1.0491    1.0254 
 C                     5.0355   -1.0247    1.5292 
 H                     5.4652   -1.9968    1.2862 
 O                     3.6712   -1.0581    1.1291 
 H                     5.1589   -0.924     2.6058 
 H                     3.7001    0.2809    3.5113 
 H                     2.0749    1.9837    4.185 
 H                     0.2293    2.5985    2.7119 
 Cl                   -4.0739    1.6388   -0.0921 
 Cl                   -4.093    -1.5909    0.0893 
 H                    -1.0594    6.7591    0.4288 
 H                    -3.2542    4.5006    3.3669 
 H                    -1.1273    2.2164   -4.9228 
 H                     2.5897    3.6142   -3.247 
 H                    -3.3042   -4.4623   -3.3689 
 H                    -1.1378   -6.7464   -0.4295 
 H                     2.5441   -3.6445    3.2501 
 H                    -1.1582   -2.2037    4.9223 
 

 GradGradGradGradGradGradGradGradGradGradGradGradGradGradGradGradGradGrad
 Berny optimization.
 Initialization pass.
                           ----------------------------
                           !    Initial Parameters    !
                           ! (Angstroms and Degrees)  !
 --------------------------                            --------------------------
 ! Name  Definition              Value          Derivative Info.                !
 --------------------------------------------------------------------------------
 ! R1    R(1,2)                  2.4069         estimate D2E/DX2                !
 ! R2    R(1,33)                 2.4069         estimate D2E/DX2                !
 ! R3    R(1,72)                 2.3315         estimate D2E/DX2                !
 ! R4    R(1,73)                 2.3316         estimate D2E/DX2                !
 ! R5    R(2,3)                  1.8692         estimate D2E/DX2                !
 ! R6    R(2,12)                 1.8847         estimate D2E/DX2                !
 ! R7    R(2,21)                 1.889          estimate D2E/DX2                !
 ! R8    R(3,4)                  1.4104         estimate D2E/DX2                !
 ! R9    R(3,8)                  1.4108         estimate D2E/DX2                !
 ! R10   R(4,5)                  1.4086         estimate D2E/DX2                !
 ! R11   R(4,11)                 1.08           estimate D2E/DX2                !
 ! R12   R(5,6)                  1.4077         estimate D2E/DX2                !
 ! R13   R(5,76)                 1.0803         estimate D2E/DX2                !
 ! R14   R(6,7)                  1.4075         estimate D2E/DX2                !
 ! R15   R(6,10)                 1.0803         estimate D2E/DX2                !
 ! R16   R(7,8)                  1.4079         estimate D2E/DX2                !
 ! R17   R(7,77)                 1.0801         estimate D2E/DX2                !
 ! R18   R(8,9)                  1.081          estimate D2E/DX2                !
 ! R19   R(12,13)                1.4131         estimate D2E/DX2                !
 ! R20   R(12,17)                1.413          estimate D2E/DX2                !
 ! R21   R(13,14)                1.4085         estimate D2E/DX2                !
 ! R22   R(13,20)                1.0788         estimate D2E/DX2                !
 ! R23   R(14,15)                1.4067         estimate D2E/DX2                !
 ! R24   R(14,74)                1.0804         estimate D2E/DX2                !
 ! R25   R(15,16)                1.4065         estimate D2E/DX2                !
 ! R26   R(15,19)                1.0805         estimate D2E/DX2                !
 ! R27   R(16,17)                1.4081         estimate D2E/DX2                !
 ! R28   R(16,75)                1.0805         estimate D2E/DX2                !
 ! R29   R(17,18)                1.08           estimate D2E/DX2                !
 ! R30   R(21,22)                1.4135         estimate D2E/DX2                !
 ! R31   R(21,26)                1.4235         estimate D2E/DX2                !
 ! R32   R(22,23)                1.4027         estimate D2E/DX2                !
 ! R33   R(22,71)                1.0777         estimate D2E/DX2                !
 ! R34   R(23,24)                1.4009         estimate D2E/DX2                !
 ! R35   R(23,70)                1.0801         estimate D2E/DX2                !
 ! R36   R(24,25)                1.4122         estimate D2E/DX2                !
 ! R37   R(24,69)                1.0773         estimate D2E/DX2                !
 ! R38   R(25,26)                1.4221         estimate D2E/DX2                !
 ! R39   R(25,67)                1.382          estimate D2E/DX2                !
 ! R40   R(26,27)                1.4806         estimate D2E/DX2                !
 ! R41   R(27,28)                1.4222         estimate D2E/DX2                !
 ! R42   R(27,32)                1.4236         estimate D2E/DX2                !
 ! R43   R(28,29)                1.4122         estimate D2E/DX2                !
 ! R44   R(28,55)                1.3819         estimate D2E/DX2                !
 ! R45   R(29,30)                1.401          estimate D2E/DX2                !
 ! R46   R(29,54)                1.0773         estimate D2E/DX2                !
 ! R47   R(30,31)                1.4027         estimate D2E/DX2                !
 ! R48   R(30,53)                1.0802         estimate D2E/DX2                !
 ! R49   R(31,32)                1.4135         estimate D2E/DX2                !
 ! R50   R(31,52)                1.0776         estimate D2E/DX2                !
 ! R51   R(32,33)                1.889          estimate D2E/DX2                !
 ! R52   R(33,34)                1.8692         estimate D2E/DX2                !
 ! R53   R(33,43)                1.8846         estimate D2E/DX2                !
 ! R54   R(34,35)                1.4109         estimate D2E/DX2                !
 ! R55   R(34,39)                1.4104         estimate D2E/DX2                !
 ! R56   R(35,36)                1.4079         estimate D2E/DX2                !
 ! R57   R(35,42)                1.0811         estimate D2E/DX2                !
 ! R58   R(36,37)                1.4075         estimate D2E/DX2                !
 ! R59   R(36,80)                1.0802         estimate D2E/DX2                !
 ! R60   R(37,38)                1.4076         estimate D2E/DX2                !
 ! R61   R(37,41)                1.0803         estimate D2E/DX2                !
 ! R62   R(38,39)                1.4087         estimate D2E/DX2                !
 ! R63   R(38,81)                1.0803         estimate D2E/DX2                !
 ! R64   R(39,40)                1.08           estimate D2E/DX2                !
 ! R65   R(43,44)                1.4131         estimate D2E/DX2                !
 ! R66   R(43,48)                1.4131         estimate D2E/DX2                !
 ! R67   R(44,45)                1.4081         estimate D2E/DX2                !
 ! R68   R(44,51)                1.08           estimate D2E/DX2                !
 ! R69   R(45,46)                1.4065         estimate D2E/DX2                !
 ! R70   R(45,78)                1.0804         estimate D2E/DX2                !
 ! R71   R(46,47)                1.4067         estimate D2E/DX2                !
 ! R72   R(46,50)                1.0804         estimate D2E/DX2                !
 ! R73   R(47,48)                1.4085         estimate D2E/DX2                !
 ! R74   R(47,79)                1.0804         estimate D2E/DX2                !
 ! R75   R(48,49)                1.0788         estimate D2E/DX2                !
 ! R76   R(55,56)                1.4221         estimate D2E/DX2                !
 ! R77   R(56,57)                1.0903         estimate D2E/DX2                !
 ! R78   R(56,58)                1.0882         estimate D2E/DX2                !
 ! R79   R(56,59)                1.5382         estimate D2E/DX2                !
 ! R80   R(59,60)                1.0901         estimate D2E/DX2                !
 ! R81   R(59,61)                1.0909         estimate D2E/DX2                !
 ! R82   R(59,62)                1.5448         estimate D2E/DX2                !
 ! R83   R(62,63)                1.0902         estimate D2E/DX2                !
 ! R84   R(62,64)                1.0908         estimate D2E/DX2                !
 ! R85   R(62,65)                1.5382         estimate D2E/DX2                !
 ! R86   R(65,66)                1.0903         estimate D2E/DX2                !
 ! R87   R(65,67)                1.4221         estimate D2E/DX2                !
 ! R88   R(65,68)                1.0883         estimate D2E/DX2                !
 ! A1    A(2,1,33)              91.582          estimate D2E/DX2                !
 ! A2    A(2,1,72)              90.3768         estimate D2E/DX2                !
 ! A3    A(33,1,73)             90.373          estimate D2E/DX2                !
 ! A4    A(72,1,73)             87.8502         estimate D2E/DX2                !
 ! A5    A(1,2,3)              113.785          estimate D2E/DX2                !
 ! A6    A(1,2,12)             113.869          estimate D2E/DX2                !
 ! A7    A(1,2,21)             113.019          estimate D2E/DX2                !
 ! A8    A(3,2,12)             103.3252         estimate D2E/DX2                !
 ! A9    A(3,2,21)             107.9821         estimate D2E/DX2                !
 ! A10   A(12,2,21)            103.9385         estimate D2E/DX2                !
 ! A11   A(2,3,4)              119.5366         estimate D2E/DX2                !
 ! A12   A(2,3,8)              121.4763         estimate D2E/DX2                !
 ! A13   A(4,3,8)              118.9864         estimate D2E/DX2                !
 ! A14   A(3,4,5)              120.5667         estimate D2E/DX2                !
 ! A15   A(3,4,11)             120.0259         estimate D2E/DX2                !
 ! A16   A(5,4,11)             119.4063         estimate D2E/DX2                !
 ! A17   A(4,5,6)              120.0114         estimate D2E/DX2                !
 ! A18   A(4,5,76)             120.0255         estimate D2E/DX2                !
 ! A19   A(6,5,76)             119.963          estimate D2E/DX2                !
 ! A20   A(5,6,7)              119.8261         estimate D2E/DX2                !
 ! A21   A(5,6,10)             120.1158         estimate D2E/DX2                !
 ! A22   A(7,6,10)             120.0581         estimate D2E/DX2                !
 ! A23   A(6,7,8)              119.9534         estimate D2E/DX2                !
 ! A24   A(6,7,77)             120.2272         estimate D2E/DX2                !
 ! A25   A(8,7,77)             119.8182         estimate D2E/DX2                !
 ! A26   A(3,8,7)              120.6524         estimate D2E/DX2                !
 ! A27   A(3,8,9)              119.7621         estimate D2E/DX2                !
 ! A28   A(7,8,9)              119.5774         estimate D2E/DX2                !
 ! A29   A(2,12,13)            122.2197         estimate D2E/DX2                !
 ! A30   A(2,12,17)            119.417          estimate D2E/DX2                !
 ! A31   A(13,12,17)           118.3624         estimate D2E/DX2                !
 ! A32   A(12,13,14)           120.8512         estimate D2E/DX2                !
 ! A33   A(12,13,20)           120.673          estimate D2E/DX2                !
 ! A34   A(14,13,20)           118.4755         estimate D2E/DX2                !
 ! A35   A(13,14,15)           120.0984         estimate D2E/DX2                !
 ! A36   A(13,14,74)           119.8894         estimate D2E/DX2                !
 ! A37   A(15,14,74)           120.012          estimate D2E/DX2                !
 ! A38   A(14,15,16)           119.7138         estimate D2E/DX2                !
 ! A39   A(14,15,19)           120.1265         estimate D2E/DX2                !
 ! A40   A(16,15,19)           120.1593         estimate D2E/DX2                !
 ! A41   A(15,16,17)           119.9546         estimate D2E/DX2                !
 ! A42   A(15,16,75)           120.0074         estimate D2E/DX2                !
 ! A43   A(17,16,75)           120.0375         estimate D2E/DX2                !
 ! A44   A(12,17,16)           121.0196         estimate D2E/DX2                !
 ! A45   A(12,17,18)           119.8303         estimate D2E/DX2                !
 ! A46   A(16,17,18)           119.15           estimate D2E/DX2                !
 ! A47   A(2,21,22)            118.4383         estimate D2E/DX2                !
 ! A48   A(2,21,26)            122.9304         estimate D2E/DX2                !
 ! A49   A(22,21,26)           118.5914         estimate D2E/DX2                !
 ! A50   A(21,22,23)           121.4873         estimate D2E/DX2                !
 ! A51   A(21,22,71)           121.0896         estimate D2E/DX2                !
 ! A52   A(23,22,71)           117.4222         estimate D2E/DX2                !
 ! A53   A(22,23,24)           119.8692         estimate D2E/DX2                !
 ! A54   A(22,23,70)           120.0571         estimate D2E/DX2                !
 ! A55   A(24,23,70)           120.0639         estimate D2E/DX2                !
 ! A56   A(23,24,25)           120.0967         estimate D2E/DX2                !
 ! A57   A(23,24,69)           118.0286         estimate D2E/DX2                !
 ! A58   A(25,24,69)           121.8582         estimate D2E/DX2                !
 ! A59   A(24,25,26)           120.0984         estimate D2E/DX2                !
 ! A60   A(24,25,67)           122.3911         estimate D2E/DX2                !
 ! A61   A(26,25,67)           117.4614         estimate D2E/DX2                !
 ! A62   A(21,26,25)           119.8378         estimate D2E/DX2                !
 ! A63   A(21,26,27)           123.0536         estimate D2E/DX2                !
 ! A64   A(25,26,27)           117.0468         estimate D2E/DX2                !
 ! A65   A(26,27,28)           117.0526         estimate D2E/DX2                !
 ! A66   A(26,27,32)           123.0578         estimate D2E/DX2                !
 ! A67   A(28,27,32)           119.8292         estimate D2E/DX2                !
 ! A68   A(27,28,29)           120.1003         estimate D2E/DX2                !
 ! A69   A(27,28,55)           117.465          estimate D2E/DX2                !
 ! A70   A(29,28,55)           122.3871         estimate D2E/DX2                !
 ! A71   A(28,29,30)           120.0962         estimate D2E/DX2                !
 ! A72   A(28,29,54)           121.8613         estimate D2E/DX2                !
 ! A73   A(30,29,54)           118.0256         estimate D2E/DX2                !
 ! A74   A(29,30,31)           119.8704         estimate D2E/DX2                !
 ! A75   A(29,30,53)           120.0596         estimate D2E/DX2                !
 ! A76   A(31,30,53)           120.0602         estimate D2E/DX2                !
 ! A77   A(30,31,32)           121.4824         estimate D2E/DX2                !
 ! A78   A(30,31,52)           117.4229         estimate D2E/DX2                !
 ! A79   A(32,31,52)           121.0937         estimate D2E/DX2                !
 ! A80   A(27,32,31)           118.6019         estimate D2E/DX2                !
 ! A81   A(27,32,33)           122.9281         estimate D2E/DX2                !
 ! A82   A(31,32,33)           118.43           estimate D2E/DX2                !
 ! A83   A(1,33,32)            113.0151         estimate D2E/DX2                !
 ! A84   A(1,33,34)            113.7793         estimate D2E/DX2                !
 ! A85   A(1,33,43)            113.8733         estimate D2E/DX2                !
 ! A86   A(32,33,34)           107.9846         estimate D2E/DX2                !
 ! A87   A(32,33,43)           103.9412         estimate D2E/DX2                !
 ! A88   A(34,33,43)           103.3265         estimate D2E/DX2                !
 ! A89   A(33,34,35)           121.475          estimate D2E/DX2                !
 ! A90   A(33,34,39)           119.5401         estimate D2E/DX2                !
 ! A91   A(35,34,39)           118.9841         estimate D2E/DX2                !
 ! A92   A(34,35,36)           120.6516         estimate D2E/DX2                !
 ! A93   A(34,35,42)           119.7634         estimate D2E/DX2                !
 ! A94   A(36,35,42)           119.5767         estimate D2E/DX2                !
 ! A95   A(35,36,37)           119.9546         estimate D2E/DX2                !
 ! A96   A(35,36,80)           119.8157         estimate D2E/DX2                !
 ! A97   A(37,36,80)           120.2285         estimate D2E/DX2                !
 ! A98   A(36,37,38)           119.8261         estimate D2E/DX2                !
 ! A99   A(36,37,41)           120.0612         estimate D2E/DX2                !
 ! A100  A(38,37,41)           120.1127         estimate D2E/DX2                !
 ! A101  A(37,38,39)           120.0128         estimate D2E/DX2                !
 ! A102  A(37,38,81)           119.971          estimate D2E/DX2                !
 ! A103  A(39,38,81)           120.0161         estimate D2E/DX2                !
 ! A104  A(34,39,38)           120.5672         estimate D2E/DX2                !
 ! A105  A(34,39,40)           120.0259         estimate D2E/DX2                !
 ! A106  A(38,39,40)           119.4058         estimate D2E/DX2                !
 ! A107  A(33,43,44)           119.4207         estimate D2E/DX2                !
 ! A108  A(33,43,48)           122.2196         estimate D2E/DX2                !
 ! A109  A(44,43,48)           118.3587         estimate D2E/DX2                !
 ! A110  A(43,44,45)           121.0231         estimate D2E/DX2                !
 ! A111  A(43,44,51)           119.8235         estimate D2E/DX2                !
 ! A112  A(45,44,51)           119.1533         estimate D2E/DX2                !
 ! A113  A(44,45,46)           119.9541         estimate D2E/DX2                !
 ! A114  A(44,45,78)           120.0412         estimate D2E/DX2                !
 ! A115  A(46,45,78)           120.0044         estimate D2E/DX2                !
 ! A116  A(45,46,47)           119.7129         estimate D2E/DX2                !
 ! A117  A(45,46,50)           120.1578         estimate D2E/DX2                !
 ! A118  A(47,46,50)           120.1289         estimate D2E/DX2                !
 ! A119  A(46,47,48)           120.0998         estimate D2E/DX2                !
 ! A120  A(46,47,79)           120.0157         estimate D2E/DX2                !
 ! A121  A(48,47,79)           119.8843         estimate D2E/DX2                !
 ! A122  A(43,48,47)           120.8514         estimate D2E/DX2                !
 ! A123  A(43,48,49)           120.674          estimate D2E/DX2                !
 ! A124  A(47,48,49)           118.4744         estimate D2E/DX2                !
 ! A125  A(28,55,56)           119.7217         estimate D2E/DX2                !
 ! A126  A(55,56,57)           107.1277         estimate D2E/DX2                !
 ! A127  A(55,56,58)           112.9108         estimate D2E/DX2                !
 ! A128  A(55,56,59)           110.9643         estimate D2E/DX2                !
 ! A129  A(57,56,58)           104.9669         estimate D2E/DX2                !
 ! A130  A(57,56,59)           109.0164         estimate D2E/DX2                !
 ! A131  A(58,56,59)           111.5173         estimate D2E/DX2                !
 ! A132  A(56,59,60)           108.327          estimate D2E/DX2                !
 ! A133  A(56,59,61)           109.7551         estimate D2E/DX2                !
 ! A134  A(56,59,62)           113.3123         estimate D2E/DX2                !
 ! A135  A(60,59,61)           105.5743         estimate D2E/DX2                !
 ! A136  A(60,59,62)           108.8915         estimate D2E/DX2                !
 ! A137  A(61,59,62)           110.6575         estimate D2E/DX2                !
 ! A138  A(59,62,63)           108.8884         estimate D2E/DX2                !
 ! A139  A(59,62,64)           110.6549         estimate D2E/DX2                !
 ! A140  A(59,62,65)           113.3137         estimate D2E/DX2                !
 ! A141  A(63,62,64)           105.5763         estimate D2E/DX2                !
 ! A142  A(63,62,65)           108.3251         estimate D2E/DX2                !
 ! A143  A(64,62,65)           109.7593         estimate D2E/DX2                !
 ! A144  A(62,65,66)           109.0214         estimate D2E/DX2                !
 ! A145  A(62,65,67)           110.9632         estimate D2E/DX2                !
 ! A146  A(62,65,68)           111.518          estimate D2E/DX2                !
 ! A147  A(66,65,67)           107.1245         estimate D2E/DX2                !
 ! A148  A(66,65,68)           104.9689         estimate D2E/DX2                !
 ! A149  A(67,65,68)           112.908          estimate D2E/DX2                !
 ! A150  A(25,67,65)           119.7179         estimate D2E/DX2                !
 ! A151  L(2,1,73,72,-1)       178.227          estimate D2E/DX2                !
 ! A152  L(33,1,72,73,-1)      178.2231         estimate D2E/DX2                !
 ! A153  L(2,1,73,72,-2)       183.281          estimate D2E/DX2                !
 ! A154  L(33,1,72,73,-2)      183.2812         estimate D2E/DX2                !
 ! D1    D(33,1,2,3)            86.1885         estimate D2E/DX2                !
 ! D2    D(33,1,2,12)         -155.7479         estimate D2E/DX2                !
 ! D3    D(33,1,2,21)          -37.4409         estimate D2E/DX2                !
 ! D4    D(72,1,2,3)           -90.6362         estimate D2E/DX2                !
 ! D5    D(72,1,2,12)           27.4274         estimate D2E/DX2                !
 ! D6    D(72,1,2,21)          145.7344         estimate D2E/DX2                !
 ! D7    D(2,1,33,32)          -37.4344         estimate D2E/DX2                !
 ! D8    D(2,1,33,34)           86.1906         estimate D2E/DX2                !
 ! D9    D(2,1,33,43)         -155.7452         estimate D2E/DX2                !
 ! D10   D(73,1,33,32)         145.7409         estimate D2E/DX2                !
 ! D11   D(73,1,33,34)         -90.6341         estimate D2E/DX2                !
 ! D12   D(73,1,33,43)          27.4301         estimate D2E/DX2                !
 ! D13   D(1,2,3,4)             23.8662         estimate D2E/DX2                !
 ! D14   D(1,2,3,8)           -156.4507         estimate D2E/DX2                !
 ! D15   D(12,2,3,4)          -100.1089         estimate D2E/DX2                !
 ! D16   D(12,2,3,8)            79.5743         estimate D2E/DX2                !
 ! D17   D(21,2,3,4)           150.1888         estimate D2E/DX2                !
 ! D18   D(21,2,3,8)           -30.1281         estimate D2E/DX2                !
 ! D19   D(1,2,12,13)         -141.0218         estimate D2E/DX2                !
 ! D20   D(1,2,12,17)           39.3262         estimate D2E/DX2                !
 ! D21   D(3,2,12,13)          -17.1018         estimate D2E/DX2                !
 ! D22   D(3,2,12,17)          163.2461         estimate D2E/DX2                !
 ! D23   D(21,2,12,13)          95.5836         estimate D2E/DX2                !
 ! D24   D(21,2,12,17)         -84.0685         estimate D2E/DX2                !
 ! D25   D(1,2,21,22)         -104.6234         estimate D2E/DX2                !
 ! D26   D(1,2,21,26)           73.0435         estimate D2E/DX2                !
 ! D27   D(3,2,21,22)          128.6067         estimate D2E/DX2                !
 ! D28   D(3,2,21,26)          -53.7264         estimate D2E/DX2                !
 ! D29   D(12,2,21,22)          19.3245         estimate D2E/DX2                !
 ! D30   D(12,2,21,26)        -163.0086         estimate D2E/DX2                !
 ! D31   D(2,3,4,5)           -179.7294         estimate D2E/DX2                !
 ! D32   D(2,3,4,11)             0.6433         estimate D2E/DX2                !
 ! D33   D(8,3,4,5)              0.5796         estimate D2E/DX2                !
 ! D34   D(8,3,4,11)          -179.0478         estimate D2E/DX2                !
 ! D35   D(2,3,8,7)            179.6048         estimate D2E/DX2                !
 ! D36   D(2,3,8,9)              0.6499         estimate D2E/DX2                !
 ! D37   D(4,3,8,7)             -0.7103         estimate D2E/DX2                !
 ! D38   D(4,3,8,9)           -179.6653         estimate D2E/DX2                !
 ! D39   D(3,4,5,6)             -0.1171         estimate D2E/DX2                !
 ! D40   D(3,4,5,76)           179.9816         estimate D2E/DX2                !
 ! D41   D(11,4,5,6)           179.5126         estimate D2E/DX2                !
 ! D42   D(11,4,5,76)           -0.3887         estimate D2E/DX2                !
 ! D43   D(4,5,6,7)             -0.2243         estimate D2E/DX2                !
 ! D44   D(4,5,6,10)           179.825          estimate D2E/DX2                !
 ! D45   D(76,5,6,7)           179.6771         estimate D2E/DX2                !
 ! D46   D(76,5,6,10)           -0.2736         estimate D2E/DX2                !
 ! D47   D(5,6,7,8)              0.0951         estimate D2E/DX2                !
 ! D48   D(5,6,7,77)           179.6908         estimate D2E/DX2                !
 ! D49   D(10,6,7,8)          -179.9542         estimate D2E/DX2                !
 ! D50   D(10,6,7,77)           -0.3585         estimate D2E/DX2                !
 ! D51   D(6,7,8,3)              0.3776         estimate D2E/DX2                !
 ! D52   D(6,7,8,9)            179.3345         estimate D2E/DX2                !
 ! D53   D(77,7,8,3)          -179.2197         estimate D2E/DX2                !
 ! D54   D(77,7,8,9)            -0.2628         estimate D2E/DX2                !
 ! D55   D(2,12,13,14)        -179.6404         estimate D2E/DX2                !
 ! D56   D(2,12,13,20)           0.531          estimate D2E/DX2                !
 ! D57   D(17,12,13,14)          0.0152         estimate D2E/DX2                !
 ! D58   D(17,12,13,20)       -179.8134         estimate D2E/DX2                !
 ! D59   D(2,12,17,16)         179.6795         estimate D2E/DX2                !
 ! D60   D(2,12,17,18)          -0.4418         estimate D2E/DX2                !
 ! D61   D(13,12,17,16)          0.014          estimate D2E/DX2                !
 ! D62   D(13,12,17,18)        179.8928         estimate D2E/DX2                !
 ! D63   D(12,13,14,15)         -0.0128         estimate D2E/DX2                !
 ! D64   D(12,13,14,74)       -179.8505         estimate D2E/DX2                !
 ! D65   D(20,13,14,15)        179.8194         estimate D2E/DX2                !
 ! D66   D(20,13,14,74)         -0.0183         estimate D2E/DX2                !
 ! D67   D(13,14,15,16)         -0.0188         estimate D2E/DX2                !
 ! D68   D(13,14,15,19)       -179.8068         estimate D2E/DX2                !
 ! D69   D(74,14,15,16)        179.8187         estimate D2E/DX2                !
 ! D70   D(74,14,15,19)          0.0307         estimate D2E/DX2                !
 ! D71   D(14,15,16,17)          0.0475         estimate D2E/DX2                !
 ! D72   D(14,15,16,75)       -179.7218         estimate D2E/DX2                !
 ! D73   D(19,15,16,17)        179.8355         estimate D2E/DX2                !
 ! D74   D(19,15,16,75)          0.0662         estimate D2E/DX2                !
 ! D75   D(15,16,17,12)         -0.0455         estimate D2E/DX2                !
 ! D76   D(15,16,17,18)       -179.9251         estimate D2E/DX2                !
 ! D77   D(75,16,17,12)        179.7237         estimate D2E/DX2                !
 ! D78   D(75,16,17,18)         -0.1559         estimate D2E/DX2                !
 ! D79   D(2,21,22,23)         177.1517         estimate D2E/DX2                !
 ! D80   D(2,21,22,71)          -2.5013         estimate D2E/DX2                !
 ! D81   D(26,21,22,23)         -0.6182         estimate D2E/DX2                !
 ! D82   D(26,21,22,71)        179.7289         estimate D2E/DX2                !
 ! D83   D(2,21,26,25)        -176.1752         estimate D2E/DX2                !
 ! D84   D(2,21,26,27)           6.7703         estimate D2E/DX2                !
 ! D85   D(22,21,26,25)          1.4883         estimate D2E/DX2                !
 ! D86   D(22,21,26,27)       -175.5662         estimate D2E/DX2                !
 ! D87   D(21,22,23,24)         -0.594          estimate D2E/DX2                !
 ! D88   D(21,22,23,70)       -179.4575         estimate D2E/DX2                !
 ! D89   D(71,22,23,24)        179.0712         estimate D2E/DX2                !
 ! D90   D(71,22,23,70)          0.2078         estimate D2E/DX2                !
 ! D91   D(22,23,24,25)          0.9279         estimate D2E/DX2                !
 ! D92   D(22,23,24,69)       -177.6211         estimate D2E/DX2                !
 ! D93   D(70,23,24,25)        179.7913         estimate D2E/DX2                !
 ! D94   D(70,23,24,69)          1.2423         estimate D2E/DX2                !
 ! D95   D(23,24,25,26)         -0.0465         estimate D2E/DX2                !
 ! D96   D(23,24,25,67)       -177.4336         estimate D2E/DX2                !
 ! D97   D(69,24,25,26)        178.4454         estimate D2E/DX2                !
 ! D98   D(69,24,25,67)          1.0584         estimate D2E/DX2                !
 ! D99   D(24,25,26,21)         -1.1737         estimate D2E/DX2                !
 ! D100  D(24,25,26,27)        176.0544         estimate D2E/DX2                !
 ! D101  D(67,25,26,21)        176.3398         estimate D2E/DX2                !
 ! D102  D(67,25,26,27)         -6.432          estimate D2E/DX2                !
 ! D103  D(24,25,67,65)        -34.4313         estimate D2E/DX2                !
 ! D104  D(26,25,67,65)        148.1164         estimate D2E/DX2                !
 ! D105  D(21,26,27,28)        111.3348         estimate D2E/DX2                !
 ! D106  D(21,26,27,32)        -71.5005         estimate D2E/DX2                !
 ! D107  D(25,26,27,28)        -65.7965         estimate D2E/DX2                !
 ! D108  D(25,26,27,32)        111.3683         estimate D2E/DX2                !
 ! D109  D(26,27,28,29)        176.0546         estimate D2E/DX2                !
 ! D110  D(26,27,28,55)         -6.3947         estimate D2E/DX2                !
 ! D111  D(32,27,28,29)         -1.2063         estimate D2E/DX2                !
 ! D112  D(32,27,28,55)        176.3444         estimate D2E/DX2                !
 ! D113  D(26,27,32,31)       -175.5825         estimate D2E/DX2                !
 ! D114  D(26,27,32,33)          6.7542         estimate D2E/DX2                !
 ! D115  D(28,27,32,31)          1.5067         estimate D2E/DX2                !
 ! D116  D(28,27,32,33)       -176.1566         estimate D2E/DX2                !
 ! D117  D(27,28,29,30)         -0.0172         estimate D2E/DX2                !
 ! D118  D(27,28,29,54)        178.4567         estimate D2E/DX2                !
 ! D119  D(55,28,29,30)       -177.4435         estimate D2E/DX2                !
 ! D120  D(55,28,29,54)          1.0304         estimate D2E/DX2                !
 ! D121  D(27,28,55,56)        148.0943         estimate D2E/DX2                !
 ! D122  D(29,28,55,56)        -34.4151         estimate D2E/DX2                !
 ! D123  D(28,29,30,31)          0.9162         estimate D2E/DX2                !
 ! D124  D(28,29,30,53)        179.7768         estimate D2E/DX2                !
 ! D125  D(54,29,30,31)       -177.6155         estimate D2E/DX2                !
 ! D126  D(54,29,30,53)          1.2451         estimate D2E/DX2                !
 ! D127  D(29,30,31,32)         -0.5965         estimate D2E/DX2                !
 ! D128  D(29,30,31,52)        179.0617         estimate D2E/DX2                !
 ! D129  D(53,30,31,32)       -179.4571         estimate D2E/DX2                !
 ! D130  D(53,30,31,52)          0.2011         estimate D2E/DX2                !
 ! D131  D(30,31,32,27)         -0.6191         estimate D2E/DX2                !
 ! D132  D(30,31,32,33)        177.1506         estimate D2E/DX2                !
 ! D133  D(52,31,32,27)        179.7351         estimate D2E/DX2                !
 ! D134  D(52,31,32,33)         -2.4952         estimate D2E/DX2                !
 ! D135  D(27,32,33,1)          73.0509         estimate D2E/DX2                !
 ! D136  D(27,32,33,34)        -53.7106         estimate D2E/DX2                !
 ! D137  D(27,32,33,43)       -162.9963         estimate D2E/DX2                !
 ! D138  D(31,32,33,1)        -104.6161         estimate D2E/DX2                !
 ! D139  D(31,32,33,34)        128.6224         estimate D2E/DX2                !
 ! D140  D(31,32,33,43)         19.3366         estimate D2E/DX2                !
 ! D141  D(1,33,34,35)        -156.4421         estimate D2E/DX2                !
 ! D142  D(1,33,34,39)          23.8841         estimate D2E/DX2                !
 ! D143  D(32,33,34,35)        -30.1268         estimate D2E/DX2                !
 ! D144  D(32,33,34,39)        150.1993         estimate D2E/DX2                !
 ! D145  D(43,33,34,35)         79.5801         estimate D2E/DX2                !
 ! D146  D(43,33,34,39)       -100.0938         estimate D2E/DX2                !
 ! D147  D(1,33,43,44)          39.3108         estimate D2E/DX2                !
 ! D148  D(1,33,43,48)        -141.0407         estimate D2E/DX2                !
 ! D149  D(32,33,43,44)        -84.0833         estimate D2E/DX2                !
 ! D150  D(32,33,43,48)         95.5652         estimate D2E/DX2                !
 ! D151  D(34,33,43,44)        163.2271         estimate D2E/DX2                !
 ! D152  D(34,33,43,48)        -17.1244         estimate D2E/DX2                !
 ! D153  D(33,34,35,36)        179.6058         estimate D2E/DX2                !
 ! D154  D(33,34,35,42)          0.6586         estimate D2E/DX2                !
 ! D155  D(39,34,35,36)         -0.7185         estimate D2E/DX2                !
 ! D156  D(39,34,35,42)       -179.6658         estimate D2E/DX2                !
 ! D157  D(33,34,39,38)       -179.7368         estimate D2E/DX2                !
 ! D158  D(33,34,39,40)          0.6425         estimate D2E/DX2                !
 ! D159  D(35,34,39,38)          0.5812         estimate D2E/DX2                !
 ! D160  D(35,34,39,40)       -179.0395         estimate D2E/DX2                !
 ! D161  D(34,35,36,37)          0.3833         estimate D2E/DX2                !
 ! D162  D(34,35,36,80)       -179.2225         estimate D2E/DX2                !
 ! D163  D(42,35,36,37)        179.3326         estimate D2E/DX2                !
 ! D164  D(42,35,36,80)         -0.2733         estimate D2E/DX2                !
 ! D165  D(35,36,37,38)          0.0986         estimate D2E/DX2                !
 ! D166  D(35,36,37,41)       -179.9636         estimate D2E/DX2                !
 ! D167  D(80,36,37,38)        179.7028         estimate D2E/DX2                !
 ! D168  D(80,36,37,41)         -0.3594         estimate D2E/DX2                !
 ! D169  D(36,37,38,39)         -0.2344         estimate D2E/DX2                !
 ! D170  D(36,37,38,81)        179.6772         estimate D2E/DX2                !
 ! D171  D(41,37,38,39)        179.8279         estimate D2E/DX2                !
 ! D172  D(41,37,38,81)         -0.2605         estimate D2E/DX2                !
 ! D173  D(37,38,39,34)         -0.1096         estimate D2E/DX2                !
 ! D174  D(37,38,39,40)        179.5135         estimate D2E/DX2                !
 ! D175  D(81,38,39,34)        179.9789         estimate D2E/DX2                !
 ! D176  D(81,38,39,40)         -0.3981         estimate D2E/DX2                !
 ! D177  D(33,43,44,45)        179.6726         estimate D2E/DX2                !
 ! D178  D(33,43,44,51)         -0.4373         estimate D2E/DX2                !
 ! D179  D(48,43,44,45)          0.0105         estimate D2E/DX2                !
 ! D180  D(48,43,44,51)        179.9006         estimate D2E/DX2                !
 ! D181  D(33,43,48,47)       -179.6356         estimate D2E/DX2                !
 ! D182  D(33,43,48,49)          0.5342         estimate D2E/DX2                !
 ! D183  D(44,43,48,47)          0.0165         estimate D2E/DX2                !
 ! D184  D(44,43,48,49)       -179.8137         estimate D2E/DX2                !
 ! D185  D(43,44,45,46)         -0.044          estimate D2E/DX2                !
 ! D186  D(43,44,45,78)        179.7276         estimate D2E/DX2                !
 ! D187  D(51,44,45,46)       -179.9349         estimate D2E/DX2                !
 ! D188  D(51,44,45,78)         -0.1633         estimate D2E/DX2                !
 ! D189  D(44,45,46,47)          0.0503         estimate D2E/DX2                !
 ! D190  D(44,45,46,50)        179.8279         estimate D2E/DX2                !
 ! D191  D(78,45,46,47)       -179.7214         estimate D2E/DX2                !
 ! D192  D(78,45,46,50)          0.0562         estimate D2E/DX2                !
 ! D193  D(45,46,47,48)         -0.0237         estimate D2E/DX2                !
 ! D194  D(45,46,47,79)        179.8125         estimate D2E/DX2                !
 ! D195  D(50,46,47,48)       -179.8013         estimate D2E/DX2                !
 ! D196  D(50,46,47,79)          0.0349         estimate D2E/DX2                !
 ! D197  D(46,47,48,43)         -0.01           estimate D2E/DX2                !
 ! D198  D(46,47,48,49)        179.8239         estimate D2E/DX2                !
 ! D199  D(79,47,48,43)       -179.8463         estimate D2E/DX2                !
 ! D200  D(79,47,48,49)         -0.0125         estimate D2E/DX2                !
 ! D201  D(28,55,56,57)        167.32           estimate D2E/DX2                !
 ! D202  D(28,55,56,58)         52.2556         estimate D2E/DX2                !
 ! D203  D(28,55,56,59)        -73.785          estimate D2E/DX2                !
 ! D204  D(55,56,59,60)        178.6866         estimate D2E/DX2                !
 ! D205  D(55,56,59,61)         63.8847         estimate D2E/DX2                !
 ! D206  D(55,56,59,62)        -60.3736         estimate D2E/DX2                !
 ! D207  D(57,56,59,60)        -63.5619         estimate D2E/DX2                !
 ! D208  D(57,56,59,61)       -178.3638         estimate D2E/DX2                !
 ! D209  D(57,56,59,62)         57.3779         estimate D2E/DX2                !
 ! D210  D(58,56,59,60)         51.8749         estimate D2E/DX2                !
 ! D211  D(58,56,59,61)        -62.927          estimate D2E/DX2                !
 ! D212  D(58,56,59,62)        172.8147         estimate D2E/DX2                !
 ! D213  D(56,59,62,63)       -124.79           estimate D2E/DX2                !
 ! D214  D(56,59,62,64)         -9.1776         estimate D2E/DX2                !
 ! D215  D(56,59,62,65)        114.593          estimate D2E/DX2                !
 ! D216  D(60,59,62,63)         -4.1693         estimate D2E/DX2                !
 ! D217  D(60,59,62,64)        111.4431         estimate D2E/DX2                !
 ! D218  D(60,59,62,65)       -124.7863         estimate D2E/DX2                !
 ! D219  D(61,59,62,63)        111.444          estimate D2E/DX2                !
 ! D220  D(61,59,62,64)       -132.9437         estimate D2E/DX2                !
 ! D221  D(61,59,62,65)         -9.173          estimate D2E/DX2                !
 ! D222  D(59,62,65,66)         57.376          estimate D2E/DX2                !
 ! D223  D(59,62,65,67)        -60.3739         estimate D2E/DX2                !
 ! D224  D(59,62,65,68)        172.8186         estimate D2E/DX2                !
 ! D225  D(63,62,65,66)        -63.5594         estimate D2E/DX2                !
 ! D226  D(63,62,65,67)        178.6907         estimate D2E/DX2                !
 ! D227  D(63,62,65,68)         51.8831         estimate D2E/DX2                !
 ! D228  D(64,62,65,66)       -178.3648         estimate D2E/DX2                !
 ! D229  D(64,62,65,67)         63.8853         estimate D2E/DX2                !
 ! D230  D(64,62,65,68)        -62.9223         estimate D2E/DX2                !
 ! D231  D(62,65,67,25)        -73.7758         estimate D2E/DX2                !
 ! D232  D(66,65,67,25)        167.3258         estimate D2E/DX2                !
 ! D233  D(68,65,67,25)         52.2625         estimate D2E/DX2                !
 --------------------------------------------------------------------------------
 Trust Radius=3.00D-01 FncErr=1.00D-07 GrdErr=1.00D-06 EigMax=2.50D+02 EigMin=1.00D-04
 Number of steps in this run=    485 maximum allowed number of steps=    486.
 GradGradGradGradGradGradGradGradGradGradGradGradGradGradGradGradGradGrad

 Stoichiometry    C40H34Cl2O2P2Pd
 Framework group  C1[X(C40H34Cl2O2P2Pd)]
 Deg. of freedom   237
 Full point group                 C1      NOp   1
 Largest Abelian subgroup         C1      NOp   1
 Largest concise Abelian subgroup C1      NOp   1
                         Standard orientation:                         
 ---------------------------------------------------------------------
 Center     Atomic      Atomic             Coordinates (Angstroms)
 Number     Number       Type             X           Y           Z
 ---------------------------------------------------------------------
      1         46           0        2.378316    0.000507   -0.000005
      2         15           0        0.700421   -1.724881    0.026155
      3          6           0        0.093407   -2.211931   -1.673281
      4          6           0        0.917099   -1.988671   -2.796239
      5          6           0        0.479075   -2.342108   -4.087532
      6          6           0       -0.789495   -2.925763   -4.265530
      7          6           0       -1.615523   -3.158973   -3.150060
      8          6           0       -1.172191   -2.806484   -1.861073
      9          1           0       -1.815963   -2.978391   -1.009804
     10          1           0       -1.128278   -3.194893   -5.255440
     11          1           0        1.895367   -1.548753   -2.670010
     12          6           0        1.295353   -3.356167    0.758932
     13          6           0        0.916350   -4.606604    0.220735
     14          6           0        1.372130   -5.808657    0.796158
     15          6           0        2.216108   -5.776717    1.921139
     16          6           0        2.602590   -4.539809    2.467821
     17          6           0        2.143531   -3.341046    1.888969
     18          1           0        2.449367   -2.398536    2.318567
     19          1           0        2.568539   -6.698515    2.361035
     20          1           0        0.272591   -4.661577   -0.643149
     21          6           0       -0.804257   -1.276141    1.076429
     22          6           0       -0.947733   -1.887500    2.342828
     23          6           0       -2.007985   -1.557377    3.199859
     24          6           0       -2.946111   -0.592889    2.809682
     25          6           0       -2.836421    0.032024    1.547986
     26          6           0       -1.772755   -0.315200    0.670207
     27          6           0       -1.772958    0.314419   -0.669898
     28          6           0       -2.836226   -0.033616   -1.547897
     29          6           0       -2.946240    0.591253   -2.809588
     30          6           0       -2.008434    1.556118   -3.199857
     31          6           0       -0.948349    1.886814   -2.342810
     32          6           0       -0.804821    1.275710   -1.076385
     33         15           0        0.699652    1.725260   -0.026212
     34          6           0        0.092545    2.211982    1.673300
     35          6           0       -1.173400    2.805846    1.861199
     36          6           0       -1.616784    3.158110    3.150203
     37          6           0       -0.790484    2.925510    4.265588
     38          6           0        0.478389    2.342780    4.087487
     39          6           0        0.916480    1.989403    2.796171
     40          1           0        1.895045    1.550157    2.669888
     41          1           0       -1.129213    3.194595    5.255507
     42          1           0       -1.817449    2.977274    1.009973
     43          6           0        1.293742    3.356721   -0.758976
     44          6           0        2.142193    3.342079   -1.888881
     45          6           0        2.600550    4.541055   -2.467838
     46          6           0        2.213118    5.777830   -1.921389
     47          6           0        1.368967    5.809344   -0.796536
     48          6           0        0.913831    4.607016   -0.221007
     49          1           0        0.269868    4.661713    0.642721
     50          1           0        2.565100    6.699738   -2.361282
     51          1           0        2.448567    2.399713   -2.318315
     52          1           0       -0.241368    2.622672   -2.688956
     53          1           0       -2.091073    2.031096   -4.166521
     54          1           0       -3.725633    0.331896   -3.506592
     55          8           0       -3.703565   -1.027439   -1.135949
     56          6           0       -5.067772   -0.982731   -1.535163
     57          1           0       -5.503053   -1.954379   -1.300343
     58          1           0       -5.191032   -0.872082   -2.610699
     59          6           0       -5.831226    0.107898   -0.764631
     60          1           0       -6.861951    0.120460   -1.119378
     61          1           0       -5.423895    1.088795   -1.013383
     62          6           0       -5.831229   -0.110334    0.764640
     63          1           0       -6.862041   -0.123207    1.119299
     64          1           0       -5.423645   -1.091046    1.013343
     65          6           0       -5.068256    0.980533    1.535229
     66          1           0       -5.503791    1.952053    1.300435
     67          8           0       -3.704014    1.025732    1.136091
     68          1           0       -5.191500    0.869774    2.610859
     69          1           0       -3.725745   -0.333969    3.506613
     70          1           0       -2.090447   -2.032563    4.166351
     71          1           0       -0.240488   -2.623306    2.688882
     72         17           0        4.057964   -1.613103   -0.104641
     73         17           0        4.057227    1.614964    0.104681
     74          1           0        1.074622   -6.756051    0.370522
     75          1           0        3.254302   -4.509666    3.329094
     76          1           0        1.117028   -2.166912   -4.941575
     77          1           0       -2.592071   -3.601851   -3.279714
     78          1           0        3.252360    4.511285   -3.328948
     79          1           0        1.070764    6.756593   -0.370957
     80          1           0       -2.593669    3.600537    3.279914
     81          1           0        1.116657    2.167993    4.941382
 ---------------------------------------------------------------------
 Rotational constants (GHZ):           0.0634496           0.0624025           0.0485273
 General basis read from cards:  (6D, 7F)
 ======================================================================================================
                                       Pseudopotential Parameters
 ======================================================================================================
  Center     Atomic      Valence      Angular      Power
  Number     Number     Electrons     Momentum     of R      Exponent        Coefficient   SO-Coeffient
 ======================================================================================================
    1         46           18
                                      F and up 
                                                     0      598.3336444       -0.05631770    0.00000000
                                                     1      162.4298290      -20.12880360    0.00000000
                                                     2       51.5714771     -105.81979230    0.00000000
                                                     2       16.4888260      -42.57333450    0.00000000
                                                     2        5.8287656       -3.61650860    0.00000000
                                      S - F
                                                     0       73.3806304        3.00036510    0.00000000
                                                     1       14.7550438       32.43500930    0.00000000
                                                     2       17.8350204      459.08303830    0.00000000
                                                     2       12.7111477     -868.06290290    0.00000000
                                                     2        9.3292063      514.47260980    0.00000000
                                      P - F
                                                     0       55.6689877        4.95930990    0.00000000
                                                     1       64.2337771       21.17110290    0.00000000
                                                     2       17.6254952      605.05600920    0.00000000
                                                     2       11.9058155     -726.96418460    0.00000000
                                                     2        8.5100832      396.32748830    0.00000000
                                      D - F
                                                     0       49.9994728        3.05087450    0.00000000
                                                     1       39.7477547       22.25065800    0.00000000
                                                     2       11.4321366      674.83576980    0.00000000
                                                     2        9.1790080    -1040.85540480    0.00000000
                                                     2        7.5624429      505.93751470    0.00000000
    2         15
                                   No pseudopotential on this center.
    3          6
                                   No pseudopotential on this center.
    4          6
                                   No pseudopotential on this center.
    5          6
                                   No pseudopotential on this center.
    6          6
                                   No pseudopotential on this center.
    7          6
                                   No pseudopotential on this center.
    8          6
                                   No pseudopotential on this center.
    9          1
                                   No pseudopotential on this center.
   10          1
                                   No pseudopotential on this center.
   11          1
                                   No pseudopotential on this center.
   12          6
                                   No pseudopotential on this center.
   13          6
                                   No pseudopotential on this center.
   14          6
                                   No pseudopotential on this center.
   15          6
                                   No pseudopotential on this center.
   16          6
                                   No pseudopotential on this center.
   17          6
                                   No pseudopotential on this center.
   18          1
                                   No pseudopotential on this center.
   19          1
                                   No pseudopotential on this center.
   20          1
                                   No pseudopotential on this center.
   21          6
                                   No pseudopotential on this center.
   22          6
                                   No pseudopotential on this center.
   23          6
                                   No pseudopotential on this center.
   24          6
                                   No pseudopotential on this center.
   25          6
                                   No pseudopotential on this center.
   26          6
                                   No pseudopotential on this center.
   27          6
                                   No pseudopotential on this center.
   28          6
                                   No pseudopotential on this center.
   29          6
                                   No pseudopotential on this center.
   30          6
                                   No pseudopotential on this center.
   31          6
                                   No pseudopotential on this center.
   32          6
                                   No pseudopotential on this center.
   33         15
                                   No pseudopotential on this center.
   34          6
                                   No pseudopotential on this center.
   35          6
                                   No pseudopotential on this center.
   36          6
                                   No pseudopotential on this center.
   37          6
                                   No pseudopotential on this center.
   38          6
                                   No pseudopotential on this center.
   39          6
                                   No pseudopotential on this center.
   40          1
                                   No pseudopotential on this center.
   41          1
                                   No pseudopotential on this center.
   42          1
                                   No pseudopotential on this center.
   43          6
                                   No pseudopotential on this center.
   44          6
                                   No pseudopotential on this center.
   45          6
                                   No pseudopotential on this center.
   46          6
                                   No pseudopotential on this center.
   47          6
                                   No pseudopotential on this center.
   48          6
                                   No pseudopotential on this center.
   49          1
                                   No pseudopotential on this center.
   50          1
                                   No pseudopotential on this center.
   51          1
                                   No pseudopotential on this center.
   52          1
                                   No pseudopotential on this center.
   53          1
                                   No pseudopotential on this center.
   54          1
                                   No pseudopotential on this center.
   55          8
                                   No pseudopotential on this center.
   56          6
                                   No pseudopotential on this center.
   57          1
                                   No pseudopotential on this center.
   58          1
                                   No pseudopotential on this center.
   59          6
                                   No pseudopotential on this center.
   60          1
                                   No pseudopotential on this center.
   61          1
                                   No pseudopotential on this center.
   62          6
                                   No pseudopotential on this center.
   63          1
                                   No pseudopotential on this center.
   64          1
                                   No pseudopotential on this center.
   65          6
                                   No pseudopotential on this center.
   66          1
                                   No pseudopotential on this center.
   67          8
                                   No pseudopotential on this center.
   68          1
                                   No pseudopotential on this center.
   69          1
                                   No pseudopotential on this center.
   70          1
                                   No pseudopotential on this center.
   71          1
                                   No pseudopotential on this center.
   72         17
                                   No pseudopotential on this center.
   73         17
                                   No pseudopotential on this center.
   74          1
                                   No pseudopotential on this center.
   75          1
                                   No pseudopotential on this center.
   76          1
                                   No pseudopotential on this center.
   77          1
                                   No pseudopotential on this center.
   78          1
                                   No pseudopotential on this center.
   79          1
                                   No pseudopotential on this center.
   80          1
                                   No pseudopotential on this center.
   81          1
                                   No pseudopotential on this center.
 ======================================================================================================
 There are   798 symmetry adapted cartesian basis functions of A   symmetry.
 There are   798 symmetry adapted basis functions of A   symmetry.
   798 basis functions,  1569 primitive gaussians,   798 cartesian basis functions
   186 alpha electrons      186 beta electrons
       nuclear repulsion energy      7634.3012102698 Hartrees.
 NAtoms=   81 NActive=   81 NUniq=   81 SFac= 1.00D+00 NAtFMM=   60 NAOKFM=T Big=T
 Integral buffers will be    131072 words long.
 Raffenetti 2 integral format.
 Two-electron integral symmetry is turned on.
 Nuclear repulsion after empirical dispersion term =     7634.1396576930 Hartrees.
 Standard density basis: Auto (5D, 7F)
  3474 Density fitting functions
 There are  3474 symmetry adapted density basis functions of A   symmetry.
 One-electron integrals computed using PRISM.
   1 Symmetry operations used in ECPInt.
 ECPInt:  NShTT=   34980 NPrTT=  234589 LenC2=   27120 LenP2D=   90111.
 LDataN:  DoStor=T MaxTD1= 5 Len=  102
 NBasis=   798 RedAO= T EigKep=  3.48D-04  NBF=   798
 NBsUse=   798 1.00D-06 EigRej= -1.00D+00 NBFU=   798
 NBasis=      798 NBas6D=      798 NTT=      318801   NTT6D=   318801
 NDBShl=      690 NDBF=       3474 NDBF6D=     4096  NNucDB=        0
 IDenFi=        2 ISolve=        0 FullAP=F BlkAPC=T NucTyp=        0
 TolInv= 1.00D-06 TolIt=  1.00D-10 IR12=0.
 FoFCou: FMM=F IPFlag=           0 FMFlag=           0 FMFlg1=           0
         NFxFlg=           0 DoJE=F BraDBF=T KetDBF=T FulRan=T
         wScrn=  0.000000 ICntrl=       600 IOpCl=  3 I1Cent=           6 NGrid=           0
         NMat0=    1 NMatS0=   4096 NMatT0=    0 NMatD0=    1 NMtDS0=    0 NMtDT0=    0
 Petite list used in FoFCou.
 DBF EigKep=  1.11D-06 EigRej= -1.00D+00
 NDBF=   3474  NBFD=  3474
 NRank=  3474 NBFDU=  3474
 S*AI*S=  12.7348924508    
 Defaulting to unpruned grid for atomic number  46.
 ExpMin= 2.62D-02 ExpMax= 2.52D+04 ExpMxC= 3.78D+03 IAcc=3 IRadAn=         5 AccDes= 0.00D+00
 Harris functional with IExCor= 1009 and IRadAn=       5 diagonalized for initial guess.
 HarFok:  IExCor= 1009 AccDes= 0.00D+00 IRadAn=         5 IDoV= 1 UseB2=F ITyADJ=14
 ICtDFT=  3500011 ScaDFX=  1.000000  1.000000  1.000000  1.000000
 Defaulting to unpruned grid for atomic number  46.
 FoFCou: FMM=F IPFlag=           0 FMFlag=      100000 FMFlg1=        2001
         NFxFlg=           0 DoJE=T BraDBF=F KetDBF=T FulRan=T
         wScrn=  0.000000 ICntrl=       500 IOpCl=  0 I1Cent=   200000004 NGrid=           0
         NMat0=    1 NMatS0=      1 NMatT0=    0 NMatD0=    1 NMtDS0=    0 NMtDT0=    0
 Petite list used in FoFCou.
 Requested convergence on RMS density matrix=1.00D-08 within 500 cycles.
 Requested convergence on MAX density matrix=1.00D-06.
 Requested convergence on             energy=1.00D-06.
 No special actions if energy rises.
 FoFCou: FMM=F IPFlag=           0 FMFlag=      100000 FMFlg1=        2001
         NFxFlg=           0 DoJE=T BraDBF=T KetDBF=F FulRan=T
         wScrn=  0.000000 ICntrl=       500 IOpCl=  0 I1Cent=           5 NGrid=           0
         NMat0=    1 NMatS0=      1 NMatT0=    0 NMatD0=    1 NMtDS0=    0 NMtDT0=    0
 Symmetry not used in FoFCou.
 Defaulting to unpruned grid for atomic number  46.
 Defaulting to unpruned grid for atomic number  46.
 Defaulting to unpruned grid for atomic number  46.
 Defaulting to unpruned grid for atomic number  46.
 Defaulting to unpruned grid for atomic number  46.
 Defaulting to unpruned grid for atomic number  46.
 Defaulting to unpruned grid for atomic number  46.
 Defaulting to unpruned grid for atomic number  46.
 Defaulting to unpruned grid for atomic number  46.
 Defaulting to unpruned grid for atomic number  46.
 Defaulting to unpruned grid for atomic number  46.
 Defaulting to unpruned grid for atomic number  46.
 Defaulting to unpruned grid for atomic number  46.
 Defaulting to unpruned grid for atomic number  46.
 Defaulting to unpruned grid for atomic number  46.
 Defaulting to unpruned grid for atomic number  46.
 Defaulting to unpruned grid for atomic number  46.
 Defaulting to unpruned grid for atomic number  46.
 Defaulting to unpruned grid for atomic number  46.
 Defaulting to unpruned grid for atomic number  46.
 Defaulting to unpruned grid for atomic number  46.
 Defaulting to unpruned grid for atomic number  46.
 Defaulting to unpruned grid for atomic number  46.
 Defaulting to unpruned grid for atomic number  46.
 Defaulting to unpruned grid for atomic number  46.
 Defaulting to unpruned grid for atomic number  46.
 Defaulting to unpruned grid for atomic number  46.
 Defaulting to unpruned grid for atomic number  46.
 Defaulting to unpruned grid for atomic number  46.
 Defaulting to unpruned grid for atomic number  46.
 Defaulting to unpruned grid for atomic number  46.
 Defaulting to unpruned grid for atomic number  46.
 Defaulting to unpruned grid for atomic number  46.
 Defaulting to unpruned grid for atomic number  46.
 Defaulting to unpruned grid for atomic number  46.
 Defaulting to unpruned grid for atomic number  46.
 Defaulting to unpruned grid for atomic number  46.
 Defaulting to unpruned grid for atomic number  46.
 Defaulting to unpruned grid for atomic number  46.
 Defaulting to unpruned grid for atomic number  46.
 EnCoef did     3 forward-backward iterations
 EnCoef did   100 forward-backward iterations
 EnCoef did   100 forward-backward iterations
 EnCoef did   100 forward-backward iterations
 EnCoef did     6 forward-backward iterations
 EnCoef did     4 forward-backward iterations
 EnCoef did     5 forward-backward iterations
 EnCoef did     3 forward-backward iterations
 EnCoef did     6 forward-backward iterations
 EnCoef did     1 forward-backward iterations
 Initial convergence to 1.0D-05 achieved.  Increase integral accuracy.
 SCF Done:  E(RPBE-PBE) =  -3422.40577054     A.U. after   27 cycles
            NFock= 27  Conv=0.43D-08     -V/T= 2.0312

 **********************************************************************

            Population analysis using the SCF Density.

 **********************************************************************

 Orbital symmetries:
       Occupied  (A) (A) (A) (A) (A) (A) (A) (A) (A) (A) (A) (A)
                 (A) (A) (A) (A) (A) (A) (A) (A) (A) (A) (A) (A)
                 (A) (A) (A) (A) (A) (A) (A) (A) (A) (A) (A) (A)
                 (A) (A) (A) (A) (A) (A) (A) (A) (A) (A) (A) (A)
                 (A) (A) (A) (A) (A) (A) (A) (A) (A) (A) (A) (A)
                 (A) (A) (A) (A) (A) (A) (A) (A) (A) (A) (A) (A)
                 (A) (A) (A) (A) (A) (A) (A) (A) (A) (A) (A) (A)
                 (A) (A) (A) (A) (A) (A) (A) (A) (A) (A) (A) (A)
                 (A) (A) (A) (A) (A) (A) (A) (A) (A) (A) (A) (A)
                 (A) (A) (A) (A) (A) (A) (A) (A) (A) (A) (A) (A)
                 (A) (A) (A) (A) (A) (A) (A) (A) (A) (A) (A) (A)
                 (A) (A) (A) (A) (A) (A) (A) (A) (A) (A) (A) (A)
                 (A) (A) (A) (A) (A) (A) (A) (A) (A) (A) (A) (A)
                 (A) (A) (A) (A) (A) (A) (A) (A) (A) (A) (A) (A)
                 (A) (A) (A) (A) (A) (A) (A) (A) (A) (A) (A) (A)
                 (A) (A) (A) (A) (A) (A)
       Virtual   (A) (A) (A) (A) (A) (A) (A) (A) (A) (A) (A) (A)
                 (A) (A) (A) (A) (A) (A) (A) (A) (A) (A) (A) (A)
                 (A) (A) (A) (A) (A) (A) (A) (A) (A) (A) (A) (A)
                 (A) (A) (A) (A) (A) (A) (A) (A) (A) (A) (A) (A)
                 (A) (A) (A) (A) (A) (A) (A) (A) (A) (A) (A) (A)
                 (A) (A) (A) (A) (A) (A) (A) (A) (A) (A) (A) (A)
                 (A) (A) (A) (A) (A) (A) (A) (A) (A) (A) (A) (A)
                 (A) (A) (A) (A) (A) (A) (A) (A) (A) (A) (A) (A)
                 (A) (A) (A) (A) (A) (A) (A) (A) (A) (A) (A) (A)
                 (A) (A) (A) (A) (A) (A) (A) (A) (A) (A) (A) (A)
                 (A) (A) (A) (A) (A) (A) (A) (A) (A) (A) (A) (A)
                 (A) (A) (A) (A) (A) (A) (A) (A) (A) (A) (A) (A)
                 (A) (A) (A) (A) (A) (A) (A) (A) (A) (A) (A) (A)
                 (A) (A) (A) (A) (A) (A) (A) (A) (A) (A) (A) (A)
                 (A) (A) (A) (A) (A) (A) (A) (A) (A) (A) (A) (A)
                 (A) (A) (A) (A) (A) (A) (A) (A) (A) (A) (A) (A)
                 (A) (A) (A) (A) (A) (A) (A) (A) (A) (A) (A) (A)
                 (A) (A) (A) (A) (A) (A) (A) (A) (A) (A) (A) (A)
                 (A) (A) (A) (A) (A) (A) (A) (A) (A) (A) (A) (A)
                 (A) (A) (A) (A) (A) (A) (A) (A) (A) (A) (A) (A)
                 (A) (A) (A) (A) (A) (A) (A) (A) (A) (A) (A) (A)
                 (A) (A) (A) (A) (A) (A) (A) (A) (A) (A) (A) (A)
                 (A) (A) (A) (A) (A) (A) (A) (A) (A) (A) (A) (A)
                 (A) (A) (A) (A) (A) (A) (A) (A) (A) (A) (A) (A)
                 (A) (A) (A) (A) (A) (A) (A) (A) (A) (A) (A) (A)
                 (A) (A) (A) (A) (A) (A) (A) (A) (A) (A) (A) (A)
                 (A) (A) (A) (A) (A) (A) (A) (A) (A) (A) (A) (A)
                 (A) (A) (A) (A) (A) (A) (A) (A) (A) (A) (A) (A)
                 (A) (A) (A) (A) (A) (A) (A) (A) (A) (A) (A) (A)
                 (A) (A) (A) (A) (A) (A) (A) (A) (A) (A) (A) (A)
                 (A) (A) (A) (A) (A) (A) (A) (A) (A) (A) (A) (A)
                 (A) (A) (A) (A) (A) (A) (A) (A) (A) (A) (A) (A)
                 (A) (A) (A) (A) (A) (A) (A) (A) (A) (A) (A) (A)
                 (A) (A) (A) (A) (A) (A) (A) (A) (A) (A) (A) (A)
                 (A) (A) (A) (A) (A) (A) (A) (A) (A) (A) (A) (A)
                 (A) (A) (A) (A) (A) (A) (A) (A) (A) (A) (A) (A)
                 (A) (A) (A) (A) (A) (A) (A) (A) (A) (A) (A) (A)
                 (A) (A) (A) (A) (A) (A) (A) (A) (A) (A) (A) (A)
                 (A) (A) (A) (A) (A) (A) (A) (A) (A) (A) (A) (A)
                 (A) (A) (A) (A) (A) (A) (A) (A) (A) (A) (A) (A)
                 (A) (A) (A) (A) (A) (A) (A) (A) (A) (A) (A) (A)
                 (A) (A) (A) (A) (A) (A) (A) (A) (A) (A) (A) (A)
                 (A) (A) (A) (A) (A) (A) (A) (A) (A) (A) (A) (A)
                 (A) (A) (A) (A) (A) (A) (A) (A) (A) (A) (A) (A)
                 (A) (A) (A) (A) (A) (A) (A) (A) (A) (A) (A) (A)
                 (A) (A) (A) (A) (A) (A) (A) (A) (A) (A) (A) (A)
                 (A) (A) (A) (A) (A) (A) (A) (A) (A) (A) (A) (A)
                 (A) (A) (A) (A) (A) (A) (A) (A) (A) (A) (A) (A)
                 (A) (A) (A) (A) (A) (A) (A) (A) (A) (A) (A) (A)
                 (A) (A) (A) (A) (A) (A) (A) (A) (A) (A) (A) (A)
                 (A) (A) (A) (A) (A) (A) (A) (A) (A) (A) (A) (A)
 The electronic state is 1-A.
 Alpha  occ. eigenvalues -- -100.58415-100.58415 -76.37475 -76.37474 -18.81331
 Alpha  occ. eigenvalues --  -18.81331  -9.97157  -9.97157  -9.96296  -9.96296
 Alpha  occ. eigenvalues --   -9.93215  -9.93214  -9.92687  -9.92668  -9.92267
 Alpha  occ. eigenvalues --   -9.92267  -9.91750  -9.91750  -9.91262  -9.91261
 Alpha  occ. eigenvalues --   -9.91198  -9.91193  -9.91193  -9.91188  -9.91023
 Alpha  occ. eigenvalues --   -9.91023  -9.90934  -9.90932  -9.90859  -9.90859
 Alpha  occ. eigenvalues --   -9.90725  -9.90724  -9.90706  -9.90705  -9.90615
 Alpha  occ. eigenvalues --   -9.90613  -9.90288  -9.90287  -9.90068  -9.90068
 Alpha  occ. eigenvalues --   -9.90029  -9.90028  -9.89934  -9.89933  -9.89769
 Alpha  occ. eigenvalues --   -9.89769  -9.07940  -9.07940  -6.90295  -6.90294
 Alpha  occ. eigenvalues --   -6.89551  -6.89550  -6.89453  -6.89451  -6.35163
 Alpha  occ. eigenvalues --   -6.35163  -4.56989  -4.56989  -4.56963  -4.56962
 Alpha  occ. eigenvalues --   -4.56683  -4.56682  -3.19413  -1.96259  -1.96133
 Alpha  occ. eigenvalues --   -1.92348  -0.98379  -0.97764  -0.79594  -0.77611
 Alpha  occ. eigenvalues --   -0.77433  -0.77250  -0.76512  -0.76453  -0.73916
 Alpha  occ. eigenvalues --   -0.71411  -0.70187  -0.69608  -0.68991  -0.67513
 Alpha  occ. eigenvalues --   -0.67304  -0.67294  -0.67216  -0.66629  -0.66497
 Alpha  occ. eigenvalues --   -0.66418  -0.66416  -0.64343  -0.63780  -0.62844
 Alpha  occ. eigenvalues --   -0.61106  -0.59949  -0.59088  -0.56707  -0.56637
 Alpha  occ. eigenvalues --   -0.54581  -0.54575  -0.54070  -0.53834  -0.53674
 Alpha  occ. eigenvalues --   -0.53261  -0.53188  -0.52939  -0.51824  -0.50812
 Alpha  occ. eigenvalues --   -0.50066  -0.48598  -0.47067  -0.46249  -0.46137
 Alpha  occ. eigenvalues --   -0.45488  -0.44854  -0.44533  -0.44251  -0.44248
 Alpha  occ. eigenvalues --   -0.43336  -0.42186  -0.41482  -0.40715  -0.40606
 Alpha  occ. eigenvalues --   -0.40286  -0.40009  -0.39929  -0.39603  -0.39266
 Alpha  occ. eigenvalues --   -0.39153  -0.39008  -0.38950  -0.38748  -0.37519
 Alpha  occ. eigenvalues --   -0.37232  -0.37103  -0.36989  -0.36430  -0.36392
 Alpha  occ. eigenvalues --   -0.36106  -0.36000  -0.35553  -0.34519  -0.34457
 Alpha  occ. eigenvalues --   -0.34299  -0.33878  -0.33505  -0.32962  -0.32209
 Alpha  occ. eigenvalues --   -0.32107  -0.31787  -0.31770  -0.31280  -0.31073
 Alpha  occ. eigenvalues --   -0.31040  -0.30427  -0.30262  -0.30019  -0.29888
 Alpha  occ. eigenvalues --   -0.29811  -0.29324  -0.29240  -0.29151  -0.28778
 Alpha  occ. eigenvalues --   -0.28396  -0.28288  -0.26868  -0.26727  -0.26134
 Alpha  occ. eigenvalues --   -0.24894  -0.24551  -0.24121  -0.23513  -0.23289
 Alpha  occ. eigenvalues --   -0.22831  -0.22458  -0.22399  -0.22191  -0.21726
 Alpha  occ. eigenvalues --   -0.21565  -0.21516  -0.21057  -0.20966  -0.20520
 Alpha  occ. eigenvalues --   -0.19253  -0.18516  -0.17826  -0.17104  -0.16557
 Alpha  occ. eigenvalues --   -0.16438
 Alpha virt. eigenvalues --   -0.09366  -0.05896  -0.05563  -0.05468  -0.05110
 Alpha virt. eigenvalues --   -0.04206  -0.04043  -0.03444  -0.03372  -0.02929
 Alpha virt. eigenvalues --   -0.02737  -0.02412  -0.02270  -0.00252   0.01964
 Alpha virt. eigenvalues --    0.03661   0.04298   0.04877   0.05268   0.05456
 Alpha virt. eigenvalues --    0.05499   0.05880   0.06124   0.06960   0.07279
 Alpha virt. eigenvalues --    0.07544   0.08027   0.08715   0.08915   0.09092
 Alpha virt. eigenvalues --    0.09301   0.09368   0.09439   0.09520   0.09660
 Alpha virt. eigenvalues --    0.10575   0.10736   0.10914   0.11154   0.11731
 Alpha virt. eigenvalues --    0.11967   0.12103   0.12742   0.12773   0.12931
 Alpha virt. eigenvalues --    0.13491   0.13737   0.13875   0.13915   0.14799
 Alpha virt. eigenvalues --    0.14896   0.14925   0.15227   0.15541   0.15678
 Alpha virt. eigenvalues --    0.16328   0.16618   0.16788   0.16805   0.17255
 Alpha virt. eigenvalues --    0.17288   0.17495   0.17897   0.18078   0.18817
 Alpha virt. eigenvalues --    0.19009   0.20503   0.21126   0.21553   0.21838
 Alpha virt. eigenvalues --    0.22132   0.22436   0.22683   0.23553   0.24103
 Alpha virt. eigenvalues --    0.24766   0.24901   0.25695   0.25774   0.25999
[...]
 136,-0.00000291,-0.00000198,-0.00000248,0.00001070,0.00002504,0.000018
 24,-0.00000612,-0.00000665,0.00000244,0.00001247,-0.00000066,0.0000035
 6,-0.00000098,-0.00000003,0.00000009,-0.00000045,0.00000421,0.00000442
 ,-0.00000287,-0.00000553,-0.00000758,-0.00000274,0.00000313,-0.0000034
 2,-0.00000419,-0.00000064,0.00000342,0.00000149,0.00000135,-0.00000173
 ,-0.00000096,0.00004520,0.00002492,-0.00002397,0.00003835,-0.00001795,
 0.00000882,-0.00002510,0.00002251,0.00000546,-0.00000732,-0.00002416,-
 0.00005269,-0.00015280,0.00020437,0.00001862,0.00002246,0.00002518,0.0
 0004457,0.00000636,-0.00004815,-0.00003079,-0.00005405,-0.00004671,-0.
 00001385,0.00002350,0.00000756,0.00000355,-0.00000588,-0.00001949,0.00
 000049,0.00006338,0.00004177,0.00000124,-0.00007900,-0.00000427,-0.000
 05984,0.00005485,0.00018044,0.00057774,0.00230523,0.00238576,-0.001817
 99,-0.00617128,0.00358406,0.00076384,-0.26649425,0.11414085,-0.0222881
 5,-0.01158741,0.00681164,-0.00411379,0.00122003,0.00228349,0.00364810,
 0.00033086,-0.00049652,0.00028609,-0.00022805,-0.00046115,-0.00007986,
 0.00002420,-0.00170181,-0.00013647,-0.00007664,-0.00171283,-0.00028637
 ,-0.00001018,0.00005505,-0.00001783,0.00001211,-0.00007091,0.00000008,
 -0.00000648,-0.00000538,-0.00000272,-0.00000663,-0.00001105,-0.0000119
 1,0.00000742,0.00002172,-0.00000453,-0.00007485,-0.00001870,-0.0000640
 6,0.00001169,0.00008481,0.00001798,-0.00000336,-0.00000432,-0.00000120
 ,0.00001087,0.00000071,0.00001115,-0.00000600,0.00000438,-0.00000133,0
 .00000519,0.00000143,-0.00001036,0.00000209,0.00000430,-0.00000516,0.0
 0007850,0.00004372,0.00000761,-0.00005897,0.00000522,0.00000729,0.0000
 0576,0.00000015,0.00000070,0.00000482,-0.00000338,0.00000050,0.0000070
 7,-0.00000557,-0.00000086,0.00000491,-0.00000157,0.00000428,-0.0000054
 1,0.00000342,-0.00000313,0.00001815,0.00000561,0.00001287,0.00000515,0
 .00000073,0.00000116,-0.00000503,-0.00000761,-0.00000024,-0.00003339,0
 .00003594,-0.00008033,0.00002640,0.00001216,-0.00001172,0.00010191,-0.
 00017666,0.00007188,0.00002900,0.00003155,0.00001102,0.00001433,0.0000
 1309,0.00001657,-0.00000198,0.00000008,0.00000345,-0.00000057,-0.00000
 385,0.00000249,-0.00008503,0.00010319,-0.00000024,-0.00000803,-0.00001
 791,-0.00002620,0.00000020,0.00000397,-0.00000020,-0.00000011,-0.00000
 152,0.00000070,-0.00000108,-0.00000044,-0.00000209,0.00000371,0.000001
 08,-0.00000256,-0.00000222,-0.00000785,-0.00000399,-0.00000748,-0.0000
 2631,-0.00000936,0.28141642,-0.00005797,-0.00003182,-0.00001875,0.0001
 5525,0.00005682,0.00005049,-0.00003333,-0.00001387,-0.00001457,0.00000
 803,0.00000363,-0.00000730,-0.00000407,-0.00000420,-0.00000233,0.00000
 037,-0.00000014,0.00000076,-0.00000578,0.00000131,-0.00000271,0.000006
 84,0.00000103,0.00001573,-0.00000164,-0.00000722,0.00000138,0.00000002
 ,-0.00000035,-0.00000061,0.00000144,0.00000211,-0.00000354,-0.00003397
 ,-0.00000736,-0.00000770,-0.00000507,-0.00000493,-0.00000469,-0.000000
 76,-0.00000390,0.00000133,-0.00000014,-0.00000126,0.00000002,-0.000001
 47,-0.00000315,-0.00000072,0.00000791,0.00001373,-0.00000454,-0.000001
 34,0.00000375,0.00000120,0.00000007,-0.00000034,0.00000034,0.00000035,
 -0.00000091,0.00000259,-0.00005682,0.00000522,-0.00002549,-0.00010409,
 0.00004981,-0.00002280,0.00009160,-0.00006166,-0.00003912,-0.00001632,
 0.00012793,0.00013252,0.00048530,-0.00046261,-0.00015989,-0.00006669,0
 .00002246,0.00002687,-0.00003433,0.00001421,0.00010837,0.00010308,0.00
 007324,0.00001051,-0.00001218,-0.00000227,0.00000277,-0.00002004,-0.00
 000196,0.00000292,-0.00001922,-0.00004927,-0.00003652,0.00001629,-0.00
 002856,0.00002205,0.00031010,0.00049042,-0.00051011,0.00259456,0.00542
 420,0.00220622,0.00616358,-0.00121085,-0.00033072,0.11412641,-0.087464
 81,0.01330824,0.00426712,-0.00039131,0.00148615,0.00233279,0.00571518,
 -0.00078221,-0.00051168,-0.00039584,0.00007936,-0.00043202,-0.00099891
 ,-0.00009303,-0.00168463,-0.00274476,-0.00039965,-0.00157193,-0.002791
 47,-0.00055118,0.00005173,-0.00008032,0.00020433,-0.00001976,0.0000617
 2,0.00003111,0.00002466,-0.00000198,-0.00000366,0.00000047,0.00000645,
 -0.00000038,0.00002626,-0.00000658,0.00000556,-0.00006369,0.00000527,-
 0.00002307,0.00001498,0.00000272,0.00001005,-0.00000167,0.00000244,0.0
 0000645,-0.00000081,-0.00000282,0.00000535,0.00000811,-0.00000020,-0.0
 0001394,-0.00000445,-0.00000132,0.00000118,0.00000106,-0.00000243,0.00
 000605,-0.00011291,-0.00007075,-0.00004303,0.00006993,-0.00002265,-0.0
 0000760,-0.00000788,-0.00000006,0.00000249,-0.00001184,0.00000943,-0.0
 0001709,0.00000145,0.00004438,0.00001991,0.00000255,0.00000924,-0.0000
 2562,-0.00000001,-0.00000266,0.00001233,-0.00008883,-0.00002742,-0.000
 03545,0.00000438,-0.00000302,-0.00000239,0.00001709,0.00003000,-0.0000
 2120,-0.00015966,-0.00017546,0.00021981,-0.00007804,0.00002365,0.00009
 227,-0.00020284,0.00073579,-0.00024373,-0.00005830,-0.00011195,-0.0000
 9360,-0.00005824,-0.00006088,-0.00004978,-0.00000575,0.00000072,0.0000
 0482,-0.00000296,-0.00000148,-0.00000043,0.00002465,-0.00002938,0.0000
 1091,-0.00005917,-0.00004908,0.00000440,0.00000117,-0.00000122,0.00000
 087,-0.00000005,0.00000161,0.00000188,-0.00000025,0.00000071,-0.000002
 29,-0.00000122,-0.00000233,0.00000236,0.00000752,0.00000531,0.00000532
 ,-0.00000421,-0.00000601,-0.00000571,-0.12566038,0.08425444,0.00000958
 ,0.00006148,-0.00024826,-0.00014793,-0.00015233,-0.00002776,0.00003619
 ,0.00002722,0.00001610,-0.00000387,-0.00000243,0.00000132,0.00000539,0
 .00000215,0.00000485,0.00000246,0.00000073,-0.00000053,0.00000744,-0.0
 0000246,-0.00000258,-0.00001031,0.00000053,-0.00001954,-0.00000136,0.0
 0000587,0.00000136,0.00000081,0.00000155,-0.00000133,-0.00000344,-0.00
 000127,0.00001082,0.00003334,0.00001141,-0.00000107,-0.00000429,0.0000
 0173,0.00001330,-0.00000167,0.00000474,-0.00000081,0.00000046,0.000003
 31,-0.00000062,0.00000503,0.00000009,-0.00000094,-0.00000034,0.0000009
 2,0.00000368,-0.00000242,-0.00000309,-0.00001364,-0.00000033,0.0000014
 7,0.00000026,0.00000022,-0.00000095,-0.00000112,0.00002093,0.00004576,
 -0.00000210,0.00004043,-0.00003763,-0.00001213,-0.00002740,0.00000861,
 0.00000709,0.00007281,-0.00007412,-0.00004135,-0.00033981,0.00034228,0
 .00010469,0.00007438,-0.00003893,0.00002761,0.00002299,-0.00002839,-0.
 00003820,-0.00004751,-0.00002635,-0.00002504,0.00003302,0.00000797,0.0
 0000171,-0.00000889,-0.00001807,-0.00000064,0.00006514,0.00000832,-0.0
 0000770,-0.00006393,-0.00002781,0.00002910,-0.00074880,0.00042865,0.00
 031731,-0.00102290,0.00161046,-0.00432667,-0.02585238,0.01253590,0.000
 41441,-0.02259547,0.01314031,-0.05701350,0.02299455,-0.01141755,0.0062
 9562,0.00234012,-0.00007601,-0.00397468,0.00022759,-0.00001024,-0.0012
 1185,-0.00010400,-0.00009847,0.00018035,-0.00056290,-0.00018489,0.0009
 0485,0.00004826,-0.00054835,0.00099530,-0.00000978,0.00009596,-0.00007
 702,0.00000058,-0.00008002,-0.00002141,-0.00001538,-0.00000707,0.00000
 609,-0.00000420,-0.00000919,-0.00000862,0.00000498,-0.00000420,0.00000
 500,-0.00003264,-0.00000591,-0.00006386,-0.00000782,0.00002915,0.00002
 338,0.00000146,-0.00000357,-0.00000065,0.00001755,-0.00000076,0.000007
 22,-0.00001185,0.00000552,0.00000170,0.00000297,0.00000374,-0.00000924
 ,-0.00000043,0.00000604,-0.00000555,0.00007449,0.00002844,0.00001855,-
 0.00005315,0.00001301,-0.00000474,0.00000713,-0.00000454,-0.00000015,0
 .00000542,-0.00000270,0.00000565,0.00001459,0.00000703,-0.00000234,-0.
 00000010,-0.00000568,0.00000782,-0.00000457,-0.00000053,-0.00001418,0.
 00003930,-0.00003948,-0.00002171,-0.00000778,0.00000107,0.00000566,-0.
 00001423,-0.00002615,0.00001581,0.00008403,0.00022499,0.00006435,0.000
 09650,-0.00003513,-0.00005095,0.00010416,-0.00048963,0.00003595,-0.000
 00572,-0.00001354,-0.00001721,-0.00001101,-0.00000068,0.00001830,0.000
 01033,-0.00000487,-0.00000048,-0.00000330,0.00000600,-0.00000492,-0.00
 011898,0.00013288,0.00000886,0.00003299,-0.00002734,0.00003066,-0.0000
 0106,0.00000229,0.00000023,-0.00000229,0.00000139,-0.00000007,-0.00000
 078,0.00000014,-0.00000036,0.00000257,0.00000225,-0.00000286,-0.000003
 10,-0.00000748,-0.00000475,-0.00000663,-0.00001830,-0.00000323,0.02404
 707,-0.01464667,0.05748241,0.00000850,0.00003328,0.00002493,0.00004367
 ,0.00002257,0.00000939,-0.00001450,-0.00001284,-0.00000712,0.00000366,
 -0.00000169,-0.00000029,-0.00000139,0.00000005,-0.00000118,-0.00000074
 ,-0.00000073,-0.00000041,-0.00000266,0.00000042,0.00000079,0.00000206,
 -0.00000239,0.00000665,-0.00000038,-0.00000058,0.00000016,-0.00000041,
 -0.00000003,0.00000029,-0.00000006,0.00000125,-0.00000313,-0.00001642,
 -0.00001055,0.00000136,0.00000170,-0.00000219,-0.00000443,-0.00000062,
 -0.00000283,0.00000091,0.00000024,-0.00000130,-0.00000093,-0.00000372,
 -0.00000358,-0.00000420,0.00000106,0.00000826,-0.00000064,0.00000737,0
 .00000367,0.00000510,0.00000090,-0.00000251,0.00000015,-0.00000044,0.0
 0000078,0.00000085,-0.00001837,0.00000139,0.00002664,0.00001385,-0.000
 00034,-0.00002780,0.00001461,0.00002892,0.00001748,-0.00000133,-0.0000
 0321,-0.00002300,-0.00007947,0.00011610,0.00002266,0.00001911,-0.00002
 237,-0.00002513,-0.00000719,0.00000636,0.00000250,-0.00000210,-0.00001
 069,0.00000635,0.00000235,-0.00000151,-0.00000987,0.00001205,-0.000019
 06,-0.00000734,0.00004028,0.00002031,-0.00001019,-0.00008568,-0.000001
 44,-0.00022234,0.00033460,0.00014113,-0.00043138,0.00143105,0.00282905
 ,-0.00181962,-0.00055639,0.00012730,-0.00078521,-0.00257066,0.00469814
 ,-0.00191845,-0.01106168,0.00409680,0.02311271,-0.13649650,0.03732343,
 0.12379062,0.00878269,-0.00212388,-0.00974114,-0.00011611,-0.00180191,
 0.00007779,0.00019093,-0.00181224,-0.00031301,-0.00012781,-0.00056804,
 0.00002827,-0.00000643,0.00002962,-0.00001474,-0.00000372,-0.00001490,
 0.00000326,-0.00000334,0.00000456,-0.00000016,-0.00000033,-0.00000381,
 0.00000290,0.00000313,-0.00000830,0.00000302,0.00000505,0.00001353,0.0
 0000171,-0.00000428,-0.00001151,-0.00000966,0.00000193,0.00000076,0.00
 000056,0.00000484,0.00000199,-0.00000350,-0.00000434,0.00000335,-0.000
 00710,0.00000444,0.00000037,-0.00000487,-0.00000084,0.00000131,-0.0000
 0126,0.00000500,-0.00000186,0.00000084,-0.00000620,0.00000438,-0.00000
 204,0.00000072,-0.00000140,0.00000017,0.00000130,-0.00000052,0.0000006
 4,0.00000054,-0.00000078,0.00000039,-0.00000032,-0.00000062,0.00000166
 ,-0.00000038,-0.00000076,-0.00000328,0.00000694,-0.00000221,0.00000097
 ,-0.00000221,0.00000068,0.00000105,-0.00000180,-0.00000633,0.00000373,
 0.00000730,0.00002201,-0.00000312,0.00001448,-0.00000600,-0.00001246,0
 .00002682,-0.00011670,-0.00000974,0.00000140,0.00000942,0.00000199,-0.
 00000839,0.00000907,0.00001373,-0.00001703,-0.00003513,-0.00001041,0.0
 0000573,-0.00001254,0.00001167,0.00001032,-0.00002131,0.00000415,-0.00
 002697,-0.00001943,0.00006408,0.00000037,-0.00000146,0.00000034,0.0000
 0334,0.00000110,0.00000165,-0.00000007,0.00000031,-0.00000015,-0.00000
 102,0.00000025,0.00000078,0.00000122,-0.00000056,-0.00000051,-0.000001
 23,-0.00000238,-0.00000215,-0.00064696,0.00035135,0.00127751,0.1408849
 1,-0.00000332,-0.00002617,-0.00000003,0.00004728,0.00004457,0.00005088
 ,-0.00000954,-0.00000821,-0.00000778,0.00001079,0.00000156,-0.00000495
 ,-0.00000109,-0.00000169,-0.00000034,0.00000040,0.00000034,-0.00000038
 ,-0.00000360,-0.00000144,-0.00000154,0.00000117,-0.00000112,0.00000130
 ,-0.00000395,-0.00000163,0.00000151,0.00000034,0.00000034,-0.00000112,
 -0.00000122,0.00000183,0.00000134,-0.00001892,0.00000381,0.00000173,0.
 00000667,-0.00000024,-0.00000688,0.00000331,-0.00000179,-0.00000191,-0
 .00000127,-0.00000960,-0.00000201,-0.00000424,0.00000680,-0.00000564,-
 0.00001091,-0.00002270,-0.00001071,0.00001348,0.00000511,0.00002787,0.
 00000085,0.00000158,0.00000163,0.00000113,0.00000277,0.00000006,-0.000
 01486,0.00000416,0.00001608,0.00000144,0.00002533,-0.00004006,0.000035
 23,0.00001013,-0.00000900,-0.00001322,0.00003177,-0.00000667,-0.000016
 22,0.00001867,0.00000022,0.00002047,-0.00003530,-0.00000010,-0.0000112
 4,0.00003642,0.00002527,-0.00000687,0.00001216,0.00001675,-0.00000871,
 -0.00001289,-0.00001480,0.00000624,0.00001170,-0.00001158,-0.00003037,
 0.00000975,0.00000907,0.00007751,-0.00006880,-0.00003321,-0.00017638,0
 .00037179,0.00014165,0.00286830,0.00532217,0.00214152,0.00002375,-0.00
 057758,0.00040838,0.00464036,0.00435896,0.00157386,0.00692993,-0.00000
 513,-0.01169070,0.03705504,-0.04734140,-0.03965726,-0.00464319,0.00416
 441,0.00699039,-0.00167015,-0.00294482,-0.00051932,-0.00185664,-0.0027
 0183,-0.00025580,-0.00052061,-0.00102739,-0.00020722,0.00003339,-0.000
 02095,0.00002382,0.00003064,0.00002536,0.00000473,0.00000022,0.0000014
 6,0.00000652,-0.00000151,-0.00000586,0.00000162,-0.00001398,-0.0000007
 3,0.00000881,0.00002565,0.00000453,0.00003858,0.00001638,-0.00000363,-
 0.00001052,0.00000265,-0.00000102,-0.00000438,0.00000050,0.00000346,-0
 .00000172,0.00000352,-0.00000715,-0.00000244,0.00000060,-0.00000289,0.
 00000220,0.00000163,-0.00000290,0.00000056,-0.00001132,-0.00001416,-0.
 00001127,-0.00000014,-0.00000268,0.00000042,-0.00000162,-0.00000005,0.
 00000066,0.00000018,0.00000085,-0.00000380,-0.00000029,0.00000214,0.00
 000383,0.00000127,0.00000113,-0.00000295,-0.00000076,-0.00000053,0.000
 00146,-0.00000429,0.00000134,-0.00000019,0.00000203,0.00000065,-0.0000
 0107,-0.00000033,0.00000010,-0.00000069,-0.00002577,-0.00001505,0.0000
 0202,-0.00000271,0.00000024,0.00000521,0.00002033,-0.00001007,-0.00003
 427,-0.00000411,-0.00000346,-0.00000602,-0.00000837,-0.00000471,0.0000
 0118,-0.00002202,-0.00002474,-0.00000793,0.00000339,-0.00002337,0.0000
 1195,0.00000687,-0.00001908,-0.00000808,-0.00006173,-0.00002555,-0.000
 04635,0.00000181,0.00000030,-0.00000112,0.00000926,-0.00000730,0.00000
 028,-0.00000030,0.00000078,-0.00000204,0.00000054,0.00000064,0.0000001
 1,-0.00000116,0.00000067,0.00000368,0.00000518,-0.00000360,-0.00000419
 ,0.00051610,0.00014479,-0.00062857,-0.04323887,0.04035462,0.00002990,0
 .00005375,-0.00003052,-0.00001338,-0.00016790,-0.00003901,0.00000224,0
 .00002250,0.00000220,-0.00000262,0.00000378,0.00000459,0.00000323,0.00
 000194,0.00000447,-0.00000210,0.00000115,0.00000292,-0.00000170,0.0000
 0107,0.00000040,-0.00000595,0.00000491,-0.00000416,0.00000273,-0.00000
 460,-0.00000156,0.00000108,-0.00000078,-0.00000086,0.00000335,-0.00000
 421,0.00000283,0.00001298,-0.00000353,-0.00000622,-0.00001400,-0.00000
 220,0.00001651,-0.00000687,0.00000251,0.00000353,0.00000003,0.00001080
 ,0.00000170,0.00000693,-0.00000866,0.00000115,0.00001712,0.00004217,0.
 00000636,-0.00000594,-0.00000796,-0.00003227,-0.00000088,0.00000150,0.
 00000033,-0.00000041,-0.00000767,0.00000083,0.00003484,0.00000727,-0.0
 0001343,-0.00000381,-0.00001215,0.00002624,-0.00002449,-0.00001005,0.0
 0000839,0.00001647,-0.00001322,0.00000411,0.00000306,-0.00001352,-0.00
 000015,-0.00003109,0.00002447,-0.00002388,-0.00000488,-0.00005264,-0.0
 0006845,-0.00004653,-0.00007721,0.00000195,0.00001285,0.00001634,-0.00
 000349,0.00001603,-0.00005536,-0.00001099,0.00013715,0.00011866,-0.000
 02188,-0.00028138,0.00004156,-0.00041919,0.00111848,-0.00041638,0.0001
 7559,-0.00258564,0.00234196,-0.00342509,-0.00084761,0.00039267,-0.0000
 5217,-0.00083329,0.00096681,0.00129773,-0.00368125,0.00141220,0.005855
 41,0.12395387,-0.03977029,-0.23125661,0.01661076,-0.00588818,-0.018393
 85,-0.00013534,-0.00045027,0.00095668,0.00006990,-0.00046950,0.0006582
 5,0.00004677,-0.00016894,0.00001594,-0.00009261,0.00014698,-0.00019558
 ,0.00000930,-0.00012297,-0.00001411,-0.00003242,0.00001088,-0.00000530
 ,-0.00000406,-0.00000943,-0.00000476,-0.00000848,0.00000495,-0.0000069
 4,-0.00001763,0.00001921,0.00000575,0.00000611,0.00002565,-0.00000072,
 -0.00000101,-0.00000577,-0.00000539,0.00001011,0.00000271,-0.00000339,
 -0.00001350,0.00001244,-0.00000280,0.00001680,0.00000049,-0.00001491,0
 .00000191,0.00000636,-0.00000463,0.00007605,0.00006587,0.00001079,-0.0
 0003974,-0.00000284,0.00001117,0.00000668,0.00000304,0.00000176,0.0000
 0140,-0.00000359,-0.00000019,0.00000545,-0.00000107,-0.00000329,0.0000
 0453,-0.00000134,0.00000195,-0.00000427,0.00000420,-0.00000017,0.00000
 054,-0.00000171,-0.00000603,0.00000275,-0.00000065,0.00000224,-0.00000
 218,0.00000045,-0.00000121,-0.00001938,0.00000238,-0.00000274,-0.00000
 086,0.00000102,-0.00000040,-0.00000216,0.00002317,0.00002281,0.0000023
 9,-0.00000027,0.00000560,0.00000401,-0.00000006,-0.00000035,0.00001729
 ,0.00001820,0.00000965,0.00000147,0.00002608,-0.00000661,-0.00007237,0
 .00007967,-0.00000029,-0.00005916,-0.00003741,0.00009145,-0.00000133,0
 .00000137,0.00000221,-0.00000851,0.00001068,0.00000329,0.00000006,-0.0
 0000200,-0.00000104,0.00000198,-0.00000242,-0.00000037,-0.00000434,-0.
 00001088,-0.00001225,0.00000511,-0.00001216,-0.00000484,-0.00027015,0.
 00014654,0.00021892,-0.13309036,0.04173948,0.24466639\\0.00000197,0.00
 000013,-0.00000235,-0.00000396,0.00000006,-0.00000082,-0.00000036,-0.0
 0000020,0.00000182,0.00000091,0.00000001,-0.00000031,0.00000052,0.0000
 0041,0.00000012,0.00000111,0.00000029,0.00000110,0.00000013,0.00000052
 ,0.00000044,0.00000102,0.00000074,-0.00000052,0.00000007,0.,0.00000080
 ,0.00000131,0.00000045,0.00000026,-0.00000020,0.00000085,-0.00000008,0
 .00000200,0.00000032,-0.00000214,-0.00000055,0.00000117,0.00000024,0.0
 0000034,-0.00000105,0.00000077,0.00000010,-0.00000057,0.00000043,-0.00
 000041,0.00000165,0.00000019,-0.00000056,-0.00000073,-0.00000151,-0.00
 000057,-0.00000029,0.00000012,0.00000022,0.00000017,-0.00000013,0.0000
 0066,-0.00000023,0.00000062,0.00000076,-0.00000048,0.00000021,0.000001
 28,0.00000012,0.00000102,-0.00000079,-0.00000052,0.00000003,-0.0000007
 5,-0.00000042,0.00000056,0.00000216,-0.00000207,0.00000001,-0.00000196
 ,0.00000065,-0.00000090,-0.00000244,-0.00000003,0.00000099,0.00000165,
 0.00000011,0.00000117,-0.00000043,0.00000034,0.00000074,0.00000047,0.0
 0000012,-0.00000009,0.00000043,-0.00000044,-0.00000134,0.00000232,-0.0
 0000106,0.00000051,0.00000096,0.00000200,-0.00000164,-0.00000337,-0.00
 000067,0.00000155,0.00000012,0.00000027,-0.00000101,-0.00000125,-0.000
 00060,-0.00000061,-0.00000127,-0.00000044,-0.00000048,-0.00000029,-0.0
 0000088,-0.00000104,0.00000081,-0.00000034,-0.00000037,-0.00000039,0.0
 0000032,-0.00000087,-0.00000095,-0.00000040,-0.00000008,-0.00000077,-0
 .00000062,0.,-0.00000039,0.00000042,0.00000200,0.,0.00000111,-0.000000
 85,-0.00000046,0.00000107,-0.00000117,0.00000086,0.00000039,-0.0000007
 7,-0.00000060,0.00000026,-0.00000210,-0.00000145,0.00000084,-0.0000018
 3,-0.00000001,0.00000043,-0.00000046,-0.00000038,0.00000027,-0.0000009
 1,-0.00000018,0.00000059,-0.00000101,-0.00000022,0.00000052,0.00000030
 ,0.00000072,0.00000028,0.00000009,0.00000077,0.00000031,0.00000041,-0.
 00000153,-0.00000043,-0.00000043,0.00000314,-0.00000162,0.00000189,0.0
 0000015,-0.00000009,0.00000126,0.00000015,0.,0.00000038,0.00000014,0.0
 0000002,-0.00000016,0.00000022,-0.00000068,0.00000113,-0.00000025,-0.0
 0000039,0.00000037,-0.00000010,-0.00000118,0.00000235,-0.00000023,-0.0
 0000051,0.00000073,-0.00000048,-0.00000042,0.00000094,0.00000244,-0.00
 000035,0.00000053,-0.00000054,-0.00000069,0.00000035,-0.00000285,0.000
 00168,0.00000050,-0.00000086,-0.00000092,0.00000066,-0.00000027,-0.000
 00058,0.00000041,-0.00000040,-0.00000069,0.00000055,-0.00000036,-0.000
 00052,0.00000019,0.00000208,0.00000045,0.00000040,0.00000055,0.0000005
 6,-0.00000103,0.00000040,0.00000037,0.00000041,0.,-0.00000042,-0.00000
 017,0.00000111,0.00000096,-0.00000005,0.00000101,0.00000026,0.00000056
 ,0.00000049,0.00000103,-0.00000152,-0.00000066,0.,-0.00000091,-0.00000
 082,-0.00000067,0.00000010,-0.00000122,-0.00000031,-0.00000052\\\@


 IF I HAVE SEEN FARTHER, IT IS BY STANDING ON THE
 SHOULDERS OF GIANTS. -- SIR ISAAC NEWTON
 Job cpu time:       0 days 11 hours 16 minutes 22.8 seconds.
 Elapsed time:       0 days  0 hours 17 minutes  3.1 seconds.
 File lengths (MBytes):  RWF=   5750 Int=      0 D2E=      0 Chk=    148 Scr=      1
 Normal termination of Gaussian 16 at Fri Oct 29 20:35:44 2021.
