 Entering Gaussian System, Link 0=/uufs/chpc.utah.edu/sys/installdir/gaussian16/B01/E6B/g16/g16
 Input=R-C4-Tunephos_3_SPE.com
 Output=R-C4-Tunephos_3_SPE.log
 Initial command:
 /uufs/chpc.utah.edu/sys/installdir/gaussian16/B01/E6B/g16/l1.exe "/scratch/general/lustre/u1010977/3354028/notchpeak.peaks/Gau-156768.inp" -scrdir="/scratch/general/lustre/u1010977/3354028/notchpeak.peaks/"
 Entering Link 1 = /uufs/chpc.utah.edu/sys/installdir/gaussian16/B01/E6B/g16/l1.exe PID=    156770.
  
 Copyright (c) 1988-2017, Gaussian, Inc.  All Rights Reserved.
  
 This is part of the Gaussian(R) 16 program.  It is based on
 the Gaussian(R) 09 system (copyright 2009, Gaussian, Inc.),
 the Gaussian(R) 03 system (copyright 2003, Gaussian, Inc.),
 the Gaussian(R) 98 system (copyright 1998, Gaussian, Inc.),
 the Gaussian(R) 94 system (copyright 1995, Gaussian, Inc.),
 the Gaussian 92(TM) system (copyright 1992, Gaussian, Inc.),
 the Gaussian 90(TM) system (copyright 1990, Gaussian, Inc.),
 the Gaussian 88(TM) system (copyright 1988, Gaussian, Inc.),
 the Gaussian 86(TM) system (copyright 1986, Carnegie Mellon
 University), and the Gaussian 82(TM) system (copyright 1983,
 Carnegie Mellon University). Gaussian is a federally registered
 trademark of Gaussian, Inc.
  
 This software contains proprietary and confidential information,
 including trade secrets, belonging to Gaussian, Inc.
  
 This software is provided under written license and may be
 used, copied, transmitted, or stored only in accord with that
 written license.
  
 The following legend is applicable only to US Government
 contracts under FAR:
  
                    RESTRICTED RIGHTS LEGEND
  
 Use, reproduction and disclosure by the US Government is
 subject to restrictions as set forth in subparagraphs (a)
 and (c) of the Commercial Computer Software - Restricted
 Rights clause in FAR 52.227-19.
  
 Gaussian, Inc.
 340 Quinnipiac St., Bldg. 40, Wallingford CT 06492
  
  
 ---------------------------------------------------------------
 Warning -- This program may not be used in any manner that
 competes with the business of Gaussian, Inc. or will provide
 assistance to any competitor of Gaussian, Inc.  The licensee
 of this program is prohibited from giving any competitor of
 Gaussian, Inc. access to this program.  By using this program,
 the user acknowledges that Gaussian, Inc. is engaged in the
 business of creating and licensing software in the field of
 computational chemistry and represents and warrants to the
 licensee that it is not a competitor of Gaussian, Inc. and that
 it will not use this program in any manner prohibited above.
 ---------------------------------------------------------------
  

 Cite this work as:
 Gaussian 16, Revision B.01,
 M. J. Frisch, G. W. Trucks, H. B. Schlegel, G. E. Scuseria, 
 M. A. Robb, J. R. Cheeseman, G. Scalmani, V. Barone, 
 G. A. Petersson, H. Nakatsuji, X. Li, M. Caricato, A. V. Marenich, 
 J. Bloino, B. G. Janesko, R. Gomperts, B. Mennucci, H. P. Hratchian, 
 J. V. Ortiz, A. F. Izmaylov, J. L. Sonnenberg, D. Williams-Young, 
 F. Ding, F. Lipparini, F. Egidi, J. Goings, B. Peng, A. Petrone, 
 T. Henderson, D. Ranasinghe, V. G. Zakrzewski, J. Gao, N. Rega, 
 G. Zheng, W. Liang, M. Hada, M. Ehara, K. Toyota, R. Fukuda, 
 J. Hasegawa, M. Ishida, T. Nakajima, Y. Honda, O. Kitao, H. Nakai, 
 T. Vreven, K. Throssell, J. A. Montgomery, Jr., J. E. Peralta, 
 F. Ogliaro, M. J. Bearpark, J. J. Heyd, E. N. Brothers, K. N. Kudin, 
 V. N. Staroverov, T. A. Keith, R. Kobayashi, J. Normand, 
 K. Raghavachari, A. P. Rendell, J. C. Burant, S. S. Iyengar, 
 J. Tomasi, M. Cossi, J. M. Millam, M. Klene, C. Adamo, R. Cammi, 
 J. W. Ochterski, R. L. Martin, K. Morokuma, O. Farkas, 
 J. B. Foresman, and D. J. Fox, Gaussian, Inc., Wallingford CT, 2016.
 
 ******************************************
 Gaussian 16:  ES64L-G16RevB.01 20-Dec-2017
                 1-Nov-2021 
 ******************************************
 %NProcShared=52
 Will use up to   52 processors via shared memory.
 %mem=18GB
 %chk=R-C4-Tunephos_3_SPE.chk
 ----------------------------------------------------------------------
 # PBE1PBE gen pseudo=read int=(grid=ultrafine) empiricaldispersion=GD3
 BJ nmr=giao
 ----------------------------------------------------------------------
 1/38=1,172=1/1;
 2/12=2,17=6,18=5,40=1/2;
 3/5=7,11=2,16=1,17=8,25=1,30=1,74=-13,75=-5,124=41/1,2,3,8;
 4//1;
 5/5=2,38=5/2;
 8/6=1,10=90,11=11/1;
 10/13=100,45=16/2;
 6/7=2,8=2,9=2,10=2,28=1/1;
 99/9=1/99;
 -----
 title
 -----
 Symbolic Z-matrix:
 Charge =  0 Multiplicity = 1
 Pd                   -2.31216   0.0135   -0.00073 
 P                    -0.73656   1.66714  -0.03317 
 C                    -0.03549   2.13435  -1.656 
 C                    -0.83818   1.94451  -2.79716 
 C                    -0.34967   2.31596  -4.05643 
 C                     0.93152   2.87352  -4.18128 
 C                     1.7287    3.06571  -3.04313 
 C                     1.24891   2.6989   -1.77967 
 H                     1.88573   2.81459  -0.89694 
 H                     1.3109    3.15716  -5.16862 
 H                    -1.84242   1.52116  -2.67985 
 C                    -1.35663   3.23147   0.70563 
 C                    -0.80018   4.473     0.3505 
 C                    -1.2349    5.6424    0.9897 
 C                    -2.21679   5.57694   1.98745 
 C                    -2.77418   4.33896   2.3414 
 C                    -2.35459   3.16874   1.69833 
 H                    -2.81354   2.2059    1.94316 
 H                    -2.55661   6.49253   2.48252 
 H                    -0.03926   4.53064  -0.43354 
 C                     0.69793   1.24864   1.06212 
 C                     0.73321   1.81955   2.3504 
 C                     1.75128   1.47945   3.24511 
 C                     2.76847   0.6017    2.86139 
 C                     2.75763   0.05159   1.56958 
 C                     1.69994   0.32805   0.66587 
 C                     1.69654  -0.34827  -0.6637 
 C                     2.7582   -0.08425  -1.56649 
 C                     2.7637   -0.63445  -2.85829 
 C                     1.7366   -1.5002   -3.2429 
 C                     0.71383  -1.82832  -2.34908 
 C                     0.68413  -1.25702  -1.06083 
 P                    -0.75617  -1.65858   0.03316 
 C                    -0.06215  -2.134     1.65663 
 C                     1.21543  -2.71355   1.7815 
 C                     1.68971  -3.08597   3.0454 
 C                     0.89375  -2.88449   4.1828 
 C                    -0.3807   -2.31198   4.05676 
 C                    -0.86364  -1.9348    2.79704 
 H                    -1.86275  -1.49973   2.6788 
 H                     1.26885  -3.17258   5.17049 
 H                     1.85169  -2.83668   0.89937 
 C                    -1.39394  -3.21553  -0.70618 
 C                    -2.39019  -3.14111  -1.69979 
 C                    -2.82292  -4.30634  -2.34321 
 C                    -2.28044  -5.55077  -1.98873 
 C                    -1.30029  -5.62773  -0.99009 
 C                    -0.85244  -4.4635   -0.35052 
 H                    -0.09295  -4.53005   0.4342 
 H                    -2.63054  -6.46232  -2.48408 
 H                    -2.83756  -2.17295  -1.94506 
 H                    -0.06649  -2.52863  -2.65342 
 H                     1.73413  -1.92475  -4.25179 
 H                     3.54868  -0.36218  -3.56867 
 O                     3.73112   0.76996  -1.11943 
 C                     5.07053   0.59002  -1.60842 
 H                     5.2996    1.41214  -2.31341 
 H                     5.14996  -0.36603  -2.15752 
 C                     6.06094   0.59434  -0.44416 
 H                     5.89595   1.50075   0.16836 
 H                     7.06612   0.70345  -0.89313 
 C                     6.05317  -0.6657    0.45012 
 H                     5.8781   -1.57012  -0.16255 
 H                     7.0566   -0.78659   0.89997 
 C                     5.06185  -0.64978   1.61352 
 H                     5.28066  -1.47452   2.3187 
 O                     3.72085  -0.81399   1.12337 
 H                     5.15202   0.30528   2.1627 
 H                     3.54958   0.32023   3.57245 
 H                     1.75292   1.90401   4.254 
 H                    -0.0391    2.52899   2.65406 
 Cl                   -3.9474    1.606    -0.69377 
 Cl                   -3.9667   -1.55961   0.6908 
 H                    -0.80694   6.60788   0.70037 
 H                    -3.55469   4.28378   3.10682 
 H                    -0.97342   2.16682  -4.94365 
 H                     2.7327    3.49306  -3.13769 
 H                    -3.60203  -4.24201  -3.10934 
 H                    -0.88396  -6.59816  -0.70034 
 H                     2.68855  -3.52504   3.14089 
 H                    -1.00351  -2.15557   4.9434 
 
 Stoichiometry    C40H34Cl2O2P2Pd
 Framework group  C1[X(C40H34Cl2O2P2Pd)]
 Deg. of freedom   237
 Full point group                 C1      NOp   1
 Largest Abelian subgroup         C1      NOp   1
 Largest concise Abelian subgroup C1      NOp   1
                         Standard orientation:                         
 ---------------------------------------------------------------------
 Center     Atomic      Atomic             Coordinates (Angstroms)
 Number     Number       Type             X           Y           Z
 ---------------------------------------------------------------------
      1         46           0       -2.307886    0.000254   -0.000054
      2         15           0       -0.741879    1.663238   -0.014049
      3          6           0       -0.044218    2.153120   -1.631654
      4          6           0       -0.846292    1.971775   -2.774631
      5          6           0       -0.360477    2.360498   -4.029728
      6          6           0        0.917410    2.926851   -4.148621
      7          6           0        1.713963    3.110545   -3.008630
      8          6           0        1.236841    2.726470   -1.749300
      9          1           0        1.873371    2.835686   -0.865531
     10          1           0        1.294722    3.224014   -5.132775
     11          1           0       -1.848016    1.541304   -2.661835
     12          6           0       -1.370652    3.215361    0.742918
     13          6           0       -0.821539    4.464086    0.401878
     14          6           0       -1.262731    5.623525    1.054645
     15          6           0       -2.243796    5.540932    2.051936
     16          6           0       -2.793867    4.295765    2.391827
     17          6           0       -2.367808    3.135460    1.735192
     18          1           0       -2.821078    2.167225    1.969105
     19          1           0       -2.588679    6.448787    2.557621
     20          1           0       -0.061297    4.535137   -0.381719
     21          6           0        0.695477    1.240470    1.075830
     22          6           0        0.728017    1.796732    2.370571
     23          6           0        1.748417    1.452251    3.260940
     24          6           0        2.770501    0.584864    2.866780
     25          6           0        2.762279    0.049590    1.568741
     26          6           0        1.702613    0.330307    0.668655
     27          6           0        1.702548   -0.330689   -0.668610
     28          6           0        2.762274   -0.050179   -1.568689
     29          6           0        2.770400   -0.585450   -2.866730
     30          6           0        1.748150   -1.452638   -3.260896
     31          6           0        0.727676   -1.796920   -2.370534
     32          6           0        0.695234   -1.240651   -1.075792
     33         15           0       -0.742255   -1.663085    0.014038
     34          6           0       -0.044791   -2.153112    1.631685
     35          6           0        1.236169   -2.726665    1.749415
     36          6           0        1.713133   -3.110846    3.008774
     37          6           0        0.916516   -2.927066    4.148705
     38          6           0       -0.361277   -2.360516    4.029724
     39          6           0       -0.846932   -1.971679    2.774601
     40          1           0       -1.848582   -1.541055    2.661736
     41          1           0        1.293703   -3.224312    5.132882
     42          1           0        1.872749   -2.835968    0.865693
     43          6           0       -1.371337   -3.215087   -0.742925
     44          6           0       -2.368431   -3.135013   -1.735244
     45          6           0       -2.794696   -4.295251   -2.391863
     46          6           0       -2.244889   -5.540520   -2.051915
     47          6           0       -1.263880   -5.623281   -1.054583
     48          6           0       -0.822484   -4.463913   -0.401830
     49          1           0       -0.062282   -4.535091    0.381795
     50          1           0       -2.589933   -6.448319   -2.557590
     51          1           0       -2.821491   -2.166693   -1.969208
     52          1           0       -0.048722   -2.498188   -2.682624
     53          1           0        1.747697   -1.865575   -4.274604
     54          1           0        3.553483   -0.300495   -3.574224
     55          8           0        3.730442    0.804446   -1.112193
     56          6           0        5.070653    0.637886   -1.603707
     57          1           0        5.294671    1.469364   -2.299283
     58          1           0        5.155373   -0.311317   -2.163793
     59          6           0        6.061532    0.634539   -0.439834
     60          1           0        5.891568    1.532882    0.183128
     61          1           0        7.065862    0.754614   -0.887884
     62          6           0        6.061419   -0.635722    0.439899
     63          1           0        5.891310   -1.534036   -0.183064
     64          1           0        7.065724   -0.755967    0.887960
     65          6           0        5.070532   -0.638901    1.603767
     66          1           0        5.294402   -1.470425    2.299336
     67          8           0        3.730289   -0.805222    1.112254
     68          1           0        5.155420    0.310281    2.163860
     69          1           0        3.553526    0.299761    3.574279
     70          1           0        1.748040    1.865189    4.274647
     71          1           0       -0.048242    2.498157    2.682653
     72         17           0       -3.952599    1.591135   -0.674137
     73         17           0       -3.953015   -1.590234    0.673950
     74          1           0       -0.840472    6.594726    0.776274
     75          1           0       -3.573719    4.227272    3.156852
     76          1           0       -0.983742    2.217961   -4.918376
     77          1           0        2.715439    3.544748   -3.098634
     78          1           0       -3.574501   -4.226623   -3.156925
     79          1           0       -0.841823   -6.594559   -0.776172
     80          1           0        2.714536   -3.545204    3.098844
     81          1           0       -0.984594   -2.217914    4.918326
 ---------------------------------------------------------------------
 Rotational constants (GHZ):           0.0666435           0.0627692           0.0503387
 General basis read from cards:  (5D, 7F)
 ======================================================================================================
                                       Pseudopotential Parameters
 ======================================================================================================
  Center     Atomic      Valence      Angular      Power
  Number     Number     Electrons     Momentum     of R      Exponent        Coefficient   SO-Coeffient
 ======================================================================================================
    1         46           18
                                      G and up 
                                                     2        1.0000000        0.00000000    0.00000000
                                      S - G
                                                     2       12.4300000      240.22904000    0.00000000
                                                     2        6.1707590       35.17194300    0.00000000
                                      P - G
                                                     2       11.0800000      170.41727600    0.00000000
                                                     2        5.8295540       28.47213300    0.00000000
                                      D - G
                                                     2        9.5100000       69.01384500    0.00000000
                                                     2        4.1397810       11.75086200    0.00000000
                                      F - G
                                                     2       13.2700000      -31.92955400    0.00000000
                                                     2        6.6300000       -5.39821700    0.00000000
    2         15
                                   No pseudopotential on this center.
    3          6
                                   No pseudopotential on this center.
    4          6
                                   No pseudopotential on this center.
    5          6
                                   No pseudopotential on this center.
    6          6
                                   No pseudopotential on this center.
    7          6
                                   No pseudopotential on this center.
    8          6
                                   No pseudopotential on this center.
    9          1
                                   No pseudopotential on this center.
   10          1
                                   No pseudopotential on this center.
   11          1
                                   No pseudopotential on this center.
   12          6
                                   No pseudopotential on this center.
   13          6
                                   No pseudopotential on this center.
   14          6
                                   No pseudopotential on this center.
   15          6
                                   No pseudopotential on this center.
   16          6
                                   No pseudopotential on this center.
   17          6
                                   No pseudopotential on this center.
   18          1
                                   No pseudopotential on this center.
   19          1
                                   No pseudopotential on this center.
   20          1
                                   No pseudopotential on this center.
   21          6
                                   No pseudopotential on this center.
   22          6
                                   No pseudopotential on this center.
   23          6
                                   No pseudopotential on this center.
   24          6
                                   No pseudopotential on this center.
   25          6
                                   No pseudopotential on this center.
   26          6
                                   No pseudopotential on this center.
   27          6
                                   No pseudopotential on this center.
   28          6
                                   No pseudopotential on this center.
   29          6
                                   No pseudopotential on this center.
   30          6
                                   No pseudopotential on this center.
   31          6
                                   No pseudopotential on this center.
   32          6
                                   No pseudopotential on this center.
   33         15
                                   No pseudopotential on this center.
   34          6
                                   No pseudopotential on this center.
   35          6
                                   No pseudopotential on this center.
   36          6
                                   No pseudopotential on this center.
   37          6
                                   No pseudopotential on this center.
   38          6
                                   No pseudopotential on this center.
   39          6
                                   No pseudopotential on this center.
   40          1
                                   No pseudopotential on this center.
   41          1
                                   No pseudopotential on this center.
   42          1
                                   No pseudopotential on this center.
   43          6
                                   No pseudopotential on this center.
   44          6
                                   No pseudopotential on this center.
   45          6
                                   No pseudopotential on this center.
   46          6
                                   No pseudopotential on this center.
   47          6
                                   No pseudopotential on this center.
   48          6
                                   No pseudopotential on this center.
   49          1
                                   No pseudopotential on this center.
   50          1
                                   No pseudopotential on this center.
   51          1
                                   No pseudopotential on this center.
   52          1
                                   No pseudopotential on this center.
   53          1
                                   No pseudopotential on this center.
   54          1
                                   No pseudopotential on this center.
   55          8
                                   No pseudopotential on this center.
   56          6
                                   No pseudopotential on this center.
   57          1
                                   No pseudopotential on this center.
   58          1
                                   No pseudopotential on this center.
   59          6
                                   No pseudopotential on this center.
   60          1
                                   No pseudopotential on this center.
   61          1
                                   No pseudopotential on this center.
   62          6
                                   No pseudopotential on this center.
   63          1
                                   No pseudopotential on this center.
   64          1
                                   No pseudopotential on this center.
   65          6
                                   No pseudopotential on this center.
   66          1
                                   No pseudopotential on this center.
   67          8
                                   No pseudopotential on this center.
   68          1
                                   No pseudopotential on this center.
   69          1
                                   No pseudopotential on this center.
   70          1
                                   No pseudopotential on this center.
   71          1
                                   No pseudopotential on this center.
   72         17
                                   No pseudopotential on this center.
   73         17
                                   No pseudopotential on this center.
   74          1
                                   No pseudopotential on this center.
   75          1
                                   No pseudopotential on this center.
   76          1
                                   No pseudopotential on this center.
   77          1
                                   No pseudopotential on this center.
   78          1
                                   No pseudopotential on this center.
   79          1
                                   No pseudopotential on this center.
   80          1
                                   No pseudopotential on this center.
   81          1
                                   No pseudopotential on this center.
 ======================================================================================================
 There are  1923 symmetry adapted cartesian basis functions of A   symmetry.
 There are  1690 symmetry adapted basis functions of A   symmetry.
  1690 basis functions,  2755 primitive gaussians,  1923 cartesian basis functions
   186 alpha electrons      186 beta electrons
       nuclear repulsion energy      7734.4957758186 Hartrees.
 NAtoms=   81 NActive=   81 NUniq=   81 SFac= 1.00D+00 NAtFMM=   60 NAOKFM=T Big=T
 Integral buffers will be    131072 words long.
 Raffenetti 2 integral format.
 Two-electron integral symmetry is turned on.
 Nuclear repulsion after empirical dispersion term =     7734.3409354471 Hartrees.
 One-electron integrals computed using PRISM.
   1 Symmetry operations used in ECPInt.
 ECPInt:  NShTT=  220780 NPrTT=  689732 LenC2=  176308 LenP2D=  362366.
 LDataN:  DoStor=T MaxTD1= 7 Len=  274
 Number of processors reduced to  22 by ecpmxn.
 NBasis=  1690 RedAO= T EigKep=  3.55D-06  NBF=  1690
 NBsUse=  1690 1.00D-06 EigRej= -1.00D+00 NBFU=  1690
 Defaulting to unpruned grid for atomic number  46.
 ExpMin= 1.60D-02 ExpMax= 6.95D+04 ExpMxC= 2.37D+03 IAcc=3 IRadAn=         5 AccDes= 0.00D+00
 Harris functional with IExCor= 1009 and IRadAn=       5 diagonalized for initial guess.
 HarFok:  IExCor= 1009 AccDes= 0.00D+00 IRadAn=         5 IDoV= 1 UseB2=F ITyADJ=14
 ICtDFT=  3500011 ScaDFX=  1.000000  1.000000  1.000000  1.000000
 Defaulting to unpruned grid for atomic number  46.
 FoFCou: FMM=F IPFlag=           0 FMFlag=      100000 FMFlg1=        2001
         NFxFlg=           0 DoJE=T BraDBF=F KetDBF=T FulRan=T
         wScrn=  0.000000 ICntrl=       500 IOpCl=  0 I1Cent=   200000004 NGrid=           0
         NMat0=    1 NMatS0=      1 NMatT0=    0 NMatD0=    1 NMtDS0=    0 NMtDT0=    0
 Petite list used in FoFCou.
 Requested convergence on RMS density matrix=1.00D-08 within 128 cycles.
 Requested convergence on MAX density matrix=1.00D-06.
 Requested convergence on             energy=1.00D-06.
 No special actions if energy rises.
 Defaulting to unpruned grid for atomic number  46.
 Defaulting to unpruned grid for atomic number  46.
 Defaulting to unpruned grid for atomic number  46.
 Defaulting to unpruned grid for atomic number  46.
 Defaulting to unpruned grid for atomic number  46.
 Defaulting to unpruned grid for atomic number  46.
 Defaulting to unpruned grid for atomic number  46.
 Defaulting to unpruned grid for atomic number  46.
 Defaulting to unpruned grid for atomic number  46.
 Defaulting to unpruned grid for atomic number  46.
 Defaulting to unpruned grid for atomic number  46.
 Defaulting to unpruned grid for atomic number  46.
 Defaulting to unpruned grid for atomic number  46.
 Defaulting to unpruned grid for atomic number  46.
 Defaulting to unpruned grid for atomic number  46.
 Defaulting to unpruned grid for atomic number  46.
 Defaulting to unpruned grid for atomic number  46.
 Defaulting to unpruned grid for atomic number  46.
 Defaulting to unpruned grid for atomic number  46.
 Defaulting to unpruned grid for atomic number  46.
 Defaulting to unpruned grid for atomic number  46.
 Defaulting to unpruned grid for atomic number  46.
 Defaulting to unpruned grid for atomic number  46.
 Defaulting to unpruned grid for atomic number  46.
 Defaulting to unpruned grid for atomic number  46.
 Defaulting to unpruned grid for atomic number  46.
 Defaulting to unpruned grid for atomic number  46.
 Defaulting to unpruned grid for atomic number  46.
 Defaulting to unpruned grid for atomic number  46.
 Defaulting to unpruned grid for atomic number  46.
 Defaulting to unpruned grid for atomic number  46.
 Defaulting to unpruned grid for atomic number  46.
 Defaulting to unpruned grid for atomic number  46.
 Defaulting to unpruned grid for atomic number  46.
 Defaulting to unpruned grid for atomic number  46.
 Defaulting to unpruned grid for atomic number  46.
 Defaulting to unpruned grid for atomic number  46.
 Defaulting to unpruned grid for atomic number  46.
 Defaulting to unpruned grid for atomic number  46.
 Defaulting to unpruned grid for atomic number  46.
 Defaulting to unpruned grid for atomic number  46.
 Defaulting to unpruned grid for atomic number  46.
 Defaulting to unpruned grid for atomic number  46.
 Defaulting to unpruned grid for atomic number  46.
 Defaulting to unpruned grid for atomic number  46.
 Defaulting to unpruned grid for atomic number  46.
 Defaulting to unpruned grid for atomic number  46.
 Defaulting to unpruned grid for atomic number  46.
 Defaulting to unpruned grid for atomic number  46.
 Defaulting to unpruned grid for atomic number  46.
 Defaulting to unpruned grid for atomic number  46.
 Defaulting to unpruned grid for atomic number  46.
 EnCoef did     6 forward-backward iterations
 EnCoef did   100 forward-backward iterations
 EnCoef did   100 forward-backward iterations
 EnCoef did     3 forward-backward iterations
 SCF Done:  E(RPBE1PBE) =  -3424.52042100     A.U. after   19 cycles
            NFock= 19  Conv=0.10D-07     -V/T= 2.0279
 DoSCS=F DFT=T ScalE2(SS,OS)=  1.000000  1.000000
 Range of M.O.s used for correlation:     1  1690
 NBasis=  1690 NAE=   186 NBE=   186 NFC=     0 NFV=     0
 NROrb=   1690 NOA=   186 NOB=   186 NVA=  1504 NVB=  1504

 **** Warning!!: The largest alpha MO coefficient is  0.48209918D+02

          Differentiating once with respect to magnetic field using GIAOs.
          Electric field/nuclear overlap derivatives assumed to be zero.
 Defaulting to unpruned grid for atomic number  46.
 FoFCou: FMM=F IPFlag=           0 FMFlag=      100000 FMFlg1=        2001
         NFxFlg=           0 DoJE=F BraDBF=F KetDBF=T FulRan=T
         wScrn=  0.000000 ICntrl=      6100 IOpCl=  0 I1Cent=           7 NGrid=          81
         NMat0=    1 NMatS0=      1 NMatT0=    0 NMatD0=    1 NMtDS0=    0 NMtDT0=    0
 Symmetry not used in FoFCou.
   1 Symmetry operations used in ECPInt.
 ECPInt:  NShTT=  220780 NPrTT=  689732 LenC2=  220781 LenP2D=  689732.
 LDataN:  DoStor=T MaxTD1= 8 Len=  415
 Number of processors reduced to  14 by ecpmxn.
 FoFJK:  IHMeth= 1 ICntrl=    6127 DoSepK=F KAlg= 0 I1Cent=           0 FoldK=F
 IRaf=         1 NMat=       1 IRICut=       1 DoRegI=T DoRafI=F ISym2E= 0 IDoP0=0 IntGTp=1.
 Defaulting to unpruned grid for atomic number  46.
 Defaulting to unpruned grid for atomic number  46.
 Defaulting to unpruned grid for atomic number  46.
 Defaulting to unpruned grid for atomic number  46.
 Defaulting to unpruned grid for atomic number  46.
 Defaulting to unpruned grid for atomic number  46.
 Defaulting to unpruned grid for atomic number  46.
 Defaulting to unpruned grid for atomic number  46.
 Defaulting to unpruned grid for atomic number  46.
 Defaulting to unpruned grid for atomic number  46.
 Defaulting to unpruned grid for atomic number  46.
 Defaulting to unpruned grid for atomic number  46.
 Defaulting to unpruned grid for atomic number  46.
 Defaulting to unpruned grid for atomic number  46.
 Defaulting to unpruned grid for atomic number  46.
 Defaulting to unpruned grid for atomic number  46.
 Defaulting to unpruned grid for atomic number  46.
 Defaulting to unpruned grid for atomic number  46.
 Defaulting to unpruned grid for atomic number  46.
 Defaulting to unpruned grid for atomic number  46.
 Defaulting to unpruned grid for atomic number  46.
 Defaulting to unpruned grid for atomic number  46.
 Defaulting to unpruned grid for atomic number  46.
 Defaulting to unpruned grid for atomic number  46.
 Defaulting to unpruned grid for atomic number  46.
 Defaulting to unpruned grid for atomic number  46.
 Defaulting to unpruned grid for atomic number  46.
 Defaulting to unpruned grid for atomic number  46.
 Defaulting to unpruned grid for atomic number  46.
 Defaulting to unpruned grid for atomic number  46.
 Defaulting to unpruned grid for atomic number  46.
 Defaulting to unpruned grid for atomic number  46.
 Defaulting to unpruned grid for atomic number  46.
 Defaulting to unpruned grid for atomic number  46.
 Defaulting to unpruned grid for atomic number  46.
 Defaulting to unpruned grid for atomic number  46.
 Defaulting to unpruned grid for atomic number  46.
 Defaulting to unpruned grid for atomic number  46.
 Defaulting to unpruned grid for atomic number  46.
 Defaulting to unpruned grid for atomic number  46.
 Defaulting to unpruned grid for atomic number  46.
 Defaulting to unpruned grid for atomic number  46.
 Defaulting to unpruned grid for atomic number  46.
 Defaulting to unpruned grid for atomic number  46.
 Defaulting to unpruned grid for atomic number  46.
 Defaulting to unpruned grid for atomic number  46.
 Defaulting to unpruned grid for atomic number  46.
 Defaulting to unpruned grid for atomic number  46.
 Defaulting to unpruned grid for atomic number  46.
 Defaulting to unpruned grid for atomic number  46.
 Defaulting to unpruned grid for atomic number  46.
 Defaulting to unpruned grid for atomic number  46.
          There are     3 degrees of freedom in the 1st order CPHF.  IDoFFX=0 NUNeed=     3.
      3 vectors produced by pass  0 Test12= 9.32D-12 3.33D-08 XBig12= 2.08D+02 2.63D+00.
 AX will form     3 AO Fock derivatives at one time.
      3 vectors produced by pass  1 Test12= 9.32D-12 3.33D-08 XBig12= 1.10D+00 2.97D-01.
      3 vectors produced by pass  2 Test12= 9.32D-12 3.33D-08 XBig12= 1.02D-02 3.18D-02.
      3 vectors produced by pass  3 Test12= 9.32D-12 3.33D-08 XBig12= 2.56D-04 7.76D-03.
      3 vectors produced by pass  4 Test12= 9.32D-12 3.33D-08 XBig12= 1.56D-06 3.76D-04.
      3 vectors produced by pass  5 Test12= 9.32D-12 3.33D-08 XBig12= 1.12D-08 4.29D-05.
      3 vectors produced by pass  6 Test12= 9.32D-12 3.33D-08 XBig12= 2.28D-10 6.00D-06.
      3 vectors produced by pass  7 Test12= 9.32D-12 3.33D-08 XBig12= 2.47D-12 4.93D-07.
 InvSVY:  IOpt=1 It=  1 EMax= 3.55D-15
 Solved reduced A of dimension    24 with     3 vectors.
 Calculating GIAO nuclear magnetic shielding tensors.
 SCF GIAO Magnetic shielding tensor (ppm):
      1  Pd   Isotropic =  -166.2323   Anisotropy =   283.1757
   XX=    22.5515   YX=    -0.0037   ZX=     0.0097
   XY=    -0.0054   YY=   -19.6089   ZY=   -48.2838
   XZ=     0.0019   YZ=  -106.6916   ZZ=  -501.6396
   Eigenvalues:  -513.7897    -7.4588    22.5515
      2  P    Isotropic =   238.9083   Anisotropy =   121.0500
   XX=   258.5406   YX=    51.5738   ZX=    -9.2231
   XY=    78.4767   YY=   248.7950   ZY=    -4.4711
   XZ=   -31.1744   YZ=    21.9535   ZZ=   209.3894
   Eigenvalues:   176.0732   221.0434   319.6083
      3  C    Isotropic =    50.4844   Anisotropy =   180.8388
   XX=    41.3341   YX=   -57.6769   ZX=    12.7799
   XY=   -61.9489   YY=   139.4356   ZY=    37.1638
   XZ=    20.1387   YZ=    34.5259   ZZ=   -29.3164
   Eigenvalues:   -47.4058    27.8155   171.0436
      4  C    Isotropic =    38.8576   Anisotropy =   202.3574
   XX=   -32.8534   YX=   -87.9046   ZX=     1.2281
   XY=   -92.9342   YY=   132.8001   ZY=     8.3590
   XZ=    -5.4663   YZ=    19.3745   ZZ=    16.6261
   Eigenvalues:   -72.7977    15.6080   173.7625
      5  C    Isotropic =    50.8465   Anisotropy =   189.7062
   XX=    24.9909   YX=   -58.5077   ZX=   -51.3030
   XY=   -57.1055   YY=   152.1788   ZY=     5.3802
   XZ=   -51.3994   YZ=     4.2700   ZZ=   -24.6301
   Eigenvalues:   -60.5804    35.8026   177.3173
      6  C    Isotropic =    48.8644   Anisotropy =   193.3175
   XX=    42.9306   YX=   -61.1502   ZX=    22.1545
   XY=   -61.2035   YY=   145.9103   ZY=    41.6014
   XZ=    22.2782   YZ=    37.9121   ZZ=   -42.2478
   Eigenvalues:   -62.8700    31.7204   177.7427
      7  C    Isotropic =    54.0653   Anisotropy =   185.0872
   XX=   -21.0590   YX=   -84.5212   ZX=     1.3114
   XY=   -84.4507   YY=   139.7105   ZY=    14.4438
   XZ=     1.5030   YZ=    17.7178   ZZ=    43.5445
   Eigenvalues:   -57.8707    42.6100   177.4568
      8  C    Isotropic =    44.1687   Anisotropy =   201.1690
   XX=    10.2605   YX=   -62.9059   ZX=   -53.9314
   XY=   -56.9254   YY=   153.5759   ZY=     2.9948
   XZ=   -53.6395   YZ=     9.3427   ZZ=   -31.3303
   Eigenvalues:   -72.2947    26.5194   178.2814
      9  H    Isotropic =    23.7607   Anisotropy =     9.8624
   XX=    24.7146   YX=     0.9455   ZX=    -6.9947
   XY=     0.2483   YY=    25.2915   ZY=    -4.7548
   XZ=    -3.2992   YZ=    -3.4581   ZZ=    21.2760
   Eigenvalues:    16.4730    24.4734    30.3356
     10  H    Isotropic =    23.8737   Anisotropy =     3.5379
   XX=    24.7821   YX=     1.5829   ZX=     1.6658
   XY=     1.6689   YY=    22.2184   ZY=    -1.5070
   XZ=     1.3151   YZ=    -0.9984   ZZ=    24.6207
   Eigenvalues:    20.6151    24.7738    26.2323
     11  H    Isotropic =    22.0120   Anisotropy =    11.2843
   XX=    19.7143   YX=     0.9312   ZX=    -1.3541
   XY=    -1.1057   YY=    17.4646   ZY=    -2.9342
   XZ=    -1.1463   YZ=    -2.0921   ZZ=    28.8570
   Eigenvalues:    16.8913    19.6097    29.5348
     12  C    Isotropic =    44.3261   Anisotropy =   182.3404
   XX=    89.2708   YX=     6.4000   ZX=    74.8934
   XY=     7.8207   YY=   -24.6432   ZY=   -30.2249
   XZ=    94.3219   YZ=   -41.2971   ZZ=    68.3506
   Eigenvalues:   -49.3503    16.4422   165.8864
     13  C    Isotropic =    47.3128   Anisotropy =   193.1571
   XX=    58.7075   YX=   -11.2141   ZX=   119.3452
   XY=   -20.7065   YY=    27.9183   ZY=    -3.9140
   XZ=   116.7211   YZ=     1.1749   ZZ=    55.3127
   Eigenvalues:   -62.2045    28.0587   176.0843
     14  C    Isotropic =    53.5195   Anisotropy =   181.6853
   XX=    92.8530   YX=   -45.6329   ZX=    76.5241
   XY=   -45.5277   YY=   -33.6350   ZY=    11.7856
   XZ=    72.7486   YZ=     9.7611   ZZ=   101.3405
   Eigenvalues:   -56.8014    42.7168   174.6430
     15  C    Isotropic =    49.4160   Anisotropy =   190.2264
   XX=    96.6274   YX=    10.8042   ZX=    83.3508
   XY=    11.0374   YY=   -28.7164   ZY=   -46.3996
   XZ=    85.3528   YZ=   -49.5667   ZZ=    80.3370
   Eigenvalues:   -60.0328    32.0472   176.2336
     16  C    Isotropic =    52.7204   Anisotropy =   184.4154
   XX=    59.6757   YX=   -14.8963   ZX=   114.7754
   XY=   -16.4027   YY=    40.4482   ZY=    -7.7382
   XZ=   115.0647   YZ=    -6.0237   ZZ=    58.0373
   Eigenvalues:   -56.4605    38.9576   175.6640
     17  C    Isotropic =    36.2834   Anisotropy =   201.4545
   XX=    67.0945   YX=   -45.6085   ZX=    95.4064
   XY=   -41.7938   YY=   -49.0678   ZY=     5.6451
   XZ=    81.8195   YZ=    13.2409   ZZ=    90.8235
   Eigenvalues:   -74.7729    13.0367   170.5864
     18  H    Isotropic =    22.2153   Anisotropy =    13.2510
   XX=    21.1959   YX=    -2.1515   ZX=    -3.2240
   XY=    -3.0693   YY=    21.6245   ZY=     7.9194
   XZ=    -1.5775   YZ=     6.0373   ZZ=    23.8256
   Eigenvalues:    15.6221    19.9746    31.0493
     19  H    Isotropic =    23.8034   Anisotropy =     3.5697
   XX=    23.0569   YX=     1.0124   ZX=    -2.8826
   XY=     0.5134   YY=    25.4260   ZY=     0.2245
   XZ=    -2.4719   YZ=    -0.4013   ZZ=    22.9273
   Eigenvalues:    20.2707    24.9562    26.1832
     20  H    Isotropic =    24.2432   Anisotropy =    14.4909
   XX=    19.2484   YX=    -1.3846   ZX=    -3.9081
   XY=    -1.2908   YY=    32.4944   ZY=     5.5585
   XZ=    -1.2603   YZ=     1.9803   ZZ=    20.9870
   Eigenvalues:    17.2923    21.5336    33.9038
     21  C    Isotropic =    41.7203   Anisotropy =   183.3446
   XX=    25.7345   YX=    76.4597   ZX=   -55.2023
   XY=    68.7863   YY=   104.7338   ZY=   -18.1476
   XZ=   -41.1658   YZ=   -44.5392   ZZ=    -5.3075
   Eigenvalues:   -43.7268     4.9376   163.9500
     22  C    Isotropic =    51.7715   Anisotropy =   188.0757
   XX=    33.5606   YX=    97.5149   ZX=   -10.8298
   XY=    95.3940   YY=    83.6591   ZY=   -57.9831
   XZ=    -0.8783   YZ=   -60.4073   ZZ=    38.0948
   Eigenvalues:   -53.5671    31.7263   177.1553
     23  C    Isotropic =    51.2840   Anisotropy =   186.3881
   XX=    78.9895   YX=    58.7839   ZX=   -20.1022
   XY=    61.8120   YY=   107.5323   ZY=   -62.6172
   XZ=   -25.2814   YZ=   -65.9890   ZZ=   -32.6699
   Eigenvalues:   -57.6998    36.0090   175.5427
     24  C    Isotropic =    64.6523   Anisotropy =   166.2027
   XX=    52.7339   YX=    61.3581   ZX=   -55.3416
   XY=    79.4181   YY=   113.7574   ZY=   -16.8398
   XZ=   -58.4425   YZ=   -19.7472   ZZ=    27.4655
   Eigenvalues:   -26.6120    45.1147   175.4540
     25  C    Isotropic =    18.3820   Anisotropy =   145.3753
   XX=    -1.0108   YX=    70.6539   ZX=    -7.0544
   XY=    89.5562   YY=    46.3033   ZY=   -31.1891
   XZ=    -4.5201   YZ=   -37.0982   ZZ=     9.8536
   Eigenvalues:   -64.5096     4.3567   115.2989
     26  C    Isotropic =    50.5252   Anisotropy =   156.9182
   XX=    60.2782   YX=    56.2898   ZX=   -18.3872
   XY=    40.0184   YY=    99.5852   ZY=   -58.8833
   XZ=   -13.5440   YZ=   -66.3303   ZZ=    -8.2877
   Eigenvalues:   -37.3623    33.8006   155.1373
     27  C    Isotropic =    50.5255   Anisotropy =   156.9169
   XX=    60.2588   YX=   -56.2798   ZX=    18.3788
   XY=   -40.0098   YY=    99.6033   ZY=   -58.8894
   XZ=    13.5303   YZ=   -66.3324   ZZ=    -8.2856
   Eigenvalues:   -37.3612    33.8010   155.1368
     28  C    Isotropic =    18.3825   Anisotropy =   145.3761
   XX=    -1.0407   YX=   -70.6447   ZX=     7.0494
   XY=   -89.5473   YY=    46.3345   ZY=   -31.1910
   XZ=     4.5134   YZ=   -37.0993   ZZ=     9.8537
   Eigenvalues:   -64.5088     4.3564   115.2999
     29  C    Isotropic =    64.6525   Anisotropy =   166.2025
   XX=    52.7067   YX=   -61.3465   ZX=    55.3385
   XY=   -79.4062   YY=   113.7850   ZY=   -16.8500
   XZ=    58.4387   YZ=   -19.7584   ZZ=    27.4659
   Eigenvalues:   -26.6119    45.1153   175.4542
     30  C    Isotropic =    51.2835   Anisotropy =   186.3882
   XX=    78.9651   YX=   -58.7786   ZX=    20.0900
   XY=   -61.8058   YY=   107.5560   ZY=   -62.6207
   XZ=    25.2686   YZ=   -65.9943   ZZ=   -32.6706
   Eigenvalues:   -57.7004    36.0086   175.5423
     31  C    Isotropic =    51.7717   Anisotropy =   188.0756
   XX=    33.5215   YX=   -97.5051   ZX=    10.8178
   XY=   -95.3822   YY=    83.6987   ZY=   -57.9858
   XZ=     0.8651   YZ=   -60.4093   ZZ=    38.0948
   Eigenvalues:   -53.5672    31.7268   177.1554
     32  C    Isotropic =    41.7214   Anisotropy =   183.3437
   XX=    25.7028   YX=   -76.4415   ZX=    55.1989
   XY=   -68.7692   YY=   104.7659   ZY=   -18.1586
   XZ=    41.1586   YZ=   -44.5485   ZZ=    -5.3046
   Eigenvalues:   -43.7268     4.9404   163.9505
     33  P    Isotropic =   238.9080   Anisotropy =   121.0462
   XX=   258.5104   YX=   -51.5725   ZX=     9.2211
   XY=   -78.4760   YY=   248.8247   ZY=    -4.4793
   XZ=    31.1802   YZ=    21.9416   ZZ=   209.3890
   Eigenvalues:   176.0787   221.0399   319.6055
     34  C    Isotropic =    50.4844   Anisotropy =   180.8385
   XX=    41.3541   YX=    57.6901   ZX=   -12.7675
   XY=    61.9591   YY=   139.4162   ZY=    37.1757
   XZ=   -20.1267   YZ=    34.5373   ZZ=   -29.3171
   Eigenvalues:   -47.4059    27.8157   171.0434
     35  C    Isotropic =    44.1690   Anisotropy =   201.1687
   XX=    10.2718   YX=    62.9266   ZX=    53.9360
   XY=    56.9467   YY=   153.5569   ZY=     2.9949
   XZ=    53.6449   YZ=     9.3422   ZZ=   -31.3217
   Eigenvalues:   -72.2941    26.5196   178.2815
     36  C    Isotropic =    54.0656   Anisotropy =   185.0869
   XX=   -21.0317   YX=    84.5438   ZX=    -1.3124
   XY=    84.4756   YY=   139.6835   ZY=    14.4534
   XZ=    -1.5037   YZ=    17.7273   ZZ=    43.5452
   Eigenvalues:   -57.8701    42.6101   177.4569
     37  C    Isotropic =    48.8646   Anisotropy =   193.3174
   XX=    42.9529   YX=    61.1632   ZX=   -22.1394
   XY=    61.2168   YY=   145.8894   ZY=    41.6157
   XZ=   -22.2640   YZ=    37.9262   ZZ=   -42.2485
   Eigenvalues:   -62.8698    31.7207   177.7428
     38  C    Isotropic =    50.8466   Anisotropy =   189.7061
   XX=    24.9998   YX=    58.5249   ZX=    51.3099
   XY=    57.1231   YY=   152.1608   ZY=     5.3828
   XZ=    51.4060   YZ=     4.2728   ZZ=   -24.6209
   Eigenvalues:   -60.5801    35.8026   177.3173
     39  C    Isotropic =    38.8581   Anisotropy =   202.3582
   XX=   -32.8260   YX=    87.9282   ZX=    -1.2296
   XY=    92.9584   YY=   132.7731   ZY=     8.3697
   XZ=     5.4680   YZ=    19.3848   ZZ=    16.6272
   Eigenvalues:   -72.7972    15.6080   173.7636
     40  H    Isotropic =    22.0118   Anisotropy =    11.2845
   XX=    19.7140   YX=    -0.9319   ZX=     1.3528
   XY=     1.1050   YY=    17.4643   ZY=    -2.9348
   XZ=     1.1453   YZ=    -2.0928   ZZ=    28.8570
   Eigenvalues:    16.8910    19.6095    29.5348
     41  H    Isotropic =    23.8738   Anisotropy =     3.5380
   XX=    24.7819   YX=    -1.5831   ZX=    -1.6661
   XY=    -1.6690   YY=    22.2189   ZY=    -1.5068
   XZ=    -1.3153   YZ=    -0.9983   ZZ=    24.6205
   Eigenvalues:    20.6152    24.7737    26.2324
     42  H    Isotropic =    23.7606   Anisotropy =     9.8623
   XX=    24.7139   YX=    -0.9446   ZX=     6.9940
   XY=    -0.2478   YY=    25.2915   ZY=    -4.7563
   XZ=     3.2986   YZ=    -3.4592   ZZ=    21.2764
   Eigenvalues:    16.4727    24.4736    30.3355
     43  C    Isotropic =    44.3260   Anisotropy =   182.3406
   XX=    89.2737   YX=    -6.4241   ZX=   -74.8997
   XY=    -7.8448   YY=   -24.6422   ZY=   -30.2079
   XZ=   -94.3285   YZ=   -41.2749   ZZ=    68.3466
   Eigenvalues:   -49.3502    16.4419   165.8864
     44  C    Isotropic =    36.2842   Anisotropy =   201.4551
   XX=    67.1213   YX=    45.5809   ZX=   -95.4079
   XY=    41.7677   YY=   -49.0848   ZY=     5.6710
   XZ=   -81.8193   YZ=    13.2637   ZZ=    90.8160
   Eigenvalues:   -74.7725    13.0374   170.5876
     45  C    Isotropic =    52.7204   Anisotropy =   184.4152
   XX=    59.6924   YX=    14.8893   ZX=  -114.7768
   XY=    16.3959   YY=    40.4416   ZY=    -7.7139
   XZ=  -115.0666   YZ=    -5.9995   ZZ=    58.0273
   Eigenvalues:   -56.4603    38.9577   175.6639
     46  C    Isotropic =    49.4160   Anisotropy =   190.2263
   XX=    96.6300   YX=   -10.8287   ZX=   -83.3586
   XY=   -11.0629   YY=   -28.7145   ZY=   -46.3805
   XZ=   -85.3618   YZ=   -49.5477   ZZ=    80.3325
   Eigenvalues:   -60.0328    32.0472   176.2335
     47  C    Isotropic =    53.5192   Anisotropy =   181.6849
   XX=    92.8761   YX=    45.6059   ZX=   -76.5232
   XY=    45.5005   YY=   -33.6525   ZY=    11.8061
   XZ=   -72.7479   YZ=     9.7805   ZZ=   101.3340
   Eigenvalues:   -56.8017    42.7169   174.6424
     48  C    Isotropic =    47.3123   Anisotropy =   193.1579
   XX=    58.7218   YX=    11.2031   ZX=  -119.3469
   XY=    20.6980   YY=    27.9107   ZY=    -3.8885
   XZ=  -116.7212   YZ=     1.1998   ZZ=    55.3043
   Eigenvalues:   -62.2051    28.0577   176.0842
     49  H    Isotropic =    24.2433   Anisotropy =    14.4912
   XX=    19.2485   YX=     1.3872   ZX=     3.9090
   XY=     1.2934   YY=    32.4941   ZY=     5.5579
   XZ=     1.2606   YZ=     1.9800   ZZ=    20.9874
   Eigenvalues:    17.2924    21.5335    33.9041
     50  H    Isotropic =    23.8034   Anisotropy =     3.5697
   XX=    23.0564   YX=    -1.0118   ZX=     2.8827
   XY=    -0.5128   YY=    25.4263   ZY=     0.2239
   XZ=     2.4719   YZ=    -0.4019   ZZ=    22.9275
   Eigenvalues:    20.2707    24.9563    26.1832
     51  H    Isotropic =    22.2154   Anisotropy =    13.2508
   XX=    21.1970   YX=     2.1515   ZX=     3.2254
   XY=     3.0691   YY=    21.6236   ZY=     7.9187
   XZ=     1.5785   YZ=     6.0371   ZZ=    23.8256
   Eigenvalues:    15.6221    19.9748    31.0492
     52  H    Isotropic =    24.9084   Anisotropy =    12.6689
   XX=    25.1858   YX=     4.5057   ZX=    -6.0400
   XY=     2.4878   YY=    22.6153   ZY=     1.7631
   XZ=    -6.7456   YZ=    -3.5534   ZZ=    26.9240
   Eigenvalues:    18.4282    22.9427    33.3543
     53  H    Isotropic =    24.5340   Anisotropy =     4.8337
   XX=    25.8463   YX=     2.4112   ZX=    -2.4000
   XY=     1.8981   YY=    23.7655   ZY=     1.4600
   XZ=    -1.9465   YZ=     0.6010   ZZ=    23.9903
   Eigenvalues:    20.9370    24.9086    27.7565
     54  H    Isotropic =    24.9424   Anisotropy =     5.8756
   XX=    25.3482   YX=     1.5270   ZX=     1.7297
   XY=    -0.7222   YY=    22.9829   ZY=     3.0383
   XZ=     1.2570   YZ=     2.9680   ZZ=    26.4961
   Eigenvalues:    21.2195    24.7482    28.8594
     55  O    Isotropic =   198.7368   Anisotropy =   105.7307
   XX=   194.0321   YX=   -10.9055   ZX=    42.9380
   XY=   -53.0018   YY=   236.5509   ZY=     1.9605
   XZ=    91.1130   YZ=    -2.8656   ZZ=   165.6275
   Eigenvalues:   108.1628   218.8238   269.2240
     56  C    Isotropic =   107.3708   Anisotropy =    63.5063
   XX=   146.0809   YX=   -12.9587   ZX=   -13.3207
   XY=    -5.0566   YY=    79.3483   ZY=     6.9537
   XZ=    -7.7545   YZ=     6.3080   ZZ=    96.6833
   Eigenvalues:    76.6744    95.7297   149.7084
     57  H    Isotropic =    26.9814   Anisotropy =     8.3115
   XX=    29.7945   YX=     2.0922   ZX=    -2.4116
   XY=     0.4498   YY=    23.1331   ZY=    -4.4216
   XZ=    -1.5814   YZ=    -4.0686   ZZ=    28.0166
   Eigenvalues:    20.6764    27.7453    32.5224
     58  H    Isotropic =    27.5493   Anisotropy =     6.6482
   XX=    31.4563   YX=    -1.2763   ZX=    -1.5635
   XY=    -1.8508   YY=    22.2324   ZY=     1.2634
   XZ=     0.5760   YZ=     3.0164   ZZ=    28.9593
   Eigenvalues:    21.4223    29.2442    31.9815
     59  C    Isotropic =   151.2038   Anisotropy =    14.3358
   XX=   148.9547   YX=    -0.4339   ZX=    -1.8871
   XY=     0.8701   YY=   147.6868   ZY=    -7.5585
   XZ=     3.0449   YZ=    -6.4885   ZZ=   156.9698
   Eigenvalues:   143.8669   148.9835   160.7610
     60  H    Isotropic =    29.7512   Anisotropy =     5.1112
   XX=    29.6507   YX=     2.1117   ZX=     0.5315
   XY=     2.3205   YY=    31.3699   ZY=     0.8188
   XZ=     0.2460   YZ=     1.4455   ZZ=    28.2329
   Eigenvalues:    27.7256    28.3693    33.1586
     61  H    Isotropic =    29.6927   Anisotropy =    11.4304
   XX=    35.9578   YX=     2.3402   ZX=    -2.1186
   XY=     2.2754   YY=    25.6002   ZY=    -3.3123
   XZ=    -2.4078   YZ=    -2.6618   ZZ=    27.5202
   Eigenvalues:    23.3969    28.3683    37.3130
     62  C    Isotropic =   151.2036   Anisotropy =    14.3361
   XX=   148.9541   YX=     0.4335   ZX=     1.8858
   XY=    -0.8700   YY=   147.6869   ZY=    -7.5588
   XZ=    -3.0455   YZ=    -6.4883   ZZ=   156.9698
   Eigenvalues:   143.8668   148.9830   160.7610
     63  H    Isotropic =    29.7511   Anisotropy =     5.1115
   XX=    29.6498   YX=    -2.1115   ZX=    -0.5313
   XY=    -2.3204   YY=    31.3707   ZY=     0.8189
   XZ=    -0.2457   YZ=     1.4455   ZZ=    28.2329
   Eigenvalues:    27.7255    28.3691    33.1588
     64  H    Isotropic =    29.6927   Anisotropy =    11.4305
   XX=    35.9570   YX=    -2.3420   ZX=     2.1181
   XY=    -2.2773   YY=    25.6010   ZY=    -3.3127
   XZ=     2.4074   YZ=    -2.6622   ZZ=    27.5203
   Eigenvalues:    23.3969    28.3683    37.3130
     65  C    Isotropic =   107.3705   Anisotropy =    63.5073
   XX=   146.0841   YX=    12.9465   ZX=    13.3228
   XY=     5.0446   YY=    79.3441   ZY=     6.9512
   XZ=     7.7564   YZ=     6.3067   ZZ=    96.6832
   Eigenvalues:    76.6736    95.7292   149.7086
     66  H    Isotropic =    26.9813   Anisotropy =     8.3118
   XX=    29.7938   YX=    -2.0936   ZX=     2.4109
   XY=    -0.4513   YY=    23.1336   ZY=    -4.4221
   XZ=     1.5807   YZ=    -4.0690   ZZ=    28.0166
   Eigenvalues:    20.6764    27.7451    32.5225
     67  O    Isotropic =   198.7387   Anisotropy =   105.7296
   XX=   194.0476   YX=    10.9130   ZX=   -42.9367
   XY=    53.0097   YY=   236.5402   ZY=     1.9702
   XZ=   -91.1133   YZ=    -2.8486   ZZ=   165.6284
   Eigenvalues:   108.1652   218.8258   269.2251
     68  H    Isotropic =    27.5492   Anisotropy =     6.6482
   XX=    31.4568   YX=     1.2744   ZX=     1.5638
   XY=     1.8489   YY=    22.2315   ZY=     1.2630
   XZ=    -0.5754   YZ=     3.0165   ZZ=    28.9594
   Eigenvalues:    21.4221    29.2443    31.9814
     69  H    Isotropic =    24.9423   Anisotropy =     5.8757
   XX=    25.3480   YX=    -1.5278   ZX=    -1.7292
   XY=     0.7216   YY=    22.9827   ZY=     3.0385
   XZ=    -1.2564   YZ=     2.9682   ZZ=    26.4961
   Eigenvalues:    21.2194    24.7480    28.8594
     70  H    Isotropic =    24.5341   Anisotropy =     4.8336
   XX=    25.8454   YX=    -2.4116   ZX=     2.4003
   XY=    -1.8984   YY=    23.7664   ZY=     1.4593
   XZ=     1.9467   YZ=     0.6006   ZZ=    23.9904
   Eigenvalues:    20.9372    24.9086    27.7565
     71  H    Isotropic =    24.9084   Anisotropy =    12.6686
   XX=    25.1842   YX=    -4.5060   ZX=     6.0402
   XY=    -2.4882   YY=    22.6168   ZY=     1.7616
   XZ=     6.7447   YZ=    -3.5549   ZZ=    26.9243
   Eigenvalues:    18.4284    22.9426    33.3542
     72  Cl   Isotropic =   849.9643   Anisotropy =   541.0225
   XX=   706.2860   YX=  -132.0973   ZX=   122.3070
   XY=  -131.3823   YY=   714.4439   ZY=   142.3911
   XZ=    88.6807   YZ=   244.0108   ZZ=  1129.1629
   Eigenvalues:   506.1517   833.0952  1210.6460
     73  Cl   Isotropic =   849.9670   Anisotropy =   541.0125
   XX=   706.3644   YX=   132.0845   ZX=  -122.2978
   XY=   131.3735   YY=   714.3859   ZY=   142.4274
   XZ=   -88.6356   YZ=   244.0287   ZZ=  1129.1507
   Eigenvalues:   506.1616   833.0974  1210.6420
     74  H    Isotropic =    24.1009   Anisotropy =     7.0809
   XX=    22.3480   YX=    -1.2664   ZX=    -3.2232
   XY=    -1.6841   YY=    26.5338   ZY=     2.6515
   XZ=    -2.7630   YZ=     1.5838   ZZ=    23.4210
   Eigenvalues:    19.8345    23.6468    28.8215
     75  H    Isotropic =    23.6215   Anisotropy =     7.1678
   XX=    21.4604   YX=    -0.4443   ZX=    -1.8624
   XY=    -0.8344   YY=    27.3358   ZY=     2.4570
   XZ=    -1.4428   YZ=     2.1251   ZZ=    22.0682
   Eigenvalues:    19.9274    22.5370    28.4000
     76  H    Isotropic =    23.8568   Anisotropy =     6.2811
   XX=    24.0067   YX=     1.7902   ZX=    -1.0983
   XY=     1.1040   YY=    21.7024   ZY=    -3.1983
   XZ=    -1.4603   YZ=    -2.3194   ZZ=    25.8611
   Eigenvalues:    20.1719    23.3542    28.0442
     77  H    Isotropic =    24.0294   Anisotropy =     6.4923
   XX=    21.9227   YX=     0.2946   ZX=    -0.2057
   XY=     1.0095   YY=    23.2939   ZY=    -2.9643
   XZ=    -0.0199   YZ=    -2.4595   ZZ=    26.8716
   Eigenvalues:    21.3447    22.3859    28.3576
     78  H    Isotropic =    23.6215   Anisotropy =     7.1677
   XX=    21.4605   YX=     0.4455   ZX=     1.8628
   XY=     0.8356   YY=    27.3356   ZY=     2.4565
   XZ=     1.4433   YZ=     2.1246   ZZ=    22.0683
   Eigenvalues:    19.9274    22.5370    28.3999
     79  H    Isotropic =    24.1009   Anisotropy =     7.0811
   XX=    22.3483   YX=     1.2673   ZX=     3.2236
   XY=     1.6850   YY=    26.5334   ZY=     2.6510
   XZ=     2.7633   YZ=     1.5833   ZZ=    23.4212
   Eigenvalues:    19.8345    23.6467    28.8216
     80  H    Isotropic =    24.0294   Anisotropy =     6.4926
   XX=    21.9225   YX=    -0.2940   ZX=     0.2046
   XY=    -1.0089   YY=    23.2941   ZY=    -2.9647
   XZ=     0.0190   YZ=    -2.4598   ZZ=    26.8717
   Eigenvalues:    21.3447    22.3857    28.3578
     81  H    Isotropic =    23.8568   Anisotropy =     6.2811
   XX=    24.0061   YX=    -1.7905   ZX=     1.0976
   XY=    -1.1042   YY=    21.7029   ZY=    -3.1985
   XZ=     1.4597   YZ=    -2.3198   ZZ=    25.8613
   Eigenvalues:    20.1719    23.3542    28.0442
 End of Minotr F.D. properties file   721 does not exist.
 End of Minotr F.D. properties file   722 does not exist.
 End of Minotr F.D. properties file   788 does not exist.

 **********************************************************************

            Population analysis using the SCF Density.

 **********************************************************************

 Orbital symmetries:
       Occupied  (A) (A) (A) (A) (A) (A) (A) (A) (A) (A) (A) (A)
                 (A) (A) (A) (A) (A) (A) (A) (A) (A) (A) (A) (A)
                 (A) (A) (A) (A) (A) (A) (A) (A) (A) (A) (A) (A)
                 (A) (A) (A) (A) (A) (A) (A) (A) (A) (A) (A) (A)
                 (A) (A) (A) (A) (A) (A) (A) (A) (A) (A) (A) (A)
                 (A) (A) (A) (A) (A) (A) (A) (A) (A) (A) (A) (A)
                 (A) (A) (A) (A) (A) (A) (A) (A) (A) (A) (A) (A)
                 (A) (A) (A) (A) (A) (A) (A) (A) (A) (A) (A) (A)
                 (A) (A) (A) (A) (A) (A) (A) (A) (A) (A) (A) (A)
                 (A) (A) (A) (A) (A) (A) (A) (A) (A) (A) (A) (A)
                 (A) (A) (A) (A) (A) (A) (A) (A) (A) (A) (A) (A)
                 (A) (A) (A) (A) (A) (A) (A) (A) (A) (A) (A) (A)
                 (A) (A) (A) (A) (A) (A) (A) (A) (A) (A) (A) (A)
                 (A) (A) (A) (A) (A) (A) (A) (A) (A) (A) (A) (A)
                 (A) (A) (A) (A) (A) (A) (A) (A) (A) (A) (A) (A)
                 (A) (A) (A) (A) (A) (A)
       Virtual   (A) (A) (A) (A) (A) (A) (A) (A) (A) (A) (A) (A)
                 (A) (A) (A) (A) (A) (A) (A) (A) (A) (A) (A) (A)
                 (A) (A) (A) (A) (A) (A) (A) (A) (A) (A) (A) (A)
                 (A) (A) (A) (A) (A) (A) (A) (A) (A) (A) (A) (A)
                 (A) (A) (A) (A) (A) (A) (A) (A) (A) (A) (A) (A)
                 (A) (A) (A) (A) (A) (A) (A) (A) (A) (A) (A) (A)
                 (A) (A) (A) (A) (A) (A) (A) (A) (A) (A) (A) (A)
                 (A) (A) (A) (A) (A) (A) (A) (A) (A) (A) (A) (A)
                 (A) (A) (A) (A) (A) (A) (A) (A) (A) (A) (A) (A)
                 (A) (A) (A) (A) (A) (A) (A) (A) (A) (A) (A) (A)
                 (A) (A) (A) (A) (A) (A) (A) (A) (A) (A) (A) (A)
                 (A) (A) (A) (A) (A) (A) (A) (A) (A) (A) (A) (A)
                 (A) (A) (A) (A) (A) (A) (A) (A) (A) (A) (A) (A)
                 (A) (A) (A) (A) (A) (A) (A) (A) (A) (A) (A) (A)
                 (A) (A) (A) (A) (A) (A) (A) (A) (A) (A) (A) (A)
                 (A) (A) (A) (A) (A) (A) (A) (A) (A) (A) (A) (A)
                 (A) (A) (A) (A) (A) (A) (A) (A) (A) (A) (A) (A)
                 (A) (A) (A) (A) (A) (A) (A) (A) (A) (A) (A) (A)
                 (A) (A) (A) (A) (A) (A) (A) (A) (A) (A) (A) (A)
                 (A) (A) (A) (A) (A) (A) (A) (A) (A) (A) (A) (A)
                 (A) (A) (A) (A) (A) (A) (A) (A) (A) (A) (A) (A)
                 (A) (A) (A) (A) (A) (A) (A) (A) (A) (A) (A) (A)
                 (A) (A) (A) (A) (A) (A) (A) (A) (A) (A) (A) (A)
                 (A) (A) (A) (A) (A) (A) (A) (A) (A) (A) (A) (A)
                 (A) (A) (A) (A) (A) (A) (A) (A) (A) (A) (A) (A)
                 (A) (A) (A) (A) (A) (A) (A) (A) (A) (A) (A) (A)
                 (A) (A) (A) (A) (A) (A) (A) (A) (A) (A) (A) (A)
                 (A) (A) (A) (A) (A) (A) (A) (A) (A) (A) (A) (A)
                 (A) (A) (A) (A) (A) (A) (A) (A) (A) (A) (A) (A)
                 (A) (A) (A) (A) (A) (A) (A) (A) (A) (A) (A) (A)
                 (A) (A) (A) (A) (A) (A) (A) (A) (A) (A) (A) (A)
                 (A) (A) (A) (A) (A) (A) (A) (A) (A) (A) (A) (A)
                 (A) (A) (A) (A) (A) (A) (A) (A) (A) (A) (A) (A)
                 (A) (A) (A) (A) (A) (A) (A) (A) (A) (A) (A) (A)
                 (A) (A) (A) (A) (A) (A) (A) (A) (A) (A) (A) (A)
                 (A) (A) (A) (A) (A) (A) (A) (A) (A) (A) (A) (A)
                 (A) (A) (A) (A) (A) (A) (A) (A) (A) (A) (A) (A)
                 (A) (A) (A) (A) (A) (A) (A) (A) (A) (A) (A) (A)
                 (A) (A) (A) (A) (A) (A) (A) (A) (A) (A) (A) (A)
                 (A) (A) (A) (A) (A) (A) (A) (A) (A) (A) (A) (A)
                 (A) (A) (A) (A) (A) (A) (A) (A) (A) (A) (A) (A)
                 (A) (A) (A) (A) (A) (A) (A) (A) (A) (A) (A) (A)
                 (A) (A) (A) (A) (A) (A) (A) (A) (A) (A) (A) (A)
                 (A) (A) (A) (A) (A) (A) (A) (A) (A) (A) (A) (A)
                 (A) (A) (A) (A) (A) (A) (A) (A) (A) (A) (A) (A)
                 (A) (A) (A) (A) (A) (A) (A) (A) (A) (A) (A) (A)
                 (A) (A) (A) (A) (A) (A) (A) (A) (A) (A) (A) (A)
                 (A) (A) (A) (A) (A) (A) (A) (A) (A) (A) (A) (A)
                 (A) (A) (A) (A) (A) (A) (A) (A) (A) (A) (A) (A)
                 (A) (A) (A) (A) (A) (A) (A) (A) (A) (A) (A) (A)
                 (A) (A) (A) (A) (A) (A) (A) (A) (A) (A) (A) (A)
                 (A) (A) (A) (A) (A) (A) (A) (A) (A) (A) (A) (A)
                 (A) (A) (A) (A) (A) (A) (A) (A) (A) (A) (A) (A)
                 (A) (A) (A) (A) (A) (A) (A) (A) (A) (A) (A) (A)
                 (A) (A) (A) (A) (A) (A) (A) (A) (A) (A) (A) (A)
                 (A) (A) (A) (A) (A) (A) (A) (A) (A) (A) (A) (A)
                 (A) (A) (A) (A) (A) (A) (A) (A) (A) (A) (A) (A)
                 (A) (A) (A) (A) (A) (A) (A) (A) (A) (A) (A) (A)
                 (A) (A) (A) (A) (A) (A) (A) (A) (A) (A) (A) (A)
                 (A) (A) (A) (A) (A) (A) (A) (A) (A) (A) (A) (A)
                 (A) (A) (A) (A) (A) (A) (A) (A) (A) (A) (A) (A)
                 (A) (A) (A) (A) (A) (A) (A) (A) (A) (A) (A) (A)
                 (A) (A) (A) (A) (A) (A) (A) (A) (A) (A) (A) (A)
                 (A) (A) (A) (A) (A) (A) (A) (A) (A) (A) (A) (A)
                 (A) (A) (A) (A) (A) (A) (A) (A) (A) (A) (A) (A)
                 (A) (A) (A) (A) (A) (A) (A) (A) (A) (A) (A) (A)
                 (A) (A) (A) (A) (A) (A) (A) (A) (A) (A) (A) (A)
                 (A) (A) (A) (A) (A) (A) (A) (A) (A) (A) (A) (A)
                 (A) (A) (A) (A) (A) (A) (A) (A) (A) (A) (A) (A)
                 (A) (A) (A) (A) (A) (A) (A) (A) (A) (A) (A) (A)
                 (A) (A) (A) (A) (A) (A) (A) (A) (A) (A) (A) (A)
                 (A) (A) (A) (A) (A) (A) (A) (A) (A) (A) (A) (A)
                 (A) (A) (A) (A) (A) (A) (A) (A) (A) (A) (A) (A)
                 (A) (A) (A) (A) (A) (A) (A) (A) (A) (A) (A) (A)
                 (A) (A) (A) (A) (A) (A) (A) (A) (A) (A) (A) (A)
                 (A) (A) (A) (A) (A) (A) (A) (A) (A) (A) (A) (A)
                 (A) (A) (A) (A) (A) (A) (A) (A) (A) (A) (A) (A)
                 (A) (A) (A) (A) (A) (A) (A) (A) (A) (A) (A) (A)
                 (A) (A) (A) (A) (A) (A) (A) (A) (A) (A) (A) (A)
                 (A) (A) (A) (A) (A) (A) (A) (A) (A) (A) (A) (A)
                 (A) (A) (A) (A) (A) (A) (A) (A) (A) (A) (A) (A)
                 (A) (A) (A) (A) (A) (A) (A) (A) (A) (A) (A) (A)
                 (A) (A) (A) (A) (A) (A) (A) (A) (A) (A) (A) (A)
                 (A) (A) (A) (A) (A) (A) (A) (A) (A) (A) (A) (A)
                 (A) (A) (A) (A) (A) (A) (A) (A) (A) (A) (A) (A)
                 (A) (A) (A) (A) (A) (A) (A) (A) (A) (A) (A) (A)
                 (A) (A) (A) (A) (A) (A) (A) (A) (A) (A) (A) (A)
                 (A) (A) (A) (A) (A) (A) (A) (A) (A) (A) (A) (A)
                 (A) (A) (A) (A) (A) (A) (A) (A) (A) (A) (A) (A)
                 (A) (A) (A) (A) (A) (A) (A) (A) (A) (A) (A) (A)
                 (A) (A) (A) (A) (A) (A) (A) (A) (A) (A) (A) (A)
                 (A) (A) (A) (A) (A) (A) (A) (A) (A) (A) (A) (A)
                 (A) (A) (A) (A) (A) (A) (A) (A) (A) (A) (A) (A)
                 (A) (A) (A) (A) (A) (A) (A) (A) (A) (A) (A) (A)
                 (A) (A) (A) (A) (A) (A) (A) (A) (A) (A) (A) (A)
                 (A) (A) (A) (A) (A) (A) (A) (A) (A) (A) (A) (A)
                 (A) (A) (A) (A) (A) (A) (A) (A) (A) (A) (A) (A)
                 (A) (A) (A) (A) (A) (A) (A) (A) (A) (A) (A) (A)
                 (A) (A) (A) (A) (A) (A) (A) (A) (A) (A) (A) (A)
                 (A) (A) (A) (A) (A) (A) (A) (A) (A) (A) (A) (A)
                 (A) (A) (A) (A) (A) (A) (A) (A) (A) (A) (A) (A)
                 (A) (A) (A) (A) (A) (A) (A) (A) (A) (A) (A) (A)
                 (A) (A) (A) (A) (A) (A) (A) (A) (A) (A) (A) (A)
                 (A) (A) (A) (A) (A) (A) (A) (A) (A) (A) (A) (A)
                 (A) (A) (A) (A) (A) (A) (A) (A) (A) (A) (A) (A)
                 (A) (A) (A) (A) (A) (A) (A) (A) (A) (A) (A) (A)
                 (A) (A) (A) (A) (A) (A) (A) (A) (A) (A) (A) (A)
                 (A) (A) (A) (A) (A) (A) (A) (A) (A) (A) (A) (A)
                 (A) (A) (A) (A) (A) (A) (A) (A) (A) (A) (A) (A)
                 (A) (A) (A) (A) (A) (A) (A) (A) (A) (A) (A) (A)
                 (A) (A) (A) (A) (A) (A) (A) (A) (A) (A) (A) (A)
                 (A) (A) (A) (A) (A) (A) (A) (A) (A) (A) (A) (A)
                 (A) (A) (A) (A) (A) (A) (A) (A) (A) (A) (A) (A)
                 (A) (A) (A) (A) (A) (A) (A) (A) (A) (A) (A) (A)
                 (A) (A) (A) (A) (A) (A) (A) (A) (A) (A) (A) (A)
                 (A) (A) (A) (A) (A) (A) (A) (A) (A) (A) (A) (A)
                 (A) (A) (A) (A) (A) (A) (A) (A) (A) (A) (A) (A)
                 (A) (A) (A) (A) (A) (A) (A) (A) (A) (A) (A) (A)
                 (A) (A) (A) (A) (A) (A) (A) (A) (A) (A) (A) (A)
                 (A) (A) (A) (A) (A) (A) (A) (A) (A) (A) (A) (A)
                 (A) (A) (A) (A) (A) (A) (A) (A) (A) (A) (A) (A)
                 (A) (A) (A) (A) (A) (A) (A) (A) (A) (A) (A) (A)
                 (A) (A) (A) (A) (A) (A) (A) (A) (A) (A) (A) (A)
                 (A) (A) (A) (A) (A) (A) (A) (A) (A) (A) (A) (A)
                 (A) (A) (A) (A) (A) (A) (A) (A) (A) (A) (A) (A)
                 (A) (A) (A) (A)
 The electronic state is 1-A.
 Alpha  occ. eigenvalues -- -101.60448-101.60448 -77.26146 -77.26146 -19.25021
 Alpha  occ. eigenvalues --  -19.25020 -10.30679 -10.30679 -10.29909 -10.29909
 Alpha  occ. eigenvalues --  -10.26321 -10.26320 -10.26226 -10.26197 -10.25385
 Alpha  occ. eigenvalues --  -10.25385 -10.25096 -10.25074 -10.24897 -10.24897
 Alpha  occ. eigenvalues --  -10.24707 -10.24707 -10.24589 -10.24589 -10.24583
 Alpha  occ. eigenvalues --  -10.24583 -10.24397 -10.24396 -10.24207 -10.24207
 Alpha  occ. eigenvalues --  -10.24048 -10.24048 -10.24047 -10.24047 -10.23931
 Alpha  occ. eigenvalues --  -10.23931 -10.23901 -10.23901 -10.23684 -10.23684
 Alpha  occ. eigenvalues --  -10.23581 -10.23581 -10.23505 -10.23505 -10.23268
 Alpha  occ. eigenvalues --  -10.23268  -9.42959  -9.42959  -7.16143  -7.16143
 Alpha  occ. eigenvalues --   -7.15695  -7.15695  -7.15635  -7.15635  -6.65349
 Alpha  occ. eigenvalues --   -6.65349  -4.78942  -4.78942  -4.78908  -4.78908
 Alpha  occ. eigenvalues --   -4.78702  -4.78702  -3.51537  -2.19220  -2.19144
 Alpha  occ. eigenvalues --   -2.15871  -1.11044  -1.10102  -0.91131  -0.89243
 Alpha  occ. eigenvalues --   -0.88951  -0.88689  -0.88246  -0.88101  -0.84775
 Alpha  occ. eigenvalues --   -0.82212  -0.80901  -0.80263  -0.79297  -0.77740
 Alpha  occ. eigenvalues --   -0.77740  -0.77712  -0.77576  -0.77059  -0.77017
 Alpha  occ. eigenvalues --   -0.76943  -0.76868  -0.74144  -0.73272  -0.72593
 Alpha  occ. eigenvalues --   -0.70305  -0.69065  -0.68497  -0.65719  -0.64473
 Alpha  occ. eigenvalues --   -0.63400  -0.63256  -0.62878  -0.62743  -0.62347
 Alpha  occ. eigenvalues --   -0.62177  -0.61971  -0.61547  -0.60729  -0.58929
 Alpha  occ. eigenvalues --   -0.58302  -0.56360  -0.55357  -0.54000  -0.53999
 Alpha  occ. eigenvalues --   -0.52806  -0.52483  -0.52008  -0.51938  -0.51577
 Alpha  occ. eigenvalues --   -0.50504  -0.50186  -0.49119  -0.47958  -0.47849
 Alpha  occ. eigenvalues --   -0.47737  -0.47603  -0.47096  -0.46914  -0.46765
 Alpha  occ. eigenvalues --   -0.46416  -0.46090  -0.45655  -0.45261  -0.44504
 Alpha  occ. eigenvalues --   -0.44264  -0.44154  -0.44103  -0.43604  -0.43600
 Alpha  occ. eigenvalues --   -0.43349  -0.43000  -0.42801  -0.41500  -0.41479
 Alpha  occ. eigenvalues --   -0.41127  -0.40934  -0.39985  -0.39376  -0.39036
 Alpha  occ. eigenvalues --   -0.38866  -0.38523  -0.38440  -0.37997  -0.37806
 Alpha  occ. eigenvalues --   -0.37493  -0.37030  -0.36709  -0.36556  -0.36442
 Alpha  occ. eigenvalues --   -0.36347  -0.35977  -0.35946  -0.35548  -0.35469
 Alpha  occ. eigenvalues --   -0.34796  -0.34664  -0.33735  -0.33112  -0.32489
 Alpha  occ. eigenvalues --   -0.31314  -0.31196  -0.30025  -0.29678  -0.29245
 Alpha  occ. eigenvalues --   -0.28136  -0.27693  -0.27672  -0.27318  -0.27101
 Alpha  occ. eigenvalues --   -0.26957  -0.26648  -0.26236  -0.25782  -0.25549
 Alpha  occ. eigenvalues --   -0.25452  -0.24316  -0.24217  -0.23075  -0.22558
 Alpha  occ. eigenvalues --   -0.22316
 Alpha virt. eigenvalues --   -0.08013  -0.04475  -0.04252  -0.03906  -0.03212
 Alpha virt. eigenvalues --   -0.02756  -0.02715  -0.01822  -0.01469  -0.01316
 Alpha virt. eigenvalues --   -0.01183  -0.00350  -0.00207   0.01495   0.01694
 Alpha virt. eigenvalues --    0.02598   0.03496   0.04183   0.04850   0.04919
 Alpha virt. eigenvalues --    0.05144   0.05538   0.05650   0.05826   0.06454
 Alpha virt. eigenvalues --    0.07159   0.07308   0.07712   0.07719   0.07934
 Alpha virt. eigenvalues --    0.08150   0.08187   0.08533   0.09027   0.09226
 Alpha virt. eigenvalues --    0.09342   0.09584   0.09846   0.10082   0.10544
 Alpha virt. eigenvalues --    0.10779   0.10914   0.11179   0.11436   0.11443
 Alpha virt. eigenvalues --    0.11614   0.12061   0.12232   0.12269   0.12683
 Alpha virt. eigenvalues --    0.12786   0.12919   0.13008   0.13202   0.13502
 Alpha virt. eigenvalues --    0.13833   0.14187   0.14283   0.14725   0.14821
 Alpha virt. eigenvalues --    0.15213   0.15519   0.15606   0.16070   0.16569
 Alpha virt. eigenvalues --    0.16812   0.17152   0.17428   0.17815   0.18783
 Alpha virt. eigenvalues --    0.18894   0.18895   0.18991   0.19464   0.19818
 Alpha virt. eigenvalues --    0.19889   0.20285   0.20526   0.20612   0.20944
 Alpha virt. eigenvalues --    0.21105   0.21277   0.21320   0.21386   0.22020
 Alpha virt. eigenvalues --    0.22143   0.22475   0.22682   0.22801   0.22903
 Alpha virt. eigenvalues --    0.23100   0.23150   0.23251   0.23812   0.23968
 Alpha virt. eigenvalues --    0.24043   0.24080   0.24191   0.24382   0.24825
 Alpha virt. eigenvalues --    0.24887   0.25439   0.25456   0.25740   0.25770
 Alpha virt. eigenvalues --    0.26071   0.26282   0.26324   0.26457   0.27019
 Alpha virt. eigenvalues --    0.27396   0.27478   0.27496   0.28167   0.28219
 Alpha virt. eigenvalues --    0.28376   0.28612   0.28802   0.29039   0.29310
 Alpha virt. eigenvalues --    0.29601   0.29720   0.29736   0.30463   0.30632
 Alpha virt. eigenvalues --    0.30859   0.30949   0.31260   0.31410   0.31650
 Alpha virt. eigenvalues --    0.31794   0.32023   0.32180   0.32319   0.32711
 Alpha virt. eigenvalues --    0.33087   0.33288   0.33687   0.34094   0.34325
 Alpha virt. eigenvalues --    0.34405   0.34772   0.34813   0.35002   0.35060
 Alpha virt. eigenvalues --    0.35485   0.35533   0.35876   0.36109   0.36474
 Alpha virt. eigenvalues --    0.36837   0.36952   0.36996   0.37198   0.37423
 Alpha virt. eigenvalues --    0.37681   0.37736   0.37914   0.38206   0.38279
 Alpha virt. eigenvalues --    0.38696   0.38769   0.38784   0.38985   0.39349
 Alpha virt. eigenvalues --    0.39456   0.39714   0.39848   0.40110   0.40257
 Alpha virt. eigenvalues --    0.40430   0.40450   0.40717   0.40920   0.41109
 Alpha virt. eigenvalues --    0.41632   0.41776   0.41840   0.42073   0.42295
 Alpha virt. eigenvalues --    0.42409   0.42537   0.42602   0.42632   0.43177
 Alpha virt. eigenvalues --    0.43428   0.43454   0.43760   0.43870   0.43874
 Alpha virt. eigenvalues --    0.44115   0.44320   0.44386   0.44484   0.44553
 Alpha virt. eigenvalues --    0.44721   0.44943   0.45091   0.45102   0.45276
 Alpha virt. eigenvalues --    0.45491   0.45659   0.45799   0.45878   0.46057
 Alpha virt. eigenvalues --    0.46135   0.46554   0.46876   0.47101   0.47318
 Alpha virt. eigenvalues --    0.47471   0.47634   0.47771   0.47942   0.48134
 Alpha virt. eigenvalues --    0.48437   0.48473   0.48696   0.49069   0.49106
 Alpha virt. eigenvalues --    0.49318   0.49411   0.49728   0.49956   0.49993
 Alpha virt. eigenvalues --    0.50181   0.50372   0.50703   0.50869   0.51143
 Alpha virt. eigenvalues --    0.51219   0.51309   0.51884   0.51931   0.52013
 Alpha virt. eigenvalues --    0.52374   0.52669   0.53175   0.53319   0.53347
 Alpha virt. eigenvalues --    0.53447   0.53757   0.53990   0.54039   0.54450
 Alpha virt. eigenvalues --    0.54519   0.55356   0.55676   0.55693   0.55904
 Alpha virt. eigenvalues --    0.56038   0.56761   0.57077   0.57196   0.57853
 Alpha virt. eigenvalues --    0.58175   0.58453   0.58675   0.59098   0.59253
 Alpha virt. eigenvalues --    0.59560   0.60319   0.61003   0.61317   0.61327
 Alpha virt. eigenvalues --    0.61610   0.61860   0.62543   0.62690   0.62795
 Alpha virt. eigenvalues --    0.63494   0.63779   0.64147   0.64227   0.64329
 Alpha virt. eigenvalues --    0.64386   0.64910   0.65273   0.65654   0.65850
 Alpha virt. eigenvalues --    0.66102   0.66274   0.66536   0.66742   0.66972
 Alpha virt. eigenvalues --    0.66990   0.67642   0.67944   0.67970   0.68112
 Alpha virt. eigenvalues --    0.68306   0.68713   0.68839   0.69246   0.69364
 Alpha virt. eigenvalues --    0.69596   0.69679   0.70156   0.70416   0.70475
 Alpha virt. eigenvalues --    0.70752   0.71046   0.71319   0.71943   0.72095
 Alpha virt. eigenvalues --    0.72401   0.72480   0.72616   0.72979   0.73236
 Alpha virt. eigenvalues --    0.73591   0.73595   0.73968   0.74653   0.74765
 Alpha virt. eigenvalues --    0.74878   0.74987   0.75382   0.75841   0.76225
 Alpha virt. eigenvalues --    0.76324   0.76765   0.77125   0.77589   0.77618
 Alpha virt. eigenvalues --    0.78003   0.78138   0.78288   0.78513   0.78871
 Alpha virt. eigenvalues --    0.78900   0.79189   0.79630   0.80031   0.80189
 Alpha virt. eigenvalues --    0.80372   0.80730   0.80745   0.80876   0.81548
 Alpha virt. eigenvalues --    0.81894   0.81924   0.82223   0.82593   0.82757
 Alpha virt. eigenvalues --    0.82919   0.83381   0.83514   0.83870   0.84084
 Alpha virt. eigenvalues --    0.84785   0.84901   0.85345   0.85378   0.85441
 Alpha virt. eigenvalues --    0.85769   0.86231   0.86375   0.86715   0.87047
 Alpha virt. eigenvalues --    0.87220   0.87660   0.88197   0.88570   0.88675
 Alpha virt. eigenvalues --    0.89344   0.89576   0.89947   0.90295   0.91193
 Alpha virt. eigenvalues --    0.91236   0.91661   0.92269   0.92289   0.92527
 Alpha virt. eigenvalues --    0.92781   0.92972   0.93145   0.93639   0.93935
 Alpha virt. eigenvalues --    0.94273   0.94379   0.95017   0.95070   0.95338
 Alpha virt. eigenvalues --    0.95508   0.95733   0.95965   0.96205   0.96327
 Alpha virt. eigenvalues --    0.96809   0.97102   0.97364   0.97464   0.98137
 Alpha virt. eigenvalues --    0.98397   0.98644   0.99272   0.99697   1.00301
 Alpha virt. eigenvalues --    1.00404   1.01015   1.01379   1.01988   1.02221
 Alpha virt. eigenvalues --    1.03203   1.03319   1.03611   1.03934   1.03987
 Alpha virt. eigenvalues --    1.04824   1.05425   1.06069   1.06481   1.06521
 Alpha virt. eigenvalues --    1.07086   1.07090   1.07548   1.07741   1.07914
 Alpha virt. eigenvalues --    1.08218   1.08261   1.09382   1.09474   1.09786
 Alpha virt. eigenvalues --    1.10322   1.10415   1.11134   1.11138   1.11757
 Alpha virt. eigenvalues --    1.12087   1.12681   1.12722   1.13310   1.13440
 Alpha virt. eigenvalues --    1.13822   1.13843   1.14477   1.14975   1.15059
 Alpha virt. eigenvalues --    1.15934   1.15984   1.16287   1.16677   1.16687
 Alpha virt. eigenvalues --    1.17075   1.17367   1.17926   1.18012   1.18480
 Alpha virt. eigenvalues --    1.18896   1.18907   1.19241   1.19393   1.19802
 Alpha virt. eigenvalues --    1.20142   1.20161   1.20334   1.20814   1.21461
 Alpha virt. eigenvalues --    1.21495   1.22123   1.22188   1.22424   1.23169
 Alpha virt. eigenvalues --    1.23353   1.23704   1.23838   1.24560   1.24669
 Alpha virt. eigenvalues --    1.25082   1.25086   1.25423   1.25830   1.25938
 Alpha virt. eigenvalues --    1.25997   1.26157   1.26665   1.26836   1.26925
 Alpha virt. eigenvalues --    1.27781   1.27897   1.27994   1.28687   1.28968
 Alpha virt. eigenvalues --    1.29061   1.29748   1.29876   1.29988   1.30273
 Alpha virt. eigenvalues --    1.30406   1.30461   1.30757   1.31166   1.31557
 Alpha virt. eigenvalues --    1.31589   1.32273   1.32837   1.33315   1.33414
 Alpha virt. eigenvalues --    1.33540   1.33970   1.34059   1.35113   1.35130
 Alpha virt. eigenvalues --    1.35185   1.35668   1.35913   1.36942   1.36949
 Alpha virt. eigenvalues --    1.38273   1.38440   1.38742   1.39036   1.39377
 Alpha virt. eigenvalues --    1.39552   1.39833   1.40473   1.40869   1.41348
 Alpha virt. eigenvalues --    1.41637   1.42115   1.42826   1.43233   1.44179
 Alpha virt. eigenvalues --    1.44330   1.44811   1.44941   1.45294   1.45779
 Alpha virt. eigenvalues --    1.46108   1.46731   1.47014   1.47507   1.47682
 Alpha virt. eigenvalues --    1.48073   1.48666   1.48901   1.48959   1.49573
 Alpha virt. eigenvalues --    1.49912   1.50097   1.50122   1.50723   1.50851
 Alpha virt. eigenvalues --    1.51290   1.51502   1.51929   1.52289   1.52407
 Alpha virt. eigenvalues --    1.53484   1.53529   1.53890   1.54320   1.54784
 Alpha virt. eigenvalues --    1.54799   1.54977   1.55448   1.55530   1.55922
 Alpha virt. eigenvalues --    1.56650   1.56808   1.57341   1.57844   1.57945
 Alpha virt. eigenvalues --    1.58239   1.58443   1.58904   1.58983   1.59565
 Alpha virt. eigenvalues --    1.60314   1.60522   1.60661   1.60713   1.60721
 Alpha virt. eigenvalues --    1.61779   1.62002   1.62184   1.62746   1.62883
 Alpha virt. eigenvalues --    1.63104   1.63193   1.63700   1.63783   1.63980
 Alpha virt. eigenvalues --    1.64101   1.64765   1.65121   1.65444   1.65826
 Alpha virt. eigenvalues --    1.66461   1.66501   1.67081   1.67379   1.67669
 Alpha virt. eigenvalues --    1.68193   1.68344   1.68454   1.68780   1.68843
 Alpha virt. eigenvalues --    1.69233   1.69877   1.70206   1.70718   1.70802
 Alpha virt. eigenvalues --    1.70863   1.71139   1.71456   1.71735   1.72011
 Alpha virt. eigenvalues --    1.72445   1.72802   1.73156   1.73162   1.73362
 Alpha virt. eigenvalues --    1.73501   1.74017   1.74064   1.74924   1.75042
 Alpha virt. eigenvalues --    1.75595   1.75755   1.76165   1.76358   1.76433
 Alpha virt. eigenvalues --    1.76521   1.76756   1.77062   1.77690   1.78528
 Alpha virt. eigenvalues --    1.78549   1.78700   1.78773   1.79107   1.79372
 Alpha virt. eigenvalues --    1.79983   1.80384   1.80691   1.80713   1.81428
 Alpha virt. eigenvalues --    1.81587   1.81823   1.82814   1.83448   1.83954
 Alpha virt. eigenvalues --    1.84174   1.84742   1.85154   1.85750   1.86119
 Alpha virt. eigenvalues --    1.86352   1.86811   1.87080   1.87535   1.87876
 Alpha virt. eigenvalues --    1.88392   1.88498   1.88675   1.89228   1.89833
 Alpha virt. eigenvalues --    1.90005   1.90687   1.90841   1.91184   1.91548
 Alpha virt. eigenvalues --    1.92526   1.93061   1.93219   1.93472   1.93970
 Alpha virt. eigenvalues --    1.94117   1.94832   1.95118   1.95381   1.95602
 Alpha virt. eigenvalues --    1.95831   1.96894   1.97056   1.97201   1.97932
 Alpha virt. eigenvalues --    1.97958   1.98550   1.98566   1.99624   1.99767
 Alpha virt. eigenvalues --    1.99801   2.00313   2.00382   2.00641   2.01761
 Alpha virt. eigenvalues --    2.01843   2.02349   2.02735   2.02738   2.03475
 Alpha virt. eigenvalues --    2.04137   2.04551   2.04729   2.05445   2.05516
 Alpha virt. eigenvalues --    2.05691   2.06393   2.06552   2.07051   2.07381
 Alpha virt. eigenvalues --    2.07576   2.07976   2.08761   2.08974   2.09101
 Alpha virt. eigenvalues --    2.09881   2.09917   2.10418   2.10703   2.11427
 Alpha virt. eigenvalues --    2.11498   2.11887   2.12121   2.12383   2.12390
 Alpha virt. eigenvalues --    2.12970   2.13136   2.13670   2.13926   2.14097
 Alpha virt. eigenvalues --    2.14380   2.15014   2.15030   2.15482   2.15749
 Alpha virt. eigenvalues --    2.15963   2.16146   2.17184   2.17462   2.17832
[...]
                                                    1259(r),921(r),1225(r)
                                                    951(r),931(r),1592(v)
                                                    1095(r),1595(r),224(g)
                                                    239(v),1619(r),1128(r)
                                                    369(r),1104(r),906(v),225(g)
                                                    439(r),422(v),956(r),378(r)
                                                    541(r),195(g),1078(r)
                                                    1121(r),1529(v),949(r)
                                                    253(v),907(v),1501(v),269(r)
                                                    543(r),550(r),206(g),947(r)
                                                    441(r),881(r),595(v),406(r)
                                                    1227(r),1565(r),852(r)
                                                    208(g),935(r),584(v),847(r)
                                                    618(r),1055(r),717(r)
                                                    1100(r),521(r),1151(r)
                                                    210(g),272(r),1543(v),371(r)
                                                    255(v),267(r),739(r),879(r)
                                                    1053(r),1518(v),713(r)
                                                    1058(r)
  1586. BD*(   1)Pd   1 - P  33          0.17585     0.61002  1585(g),842(r),204(g),893(g)
                                                    194(g),189(g),211(v),198(g)
                                                    200(g),205(g),193(g),202(g)
                                                    191(g),608(r),922(v),1522(v)
                                                    1493(v),240(r),901(g),219(v)
                                                    1521(v),904(g),1494(v)
                                                    924(v),222(v),1588(g),242(r)
                                                    1093(v),411(r),197(g),207(g)
                                                    898(g),188(g),1495(v),868(v)
                                                    412(r),216(v),1094(v),245(r)
                                                    212(v),927(v),1523(v),582(r)
                                                    894(g),1497(v),217(v),867(v)
                                                    869(v),895(g),576(r),583(r)
                                                    902(g),192(g),1248(r)
                                                    1524(v),899(g),1525(v)
                                                    395(r),905(g),220(v),223(v)
                                                    1087(r),410(r),581(r),266(r)
                                                    923(v),544(r),932(v),1496(v)
                                                    241(r),900(g),738(r),897(g)
                                                    1122(r),250(r),215(v)
                                                    1092(v),218(v),1052(r)
                                                    213(v),712(r),950(r),372(r)
                                                    925(v),1226(r),1096(v)
                                                    196(g),1095(v),948(r),243(r)
                                                    370(r),931(v),951(r),1667(r)
                                                    414(r),1259(r),440(r),345(r)
                                                    1663(r),975(r),1224(r)
                                                    438(r),567(r),239(r),439(r)
                                                    373(r),249(r),1651(v),413(r)
                                                    1661(r),906(g),921(v)
                                                    1669(r),550(r),947(r),422(r)
                                                    224(v),907(g),1225(r)
                                                    1104(v),378(r),956(r)
                                                    1119(r),406(r),195(g),543(r)
                                                    1501(v),371(r),935(v),225(v)
                                                    1529(v),1055(r),1121(r)
                                                    1128(r),369(r),206(g),881(v)
                                                    852(r),1227(r),595(r),847(r)
                                                    1078(r),441(r),870(v)
                                                    1550(r),743(r),208(g),253(r)
                                                    817(r),269(r),418(r),1151(r)
                                                    521(r),713(r),210(g),1058(r)
                                                    1515(v),618(r),949(r),937(v)
                                                    1053(r),879(v),267(r)
                                                    1490(v),272(r)
  1587. BD*(   1)Pd   1 -Cl  72          0.18600     0.19464  1588(g),1585(g),211(v)
                                                    198(g),204(g),205(g),1591(v)
                                                    1590(v),893(v),193(g)
                                                    1494(g),194(g),240(r),222(v)
                                                    192(g),200(g),922(r),901(v)
                                                    191(g),219(v),1619(r),216(v)
                                                    1596(r),904(v),196(g),189(g)
                                                    1496(g),195(g),210(g),581(r)
                                                    1491(g),1522(v),1521(v)
                                                    242(r),1489(g),411(r),582(r)
                                                    1094(r),1093(r)
  1588. BD*(   1)Pd   1 -Cl  73          0.18600     0.19464  1587(g),1586(g),893(v)
                                                    198(g),204(g),205(g),1647(v)
                                                    1649(v),211(v),193(g)
                                                    1522(g),194(g),922(r),904(v)
                                                    192(g),200(g),240(r),219(v)
                                                    191(g),901(v),1669(r),898(v)
                                                    1663(r),222(v),196(g),189(g)
                                                    1524(g),195(g),210(g),867(r)
                                                    1519(g),1494(v),1493(v)
                                                    924(r),1517(g),868(r)
                                                    1093(r),412(r),411(r)
  1589. BD*(   1) P   2 - C   3          0.06861     0.21571   
  1590. BD*(   1) P   2 - C  12          0.07033     0.21216   
  1591. BD*(   1) P   2 - C  21          0.07777     0.20303   
  1592. BD*(   1) C   3 - C   4          0.02362     0.51705   
  1593. BD*(   2) C   3 - C   4          0.35948     0.02020  1598(v),1603(v),1652(r)
                                                    1636(r),266(g),1590(v)
                                                    1621(r)
  1594. BD*(   1) C   3 - C   8          0.02741     0.51490   
  1595. BD*(   1) C   4 - C   5          0.01548     0.53970   
  1596. BD*(   1) C   4 - H  11          0.01580     0.42510   
  1597. BD*(   1) C   5 - C   6          0.01441     0.52947   
  1598. BD*(   2) C   5 - C   6          0.32083     0.02027  1593(v),1603(v),293(g)
                                                    319(g),1659(r)
  1599. BD*(   1) C   5 - H  76          0.01326     0.40081   
  1600. BD*(   1) C   6 - C   7          0.01477     0.52786   
  1601. BD*(   1) C   6 - H  10          0.01298     0.39696   
  1602. BD*(   1) C   7 - C   8          0.01587     0.53461   
  1603. BD*(   2) C   7 - C   8          0.32029     0.02132  1598(v),1593(v),1654(r)
                                                    1638(r),1636(r),345(g)
  1604. BD*(   1) C   7 - H  77          0.01387     0.39273   
  1605. BD*(   1) C   8 - H   9          0.01524     0.41183   
  1606. BD*(   1) C  12 - C  13          0.02636     0.52506   
  1607. BD*(   2) C  12 - C  13          0.37284     0.02157  1612(v),1617(v),1591(v)
                                                    438(g),1666(r),413(g)
  1608. BD*(   1) C  12 - C  17          0.02358     0.51960   
  1609. BD*(   1) C  13 - C  14          0.01510     0.53833   
  1610. BD*(   1) C  13 - H  20          0.01610     0.40726   
  1611. BD*(   1) C  14 - C  15          0.01439     0.53609   
  1612. BD*(   2) C  14 - C  15          0.32344     0.02533  1607(v),1617(v),490(g)
                                                    464(g)
  1613. BD*(   1) C  14 - H  74          0.01334     0.40141   
  1614. BD*(   1) C  15 - C  16          0.01448     0.53586   
  1615. BD*(   1) C  15 - H  19          0.01291     0.40425   
  1616. BD*(   1) C  16 - C  17          0.01627     0.54953   
  1617. BD*(   2) C  16 - C  17          0.30012     0.03333  1612(v),1607(v),1668(r)
                                                    516(g)
  1618. BD*(   1) C  16 - H  75          0.01342     0.40571   
  1619. BD*(   1) C  17 - H  18          0.01418     0.43797   
  1620. BD*(   1) C  21 - C  22          0.02168     0.51583   
  1621. BD*(   2) C  21 - C  22          0.38652     0.01475  1626(v),1631(v),608(g)
                                                    1636(r),1589(v),1593(r)
                                                    1652(r),635(v)
  1622. BD*(   1) C  21 - C  26          0.03172     0.50580   
  1623. BD*(   1) C  22 - C  23          0.01528     0.53993   
  1624. BD*(   1) C  22 - H  71          0.01616     0.41329   
  1625. BD*(   1) C  23 - C  24          0.01299     0.53717   
  1626. BD*(   2) C  23 - C  24          0.34873     0.01444  1621(v),1631(v),635(g)
  1627. BD*(   1) C  23 - H  70          0.01349     0.39426   
  1628. BD*(   1) C  24 - C  25          0.03117     0.50626   
  1629. BD*(   1) C  24 - H  69          0.01339     0.38616   
  1630. BD*(   1) C  25 - C  26          0.03964     0.48917   
  1631. BD*(   2) C  25 - C  26          0.39181     0.01538  1621(v),1626(v),1636(v)
                                                    1652(r),1634(v),1635(v)
  1632. BD*(   1) C  25 - O  67          0.02774     0.34065   
  1633. BD*(   1) C  26 - C  27          0.02922     0.41965   
  1634. BD*(   1) C  27 - C  28          0.03961     0.48918   
  1635. BD*(   1) C  27 - C  32          0.03168     0.50568   
  1636. BD*(   2) C  27 - C  32          0.41126     0.01490  1638(v),1631(v),1643(v)
                                                    1593(r),1621(r),1603(r)
                                                    1648(v),1630(v),1622(v)
                                                    842(v),1652(r),739(g),738(g)
  1637. BD*(   1) C  28 - C  29          0.03116     0.50615   
  1638. BD*(   2) C  28 - C  29          0.37191     0.01186  1636(v),1643(v),1603(r)
                                                    790(g),791(g),1678(v)
  1639. BD*(   1) C  28 - O  55          0.02773     0.34064   
  1640. BD*(   1) C  29 - C  30          0.01299     0.53717   
  1641. BD*(   1) C  29 - H  54          0.01341     0.38613   
  1642. BD*(   1) C  30 - C  31          0.01527     0.53994   
  1643. BD*(   2) C  30 - C  31          0.32589     0.02209  1636(v),1638(v),817(g)
                                                    842(g)
  1644. BD*(   1) C  30 - H  53          0.01349     0.39426   
  1645. BD*(   1) C  31 - C  32          0.02165     0.51586   
  1646. BD*(   1) C  31 - H  52          0.01617     0.41327   
  1647. BD*(   1) C  32 - P  33          0.07770     0.20306   
  1648. BD*(   1) P  33 - C  34          0.06861     0.21571   
  1649. BD*(   1) P  33 - C  43          0.07033     0.21216   
  1650. BD*(   1) C  34 - C  35          0.02741     0.51490   
  1651. BD*(   1) C  34 - C  39          0.02362     0.51705   
  1652. BD*(   2) C  34 - C  39          0.35949     0.02020  1659(v),1654(v),1593(r)
                                                    1631(r),1052(g),1649(v)
                                                    1636(r),1621(r)
  1653. BD*(   1) C  35 - C  36          0.01587     0.53461   
  1654. BD*(   2) C  35 - C  36          0.32029     0.02132  1659(v),1652(v),1603(r)
                                                    975(g)
  1655. BD*(   1) C  35 - H  42          0.01524     0.41183   
  1656. BD*(   1) C  36 - C  37          0.01477     0.52786   
  1657. BD*(   1) C  36 - H  80          0.01387     0.39273   
  1658. BD*(   1) C  37 - C  38          0.01441     0.52947   
  1659. BD*(   2) C  37 - C  38          0.32083     0.02027  1652(v),1654(v),1027(g)
                                                    1001(g),1598(r)
  1660. BD*(   1) C  37 - H  41          0.01298     0.39696   
  1661. BD*(   1) C  38 - C  39          0.01548     0.53970   
  1662. BD*(   1) C  38 - H  81          0.01326     0.40081   
  1663. BD*(   1) C  39 - H  40          0.01580     0.42510   
  1664. BD*(   1) C  43 - C  44          0.02358     0.51960   
  1665. BD*(   1) C  43 - C  48          0.02636     0.52506   
  1666. BD*(   2) C  43 - C  48          0.37284     0.02157  1673(v),1668(v),1647(v)
                                                    1224(g),1607(r),1095(g)
  1667. BD*(   1) C  44 - C  45          0.01627     0.54953   
  1668. BD*(   2) C  44 - C  45          0.30012     0.03333  1673(v),1666(v),1617(r)
                                                    1146(g)
  1669. BD*(   1) C  44 - H  51          0.01418     0.43797   
  1670. BD*(   1) C  45 - C  46          0.01448     0.53586   
  1671. BD*(   1) C  45 - H  78          0.01342     0.40571   
  1672. BD*(   1) C  46 - C  47          0.01439     0.53609   
  1673. BD*(   2) C  46 - C  47          0.32344     0.02533  1666(v),1668(v),1172(g)
                                                    1198(g)
  1674. BD*(   1) C  46 - H  50          0.01291     0.40425   
  1675. BD*(   1) C  47 - C  48          0.01510     0.53833   
  1676. BD*(   1) C  47 - H  79          0.01334     0.40141   
  1677. BD*(   1) C  48 - H  49          0.01610     0.40726   
  1678. BD*(   1) O  55 - C  56          0.02776     0.24970   
  1679. BD*(   1) C  56 - H  57          0.02471     0.31977   
  1680. BD*(   1) C  56 - H  58          0.02462     0.31929   
  1681. BD*(   1) C  56 - C  59          0.02055     0.32929   
  1682. BD*(   1) C  59 - H  60          0.01591     0.33282   
  1683. BD*(   1) C  59 - H  61          0.00896     0.33204   
  1684. BD*(   1) C  59 - C  62          0.01701     0.32056   
  1685. BD*(   1) C  62 - H  63          0.01591     0.33282   
  1686. BD*(   1) C  62 - H  64          0.00896     0.33204   
  1687. BD*(   1) C  62 - C  65          0.02055     0.32929   
  1688. BD*(   1) C  65 - H  66          0.02471     0.31977   
  1689. BD*(   1) C  65 - O  67          0.02777     0.24970   
  1690. BD*(   1) C  65 - H  68          0.02462     0.31929   
       -------------------------------
              Total Lewis  390.33455  ( 97.5836%)
        Valence non-Lewis    8.95154  (  2.2379%)
        Rydberg non-Lewis    0.71390  (  0.1785%)
       -------------------------------
            Total unit  1  400.00000  (100.0000%)
           Charge unit  1    0.00000
 1\1\GINC-NOTCH213\SP\RPBE1PBE\Gen\C40H34Cl2O2P2Pd1\U1010977\01-Nov-202
 1\0\\# PBE1PBE gen pseudo=read int=(grid=ultrafine) empiricaldispersio
 n=GD3BJ pop=nbo guess=read geom=check\\title\\0,1\Pd,0,-2.312160228,0.
 0134983966,-0.0007308641\P,0,-0.7365611582,1.6671397721,-0.0331672853\
 C,0,-0.0354897933,2.1343500883,-1.6559960212\C,0,-0.8381805199,1.94450
 95954,-2.7971585214\C,0,-0.3496679016,2.3159619529,-4.0564313582\C,0,0
 .9315150909,2.8735210901,-4.18127655\C,0,1.7287000054,3.0657075443,-3.
 0431284405\C,0,1.2489056263,2.698901252,-1.7796718671\H,0,1.8857329557
 ,2.8145948678,-0.8969420699\H,0,1.3108978384,3.1571628865,-5.168618817
 5\H,0,-1.8424165061,1.5211572779,-2.6798541747\C,0,-1.3566295386,3.231
 4693879,0.7056342954\C,0,-0.8001832343,4.4729986355,0.350497401\C,0,-1
 .2349046862,5.6423956253,0.9897003747\C,0,-2.2167947628,5.5769439913,1
 .9874516056\C,0,-2.7741786254,4.3389648199,2.341397225\C,0,-2.35459340
 07,3.1687449292,1.6983294857\H,0,-2.8135372884,2.2058978102,1.94316300
 71\H,0,-2.5566100718,6.4925297213,2.4825168981\H,0,-0.039256758,4.5306
 416155,-0.4335364582\C,0,0.6979286418,1.2486375133,1.0621211573\C,0,0.
 7332095655,1.8195541404,2.3503957222\C,0,1.7512762926,1.4794459394,3.2
 451067416\C,0,2.7684731729,0.6016953431,2.8613861665\C,0,2.7576316574,
 0.0515868654,1.5695834404\C,0,1.6999356547,0.3280503933,0.6658719696\C
 ,0,1.6965382113,-0.3482668417,-0.6637048816\C,0,2.7581969319,-0.084251
 142,-1.5664917525\C,0,2.7637035432,-0.6344512911,-2.8582889143\C,0,1.7
 366024695,-1.5001958439,-3.2429007644\C,0,0.7138296002,-1.8283168412,-
 2.3490811025\C,0,0.6841305124,-1.2570184731,-1.0608341064\P,0,-0.75617
 44955,-1.6585836059,0.033159865\C,0,-0.0621455142,-2.133996901,1.65663
 42355\C,0,1.2154347004,-2.7135458734,1.7815044049\C,0,1.6897092641,-3.
 0859693385,3.0454025455\C,0,0.8937512251,-2.8844948581,4.182801724\C,0
 ,-0.3807023225,-2.3119802204,4.0567625613\C,0,-0.8636422436,-1.9348031
 868,2.7970427408\H,0,-1.862745038,-1.4997273622,2.6788013058\H,0,1.268
 8542389,-3.172578084,5.1704932386\H,0,1.8516945232,-2.8366784448,0.899
 371953\C,0,-1.3939394824,-3.2155276661,-0.7061817676\C,0,-2.3901919792
 ,-3.1411120987,-1.6997866544\C,0,-2.8229161035,-4.3063427964,-2.343207
 5294\C,0,-2.2804397913,-5.5507747133,-1.9887278635\C,0,-1.3002903557,-
 5.6277271532,-0.9900861828\C,0,-0.8524389942,-4.4634980634,-0.35051514
 52\H,0,-0.0929478526,-4.5300501025,0.4342048639\H,0,-2.6305403146,-6.4
 62320467,-2.4840816471\H,0,-2.8375618897,-2.1729458938,-1.9450636356\H
 ,0,-0.0664942296,-2.5286310685,-2.6534230973\H,0,1.7341335594,-1.92475
 23392,-4.2517944628\H,0,3.5486789037,-0.3621779966,-3.5686742598\O,0,3
 .7311217935,0.7699606428,-1.119432934\C,0,5.070527581,0.5900217275,-1.
 6084209251\H,0,5.2996015482,1.412138723,-2.313412909\H,0,5.1499644428,
 -0.3660315596,-2.1575199512\C,0,6.0609447486,0.5943362731,-0.444157875
 8\H,0,5.8959489317,1.5007492959,0.1683613345\H,0,7.0661161484,0.703447
 9608,-0.893125289\C,0,6.0531676883,-0.665703078,0.450120451\H,0,5.8780
 975053,-1.5701236968,-0.1625475105\H,0,7.0565975232,-0.7865867433,0.89
 99677291\C,0,5.0618537413,-0.6497759591,1.6135199887\H,0,5.2806594877,
 -1.4745248321,2.3186991598\O,0,3.7208515996,-0.8139944243,1.1233727741
 \H,0,5.1520217271,0.305278096,2.1627001676\H,0,3.5495782107,0.32022947
 47,3.5724545823\H,0,1.7529150666,1.9040092241,4.2539992608\H,0,-0.0390
 965359,2.5289926629,2.6540574255\Cl,0,-3.9474035053,1.6059956359,-0.69
 37698312\Cl,0,-3.966700555,-1.5596062221,0.6908035973\H,0,-0.806937424
 ,6.6078766622,0.7003653951\H,0,-3.5546932926,4.2837787615,3.1068229159
 \H,0,-0.9734213379,2.1668179283,-4.9436515762\H,0,2.7327012898,3.49305
 63443,-3.1376851501\H,0,-3.6020312478,-4.2420143397,-3.1093449558\H,0,
 -0.8839568446,-6.5981604895,-0.7003448807\H,0,2.6885516518,-3.52503888
 54,3.1408933135\H,0,-1.0035090474,-2.1555719709,4.94339696\\Version=ES
 64L-G16RevB.01\State=1-A\HF=-3424.520421\RMSD=8.707e-09\Dipole=5.90301
 85,-0.0347258,0.0026703\Quadrupole=-17.074441,2.8931,14.181341,0.11577
 01,0.0186829,5.68406\PG=C01 [X(C40H34Cl2O2P2Pd1)]\\@


 GOORD'S AXIOM:  A MEETING IS AN EVENT AT WHICH
 THE MINUTES ARE KEPT AND THE HOURS ARE LOST.
 Job cpu time:       0 days  2 hours 15 minutes 58.3 seconds.
 Elapsed time:       0 days  0 hours  2 minutes 38.3 seconds.
 File lengths (MBytes):  RWF=   1458 Int=      0 D2E=      0 Chk=    220 Scr=      1
 Normal termination of Gaussian 16 at Mon Nov  1 19:57:39 2021.
