 Entering Gaussian System, Link 0=/uufs/chpc.utah.edu/sys/installdir/gaussian16/B01/E6B/g16/g16
 Input=R-C4-Tunephos_2.com
 Output=R-C4-Tunephos_2.log
 Initial command:
 /uufs/chpc.utah.edu/sys/installdir/gaussian16/B01/E6B/g16/l1.exe "/scratch/general/lustre/u1010977/3348968/notchpeak.peaks/Gau-68561.inp" -scrdir="/scratch/general/lustre/u1010977/3348968/notchpeak.peaks/"
 Entering Link 1 = /uufs/chpc.utah.edu/sys/installdir/gaussian16/B01/E6B/g16/l1.exe PID=     68563.
  
 Copyright (c) 1988-2017, Gaussian, Inc.  All Rights Reserved.
  
 This is part of the Gaussian(R) 16 program.  It is based on
 the Gaussian(R) 09 system (copyright 2009, Gaussian, Inc.),
 the Gaussian(R) 03 system (copyright 2003, Gaussian, Inc.),
 the Gaussian(R) 98 system (copyright 1998, Gaussian, Inc.),
 the Gaussian(R) 94 system (copyright 1995, Gaussian, Inc.),
 the Gaussian 92(TM) system (copyright 1992, Gaussian, Inc.),
 the Gaussian 90(TM) system (copyright 1990, Gaussian, Inc.),
 the Gaussian 88(TM) system (copyright 1988, Gaussian, Inc.),
 the Gaussian 86(TM) system (copyright 1986, Carnegie Mellon
 University), and the Gaussian 82(TM) system (copyright 1983,
 Carnegie Mellon University). Gaussian is a federally registered
 trademark of Gaussian, Inc.
  
 This software contains proprietary and confidential information,
 including trade secrets, belonging to Gaussian, Inc.
  
 This software is provided under written license and may be
 used, copied, transmitted, or stored only in accord with that
 written license.
  
 The following legend is applicable only to US Government
 contracts under FAR:
  
                    RESTRICTED RIGHTS LEGEND
  
 Use, reproduction and disclosure by the US Government is
 subject to restrictions as set forth in subparagraphs (a)
 and (c) of the Commercial Computer Software - Restricted
 Rights clause in FAR 52.227-19.
  
 Gaussian, Inc.
 340 Quinnipiac St., Bldg. 40, Wallingford CT 06492
  
  
 ---------------------------------------------------------------
 Warning -- This program may not be used in any manner that
 competes with the business of Gaussian, Inc. or will provide
 assistance to any competitor of Gaussian, Inc.  The licensee
 of this program is prohibited from giving any competitor of
 Gaussian, Inc. access to this program.  By using this program,
 the user acknowledges that Gaussian, Inc. is engaged in the
 business of creating and licensing software in the field of
 computational chemistry and represents and warrants to the
 licensee that it is not a competitor of Gaussian, Inc. and that
 it will not use this program in any manner prohibited above.
 ---------------------------------------------------------------
  

 Cite this work as:
 Gaussian 16, Revision B.01,
 M. J. Frisch, G. W. Trucks, H. B. Schlegel, G. E. Scuseria, 
 M. A. Robb, J. R. Cheeseman, G. Scalmani, V. Barone, 
 G. A. Petersson, H. Nakatsuji, X. Li, M. Caricato, A. V. Marenich, 
 J. Bloino, B. G. Janesko, R. Gomperts, B. Mennucci, H. P. Hratchian, 
 J. V. Ortiz, A. F. Izmaylov, J. L. Sonnenberg, D. Williams-Young, 
 F. Ding, F. Lipparini, F. Egidi, J. Goings, B. Peng, A. Petrone, 
 T. Henderson, D. Ranasinghe, V. G. Zakrzewski, J. Gao, N. Rega, 
 G. Zheng, W. Liang, M. Hada, M. Ehara, K. Toyota, R. Fukuda, 
 J. Hasegawa, M. Ishida, T. Nakajima, Y. Honda, O. Kitao, H. Nakai, 
 T. Vreven, K. Throssell, J. A. Montgomery, Jr., J. E. Peralta, 
 F. Ogliaro, M. J. Bearpark, J. J. Heyd, E. N. Brothers, K. N. Kudin, 
 V. N. Staroverov, T. A. Keith, R. Kobayashi, J. Normand, 
 K. Raghavachari, A. P. Rendell, J. C. Burant, S. S. Iyengar, 
 J. Tomasi, M. Cossi, J. M. Millam, M. Klene, C. Adamo, R. Cammi, 
 J. W. Ochterski, R. L. Martin, K. Morokuma, O. Farkas, 
 J. B. Foresman, and D. J. Fox, Gaussian, Inc., Wallingford CT, 2016.
 
 ******************************************
 Gaussian 16:  ES64L-G16RevB.01 20-Dec-2017
                29-Oct-2021 
 ******************************************
 %NProcShared=32
 Will use up to   32 processors via shared memory.
 %mem=18GB
 %chk=R-C4-Tunephos_2.chk
 ----------------------------------------------------------------------
 # PBEPBE gen 6D pseudo=read scf=maxcycles=500 denfit int=(grid=ultrafi
 ne) empiricaldispersion=GD3BJ opt freq=noraman
 ----------------------------------------------------------------------
 1/18=20,19=15,26=4,38=1/1,3;
 2/9=110,12=2,17=6,18=5,40=1/2;
 3/5=7,8=2,11=2,16=1,17=8,25=1,30=1,71=1,74=1009,75=-5,82=47,124=41/1,2,3;
 4//1;
 5/5=2,7=500,38=5/2;
 6/7=2,8=2,9=2,10=2,28=1/1;
 7//1,2,3,16;
 1/18=20,19=15,26=4/3(2);
 2/9=110/2;
 99//99;
 2/9=110/2;
 3/5=7,6=1,8=2,11=2,16=1,17=8,25=1,30=1,71=1,74=1009,75=-5,82=7,124=41/1,2,3;
 4/5=5,16=3,69=1/1;
 5/5=2,7=500,38=5/2;
 7//1,2,3,16;
 1/18=20,19=15,26=4/3(-5);
 2/9=110/2;
 6/7=2,8=2,9=2,10=2,19=2,28=1/1;
 99/9=1/99;
 -----
 title
 -----
 Symbolic Z-matrix:
 Charge =  0 Multiplicity = 1
 Pd                   -2.4472    0.0101   -0.0057 
 P                    -0.7661    1.7293    0.0556 
 C                    -0.1289    2.2284   -1.6302 
 C                    -0.9494    2.0482   -2.7633 
 C                    -0.4909    2.4108   -4.0449 
 C                     0.7951    2.9608   -4.2032 
 C                     1.6184    3.1513   -3.0777 
 C                     1.155     2.7897   -1.7983 
 H                     1.7976    2.9286   -0.9401 
 H                     1.1492    3.2371   -5.1857 
 H                    -1.941     1.6348   -2.652 
 C                    -1.3518    3.3639    0.7909 
 C                    -0.9039    4.6108    0.2989 
 C                    -1.3508    5.8171    0.8723 
 C                    -2.2546    5.7936    1.95 
 C                    -2.7089    4.5608    2.4517 
 C                    -2.2583    3.3579    1.8749 
 H                    -2.6162    2.4191    2.2713 
 H                    -2.6001    6.7187    2.3884 
 H                    -0.2121    4.6596   -0.5272 
 C                     0.7128    1.2478    1.1299 
 C                     0.7693    1.7888    2.4352 
 C                     1.8038    1.4626    3.3226 
 C                     2.8162    0.5895    2.9103 
 C                     2.7965    0.0415    1.6105 
 C                     1.7346    0.3425    0.7123 
 C                     1.7565   -0.2706   -0.6401 
 C                     2.8382    0.0469   -1.5114 
 C                     2.8792   -0.4919   -2.8175 
 C                     1.8826   -1.3719   -3.2526 
 C                     0.8372   -1.7168   -2.3867 
 C                     0.7521   -1.1842   -1.0805 
 P                    -0.7428   -1.6868   -0.038 
 C                    -0.1388   -2.1877    1.6593 
 C                     1.1514   -2.7244    1.8565 
 C                     1.5886   -3.0875    3.1446 
 C                     0.7324   -2.9241    4.2495 
 C                    -0.5603   -2.3995    4.0619 
 C                    -0.9923   -2.0347    2.7718 
 H                    -1.9891   -1.641     2.6379 
 H                     1.0667   -3.2015    5.2386 
 H                     1.8195   -2.8425    1.0147 
 C                    -1.2912   -3.3258   -0.792 
 C                    -2.1829   -3.3279   -1.8882 
 C                    -2.6047   -4.5345   -2.479 
 C                    -2.1355   -5.7627   -1.9795 
 C                    -1.2456   -5.7779   -0.8903 
 C                    -0.8275   -4.5679   -0.3029 
 H                    -0.1453   -4.6101    0.5316 
 H                    -2.4589   -6.6906   -2.4287 
 H                    -2.5517   -2.3928   -2.2833 
 H                     0.0911   -2.3989   -2.7593 
 H                     1.9191   -1.783    -4.2508 
 H                     3.6663   -0.2378   -3.5084 
 O                     3.8282    0.8975   -1.0549 
 C                     5.1708    0.6641   -1.4835 
 H                     5.8011    1.4406   -1.0498 
 H                     5.2603    0.8008   -2.5604 
 C                     5.6999   -0.7251   -1.0547 
 H                     6.5703   -0.9647   -1.6655 
 H                     4.9694   -1.4991   -1.2885 
 C                     6.1151   -0.8583    0.4246 
 H                     6.285    -1.9128    0.6439 
 H                     7.075    -0.3631    0.5731 
 C                     5.118    -0.29      1.4437 
 H                     5.4367   -0.5527    2.453 
 O                     3.8105   -0.7989    1.208 
 H                     5.1303    0.8003    1.3792 
 H                     3.6055    0.3366    3.6013 
 H                     1.8196    1.8819    4.318 
 H                     0.0097    2.4658    2.7896 
 Cl                   -4.1319    1.6171   -0.1161 
 Cl                   -4.112    -1.6193    0.0765 
 H                    -1.        6.7614    0.4817 
 H                    -3.4059    4.5371    3.277 
 H                    -1.1269    2.2687   -4.9066 
 H                     2.6082    3.5684   -3.1925 
 H                    -3.291    -4.5173   -3.3133 
 H                    -0.8832   -6.7185   -0.5015 
 H                     2.584    -3.4842    3.2818 
 H                    -1.2215   -2.2783    4.9077 
 

 GradGradGradGradGradGradGradGradGradGradGradGradGradGradGradGradGradGrad
 Berny optimization.
 Initialization pass.
                           ----------------------------
                           !    Initial Parameters    !
                           ! (Angstroms and Degrees)  !
 --------------------------                            --------------------------
 ! Name  Definition              Value          Derivative Info.                !
 --------------------------------------------------------------------------------
 ! R1    R(1,2)                  2.4053         estimate D2E/DX2                !
 ! R2    R(1,33)                 2.4053         estimate D2E/DX2                !
 ! R3    R(1,72)                 2.3308         estimate D2E/DX2                !
 ! R4    R(1,73)                 2.3309         estimate D2E/DX2                !
 ! R5    R(2,3)                  1.87           estimate D2E/DX2                !
 ! R6    R(2,12)                 1.8856         estimate D2E/DX2                !
 ! R7    R(2,21)                 1.8903         estimate D2E/DX2                !
 ! R8    R(3,4)                  1.4105         estimate D2E/DX2                !
 ! R9    R(3,8)                  1.4113         estimate D2E/DX2                !
 ! R10   R(4,5)                  1.4086         estimate D2E/DX2                !
 ! R11   R(4,11)                 1.0801         estimate D2E/DX2                !
 ! R12   R(5,6)                  1.4076         estimate D2E/DX2                !
 ! R13   R(5,76)                 1.0804         estimate D2E/DX2                !
 ! R14   R(6,7)                  1.4074         estimate D2E/DX2                !
 ! R15   R(6,10)                 1.0803         estimate D2E/DX2                !
 ! R16   R(7,8)                  1.408          estimate D2E/DX2                !
 ! R17   R(7,77)                 1.0802         estimate D2E/DX2                !
 ! R18   R(8,9)                  1.0811         estimate D2E/DX2                !
 ! R19   R(12,13)                1.4133         estimate D2E/DX2                !
 ! R20   R(12,17)                1.4131         estimate D2E/DX2                !
 ! R21   R(13,14)                1.4084         estimate D2E/DX2                !
 ! R22   R(13,20)                1.0786         estimate D2E/DX2                !
 ! R23   R(14,15)                1.4067         estimate D2E/DX2                !
 ! R24   R(14,74)                1.0804         estimate D2E/DX2                !
 ! R25   R(15,16)                1.4064         estimate D2E/DX2                !
 ! R26   R(15,19)                1.0805         estimate D2E/DX2                !
 ! R27   R(16,17)                1.4081         estimate D2E/DX2                !
 ! R28   R(16,75)                1.0805         estimate D2E/DX2                !
 ! R29   R(17,18)                1.0801         estimate D2E/DX2                !
 ! R30   R(21,22)                1.4141         estimate D2E/DX2                !
 ! R31   R(21,26)                1.4276         estimate D2E/DX2                !
 ! R32   R(22,23)                1.4015         estimate D2E/DX2                !
 ! R33   R(22,71)                1.0775         estimate D2E/DX2                !
 ! R34   R(23,24)                1.399          estimate D2E/DX2                !
 ! R35   R(23,70)                1.0802         estimate D2E/DX2                !
 ! R36   R(24,25)                1.4107         estimate D2E/DX2                !
 ! R37   R(24,69)                1.0791         estimate D2E/DX2                !
 ! R38   R(25,26)                1.423          estimate D2E/DX2                !
 ! R39   R(25,67)                1.3771         estimate D2E/DX2                !
 ! R40   R(26,27)                1.485          estimate D2E/DX2                !
 ! R41   R(27,28)                1.4248         estimate D2E/DX2                !
 ! R42   R(27,32)                1.4274         estimate D2E/DX2                !
 ! R43   R(28,29)                1.4135         estimate D2E/DX2                !
 ! R44   R(28,55)                1.3828         estimate D2E/DX2                !
 ! R45   R(29,30)                1.3989         estimate D2E/DX2                !
 ! R46   R(29,54)                1.0777         estimate D2E/DX2                !
 ! R47   R(30,31)                1.4006         estimate D2E/DX2                !
 ! R48   R(30,53)                1.0802         estimate D2E/DX2                !
 ! R49   R(31,32)                1.4132         estimate D2E/DX2                !
 ! R50   R(31,52)                1.0774         estimate D2E/DX2                !
 ! R51   R(32,33)                1.8905         estimate D2E/DX2                !
 ! R52   R(33,34)                1.8699         estimate D2E/DX2                !
 ! R53   R(33,43)                1.8856         estimate D2E/DX2                !
 ! R54   R(34,35)                1.4112         estimate D2E/DX2                !
 ! R55   R(34,39)                1.4105         estimate D2E/DX2                !
 ! R56   R(35,36)                1.4079         estimate D2E/DX2                !
 ! R57   R(35,42)                1.0812         estimate D2E/DX2                !
 ! R58   R(36,37)                1.4073         estimate D2E/DX2                !
 ! R59   R(36,80)                1.0803         estimate D2E/DX2                !
 ! R60   R(37,38)                1.4076         estimate D2E/DX2                !
 ! R61   R(37,41)                1.0803         estimate D2E/DX2                !
 ! R62   R(38,39)                1.4086         estimate D2E/DX2                !
 ! R63   R(38,81)                1.0804         estimate D2E/DX2                !
 ! R64   R(39,40)                1.0801         estimate D2E/DX2                !
 ! R65   R(43,44)                1.4131         estimate D2E/DX2                !
 ! R66   R(43,48)                1.4132         estimate D2E/DX2                !
 ! R67   R(44,45)                1.4081         estimate D2E/DX2                !
 ! R68   R(44,51)                1.0801         estimate D2E/DX2                !
 ! R69   R(45,46)                1.4065         estimate D2E/DX2                !
 ! R70   R(45,78)                1.0804         estimate D2E/DX2                !
 ! R71   R(46,47)                1.4066         estimate D2E/DX2                !
 ! R72   R(46,50)                1.0804         estimate D2E/DX2                !
 ! R73   R(47,48)                1.4085         estimate D2E/DX2                !
 ! R74   R(47,79)                1.0804         estimate D2E/DX2                !
 ! R75   R(48,49)                1.0787         estimate D2E/DX2                !
 ! R76   R(55,56)                1.4285         estimate D2E/DX2                !
 ! R77   R(56,57)                1.0901         estimate D2E/DX2                !
 ! R78   R(56,58)                1.0892         estimate D2E/DX2                !
 ! R79   R(56,59)                1.5472         estimate D2E/DX2                !
 ! R80   R(59,60)                1.09           estimate D2E/DX2                !
 ! R81   R(59,61)                1.0897         estimate D2E/DX2                !
 ! R82   R(59,62)                1.5422         estimate D2E/DX2                !
 ! R83   R(62,63)                1.0904         estimate D2E/DX2                !
 ! R84   R(62,64)                1.0903         estimate D2E/DX2                !
 ! R85   R(62,65)                1.5348         estimate D2E/DX2                !
 ! R86   R(65,66)                1.0905         estimate D2E/DX2                !
 ! R87   R(65,67)                1.4227         estimate D2E/DX2                !
 ! R88   R(65,68)                1.0923         estimate D2E/DX2                !
 ! A1    A(2,1,33)              90.535          estimate D2E/DX2                !
 ! A2    A(2,1,72)              90.7784         estimate D2E/DX2                !
 ! A3    A(33,1,73)             90.7686         estimate D2E/DX2                !
 ! A4    A(72,1,73)             88.1313         estimate D2E/DX2                !
 ! A5    A(1,2,3)              113.9498         estimate D2E/DX2                !
 ! A6    A(1,2,12)             114.3585         estimate D2E/DX2                !
 ! A7    A(1,2,21)             112.2861         estimate D2E/DX2                !
 ! A8    A(3,2,12)             103.0621         estimate D2E/DX2                !
 ! A9    A(3,2,21)             108.2845         estimate D2E/DX2                !
 ! A10   A(12,2,21)            104.0169         estimate D2E/DX2                !
 ! A11   A(2,3,4)              119.4632         estimate D2E/DX2                !
 ! A12   A(2,3,8)              121.5682         estimate D2E/DX2                !
 ! A13   A(4,3,8)              118.9678         estimate D2E/DX2                !
 ! A14   A(3,4,5)              120.5741         estimate D2E/DX2                !
 ! A15   A(3,4,11)             120.0108         estimate D2E/DX2                !
 ! A16   A(5,4,11)             119.414          estimate D2E/DX2                !
 ! A17   A(4,5,6)              120.0184         estimate D2E/DX2                !
 ! A18   A(4,5,76)             120.0132         estimate D2E/DX2                !
 ! A19   A(6,5,76)             119.9683         estimate D2E/DX2                !
 ! A20   A(5,6,7)              119.8271         estimate D2E/DX2                !
 ! A21   A(5,6,10)             120.1111         estimate D2E/DX2                !
 ! A22   A(7,6,10)             120.0617         estimate D2E/DX2                !
 ! A23   A(6,7,8)              119.9585         estimate D2E/DX2                !
 ! A24   A(6,7,77)             120.2174         estimate D2E/DX2                !
 ! A25   A(8,7,77)             119.8228         estimate D2E/DX2                !
 ! A26   A(3,8,7)              120.6506         estimate D2E/DX2                !
 ! A27   A(3,8,9)              119.8215         estimate D2E/DX2                !
 ! A28   A(7,8,9)              119.5193         estimate D2E/DX2                !
 ! A29   A(2,12,13)            122.047          estimate D2E/DX2                !
 ! A30   A(2,12,17)            119.6506         estimate D2E/DX2                !
 ! A31   A(13,12,17)           118.3004         estimate D2E/DX2                !
 ! A32   A(12,13,14)           120.8876         estimate D2E/DX2                !
 ! A33   A(12,13,20)           120.6505         estimate D2E/DX2                !
 ! A34   A(14,13,20)           118.4617         estimate D2E/DX2                !
 ! A35   A(13,14,15)           120.0964         estimate D2E/DX2                !
 ! A36   A(13,14,74)           119.8919         estimate D2E/DX2                !
 ! A37   A(15,14,74)           120.0115         estimate D2E/DX2                !
 ! A38   A(14,15,16)           119.7017         estimate D2E/DX2                !
 ! A39   A(14,15,19)           120.1326         estimate D2E/DX2                !
 ! A40   A(16,15,19)           120.1655         estimate D2E/DX2                !
 ! A41   A(15,16,17)           119.9565         estimate D2E/DX2                !
 ! A42   A(15,16,75)           120.0053         estimate D2E/DX2                !
 ! A43   A(17,16,75)           120.0379         estimate D2E/DX2                !
 ! A44   A(12,17,16)           121.0572         estimate D2E/DX2                !
 ! A45   A(12,17,18)           119.8545         estimate D2E/DX2                !
 ! A46   A(16,17,18)           119.0883         estimate D2E/DX2                !
 ! A47   A(2,21,22)            117.2847         estimate D2E/DX2                !
 ! A48   A(2,21,26)            123.7292         estimate D2E/DX2                !
 ! A49   A(22,21,26)           118.9485         estimate D2E/DX2                !
 ! A50   A(21,22,23)           121.6633         estimate D2E/DX2                !
 ! A51   A(21,22,71)           121.0529         estimate D2E/DX2                !
 ! A52   A(23,22,71)           117.2822         estimate D2E/DX2                !
 ! A53   A(22,23,24)           119.5263         estimate D2E/DX2                !
 ! A54   A(22,23,70)           120.2602         estimate D2E/DX2                !
 ! A55   A(24,23,70)           120.2135         estimate D2E/DX2                !
 ! A56   A(23,24,25)           120.2551         estimate D2E/DX2                !
 ! A57   A(23,24,69)           119.1344         estimate D2E/DX2                !
 ! A58   A(25,24,69)           120.6089         estimate D2E/DX2                !
 ! A59   A(24,25,26)           120.6513         estimate D2E/DX2                !
 ! A60   A(24,25,67)           119.7399         estimate D2E/DX2                !
 ! A61   A(26,25,67)           119.6078         estimate D2E/DX2                !
 ! A62   A(21,26,25)           118.9215         estimate D2E/DX2                !
 ! A63   A(21,26,27)           122.5987         estimate D2E/DX2                !
 ! A64   A(25,26,27)           118.4559         estimate D2E/DX2                !
 ! A65   A(26,27,28)           118.4311         estimate D2E/DX2                !
 ! A66   A(26,27,32)           122.3334         estimate D2E/DX2                !
 ! A67   A(28,27,32)           119.2203         estimate D2E/DX2                !
 ! A68   A(27,28,29)           120.1425         estimate D2E/DX2                !
 ! A69   A(27,28,55)           118.6036         estimate D2E/DX2                !
 ! A70   A(29,28,55)           121.2506         estimate D2E/DX2                !
 ! A71   A(28,29,30)           120.4332         estimate D2E/DX2                !
 ! A72   A(28,29,54)           121.5807         estimate D2E/DX2                !
 ! A73   A(30,29,54)           117.9849         estimate D2E/DX2                !
 ! A74   A(29,30,31)           119.6284         estimate D2E/DX2                !
 ! A75   A(29,30,53)           120.1837         estimate D2E/DX2                !
 ! A76   A(31,30,53)           120.1879         estimate D2E/DX2                !
 ! A77   A(30,31,32)           121.5731         estimate D2E/DX2                !
 ! A78   A(30,31,52)           117.322          estimate D2E/DX2                !
 ! A79   A(32,31,52)           121.102          estimate D2E/DX2                !
 ! A80   A(27,32,31)           118.9489         estimate D2E/DX2                !
 ! A81   A(27,32,33)           123.809          estimate D2E/DX2                !
 ! A82   A(31,32,33)           117.2008         estimate D2E/DX2                !
 ! A83   A(1,33,32)            112.3437         estimate D2E/DX2                !
 ! A84   A(1,33,34)            113.9336         estimate D2E/DX2                !
 ! A85   A(1,33,43)            114.3618         estimate D2E/DX2                !
 ! A86   A(32,33,34)           108.4411         estimate D2E/DX2                !
 ! A87   A(32,33,43)           103.9189         estimate D2E/DX2                !
 ! A88   A(34,33,43)           102.9476         estimate D2E/DX2                !
 ! A89   A(33,34,35)           121.6025         estimate D2E/DX2                !
 ! A90   A(33,34,39)           119.4332         estimate D2E/DX2                !
 ! A91   A(35,34,39)           118.9633         estimate D2E/DX2                !
 ! A92   A(34,35,36)           120.6526         estimate D2E/DX2                !
 ! A93   A(34,35,42)           119.8473         estimate D2E/DX2                !
 ! A94   A(36,35,42)           119.4908         estimate D2E/DX2                !
 ! A95   A(35,36,37)           119.9622         estimate D2E/DX2                !
 ! A96   A(35,36,80)           119.804          estimate D2E/DX2                !
 ! A97   A(37,36,80)           120.2322         estimate D2E/DX2                !
 ! A98   A(36,37,38)           119.8244         estimate D2E/DX2                !
 ! A99   A(36,37,41)           120.0496         estimate D2E/DX2                !
 ! A100  A(38,37,41)           120.126          estimate D2E/DX2                !
 ! A101  A(37,38,39)           120.0154         estimate D2E/DX2                !
 ! A102  A(37,38,81)           119.9667         estimate D2E/DX2                !
 ! A103  A(39,38,81)           120.0178         estimate D2E/DX2                !
 ! A104  A(34,39,38)           120.5782         estimate D2E/DX2                !
 ! A105  A(34,39,40)           120.014          estimate D2E/DX2                !
 ! A106  A(38,39,40)           119.4065         estimate D2E/DX2                !
 ! A107  A(33,43,44)           119.6708         estimate D2E/DX2                !
 ! A108  A(33,43,48)           122.0164         estimate D2E/DX2                !
 ! A109  A(44,43,48)           118.3101         estimate D2E/DX2                !
 ! A110  A(43,44,45)           121.0492         estimate D2E/DX2                !
 ! A111  A(43,44,51)           119.8657         estimate D2E/DX2                !
 ! A112  A(45,44,51)           119.0851         estimate D2E/DX2                !
 ! A113  A(44,45,46)           119.9563         estimate D2E/DX2                !
 ! A114  A(44,45,78)           120.0403         estimate D2E/DX2                !
 ! A115  A(46,45,78)           120.003          estimate D2E/DX2                !
 ! A116  A(45,46,47)           119.703          estimate D2E/DX2                !
 ! A117  A(45,46,50)           120.1625         estimate D2E/DX2                !
 ! A118  A(47,46,50)           120.1343         estimate D2E/DX2                !
 ! A119  A(46,47,48)           120.0955         estimate D2E/DX2                !
 ! A120  A(46,47,79)           120.0195         estimate D2E/DX2                !
 ! A121  A(48,47,79)           119.8849         estimate D2E/DX2                !
 ! A122  A(43,48,47)           120.8857         estimate D2E/DX2                !
 ! A123  A(43,48,49)           120.641          estimate D2E/DX2                !
 ! A124  A(47,48,49)           118.4732         estimate D2E/DX2                !
 ! A125  A(28,55,56)           118.2508         estimate D2E/DX2                !
 ! A126  A(55,56,57)           107.9188         estimate D2E/DX2                !
 ! A127  A(55,56,58)           110.6924         estimate D2E/DX2                !
 ! A128  A(55,56,59)           112.641          estimate D2E/DX2                !
 ! A129  A(57,56,58)           104.8591         estimate D2E/DX2                !
 ! A130  A(57,56,59)           109.3655         estimate D2E/DX2                !
 ! A131  A(58,56,59)           111.0146         estimate D2E/DX2                !
 ! A132  A(56,59,60)           108.3701         estimate D2E/DX2                !
 ! A133  A(56,59,61)           110.4301         estimate D2E/DX2                !
 ! A134  A(56,59,62)           115.8149         estimate D2E/DX2                !
 ! A135  A(60,59,61)           105.0083         estimate D2E/DX2                !
 ! A136  A(60,59,62)           107.6702         estimate D2E/DX2                !
 ! A137  A(61,59,62)           108.962          estimate D2E/DX2                !
 ! A138  A(59,62,63)           108.5657         estimate D2E/DX2                !
 ! A139  A(59,62,64)           109.1746         estimate D2E/DX2                !
 ! A140  A(59,62,65)           115.4681         estimate D2E/DX2                !
 ! A141  A(63,62,64)           105.9426         estimate D2E/DX2                !
 ! A142  A(63,62,65)           109.0121         estimate D2E/DX2                !
 ! A143  A(64,62,65)           108.2613         estimate D2E/DX2                !
 ! A144  A(62,65,66)           109.6011         estimate D2E/DX2                !
 ! A145  A(62,65,67)           110.7685         estimate D2E/DX2                !
 ! A146  A(62,65,68)           108.8488         estimate D2E/DX2                !
 ! A147  A(66,65,67)           109.6175         estimate D2E/DX2                !
 ! A148  A(66,65,68)           106.9667         estimate D2E/DX2                !
 ! A149  A(67,65,68)           110.954          estimate D2E/DX2                !
 ! A150  A(25,67,65)           114.2038         estimate D2E/DX2                !
 ! A151  L(2,1,73,72,-1)       178.9097         estimate D2E/DX2                !
 ! A152  L(33,1,72,73,-1)      178.8999         estimate D2E/DX2                !
 ! A153  L(2,1,73,72,-2)       183.5382         estimate D2E/DX2                !
 ! A154  L(33,1,72,73,-2)      183.5268         estimate D2E/DX2                !
 ! D1    D(33,1,2,3)            85.6662         estimate D2E/DX2                !
 ! D2    D(33,1,2,12)         -156.1329         estimate D2E/DX2                !
 ! D3    D(33,1,2,21)          -37.9104         estimate D2E/DX2                !
 ! D4    D(72,1,2,3)           -90.8816         estimate D2E/DX2                !
 ! D5    D(72,1,2,12)           27.3193         estimate D2E/DX2                !
 ! D6    D(72,1,2,21)          145.5417         estimate D2E/DX2                !
 ! D7    D(2,1,33,32)          -37.6619         estimate D2E/DX2                !
 ! D8    D(2,1,33,34)           86.1597         estimate D2E/DX2                !
 ! D9    D(2,1,33,43)         -155.8009         estimate D2E/DX2                !
 ! D10   D(73,1,33,32)         145.8024         estimate D2E/DX2                !
 ! D11   D(73,1,33,34)         -90.3759         estimate D2E/DX2                !
 ! D12   D(73,1,33,43)          27.6634         estimate D2E/DX2                !
 ! D13   D(1,2,3,4)             25.5318         estimate D2E/DX2                !
 ! D14   D(1,2,3,8)           -154.8004         estimate D2E/DX2                !
 ! D15   D(12,2,3,4)           -98.9638         estimate D2E/DX2                !
 ! D16   D(12,2,3,8)            80.7041         estimate D2E/DX2                !
 ! D17   D(21,2,3,4)           151.2492         estimate D2E/DX2                !
 ! D18   D(21,2,3,8)           -29.0829         estimate D2E/DX2                !
 ! D19   D(1,2,12,13)         -143.9596         estimate D2E/DX2                !
 ! D20   D(1,2,12,17)           36.5648         estimate D2E/DX2                !
 ! D21   D(3,2,12,13)          -19.7321         estimate D2E/DX2                !
 ! D22   D(3,2,12,17)          160.7923         estimate D2E/DX2                !
 ! D23   D(21,2,12,13)          93.2145         estimate D2E/DX2                !
 ! D24   D(21,2,12,17)         -86.2611         estimate D2E/DX2                !
 ! D25   D(1,2,21,22)         -100.5843         estimate D2E/DX2                !
 ! D26   D(1,2,21,26)           77.1582         estimate D2E/DX2                !
 ! D27   D(3,2,21,22)          132.7278         estimate D2E/DX2                !
 ! D28   D(3,2,21,26)          -49.5297         estimate D2E/DX2                !
 ! D29   D(12,2,21,22)          23.5915         estimate D2E/DX2                !
 ! D30   D(12,2,21,26)        -158.666          estimate D2E/DX2                !
 ! D31   D(2,3,4,5)           -179.7346         estimate D2E/DX2                !
 ! D32   D(2,3,4,11)             0.6539         estimate D2E/DX2                !
 ! D33   D(8,3,4,5)              0.5889         estimate D2E/DX2                !
 ! D34   D(8,3,4,11)          -179.0226         estimate D2E/DX2                !
 ! D35   D(2,3,8,7)            179.6227         estimate D2E/DX2                !
 ! D36   D(2,3,8,9)              0.69           estimate D2E/DX2                !
 ! D37   D(4,3,8,7)             -0.7079         estimate D2E/DX2                !
 ! D38   D(4,3,8,9)           -179.6405         estimate D2E/DX2                !
 ! D39   D(3,4,5,6)             -0.1295         estimate D2E/DX2                !
 ! D40   D(3,4,5,76)           179.9916         estimate D2E/DX2                !
 ! D41   D(11,4,5,6)           179.4843         estimate D2E/DX2                !
 ! D42   D(11,4,5,76)           -0.3946         estimate D2E/DX2                !
 ! D43   D(4,5,6,7)             -0.2207         estimate D2E/DX2                !
 ! D44   D(4,5,6,10)           179.8454         estimate D2E/DX2                !
 ! D45   D(76,5,6,7)           179.6582         estimate D2E/DX2                !
 ! D46   D(76,5,6,10)           -0.2757         estimate D2E/DX2                !
 ! D47   D(5,6,7,8)              0.1031         estimate D2E/DX2                !
 ! D48   D(5,6,7,77)           179.7017         estimate D2E/DX2                !
 ! D49   D(10,6,7,8)          -179.963          estimate D2E/DX2                !
 ! D50   D(10,6,7,77)           -0.3644         estimate D2E/DX2                !
 ! D51   D(6,7,8,3)              0.3666         estimate D2E/DX2                !
 ! D52   D(6,7,8,9)            179.3025         estimate D2E/DX2                !
 ! D53   D(77,7,8,3)          -179.2336         estimate D2E/DX2                !
 ! D54   D(77,7,8,9)            -0.2977         estimate D2E/DX2                !
 ! D55   D(2,12,13,14)        -179.5855         estimate D2E/DX2                !
 ! D56   D(2,12,13,20)           0.5331         estimate D2E/DX2                !
 ! D57   D(17,12,13,14)         -0.1032         estimate D2E/DX2                !
 ! D58   D(17,12,13,20)       -179.9846         estimate D2E/DX2                !
 ! D59   D(2,12,17,16)         179.6261         estimate D2E/DX2                !
 ! D60   D(2,12,17,18)          -0.4561         estimate D2E/DX2                !
 ! D61   D(13,12,17,16)          0.131          estimate D2E/DX2                !
 ! D62   D(13,12,17,18)       -179.9512         estimate D2E/DX2                !
 ! D63   D(12,13,14,15)          0.0301         estimate D2E/DX2                !
 ! D64   D(12,13,14,74)       -179.836          estimate D2E/DX2                !
 ! D65   D(20,13,14,15)        179.914          estimate D2E/DX2                !
 ! D66   D(20,13,14,74)          0.048          estimate D2E/DX2                !
 ! D67   D(13,14,15,16)          0.0181         estimate D2E/DX2                !
 ! D68   D(13,14,15,19)       -179.817          estimate D2E/DX2                !
 ! D69   D(74,14,15,16)        179.884          estimate D2E/DX2                !
 ! D70   D(74,14,15,19)          0.0489         estimate D2E/DX2                !
 ! D71   D(14,15,16,17)          0.0091         estimate D2E/DX2                !
 ! D72   D(14,15,16,75)       -179.7787         estimate D2E/DX2                !
 ! D73   D(19,15,16,17)        179.8442         estimate D2E/DX2                !
 ! D74   D(19,15,16,75)          0.0563         estimate D2E/DX2                !
 ! D75   D(15,16,17,12)         -0.0855         estimate D2E/DX2                !
 ! D76   D(15,16,17,18)        179.9961         estimate D2E/DX2                !
 ! D77   D(75,16,17,12)        179.7023         estimate D2E/DX2                !
 ! D78   D(75,16,17,18)         -0.2161         estimate D2E/DX2                !
 ! D79   D(2,21,22,23)         178.1273         estimate D2E/DX2                !
 ! D80   D(2,21,22,71)          -1.4037         estimate D2E/DX2                !
 ! D81   D(26,21,22,23)          0.2728         estimate D2E/DX2                !
 ! D82   D(26,21,22,71)       -179.2582         estimate D2E/DX2                !
 ! D83   D(2,21,26,25)        -179.3715         estimate D2E/DX2                !
 ! D84   D(2,21,26,27)           2.4357         estimate D2E/DX2                !
 ! D85   D(22,21,26,25)         -1.6643         estimate D2E/DX2                !
 ! D86   D(22,21,26,27)       -179.8571         estimate D2E/DX2                !
 ! D87   D(21,22,23,24)          0.5651         estimate D2E/DX2                !
 ! D88   D(21,22,23,70)       -179.4193         estimate D2E/DX2                !
 ! D89   D(71,22,23,24)       -179.887          estimate D2E/DX2                !
 ! D90   D(71,22,23,70)          0.1286         estimate D2E/DX2                !
 ! D91   D(22,23,24,25)          0.0216         estimate D2E/DX2                !
 ! D92   D(22,23,24,69)       -179.5259         estimate D2E/DX2                !
 ! D93   D(70,23,24,25)       -179.994          estimate D2E/DX2                !
 ! D94   D(70,23,24,69)          0.4585         estimate D2E/DX2                !
 ! D95   D(23,24,25,26)         -1.4517         estimate D2E/DX2                !
 ! D96   D(23,24,25,67)        178.8997         estimate D2E/DX2                !
 ! D97   D(69,24,25,26)        178.089          estimate D2E/DX2                !
 ! D98   D(69,24,25,67)         -1.5596         estimate D2E/DX2                !
 ! D99   D(24,25,26,21)          2.2661         estimate D2E/DX2                !
 ! D100  D(24,25,26,27)       -179.4656         estimate D2E/DX2                !
 ! D101  D(67,25,26,21)       -178.0849         estimate D2E/DX2                !
 ! D102  D(67,25,26,27)          0.1834         estimate D2E/DX2                !
 ! D103  D(24,25,67,65)        -50.1187         estimate D2E/DX2                !
 ! D104  D(26,25,67,65)        130.229          estimate D2E/DX2                !
 ! D105  D(21,26,27,28)        115.9737         estimate D2E/DX2                !
 ! D106  D(21,26,27,32)        -65.459          estimate D2E/DX2                !
 ! D107  D(25,26,27,28)        -62.2271         estimate D2E/DX2                !
 ! D108  D(25,26,27,32)        116.3402         estimate D2E/DX2                !
 ! D109  D(26,27,28,29)       -178.5427         estimate D2E/DX2                !
 ! D110  D(26,27,28,55)          0.8056         estimate D2E/DX2                !
 ! D111  D(32,27,28,29)          2.8445         estimate D2E/DX2                !
 ! D112  D(32,27,28,55)       -177.8072         estimate D2E/DX2                !
 ! D113  D(26,27,32,31)        179.4897         estimate D2E/DX2                !
 ! D114  D(26,27,32,33)          1.8944         estimate D2E/DX2                !
 ! D115  D(28,27,32,31)         -1.954          estimate D2E/DX2                !
 ! D116  D(28,27,32,33)       -179.5492         estimate D2E/DX2                !
 ! D117  D(27,28,29,30)         -1.9492         estimate D2E/DX2                !
 ! D118  D(27,28,29,54)        177.6461         estimate D2E/DX2                !
 ! D119  D(55,28,29,30)        178.7201         estimate D2E/DX2                !
 ! D120  D(55,28,29,54)         -1.6847         estimate D2E/DX2                !
 ! D121  D(27,28,55,56)        145.0604         estimate D2E/DX2                !
 ! D122  D(29,28,55,56)        -35.5988         estimate D2E/DX2                !
 ! D123  D(28,29,30,31)          0.1429         estimate D2E/DX2                !
 ! D124  D(28,29,30,53)       -179.8623         estimate D2E/DX2                !
 ! D125  D(54,29,30,31)       -179.4666         estimate D2E/DX2                !
 ! D126  D(54,29,30,53)          0.5281         estimate D2E/DX2                !
 ! D127  D(29,30,31,32)          0.7493         estimate D2E/DX2                !
 ! D128  D(29,30,31,52)       -179.8703         estimate D2E/DX2                !
 ! D129  D(53,30,31,32)       -179.2454         estimate D2E/DX2                !
 ! D130  D(53,30,31,52)          0.135          estimate D2E/DX2                !
 ! D131  D(30,31,32,27)          0.1733         estimate D2E/DX2                !
 ! D132  D(30,31,32,33)        177.9268         estimate D2E/DX2                !
 ! D133  D(52,31,32,27)       -179.1838         estimate D2E/DX2                !
 ! D134  D(52,31,32,33)         -1.4302         estimate D2E/DX2                !
 ! D135  D(27,32,33,1)          77.3268         estimate D2E/DX2                !
 ! D136  D(27,32,33,34)        -49.5006         estimate D2E/DX2                !
 ! D137  D(27,32,33,43)       -158.5251         estimate D2E/DX2                !
 ! D138  D(31,32,33,1)        -100.3072         estimate D2E/DX2                !
 ! D139  D(31,32,33,34)        132.8653         estimate D2E/DX2                !
 ! D140  D(31,32,33,43)         23.8409         estimate D2E/DX2                !
 ! D141  D(1,33,34,35)        -154.3356         estimate D2E/DX2                !
 ! D142  D(1,33,34,39)          26.0385         estimate D2E/DX2                !
 ! D143  D(32,33,34,35)        -28.4309         estimate D2E/DX2                !
 ! D144  D(32,33,34,39)        151.9432         estimate D2E/DX2                !
 ! D145  D(43,33,34,35)         81.254          estimate D2E/DX2                !
 ! D146  D(43,33,34,39)        -98.3719         estimate D2E/DX2                !
 ! D147  D(1,33,43,44)          36.0583         estimate D2E/DX2                !
 ! D148  D(1,33,43,48)        -144.5553         estimate D2E/DX2                !
 ! D149  D(32,33,43,44)        -86.7728         estimate D2E/DX2                !
 ! D150  D(32,33,43,48)         92.6136         estimate D2E/DX2                !
 ! D151  D(34,33,43,44)        160.187          estimate D2E/DX2                !
 ! D152  D(34,33,43,48)        -20.4266         estimate D2E/DX2                !
 ! D153  D(33,34,35,36)        179.6195         estimate D2E/DX2                !
 ! D154  D(33,34,35,42)          0.7316         estimate D2E/DX2                !
 ! D155  D(39,34,35,36)         -0.7529         estimate D2E/DX2                !
 ! D156  D(39,34,35,42)       -179.6408         estimate D2E/DX2                !
 ! D157  D(33,34,39,38)       -179.7605         estimate D2E/DX2                !
 ! D158  D(33,34,39,40)          0.6485         estimate D2E/DX2                !
 ! D159  D(35,34,39,38)          0.6037         estimate D2E/DX2                !
 ! D160  D(35,34,39,40)       -178.9873         estimate D2E/DX2                !
 ! D161  D(34,35,36,37)          0.4064         estimate D2E/DX2                !
 ! D162  D(34,35,36,80)       -179.1463         estimate D2E/DX2                !
 ! D163  D(42,35,36,37)        179.2982         estimate D2E/DX2                !
 ! D164  D(42,35,36,80)         -0.2545         estimate D2E/DX2                !
 ! D165  D(35,36,37,38)          0.0995         estimate D2E/DX2                !
 ! D166  D(35,36,37,41)       -179.9508         estimate D2E/DX2                !
 ! D167  D(80,36,37,38)        179.6502         estimate D2E/DX2                !
 ! D168  D(80,36,37,41)         -0.4001         estimate D2E/DX2                !
 ! D169  D(36,37,38,39)         -0.247          estimate D2E/DX2                !
 ! D170  D(36,37,38,81)        179.6546         estimate D2E/DX2                !
 ! D171  D(41,37,38,39)        179.8032         estimate D2E/DX2                !
 ! D172  D(41,37,38,81)         -0.2951         estimate D2E/DX2                !
 ! D173  D(37,38,39,34)         -0.1088         estimate D2E/DX2                !
 ! D174  D(37,38,39,40)        179.4846         estimate D2E/DX2                !
 ! D175  D(81,38,39,34)        179.9896         estimate D2E/DX2                !
 ! D176  D(81,38,39,40)         -0.417          estimate D2E/DX2                !
 ! D177  D(33,43,44,45)        179.5956         estimate D2E/DX2                !
 ! D178  D(33,43,44,51)         -0.4883         estimate D2E/DX2                !
 ! D179  D(48,43,44,45)          0.1866         estimate D2E/DX2                !
 ! D180  D(48,43,44,51)       -179.8974         estimate D2E/DX2                !
 ! D181  D(33,43,48,47)       -179.553          estimate D2E/DX2                !
 ! D182  D(33,43,48,49)          0.5549         estimate D2E/DX2                !
 ! D183  D(44,43,48,47)         -0.1585         estimate D2E/DX2                !
 ! D184  D(44,43,48,49)        179.9493         estimate D2E/DX2                !
 ! D185  D(43,44,45,46)         -0.1073         estimate D2E/DX2                !
 ! D186  D(43,44,45,78)        179.6807         estimate D2E/DX2                !
 ! D187  D(51,44,45,46)        179.976          estimate D2E/DX2                !
 ! D188  D(51,44,45,78)         -0.236          estimate D2E/DX2                !
 ! D189  D(44,45,46,47)         -0.0043         estimate D2E/DX2                !
 ! D190  D(44,45,46,50)        179.8471         estimate D2E/DX2                !
 ! D191  D(78,45,46,47)       -179.7923         estimate D2E/DX2                !
 ! D192  D(78,45,46,50)          0.0591         estimate D2E/DX2                !
 ! D193  D(45,46,47,48)          0.0318         estimate D2E/DX2                !
 ! D194  D(45,46,47,79)        179.9031         estimate D2E/DX2                !
 ! D195  D(50,46,47,48)       -179.8197         estimate D2E/DX2                !
 ! D196  D(50,46,47,79)          0.0516         estimate D2E/DX2                !
 ! D197  D(46,47,48,43)          0.0515         estimate D2E/DX2                !
 ! D198  D(46,47,48,49)        179.946          estimate D2E/DX2                !
 ! D199  D(79,47,48,43)       -179.8199         estimate D2E/DX2                !
 ! D200  D(79,47,48,49)          0.0745         estimate D2E/DX2                !
 ! D201  D(28,55,56,57)        178.4995         estimate D2E/DX2                !
 ! D202  D(28,55,56,58)         64.2798         estimate D2E/DX2                !
 ! D203  D(28,55,56,59)        -60.6721         estimate D2E/DX2                !
 ! D204  D(55,56,59,60)        162.0385         estimate D2E/DX2                !
 ! D205  D(55,56,59,61)         47.527          estimate D2E/DX2                !
 ! D206  D(55,56,59,62)        -76.9018         estimate D2E/DX2                !
 ! D207  D(57,56,59,60)        -77.9646         estimate D2E/DX2                !
 ! D208  D(57,56,59,61)        167.5239         estimate D2E/DX2                !
 ! D209  D(57,56,59,62)         43.0951         estimate D2E/DX2                !
 ! D210  D(58,56,59,60)         37.2628         estimate D2E/DX2                !
 ! D211  D(58,56,59,61)        -77.2487         estimate D2E/DX2                !
 ! D212  D(58,56,59,62)        158.3225         estimate D2E/DX2                !
 ! D213  D(56,59,62,63)        169.3792         estimate D2E/DX2                !
 ! D214  D(56,59,62,64)        -75.5607         estimate D2E/DX2                !
 ! D215  D(56,59,62,65)         46.6538         estimate D2E/DX2                !
 ! D216  D(60,59,62,63)        -69.1859         estimate D2E/DX2                !
 ! D217  D(60,59,62,64)         45.8742         estimate D2E/DX2                !
 ! D218  D(60,59,62,65)        168.0887         estimate D2E/DX2                !
 ! D219  D(61,59,62,63)         44.1944         estimate D2E/DX2                !
 ! D220  D(61,59,62,64)        159.2545         estimate D2E/DX2                !
 ! D221  D(61,59,62,65)        -78.531          estimate D2E/DX2                !
 ! D222  D(59,62,65,66)        172.3686         estimate D2E/DX2                !
 ! D223  D(59,62,65,67)         51.2904         estimate D2E/DX2                !
 ! D224  D(59,62,65,68)        -70.959          estimate D2E/DX2                !
 ! D225  D(63,62,65,66)         49.8807         estimate D2E/DX2                !
 ! D226  D(63,62,65,67)        -71.1976         estimate D2E/DX2                !
 ! D227  D(63,62,65,68)        166.553          estimate D2E/DX2                !
 ! D228  D(64,62,65,66)        -64.9303         estimate D2E/DX2                !
 ! D229  D(64,62,65,67)        173.9915         estimate D2E/DX2                !
 ! D230  D(64,62,65,68)         51.742          estimate D2E/DX2                !
 ! D231  D(62,65,67,25)       -151.9982         estimate D2E/DX2                !
 ! D232  D(66,65,67,25)         86.9333         estimate D2E/DX2                !
 ! D233  D(68,65,67,25)        -30.9861         estimate D2E/DX2                !
 --------------------------------------------------------------------------------
 Trust Radius=3.00D-01 FncErr=1.00D-07 GrdErr=1.00D-06 EigMax=2.50D+02 EigMin=1.00D-04
 Number of steps in this run=    485 maximum allowed number of steps=    486.
 GradGradGradGradGradGradGradGradGradGradGradGradGradGradGradGradGradGrad

 Stoichiometry    C40H34Cl2O2P2Pd
 Framework group  C1[X(C40H34Cl2O2P2Pd)]
 Deg. of freedom   237
 Full point group                 C1      NOp   1
 Largest Abelian subgroup         C1      NOp   1
 Largest concise Abelian subgroup C1      NOp   1
                         Standard orientation:                         
 ---------------------------------------------------------------------
 Center     Atomic      Atomic             Coordinates (Angstroms)
 Number     Number       Type             X           Y           Z
 ---------------------------------------------------------------------
      1         46           0        2.167534    1.063140   -0.057298
      2         15           0        1.429486   -1.225497   -0.003193
      3          6           0        1.027400   -1.933445   -1.686696
      4          6           0        1.645522   -1.391471   -2.832906
      5          6           0        1.355557   -1.903064   -4.112903
      6          6           0        0.444093   -2.966062   -4.256515
      7          6           0       -0.172196   -3.518402   -3.118108
      8          6           0        0.122530   -3.005493   -1.840446
      9          1           0       -0.363495   -3.427568   -0.971903
     10          1           0        0.218723   -3.357918   -5.237684
     11          1           0        2.352739   -0.581248   -2.733205
     12          6           0        2.704230   -2.437902    0.675577
     13          6           0        2.842259   -3.747054    0.161274
     14          6           0        3.797101   -4.635665    0.692606
     15          6           0        4.629968   -4.226590    1.749883
     16          6           0        4.504248   -2.927341    2.273366
     17          6           0        3.547499   -2.043376    1.738630
     18          1           0        3.462907   -1.048848    2.151340
     19          1           0        5.364670   -4.906803    2.155960
     20          1           0        2.218421   -4.087743   -0.650001
     21          6           0       -0.074143   -1.467523    1.116464
     22          6           0        0.157537   -1.994558    2.408068
     23          6           0       -0.885207   -2.175184    3.326836
     24          6           0       -2.192866   -1.838889    2.960528
     25          6           0       -2.460422   -1.322050    1.675435
     26          6           0       -1.404707   -1.106516    0.745916
     27          6           0       -1.740130   -0.549216   -0.589099
     28          6           0       -2.594879   -1.303499   -1.443796
     29          6           0       -2.912874   -0.821845   -2.734057
     30          6           0       -2.426144    0.415671   -3.168304
     31          6           0       -1.616246    1.178389   -2.317465
     32          6           0       -1.261533    0.721925   -1.027937
     33         15           0       -0.113816    1.823642   -0.006611
     34          6           0       -0.823119    1.980261    1.716440
     35          6           0       -2.210366    1.883481    1.956712
     36          6           0       -2.722125    1.996521    3.263430
     37          6           0       -1.847864    2.216709    4.344063
     38          6           0       -0.463455    2.325306    4.113645
     39          6           0        0.044342    2.208455    2.805002
     40          1           0        1.107390    2.301735    2.638363
     41          1           0       -2.238935    2.302872    5.347390
     42          1           0       -2.887728    1.702975    1.133590
     43          6           0       -0.376021    3.545326   -0.729545
     44          6           0        0.386225    3.959070   -1.845155
     45          6           0        0.208237    5.235072   -2.413472
     46          6           0       -0.742098    6.118937   -1.871469
     47          6           0       -1.510651    5.721577   -0.762442
     48          6           0       -1.327948    4.444225   -0.197696
     49          1           0       -1.930726    4.166961    0.652805
     50          1           0       -0.879681    7.099706   -2.303360
     51          1           0        1.119655    3.291483   -2.272867
     52          1           0       -1.263712    2.126332   -2.688787
     53          1           0       -2.673494    0.780867   -4.154300
     54          1           0       -3.526385   -1.390589   -3.413447
     55          8           0       -3.088097   -2.512043   -0.987540
     56          6           0       -4.407291   -2.895279   -1.379466
     57          1           0       -4.612240   -3.876981   -0.952170
     58          1           0       -4.460930   -3.043046   -2.457287
     59          6           0       -5.485107   -1.893005   -0.902547
     60          1           0       -6.390218   -2.057940   -1.487056
     61          1           0       -5.182988   -0.871602   -1.132389
     62          6           0       -5.868821   -1.978554    0.588730
     63          1           0       -6.482936   -1.113130    0.839391
     64          1           0       -6.502997   -2.851383    0.745813
     65          6           0       -4.691083   -2.056947    1.569815
     66          1           0       -5.061009   -1.977268    2.592592
     67          8           0       -3.754656   -1.015873    1.318100
     68          1           0       -4.219189   -3.037648    1.477034
     69          1           0       -2.989799   -1.973293    3.675558
     70          1           0       -0.681111   -2.570976    4.310999
     71          1           0        1.149853   -2.267105    2.727359
     72         17           0        4.386715    0.376266   -0.247797
     73         17           0        2.935510    3.262196    0.030024
     74          1           0        3.890678   -5.632032    0.285388
     75          1           0        5.143880   -2.606796    3.083066
     76          1           0        1.834139   -1.481016   -4.984711
     77          1           0       -0.876268   -4.331089   -3.221444
     78          1           0        0.803571    5.536540   -3.263210
     79          1           0       -2.241000    6.397022   -0.341027
     80          1           0       -3.785148    1.906506    3.433414
     81          1           0        0.209237    2.499909    4.940840
 ---------------------------------------------------------------------
 Rotational constants (GHZ):           0.0641895           0.0611653           0.0482380
 General basis read from cards:  (6D, 7F)
 ======================================================================================================
                                       Pseudopotential Parameters
 ======================================================================================================
  Center     Atomic      Valence      Angular      Power
  Number     Number     Electrons     Momentum     of R      Exponent        Coefficient   SO-Coeffient
 ======================================================================================================
    1         46           18
                                      F and up 
                                                     0      598.3336444       -0.05631770    0.00000000
                                                     1      162.4298290      -20.12880360    0.00000000
                                                     2       51.5714771     -105.81979230    0.00000000
                                                     2       16.4888260      -42.57333450    0.00000000
                                                     2        5.8287656       -3.61650860    0.00000000
                                      S - F
                                                     0       73.3806304        3.00036510    0.00000000
                                                     1       14.7550438       32.43500930    0.00000000
                                                     2       17.8350204      459.08303830    0.00000000
                                                     2       12.7111477     -868.06290290    0.00000000
                                                     2        9.3292063      514.47260980    0.00000000
                                      P - F
                                                     0       55.6689877        4.95930990    0.00000000
                                                     1       64.2337771       21.17110290    0.00000000
                                                     2       17.6254952      605.05600920    0.00000000
                                                     2       11.9058155     -726.96418460    0.00000000
                                                     2        8.5100832      396.32748830    0.00000000
                                      D - F
                                                     0       49.9994728        3.05087450    0.00000000
                                                     1       39.7477547       22.25065800    0.00000000
                                                     2       11.4321366      674.83576980    0.00000000
                                                     2        9.1790080    -1040.85540480    0.00000000
                                                     2        7.5624429      505.93751470    0.00000000
    2         15
                                   No pseudopotential on this center.
    3          6
                                   No pseudopotential on this center.
    4          6
                                   No pseudopotential on this center.
    5          6
                                   No pseudopotential on this center.
    6          6
                                   No pseudopotential on this center.
    7          6
                                   No pseudopotential on this center.
    8          6
                                   No pseudopotential on this center.
    9          1
                                   No pseudopotential on this center.
   10          1
                                   No pseudopotential on this center.
   11          1
                                   No pseudopotential on this center.
   12          6
                                   No pseudopotential on this center.
   13          6
                                   No pseudopotential on this center.
   14          6
                                   No pseudopotential on this center.
   15          6
                                   No pseudopotential on this center.
   16          6
                                   No pseudopotential on this center.
   17          6
                                   No pseudopotential on this center.
   18          1
                                   No pseudopotential on this center.
   19          1
                                   No pseudopotential on this center.
   20          1
                                   No pseudopotential on this center.
   21          6
                                   No pseudopotential on this center.
   22          6
                                   No pseudopotential on this center.
   23          6
                                   No pseudopotential on this center.
   24          6
                                   No pseudopotential on this center.
   25          6
                                   No pseudopotential on this center.
   26          6
                                   No pseudopotential on this center.
   27          6
                                   No pseudopotential on this center.
   28          6
                                   No pseudopotential on this center.
   29          6
                                   No pseudopotential on this center.
   30          6
                                   No pseudopotential on this center.
   31          6
                                   No pseudopotential on this center.
   32          6
                                   No pseudopotential on this center.
   33         15
                                   No pseudopotential on this center.
   34          6
                                   No pseudopotential on this center.
   35          6
                                   No pseudopotential on this center.
   36          6
                                   No pseudopotential on this center.
   37          6
                                   No pseudopotential on this center.
   38          6
                                   No pseudopotential on this center.
   39          6
                                   No pseudopotential on this center.
   40          1
                                   No pseudopotential on this center.
   41          1
                                   No pseudopotential on this center.
   42          1
                                   No pseudopotential on this center.
   43          6
                                   No pseudopotential on this center.
   44          6
                                   No pseudopotential on this center.
   45          6
                                   No pseudopotential on this center.
   46          6
                                   No pseudopotential on this center.
   47          6
                                   No pseudopotential on this center.
   48          6
                                   No pseudopotential on this center.
   49          1
                                   No pseudopotential on this center.
   50          1
                                   No pseudopotential on this center.
   51          1
                                   No pseudopotential on this center.
   52          1
                                   No pseudopotential on this center.
   53          1
                                   No pseudopotential on this center.
   54          1
                                   No pseudopotential on this center.
   55          8
                                   No pseudopotential on this center.
   56          6
                                   No pseudopotential on this center.
   57          1
                                   No pseudopotential on this center.
   58          1
                                   No pseudopotential on this center.
   59          6
                                   No pseudopotential on this center.
   60          1
                                   No pseudopotential on this center.
   61          1
                                   No pseudopotential on this center.
   62          6
                                   No pseudopotential on this center.
   63          1
                                   No pseudopotential on this center.
   64          1
                                   No pseudopotential on this center.
   65          6
                                   No pseudopotential on this center.
   66          1
                                   No pseudopotential on this center.
   67          8
                                   No pseudopotential on this center.
   68          1
                                   No pseudopotential on this center.
   69          1
                                   No pseudopotential on this center.
   70          1
                                   No pseudopotential on this center.
   71          1
                                   No pseudopotential on this center.
   72         17
                                   No pseudopotential on this center.
   73         17
                                   No pseudopotential on this center.
   74          1
                                   No pseudopotential on this center.
   75          1
                                   No pseudopotential on this center.
   76          1
                                   No pseudopotential on this center.
   77          1
                                   No pseudopotential on this center.
   78          1
                                   No pseudopotential on this center.
   79          1
                                   No pseudopotential on this center.
   80          1
                                   No pseudopotential on this center.
   81          1
                                   No pseudopotential on this center.
 ======================================================================================================
 There are   798 symmetry adapted cartesian basis functions of A   symmetry.
 There are   798 symmetry adapted basis functions of A   symmetry.
   798 basis functions,  1569 primitive gaussians,   798 cartesian basis functions
   186 alpha electrons      186 beta electrons
       nuclear repulsion energy      7626.9888867349 Hartrees.
 NAtoms=   81 NActive=   81 NUniq=   81 SFac= 1.00D+00 NAtFMM=   60 NAOKFM=T Big=T
 Integral buffers will be    131072 words long.
 Raffenetti 2 integral format.
 Two-electron integral symmetry is turned on.
 Nuclear repulsion after empirical dispersion term =     7626.8271448623 Hartrees.
 Standard density basis: Auto (5D, 7F)
  3474 Density fitting functions
 There are  3474 symmetry adapted density basis functions of A   symmetry.
 One-electron integrals computed using PRISM.
   1 Symmetry operations used in ECPInt.
 ECPInt:  NShTT=   34980 NPrTT=  234589 LenC2=   27085 LenP2D=   90038.
 LDataN:  DoStor=T MaxTD1= 5 Len=  102
 NBasis=   798 RedAO= T EigKep=  3.48D-04  NBF=   798
 NBsUse=   798 1.00D-06 EigRej= -1.00D+00 NBFU=   798
 NBasis=      798 NBas6D=      798 NTT=      318801   NTT6D=   318801
 NDBShl=      690 NDBF=       3474 NDBF6D=     4096  NNucDB=        0
 IDenFi=        2 ISolve=        0 FullAP=F BlkAPC=T NucTyp=        0
 TolInv= 1.00D-06 TolIt=  1.00D-10 IR12=0.
 FoFCou: FMM=F IPFlag=           0 FMFlag=           0 FMFlg1=           0
         NFxFlg=           0 DoJE=F BraDBF=T KetDBF=T FulRan=T
         wScrn=  0.000000 ICntrl=       600 IOpCl=  3 I1Cent=           6 NGrid=           0
         NMat0=    1 NMatS0=   4096 NMatT0=    0 NMatD0=    1 NMtDS0=    0 NMtDT0=    0
 Petite list used in FoFCou.
 DBF EigKep=  1.09D-06 EigRej= -1.00D+00
 NDBF=   3474  NBFD=  3474
 NRank=  3474 NBFDU=  3474
 S*AI*S=  12.7568577249    
 Defaulting to unpruned grid for atomic number  46.
 ExpMin= 2.62D-02 ExpMax= 2.52D+04 ExpMxC= 3.78D+03 IAcc=3 IRadAn=         5 AccDes= 0.00D+00
 Harris functional with IExCor= 1009 and IRadAn=       5 diagonalized for initial guess.
 HarFok:  IExCor= 1009 AccDes= 0.00D+00 IRadAn=         5 IDoV= 1 UseB2=F ITyADJ=14
 ICtDFT=  3500011 ScaDFX=  1.000000  1.000000  1.000000  1.000000
 Defaulting to unpruned grid for atomic number  46.
 FoFCou: FMM=F IPFlag=           0 FMFlag=      100000 FMFlg1=        2001
         NFxFlg=           0 DoJE=T BraDBF=F KetDBF=T FulRan=T
         wScrn=  0.000000 ICntrl=       500 IOpCl=  0 I1Cent=   200000004 NGrid=           0
         NMat0=    1 NMatS0=      1 NMatT0=    0 NMatD0=    1 NMtDS0=    0 NMtDT0=    0
 Petite list used in FoFCou.
 Requested convergence on RMS density matrix=1.00D-08 within 500 cycles.
 Requested convergence on MAX density matrix=1.00D-06.
 Requested convergence on             energy=1.00D-06.
 No special actions if energy rises.
 FoFCou: FMM=F IPFlag=           0 FMFlag=      100000 FMFlg1=        2001
         NFxFlg=           0 DoJE=T BraDBF=T KetDBF=F FulRan=T
         wScrn=  0.000000 ICntrl=       500 IOpCl=  0 I1Cent=           5 NGrid=           0
         NMat0=    1 NMatS0=      1 NMatT0=    0 NMatD0=    1 NMtDS0=    0 NMtDT0=    0
 Symmetry not used in FoFCou.
 Defaulting to unpruned grid for atomic number  46.
 Defaulting to unpruned grid for atomic number  46.
 Defaulting to unpruned grid for atomic number  46.
 Defaulting to unpruned grid for atomic number  46.
 Defaulting to unpruned grid for atomic number  46.
 Defaulting to unpruned grid for atomic number  46.
 Defaulting to unpruned grid for atomic number  46.
 Defaulting to unpruned grid for atomic number  46.
 Defaulting to unpruned grid for atomic number  46.
 Defaulting to unpruned grid for atomic number  46.
 Defaulting to unpruned grid for atomic number  46.
 Defaulting to unpruned grid for atomic number  46.
 Defaulting to unpruned grid for atomic number  46.
 Defaulting to unpruned grid for atomic number  46.
 Defaulting to unpruned grid for atomic number  46.
 Defaulting to unpruned grid for atomic number  46.
 Defaulting to unpruned grid for atomic number  46.
 Defaulting to unpruned grid for atomic number  46.
 Defaulting to unpruned grid for atomic number  46.
 Defaulting to unpruned grid for atomic number  46.
 Defaulting to unpruned grid for atomic number  46.
 Defaulting to unpruned grid for atomic number  46.
 Defaulting to unpruned grid for atomic number  46.
 Defaulting to unpruned grid for atomic number  46.
 Defaulting to unpruned grid for atomic number  46.
 Defaulting to unpruned grid for atomic number  46.
 Defaulting to unpruned grid for atomic number  46.
 Defaulting to unpruned grid for atomic number  46.
 Defaulting to unpruned grid for atomic number  46.
 Defaulting to unpruned grid for atomic number  46.
 Defaulting to unpruned grid for atomic number  46.
 Defaulting to unpruned grid for atomic number  46.
 EnCoef did     2 forward-backward iterations
 EnCoef did   100 forward-backward iterations
 EnCoef did   100 forward-backward iterations
 EnCoef did   100 forward-backward iterations
 EnCoef did   100 forward-backward iterations
 EnCoef did     8 forward-backward iterations
 Initial convergence to 1.0D-05 achieved.  Increase integral accuracy.
 SCF Done:  E(RPBE-PBE) =  -3422.40397681     A.U. after   27 cycles
            NFock= 27  Conv=0.62D-08     -V/T= 2.0312

 **********************************************************************

            Population analysis using the SCF Density.

 **********************************************************************

 Orbital symmetries:
       Occupied  (A) (A) (A) (A) (A) (A) (A) (A) (A) (A) (A) (A)
                 (A) (A) (A) (A) (A) (A) (A) (A) (A) (A) (A) (A)
                 (A) (A) (A) (A) (A) (A) (A) (A) (A) (A) (A) (A)
                 (A) (A) (A) (A) (A) (A) (A) (A) (A) (A) (A) (A)
                 (A) (A) (A) (A) (A) (A) (A) (A) (A) (A) (A) (A)
                 (A) (A) (A) (A) (A) (A) (A) (A) (A) (A) (A) (A)
                 (A) (A) (A) (A) (A) (A) (A) (A) (A) (A) (A) (A)
                 (A) (A) (A) (A) (A) (A) (A) (A) (A) (A) (A) (A)
                 (A) (A) (A) (A) (A) (A) (A) (A) (A) (A) (A) (A)
                 (A) (A) (A) (A) (A) (A) (A) (A) (A) (A) (A) (A)
                 (A) (A) (A) (A) (A) (A) (A) (A) (A) (A) (A) (A)
                 (A) (A) (A) (A) (A) (A) (A) (A) (A) (A) (A) (A)
                 (A) (A) (A) (A) (A) (A) (A) (A) (A) (A) (A) (A)
                 (A) (A) (A) (A) (A) (A) (A) (A) (A) (A) (A) (A)
                 (A) (A) (A) (A) (A) (A) (A) (A) (A) (A) (A) (A)
                 (A) (A) (A) (A) (A) (A)
       Virtual   (A) (A) (A) (A) (A) (A) (A) (A) (A) (A) (A) (A)
                 (A) (A) (A) (A) (A) (A) (A) (A) (A) (A) (A) (A)
                 (A) (A) (A) (A) (A) (A) (A) (A) (A) (A) (A) (A)
                 (A) (A) (A) (A) (A) (A) (A) (A) (A) (A) (A) (A)
                 (A) (A) (A) (A) (A) (A) (A) (A) (A) (A) (A) (A)
                 (A) (A) (A) (A) (A) (A) (A) (A) (A) (A) (A) (A)
                 (A) (A) (A) (A) (A) (A) (A) (A) (A) (A) (A) (A)
                 (A) (A) (A) (A) (A) (A) (A) (A) (A) (A) (A) (A)
                 (A) (A) (A) (A) (A) (A) (A) (A) (A) (A) (A) (A)
                 (A) (A) (A) (A) (A) (A) (A) (A) (A) (A) (A) (A)
                 (A) (A) (A) (A) (A) (A) (A) (A) (A) (A) (A) (A)
                 (A) (A) (A) (A) (A) (A) (A) (A) (A) (A) (A) (A)
                 (A) (A) (A) (A) (A) (A) (A) (A) (A) (A) (A) (A)
                 (A) (A) (A) (A) (A) (A) (A) (A) (A) (A) (A) (A)
                 (A) (A) (A) (A) (A) (A) (A) (A) (A) (A) (A) (A)
                 (A) (A) (A) (A) (A) (A) (A) (A) (A) (A) (A) (A)
                 (A) (A) (A) (A) (A) (A) (A) (A) (A) (A) (A) (A)
                 (A) (A) (A) (A) (A) (A) (A) (A) (A) (A) (A) (A)
                 (A) (A) (A) (A) (A) (A) (A) (A) (A) (A) (A) (A)
                 (A) (A) (A) (A) (A) (A) (A) (A) (A) (A) (A) (A)
                 (A) (A) (A) (A) (A) (A) (A) (A) (A) (A) (A) (A)
                 (A) (A) (A) (A) (A) (A) (A) (A) (A) (A) (A) (A)
                 (A) (A) (A) (A) (A) (A) (A) (A) (A) (A) (A) (A)
                 (A) (A) (A) (A) (A) (A) (A) (A) (A) (A) (A) (A)
                 (A) (A) (A) (A) (A) (A) (A) (A) (A) (A) (A) (A)
                 (A) (A) (A) (A) (A) (A) (A) (A) (A) (A) (A) (A)
                 (A) (A) (A) (A) (A) (A) (A) (A) (A) (A) (A) (A)
                 (A) (A) (A) (A) (A) (A) (A) (A) (A) (A) (A) (A)
                 (A) (A) (A) (A) (A) (A) (A) (A) (A) (A) (A) (A)
                 (A) (A) (A) (A) (A) (A) (A) (A) (A) (A) (A) (A)
                 (A) (A) (A) (A) (A) (A) (A) (A) (A) (A) (A) (A)
                 (A) (A) (A) (A) (A) (A) (A) (A) (A) (A) (A) (A)
                 (A) (A) (A) (A) (A) (A) (A) (A) (A) (A) (A) (A)
                 (A) (A) (A) (A) (A) (A) (A) (A) (A) (A) (A) (A)
                 (A) (A) (A) (A) (A) (A) (A) (A) (A) (A) (A) (A)
                 (A) (A) (A) (A) (A) (A) (A) (A) (A) (A) (A) (A)
                 (A) (A) (A) (A) (A) (A) (A) (A) (A) (A) (A) (A)
                 (A) (A) (A) (A) (A) (A) (A) (A) (A) (A) (A) (A)
                 (A) (A) (A) (A) (A) (A) (A) (A) (A) (A) (A) (A)
                 (A) (A) (A) (A) (A) (A) (A) (A) (A) (A) (A) (A)
                 (A) (A) (A) (A) (A) (A) (A) (A) (A) (A) (A) (A)
                 (A) (A) (A) (A) (A) (A) (A) (A) (A) (A) (A) (A)
                 (A) (A) (A) (A) (A) (A) (A) (A) (A) (A) (A) (A)
                 (A) (A) (A) (A) (A) (A) (A) (A) (A) (A) (A) (A)
                 (A) (A) (A) (A) (A) (A) (A) (A) (A) (A) (A) (A)
                 (A) (A) (A) (A) (A) (A) (A) (A) (A) (A) (A) (A)
                 (A) (A) (A) (A) (A) (A) (A) (A) (A) (A) (A) (A)
                 (A) (A) (A) (A) (A) (A) (A) (A) (A) (A) (A) (A)
                 (A) (A) (A) (A) (A) (A) (A) (A) (A) (A) (A) (A)
                 (A) (A) (A) (A) (A) (A) (A) (A) (A) (A) (A) (A)
                 (A) (A) (A) (A) (A) (A) (A) (A) (A) (A) (A) (A)
 The electronic state is 1-A.
 Alpha  occ. eigenvalues -- -100.58491-100.58485 -76.37598 -76.37590 -18.81278
 Alpha  occ. eigenvalues --  -18.80682  -9.97295  -9.96853  -9.96465  -9.95776
 Alpha  occ. eigenvalues --   -9.93420  -9.93387  -9.93044  -9.92974  -9.92393
 Alpha  occ. eigenvalues --   -9.92349  -9.91846  -9.91843  -9.91355  -9.91336
 Alpha  occ. eigenvalues --   -9.91284  -9.91271  -9.91163  -9.91159  -9.91127
 Alpha  occ. eigenvalues --   -9.91102  -9.91008  -9.90944  -9.90929  -9.90918
 Alpha  occ. eigenvalues --   -9.90856  -9.90855  -9.90802  -9.90738  -9.90702
 Alpha  occ. eigenvalues --   -9.90637  -9.90384  -9.90382  -9.90110  -9.90110
 Alpha  occ. eigenvalues --   -9.90107  -9.90104  -9.90012  -9.90009  -9.89827
 Alpha  occ. eigenvalues --   -9.89825  -9.08017  -9.08011  -6.90368  -6.90362
 Alpha  occ. eigenvalues --   -6.89630  -6.89623  -6.89531  -6.89524  -6.35283
 Alpha  occ. eigenvalues --   -6.35276  -4.57110  -4.57102  -4.57082  -4.57076
 Alpha  occ. eigenvalues --   -4.56803  -4.56796  -3.19482  -1.96345  -1.96189
 Alpha  occ. eigenvalues --   -1.92418  -0.98365  -0.97512  -0.79597  -0.77667
 Alpha  occ. eigenvalues --   -0.77478  -0.77330  -0.76586  -0.76523  -0.73899
 Alpha  occ. eigenvalues --   -0.71526  -0.70067  -0.69633  -0.68760  -0.67536
 Alpha  occ. eigenvalues --   -0.67392  -0.67325  -0.67261  -0.66675  -0.66553
 Alpha  occ. eigenvalues --   -0.66493  -0.66488  -0.64360  -0.63854  -0.62936
 Alpha  occ. eigenvalues --   -0.61190  -0.60091  -0.59139  -0.56750  -0.55845
 Alpha  occ. eigenvalues --   -0.54665  -0.54591  -0.54178  -0.54027  -0.53841
 Alpha  occ. eigenvalues --   -0.53320  -0.53253  -0.52826  -0.51907  -0.50958
 Alpha  occ. eigenvalues --   -0.49953  -0.48496  -0.47138  -0.46359  -0.46277
 Alpha  occ. eigenvalues --   -0.45761  -0.44992  -0.44821  -0.44505  -0.43644
 Alpha  occ. eigenvalues --   -0.43083  -0.42118  -0.41025  -0.40714  -0.40568
 Alpha  occ. eigenvalues --   -0.40362  -0.40105  -0.39895  -0.39860  -0.39594
 Alpha  occ. eigenvalues --   -0.39145  -0.39018  -0.39005  -0.38416  -0.37514
 Alpha  occ. eigenvalues --   -0.37292  -0.37179  -0.37100  -0.36815  -0.36468
 Alpha  occ. eigenvalues --   -0.36374  -0.36040  -0.35957  -0.34664  -0.34544
 Alpha  occ. eigenvalues --   -0.34423  -0.33915  -0.33631  -0.32653  -0.32141
 Alpha  occ. eigenvalues --   -0.31956  -0.31827  -0.31810  -0.31325  -0.31192
 Alpha  occ. eigenvalues --   -0.30965  -0.30403  -0.30351  -0.30186  -0.30054
 Alpha  occ. eigenvalues --   -0.29842  -0.29689  -0.29320  -0.29181  -0.28776
 Alpha  occ. eigenvalues --   -0.28518  -0.28218  -0.26648  -0.26227  -0.25571
 Alpha  occ. eigenvalues --   -0.24969  -0.24763  -0.24183  -0.23588  -0.23362
 Alpha  occ. eigenvalues --   -0.22903  -0.22577  -0.22527  -0.22313  -0.21747
 Alpha  occ. eigenvalues --   -0.21639  -0.21584  -0.21152  -0.21018  -0.20485
 Alpha  occ. eigenvalues --   -0.19692  -0.18586  -0.17910  -0.17138  -0.16632
 Alpha  occ. eigenvalues --   -0.16536
 Alpha virt. eigenvalues --   -0.09443  -0.06194  -0.05785  -0.05558  -0.04980
 Alpha virt. eigenvalues --   -0.04413  -0.04221  -0.03499  -0.03395  -0.02985
 Alpha virt. eigenvalues --   -0.02772  -0.02474  -0.02308  -0.00316   0.01655
 Alpha virt. eigenvalues --    0.03355   0.04280   0.04493   0.04785   0.05025
 Alpha virt. eigenvalues --    0.05466   0.05786   0.06882   0.07000   0.07184
 Alpha virt. eigenvalues --    0.07878   0.07964   0.08292   0.08814   0.08926
 Alpha virt. eigenvalues --    0.09107   0.09377   0.09521   0.09956   0.10449
 Alpha virt. eigenvalues --    0.10566   0.10823   0.11030   0.11173   0.11857
 Alpha virt. eigenvalues --    0.12290   0.12482   0.12710   0.12818   0.12928
 Alpha virt. eigenvalues --    0.13463   0.13683   0.13861   0.14206   0.14566
 Alpha virt. eigenvalues --    0.14788   0.15034   0.15221   0.15606   0.16145
 Alpha virt. eigenvalues --    0.16354   0.16604   0.16717   0.16981   0.17225
 Alpha virt. eigenvalues --    0.17352   0.17701   0.18036   0.18339   0.18728
 Alpha virt. eigenvalues --    0.18834   0.19372   0.20300   0.20767   0.21393
 Alpha virt. eigenvalues --    0.21690   0.22411   0.22549   0.23130   0.23999
 Alpha virt. eigenvalues --    0.24770   0.24961   0.25686   0.25758   0.25992
 Alpha virt. eigenvalues --    0.26042   0.26293   0.26519   0.26716   0.27165
 Alpha virt. eigenvalues --    0.27486   0.27547   0.27826   0.28556   0.28988
 Alpha virt. eigenvalues --    0.29252   0.29407   0.30297   0.30542   0.30708
 Alpha virt. eigenvalues --    0.31537   0.31803   0.32665   0.34020   0.34422
 Alpha virt. eigenvalues --    0.35197   0.35345   0.36616   0.37359   0.37626
 Alpha virt. eigenvalues --    0.39334   0.41065   0.41407   0.42115   0.43113
 Alpha virt. eigenvalues --    0.43742   0.43914   0.44621   0.45443   0.45780
 Alpha virt. eigenvalues --    0.46350   0.46402   0.46627   0.47117   0.47204
[...]
 0000139,0.00000127,-0.00000256,-0.00000236,-0.00000244,0.00000986,0.00
 002673,0.00001811,-0.00000491,-0.00000727,0.00000261,0.00001170,-0.000
 00041,0.00000366,-0.00000101,0.00000012,0.00000011,-0.00000044,0.00000
 421,0.00000436,-0.00000259,-0.00000549,-0.00000774,-0.00000236,0.00000
 287,-0.00000367,-0.00000446,-0.00000066,0.00000314,0.00000133,0.000001
 34,-0.00000172,-0.00000106,0.00005307,0.00002606,-0.00001837,0.0000358
 7,-0.00001736,0.00000499,-0.00002210,0.00001777,0.00001225,-0.00002282
 ,-0.00000866,-0.00004551,-0.00014731,0.00016601,-0.00000091,0.00001141
 ,0.00003365,0.00004319,0.00000586,-0.00005092,-0.00003756,-0.00006642,
 -0.00003778,-0.00001843,0.00002241,0.00000430,0.00000084,-0.00000344,-
 0.00001731,-0.00000074,0.00006090,0.00003986,0.00000381,-0.00006971,0.
 00000228,-0.00006163,0.00004056,0.00012558,0.00059158,0.00199485,0.002
 07191,-0.00169291,-0.00617179,0.00275733,0.00069571,-0.28361107,0.0990
 0949,-0.02532191,-0.01274263,0.00619126,-0.00444138,0.00070931,0.00170
 821,0.00385053,0.00038734,-0.00044718,0.00030454,-0.00015353,-0.000386
 07,-0.00009334,0.00029155,-0.00142788,-0.00018096,0.00017478,-0.001417
 76,-0.00028348,-0.00001692,0.00005226,-0.00002673,0.00001855,-0.000068
 14,-0.00000269,-0.00000750,-0.00000550,-0.00000188,-0.00000576,-0.0000
 1034,-0.00001038,0.00000536,0.00002034,-0.00000500,-0.00006828,-0.0000
 1712,-0.00005679,0.00000509,0.00007824,0.00001916,-0.00000299,-0.00000
 432,-0.00000120,0.00000994,0.00000158,0.00001026,-0.00000658,0.0000054
 3,-0.00000023,0.00000467,0.00000201,-0.00000978,0.00000178,0.00000410,
 -0.00000415,0.00008079,0.00003112,0.00001550,-0.00004992,0.00001137,0.
 00000983,0.00000625,0.00000010,0.00000012,0.00000415,-0.00000486,-0.00
 000007,0.00000511,-0.00000179,-0.00000609,0.00000523,-0.00000232,0.000
 00200,-0.00000656,0.00000821,-0.00000513,0.00000699,0.00000342,-0.0000
 0399,0.00001559,0.00000140,-0.00000377,0.00000244,-0.00000081,0.000000
 35,-0.00001919,0.00003435,-0.00006449,0.00002890,0.00001881,0.00001369
 ,0.00008166,-0.00012905,0.00006347,-0.00000107,-0.00000651,0.00000872,
 0.00002509,0.00002537,0.00001661,-0.00000328,0.00000065,0.00000395,0.0
 0000041,-0.00000427,0.00000241,-0.00008240,0.00009726,-0.00000355,-0.0
 0000478,-0.00001086,-0.00002739,0.00000020,0.00000379,-0.00000014,-0.0
 0000029,-0.00000141,0.00000052,-0.00000101,-0.00000043,-0.00000182,0.0
 0000348,0.00000088,-0.00000246,-0.00000215,-0.00000769,-0.00000383,-0.
 00000535,-0.00002421,-0.00000926,0.29996549,-0.00005456,-0.00002637,-0
 .00003083,0.00015360,0.00004932,0.00006276,-0.00003332,-0.00001104,-0.
 00001588,0.00000899,0.00000423,-0.00000752,-0.00000379,-0.00000408,-0.
 00000236,0.00000062,-0.00000009,0.00000067,-0.00000613,0.00000102,-0.0
 0000326,0.00000590,0.00000041,0.00001498,-0.00000222,-0.00000798,0.000
 00225,0.00000013,-0.00000017,-0.00000107,0.00000187,0.00000181,-0.0000
 0269,-0.00003415,-0.00000535,-0.00001082,-0.00000577,-0.00000474,-0.00
 000417,-0.00000099,-0.00000397,0.00000108,-0.00000023,-0.00000149,0.00
 000010,-0.00000102,-0.00000243,-0.00000096,0.00000739,0.00001281,-0.00
 000507,-0.00000027,0.00000361,0.00000178,-0.00000001,0.00000002,0.0000
 0053,0.00000038,-0.00000103,0.00000282,-0.00006901,0.00000663,-0.00002
 320,-0.00010382,0.00004315,-0.00003367,0.00009716,-0.00005375,-0.00003
 992,0.00000271,0.00011814,0.00011930,0.00054653,-0.00034151,-0.0001597
 6,-0.00003415,0.00001634,0.00005471,-0.00003485,0.00000165,0.00010768,
 0.00010727,0.00005954,0.00000682,-0.00000844,-0.00000387,0.00000421,-0
 .00001676,-0.00000354,0.00000157,-0.00002267,-0.00003890,-0.00003143,0
 .00002007,-0.00003168,-0.00000189,0.00032551,0.00052038,-0.00043705,0.
 00230055,0.00561094,0.00253286,0.00679171,-0.00094331,-0.00009072,0.09
 866510,-0.07099340,0.01338066,0.00234134,0.00080111,0.00094556,0.00185
 518,0.00606016,-0.00003339,-0.00046576,-0.00049279,0.00012445,-0.00036
 472,-0.00105427,-0.00015949,-0.00141185,-0.00296656,-0.00060476,-0.001
 32524,-0.00299531,-0.00075324,0.00005695,-0.00008314,0.00021710,-0.000
 02102,0.00005879,0.00003481,0.00002628,-0.00000004,-0.00000695,0.00000
 008,0.00000673,-0.00000018,0.00002951,-0.00000417,0.00000290,-0.000070
 64,0.00000417,-0.00002331,0.00001665,0.00000919,0.00001411,-0.00000241
 ,0.00000184,0.00000704,-0.00000116,-0.00000166,0.00000707,0.00000837,0
 .00000151,-0.00001522,-0.00000400,-0.00000164,0.00000076,0.00000060,-0
 .00000131,0.00000416,-0.00009991,-0.00004885,-0.00005978,0.00002743,-0
 .00001852,0.00000065,-0.00000822,-0.00000558,0.00000661,-0.00000590,0.
 00000873,-0.00001386,0.00001303,-0.00000217,0.00002433,0.00000170,0.00
 000648,-0.00002416,-0.00000179,-0.00000033,0.00000415,-0.00002162,0.00
 000781,0.00000563,-0.00002097,0.00001935,0.00000672,0.00001053,0.00000
 795,-0.00001477,-0.00023162,-0.00015196,0.00016771,-0.00005163,-0.0000
 6107,-0.00003416,-0.00020562,0.00067846,-0.00027256,0.00003061,0.00004
 414,-0.00001895,-0.00007344,-0.00007548,-0.00005240,-0.00000579,-0.000
 00054,0.00000384,-0.00000302,-0.00000056,-0.00000113,0.00002004,-0.000
 02474,0.00000933,-0.00006326,-0.00004805,0.00000029,0.00000126,-0.0000
 0088,0.00000092,0.00000003,0.00000133,0.00000199,-0.00000028,0.0000007
 5,-0.00000257,-0.00000078,-0.00000191,0.00000206,0.00000739,0.00000535
 ,0.00000501,-0.00000435,-0.00000777,-0.00000645,-0.10881095,0.06613596
 ,0.00001661,0.00005665,-0.00025121,-0.00014783,-0.00015479,-0.00002852
 ,0.00003599,0.00002716,0.00001786,-0.00000350,-0.00000205,0.00000081,0
 .00000526,0.00000161,0.00000492,0.00000282,0.00000090,-0.00000070,0.00
 000772,-0.00000323,-0.00000286,-0.00001001,0.00000073,-0.00002000,-0.0
 0000165,0.00000617,0.00000184,0.00000082,0.00000162,-0.00000135,-0.000
 00417,-0.00000140,0.00001091,0.00003432,0.00001224,-0.00000024,-0.0000
 0530,0.00000163,0.00001280,-0.00000123,0.00000505,-0.00000110,0.000000
 53,0.00000288,-0.00000061,0.00000500,0.00000068,-0.00000111,-0.0000011
 9,-0.00000090,0.00000361,-0.00000159,-0.00000338,-0.00001357,-0.000000
 27,0.00000153,0.00000029,0.00000041,-0.00000076,-0.00000110,0.00002325
 ,0.00004907,-0.00000255,0.00004014,-0.00003514,-0.00001410,-0.00002428
 ,0.00000174,0.00000193,0.00007526,-0.00006356,-0.00003073,-0.00041359,
 0.00030629,0.00011250,0.00007751,-0.00002990,0.00003094,0.00001874,-0.
 00003012,-0.00003709,-0.00006228,-0.00003057,-0.00003609,0.00003460,0.
 00001000,0.00000301,-0.00001324,-0.00001890,-0.00000030,0.00006796,0.0
 0001227,-0.00001218,-0.00006255,-0.00003488,0.00002348,-0.00076131,0.0
 0039038,0.00031215,-0.00090919,0.00199347,-0.00423666,-0.02666217,0.01
 052184,0.00008009,-0.02549010,0.01313260,-0.05722878,0.02342702,-0.009
 55274,0.00648641,0.00255102,0.00057580,-0.00380972,0.00025314,0.000020
 65,-0.00118229,-0.00011984,-0.00016925,0.00016373,-0.00062192,-0.00043
 356,0.00085004,-0.00002941,-0.00073053,0.00091345,-0.00001499,0.000099
 17,-0.00008005,0.00000342,-0.00008129,-0.00002222,-0.00001573,-0.00000
 791,0.00000711,-0.00000368,-0.00000951,-0.00000838,0.00000502,-0.00000
 422,0.00000424,-0.00003995,-0.00000589,-0.00006158,-0.00000639,0.00002
 951,0.00002253,0.00000169,-0.00000351,-0.00000079,0.00001841,0.0000004
 4,0.00000583,-0.00001191,0.00000651,0.00000310,0.00000327,0.00000425,-
 0.00000832,-0.00000012,0.00000535,-0.00000584,0.00009144,0.00002034,0.
 00002690,-0.00005746,0.00002667,0.00000632,0.00000763,-0.00000476,-0.0
 0000237,0.00000703,-0.00000942,0.00000789,0.00002024,-0.00000900,-0.00
 001402,-0.00000124,-0.00000625,0.00000682,-0.00001108,0.00001160,-0.00
 002383,-0.00001814,0.00006041,-0.00002272,0.00004378,-0.00003368,0.000
 00704,-0.00000932,-0.00002801,0.00001201,0.00015948,0.00007169,0.00000
 974,-0.00001401,0.00002768,-0.00000713,0.00015056,-0.00049070,0.000065
 04,-0.00002691,-0.00003571,-0.00000813,-0.00001674,-0.00000730,0.00001
 691,0.00001140,-0.00000554,-0.00000064,-0.00000398,0.00000522,-0.00000
 545,-0.00012230,0.00013315,0.00000475,0.00003150,-0.00003018,0.0000324
 6,-0.00000095,0.00000234,0.00000027,-0.00000199,0.00000113,-0.00000023
 ,-0.00000077,0.00000019,-0.00000044,0.00000270,0.00000252,-0.00000299,
 -0.00000273,-0.00000770,-0.00000491,-0.00000553,-0.00001874,-0.0000039
 1,0.02719219,-0.01502166,0.05769729,0.00001137,0.00003372,0.00002652,0
 .00003380,0.00002398,0.00000470,-0.00001271,-0.00001349,-0.00000604,0.
 00000238,-0.00000182,0.00000013,-0.00000141,0.00000020,-0.00000114,-0.
 00000057,-0.00000073,-0.00000049,-0.00000210,0.00000046,0.00000079,0.0
 0000212,-0.00000260,0.00000637,-0.00000022,-0.00000014,0.00000005,-0.0
 0000046,-0.00000004,0.00000043,0.00000014,0.00000121,-0.00000330,-0.00
 001516,-0.00001000,0.00000099,0.00000292,-0.00000173,-0.00000492,-0.00
 000046,-0.00000258,0.00000078,0.00000035,-0.00000117,-0.00000074,-0.00
 000364,-0.00000303,-0.00000347,0.00000103,0.00000605,0.00000035,0.0000
 0541,0.00000417,0.00000455,0.00000081,-0.00000248,0.00000001,-0.000000
 53,0.00000108,0.00000070,-0.00001681,-0.00000857,0.00002148,0.00001212
 ,-0.00000070,-0.00002047,0.00000721,0.00002978,0.00002621,-0.00000447,
 -0.00000753,-0.00001515,-0.00007266,0.00009082,0.00001002,0.00001816,-
 0.00000825,-0.00002935,-0.00000638,0.00000262,0.00000459,0.00000203,-0
 .00001254,-0.00000054,0.00000391,0.00000267,-0.00000439,0.00000464,-0.
 00002119,-0.00000791,0.00004753,0.00001782,-0.00001483,-0.00008886,0.0
 0000109,-0.00020723,0.00033038,0.00016235,-0.00043038,0.00113022,0.002
 49794,-0.00175734,-0.00051492,0.00017442,-0.00082600,-0.00319559,0.004
 15715,-0.00198607,-0.01237426,0.00215915,0.02355821,-0.14880200,0.0253
 1642,0.12997643,0.00905499,-0.00119024,-0.00956873,0.00013269,-0.00154
 629,0.00002539,0.00046348,-0.00153737,-0.00036235,-0.00005430,-0.00049
 243,0.00002288,-0.00000665,0.00002396,-0.00000326,-0.00000619,-0.00001
 212,0.00000479,-0.00000235,0.00000402,-0.00000075,0.00000023,-0.000003
 03,0.00000291,0.00000482,-0.00000841,0.00000274,0.00000186,0.00001260,
 -0.00000181,-0.00000416,-0.00001116,-0.00000951,0.00000174,0.00000110,
 0.00000098,0.00000451,0.00000195,-0.00000411,-0.00000371,0.00000386,-0
 .00000623,0.00000382,0.00000124,-0.00000497,-0.00000106,0.00000176,-0.
 00000120,0.00000659,-0.00000291,0.00000326,-0.00000538,0.00000636,-0.0
 0000119,0.00000056,-0.00000107,-0.00000089,0.00000144,-0.00000162,0.00
 000177,0.00000238,-0.00000127,-0.00000210,-0.00000062,-0.00000050,0.00
 000167,-0.00000117,0.00000143,-0.00000420,0.00000016,0.00000844,-0.000
 00209,0.00000804,-0.00000526,-0.00000156,-0.00000200,-0.00000392,0.000
 00156,0.00002101,0.00000948,-0.00001312,0.00000162,0.00000791,0.000003
 05,0.00003245,-0.00009228,0.00000217,-0.00000553,-0.00000790,0.0000039
 7,-0.00000482,0.00000998,0.00001209,-0.00001390,-0.00003305,-0.0000117
 1,0.00000625,-0.00001044,0.00001041,0.00001250,-0.00002187,0.00000415,
 -0.00001895,-0.00002103,0.00007300,0.00000024,-0.00000152,0.00000021,0
 .00000300,0.00000062,0.00000138,0.00000002,0.00000031,0.00000011,-0.00
 000111,0.00000038,0.00000074,0.00000161,-0.00000013,-0.00000054,-0.000
 00166,-0.00000175,-0.00000175,-0.00072180,0.00022562,0.00130461,0.1545
 8597,-0.00000452,-0.00002951,0.00000153,0.00004189,0.00004881,0.000047
 91,-0.00000810,-0.00000894,-0.00000680,0.00000976,0.00000120,-0.000004
 73,-0.00000116,-0.00000170,-0.00000043,0.00000062,0.00000015,-0.000000
 62,-0.00000302,-0.00000139,-0.00000156,0.00000145,-0.00000094,0.000001
 15,-0.00000407,-0.00000142,0.00000147,0.00000025,0.00000043,-0.0000009
 9,-0.00000137,0.00000155,0.00000121,-0.00001885,0.00000273,0.00000097,
 0.00000698,-0.00000034,-0.00000681,0.00000320,-0.00000211,-0.00000182,
 -0.00000098,-0.00000932,-0.00000234,-0.00000463,0.00000608,-0.00000524
 ,-0.00000936,-0.00002129,-0.00001032,0.00001109,0.00000503,0.00002784,
 0.00000079,0.00000096,0.00000159,0.00000117,0.00000295,0.00000030,-0.0
 0002259,-0.00000173,0.00001804,-0.00000211,0.00002460,-0.00004493,0.00
 004074,0.00000982,0.00000324,-0.00001843,0.00003256,0.00000033,-0.0000
 1145,0.00001524,-0.00000885,0.00003001,-0.00003377,-0.00000722,-0.0000
 0709,0.00004547,0.00002897,0.00000351,0.00000835,0.00001546,-0.0000073
 6,-0.00001008,-0.00001082,-0.00000002,0.00001221,-0.00000994,-0.000031
 71,0.00000292,0.00001194,0.00008253,-0.00007885,-0.00000805,-0.0002436
 8,0.00037312,0.00010863,0.00257121,0.00554347,0.00246914,0.00007141,-0
 .00058385,0.00031498,0.00405933,0.00493970,0.00168407,0.00642688,0.001
 18347,-0.00990208,0.02506461,-0.04006660,-0.02132380,-0.00515202,0.003
 57188,0.00701549,-0.00141639,-0.00314541,-0.00072304,-0.00160069,-0.00
 293358,-0.00047208,-0.00044769,-0.00109395,-0.00025629,0.00003099,-0.0
 0002284,0.00001681,0.00002817,0.00002736,0.00000375,0.00000086,-0.0000
 0009,0.00000616,-0.00000180,-0.00000570,0.00000154,-0.00001310,-0.0000
 0334,0.00001058,0.00002601,0.00000857,0.00003331,0.00001717,-0.0000037
 8,-0.00001006,0.00000290,-0.00000058,-0.00000442,0.00000027,0.00000340
 ,-0.00000111,0.00000334,-0.00000808,-0.00000278,-0.00000037,-0.0000026
 3,0.00000262,0.00000043,-0.00000192,0.00000002,-0.00001614,-0.00001474
 ,-0.00001152,-0.00000119,-0.00000146,-0.00000006,-0.00000201,-0.000000
 74,0.00000077,0.00000018,0.00000128,-0.00000294,0.00000107,-0.00000023
 ,0.00000330,0.00000085,0.00000076,-0.00000308,-0.00000024,-0.00000079,
 0.00000127,-0.00000041,0.00000041,0.00000281,-0.00000239,0.00000067,-0
 .00000014,0.00000193,0.00000080,-0.00000242,-0.00002361,-0.00001518,0.
 00000259,-0.00000273,-0.00000162,-0.00000319,0.00002513,-0.00000488,-0
 .00002857,-0.00000079,0.00000294,0.00000049,-0.00000774,-0.00000437,0.
 00000103,-0.00002255,-0.00002905,-0.00001125,0.00000589,-0.00002229,0.
 00001136,0.00001178,-0.00002224,-0.00000776,-0.00005682,-0.00001826,-0
 .00005150,0.00000176,0.00000002,-0.00000100,0.00000882,-0.00000716,0.0
 0000055,-0.00000029,0.00000096,-0.00000179,0.00000036,0.00000085,0.000
 00017,-0.00000091,0.00000072,0.00000370,0.00000527,-0.00000325,-0.0000
 0462,0.00046766,0.00021818,-0.00052452,-0.02989792,0.03212040,0.000034
 93,0.00006010,-0.00003061,-0.00000933,-0.00016356,-0.00002709,0.000000
 38,0.00002038,0.00000167,-0.00000056,0.00000479,0.00000384,0.00000303,
 0.00000188,0.00000426,-0.00000226,0.00000123,0.00000303,-0.00000253,0.
 00000138,0.00000010,-0.00000594,0.00000397,-0.00000407,0.00000180,-0.0
 0000459,-0.00000148,0.00000116,-0.00000076,-0.00000106,0.00000318,-0.0
 0000439,0.00000281,0.00001123,-0.00000185,-0.00000520,-0.00001376,-0.0
 0000250,0.00001425,-0.00000623,0.00000261,0.00000275,0.00000024,0.0000
 0918,0.00000146,0.00000679,-0.00000693,0.00000050,0.00001445,0.0000351
 5,0.00000555,-0.00000307,-0.00000680,-0.00002758,-0.00000082,0.0000018
 6,0.00000038,-0.00000042,-0.00000691,0.00000043,0.00003182,0.00000890,
 -0.00000661,-0.00000134,-0.00001509,0.00001545,-0.00001895,-0.00001047
 ,0.00000306,0.00001371,-0.00000781,0.00000456,-0.00000752,-0.00000519,
 0.00000115,-0.00002688,0.00001722,-0.00002094,-0.00001333,-0.00005506,
 -0.00006102,-0.00004873,-0.00006298,-0.00000254,0.00001323,0.00001618,
 -0.00000207,0.00000912,-0.00005925,-0.00001765,0.00015328,0.00011825,-
 0.00003123,-0.00029428,0.00003854,-0.00042760,0.00116507,-0.00029598,0
 .00017909,-0.00250937,0.00258623,-0.00335907,-0.00088872,0.00030961,-0
 .00006683,-0.00085871,0.00117183,0.00132649,-0.00402075,0.00098502,0.0
 0603594,0.13012989,-0.02138253,-0.22630406,0.01753417,-0.00369226,-0.0
 1811172,-0.00017047,-0.00068398,0.00090437,0.00003283,-0.00065658,0.00
 061011,0.00003754,-0.00022460,-0.00000070,-0.00009404,0.00013344,-0.00
 017737,0.00001776,-0.00011406,-0.00001384,-0.00003120,0.00000804,-0.00
 000289,-0.00000452,-0.00001072,-0.00000485,-0.00001013,0.00000398,-0.0
 0000627,-0.00001660,0.00001748,0.00000773,0.00000436,0.00002586,-0.000
 00186,-0.00000069,-0.00000570,-0.00000572,0.00000987,0.00000240,-0.000
 00300,-0.00001314,0.00001283,-0.00000251,0.00001630,0.00000223,-0.0000
 1660,0.00000291,0.00000556,-0.00000360,0.00007835,0.00005050,0.0000102
 0,-0.00003589,0.00000249,0.00001382,0.00000649,0.00000162,0.00000201,0
 .00000183,-0.00000392,-0.00000222,0.00000165,-0.00000311,-0.00000308,0
 .00000398,-0.00000211,0.00000032,-0.00000374,0.00000605,0.00000012,-0.
 00000073,0.00000187,-0.00000525,-0.00000126,-0.00000098,0.00000159,0.0
 0000285,0.00000172,0.00000181,-0.00002069,-0.00000476,-0.00000374,0.00
 000325,-0.00000042,0.00000538,0.00000849,0.00001813,0.00001595,0.00000
 106,0.00000140,-0.00000175,0.00000288,-0.00000005,0.00000065,0.0000150
 9,0.00001605,0.00001004,-0.00000008,0.00002297,-0.00000513,-0.00007281
 ,0.00007611,-0.00000413,-0.00006905,-0.00004679,0.00009214,-0.00000110
 ,0.00000150,0.00000190,-0.00000754,0.00000928,0.00000271,0.,-0.0000018
 3,-0.00000131,0.00000195,-0.00000246,-0.00000038,-0.00000408,-0.000010
 36,-0.00001185,0.00000618,-0.00001214,-0.00000572,-0.00028650,0.000129
 24,0.00022977,-0.13980533,0.02162440,0.23927480\\0.00000573,0.00000153
 ,-0.00000155,-0.00000111,-0.00000004,0.00000293,0.00000157,-0.00000004
 ,0.00000050,-0.00000102,0.00000057,-0.00000020,-0.00000126,0.00000097,
 0.00000187,-0.00000074,0.00000110,0.00000108,-0.00000091,0.00000035,-0
 .00000047,-0.00000231,-0.00000009,0.00000034,0.00000030,0.00000070,0.0
 0000091,-0.00000099,0.00000158,0.00000036,-0.00000110,0.00000071,0.000
 00054,-0.00000159,-0.00000065,0.00000202,0.00000124,0.00000017,0.00000
 178,0.00000026,-0.00000078,0.00000055,-0.00000142,-0.00000140,0.000001
 73,0.00000155,-0.00000079,0.00000071,0.00000133,0.00000070,0.00000205,
 0.00000017,-0.00000120,0.00000118,0.00000036,-0.00000042,0.00000330,-0
 .00000042,0.00000038,0.00000091,-0.00000044,0.00000027,-0.00000055,0.0
 0000046,-0.00000091,0.00000082,0.00000016,-0.00000133,-0.00000088,0.00
 000023,-0.00000094,-0.00000117,-0.00000296,0.00000202,0.00000360,0.000
 00085,-0.00000029,0.00000121,0.00000209,0.00000088,-0.00000110,-0.0000
 0188,-0.00000082,-0.00000360,-0.00000052,0.00000077,-0.00000028,-0.000
 00035,0.00000132,0.00000074,0.00000099,0.00000183,-0.00000048,-0.00000
 103,-0.00000089,-0.00000039,-0.00000177,0.00000041,0.00000109,0.000001
 16,0.00000075,-0.00000098,-0.00000005,-0.00000053,-0.00000039,0.000000
 30,-0.00000086,0.00000002,0.00000090,-0.00000076,-0.00000135,0.0000006
 7,-0.00000157,-0.00000044,0.00000188,-0.00000078,0.00000051,0.00000016
 ,-0.00000131,0.00000031,0.00000113,-0.00000135,-0.00000047,0.00000066,
 -0.00000006,-0.00000074,-0.00000075,-0.00000019,-0.00000137,0.00000026
 ,-0.00000151,-0.00000029,0.00000124,0.00000017,0.00000043,-0.00000148,
 0.00000140,-0.00000055,0.00000077,0.00000110,-0.00000008,0.00000071,-0
 .00000172,-0.00000126,-0.00000133,-0.00000077,-0.00000148,-0.00000002,
 -0.00000005,-0.00000181,-0.00000080,0.00000062,0.00000044,0.00000012,0
 .00000100,-0.00000102,-0.00000074,0.00000061,-0.00000093,-0.00000012,0
 .00000118,-0.00000047,-0.00000192,0.00000356,0.00000032,0.00000082,-0.
 00000114,-0.00000289,-0.00000062,0.00000029,-0.00000003,-0.00000122,0.
 00000160,-0.00000099,-0.00000003,0.00000015,-0.00000076,0.00000043,0.0
 0000012,-0.00000192,0.00000061,0.00000079,-0.00000080,0.00000258,0.000
 00107,-0.00000110,0.00000008,-0.00000066,-0.00000023,-0.00000007,-0.00
 000026,-0.00000166,0.00000052,0.00000057,0.,0.00000072,-0.00000004,-0.
 00000087,0.00000110,-0.00000285,-0.00000244,0.00000100,-0.00000015,-0.
 00000113,0.00000104,-0.00000087,-0.00000027,0.00000062,-0.00000041,0.0
 0000068,0.00000057,-0.00000068,0.00000138,-0.00000295,0.00000236,0.000
 00108,-0.00000263,-0.00000368,0.00000168,0.00000020,-0.00000009,0.0000
 0193,-0.00000047,-0.00000066,0.00000210,-0.00000127,0.00000071,0.00000
 035,-0.00000032,0.00000112,0.00000057,-0.00000128,0.00000027,-0.000000
 50,0.00000028,-0.00000033,-0.00000143,0.00000110,-0.00000082,-0.000001
 25,0.00000099,-0.00000100,0.00000057\\\@


 Mondays are the potholes in the road of life.
                                -- Tom Wilson
 Job cpu time:       0 days 10 hours 48 minutes 45.9 seconds.
 Elapsed time:       0 days  0 hours 20 minutes 23.1 seconds.
 File lengths (MBytes):  RWF=   5750 Int=      0 D2E=      0 Chk=    148 Scr=      1
 Normal termination of Gaussian 16 at Fri Oct 29 21:15:26 2021.
