 Entering Gaussian System, Link 0=/uufs/chpc.utah.edu/sys/installdir/gaussian16/B01/E6B/g16/g16
 Input=R-C4-Tunephos_1_SPE.com
 Output=R-C4-Tunephos_1_SPE.log
 Initial command:
 /uufs/chpc.utah.edu/sys/installdir/gaussian16/B01/E6B/g16/l1.exe "/scratch/general/lustre/u1010977/3354024/notchpeak.peaks/Gau-6346.inp" -scrdir="/scratch/general/lustre/u1010977/3354024/notchpeak.peaks/"
 Entering Link 1 = /uufs/chpc.utah.edu/sys/installdir/gaussian16/B01/E6B/g16/l1.exe PID=      6349.
  
 Copyright (c) 1988-2017, Gaussian, Inc.  All Rights Reserved.
  
 This is part of the Gaussian(R) 16 program.  It is based on
 the Gaussian(R) 09 system (copyright 2009, Gaussian, Inc.),
 the Gaussian(R) 03 system (copyright 2003, Gaussian, Inc.),
 the Gaussian(R) 98 system (copyright 1998, Gaussian, Inc.),
 the Gaussian(R) 94 system (copyright 1995, Gaussian, Inc.),
 the Gaussian 92(TM) system (copyright 1992, Gaussian, Inc.),
 the Gaussian 90(TM) system (copyright 1990, Gaussian, Inc.),
 the Gaussian 88(TM) system (copyright 1988, Gaussian, Inc.),
 the Gaussian 86(TM) system (copyright 1986, Carnegie Mellon
 University), and the Gaussian 82(TM) system (copyright 1983,
 Carnegie Mellon University). Gaussian is a federally registered
 trademark of Gaussian, Inc.
  
 This software contains proprietary and confidential information,
 including trade secrets, belonging to Gaussian, Inc.
  
 This software is provided under written license and may be
 used, copied, transmitted, or stored only in accord with that
 written license.
  
 The following legend is applicable only to US Government
 contracts under FAR:
  
                    RESTRICTED RIGHTS LEGEND
  
 Use, reproduction and disclosure by the US Government is
 subject to restrictions as set forth in subparagraphs (a)
 and (c) of the Commercial Computer Software - Restricted
 Rights clause in FAR 52.227-19.
  
 Gaussian, Inc.
 340 Quinnipiac St., Bldg. 40, Wallingford CT 06492
  
  
 ---------------------------------------------------------------
 Warning -- This program may not be used in any manner that
 competes with the business of Gaussian, Inc. or will provide
 assistance to any competitor of Gaussian, Inc.  The licensee
 of this program is prohibited from giving any competitor of
 Gaussian, Inc. access to this program.  By using this program,
 the user acknowledges that Gaussian, Inc. is engaged in the
 business of creating and licensing software in the field of
 computational chemistry and represents and warrants to the
 licensee that it is not a competitor of Gaussian, Inc. and that
 it will not use this program in any manner prohibited above.
 ---------------------------------------------------------------
  

 Cite this work as:
 Gaussian 16, Revision B.01,
 M. J. Frisch, G. W. Trucks, H. B. Schlegel, G. E. Scuseria, 
 M. A. Robb, J. R. Cheeseman, G. Scalmani, V. Barone, 
 G. A. Petersson, H. Nakatsuji, X. Li, M. Caricato, A. V. Marenich, 
 J. Bloino, B. G. Janesko, R. Gomperts, B. Mennucci, H. P. Hratchian, 
 J. V. Ortiz, A. F. Izmaylov, J. L. Sonnenberg, D. Williams-Young, 
 F. Ding, F. Lipparini, F. Egidi, J. Goings, B. Peng, A. Petrone, 
 T. Henderson, D. Ranasinghe, V. G. Zakrzewski, J. Gao, N. Rega, 
 G. Zheng, W. Liang, M. Hada, M. Ehara, K. Toyota, R. Fukuda, 
 J. Hasegawa, M. Ishida, T. Nakajima, Y. Honda, O. Kitao, H. Nakai, 
 T. Vreven, K. Throssell, J. A. Montgomery, Jr., J. E. Peralta, 
 F. Ogliaro, M. J. Bearpark, J. J. Heyd, E. N. Brothers, K. N. Kudin, 
 V. N. Staroverov, T. A. Keith, R. Kobayashi, J. Normand, 
 K. Raghavachari, A. P. Rendell, J. C. Burant, S. S. Iyengar, 
 J. Tomasi, M. Cossi, J. M. Millam, M. Klene, C. Adamo, R. Cammi, 
 J. W. Ochterski, R. L. Martin, K. Morokuma, O. Farkas, 
 J. B. Foresman, and D. J. Fox, Gaussian, Inc., Wallingford CT, 2016.
 
 ******************************************
 Gaussian 16:  ES64L-G16RevB.01 20-Dec-2017
                 1-Nov-2021 
 ******************************************
 %NProcShared=32
 Will use up to   32 processors via shared memory.
 %mem=18GB
 %chk=R-C4-Tunephos_1_SPE.chk
 ----------------------------------------------------------------------
 # PBE1PBE gen pseudo=read int=(grid=ultrafine) empiricaldispersion=GD3
 BJ nmr=giao
 ----------------------------------------------------------------------
 1/38=1,172=1/1;
 2/12=2,17=6,18=5,40=1/2;
 3/5=7,11=2,16=1,17=8,25=1,30=1,74=-13,75=-5,124=41/1,2,3,8;
 4//1;
 5/5=2,38=5/2;
 8/6=1,10=90,11=11/1;
 10/13=100,45=16/2;
 6/7=2,8=2,9=2,10=2,28=1/1;
 99/9=1/99;
 -----
 title
 -----
 Symbolic Z-matrix:
 Charge =  0 Multiplicity = 1
 Pd                   -2.27125   0.00963   0.00113 
 P                    -0.71552   1.68686  -0.01698 
 C                    -0.05157   2.15573  -1.65432 
 C                    -0.86183   1.92605  -2.78319 
 C                    -0.39724   2.28865  -4.05365 
 C                     0.86829   2.87612  -4.20202 
 C                     1.67197   3.10884  -3.07639 
 C                     1.21489   2.753    -1.8012 
 H                     1.85647   2.90105  -0.92751 
 H                     1.23005   3.15158  -5.19826 
 H                    -1.8531    1.47872  -2.64692 
 C                    -1.34952   3.2387    0.73403 
 C                    -0.84404   4.49301   0.34993 
 C                    -1.28471   5.65351   1.00162 
 C                    -2.22108   5.56613   2.04041 
 C                    -2.72776   4.31481   2.42329 
 C                    -2.30264   3.15354   1.76828 
 H                    -2.724     2.17962   2.03603 
 H                    -2.5656    6.47454   2.54533 
 H                    -0.11853   4.56716  -0.46567 
 C                     0.74733   1.29888   1.05139 
 C                     0.85766   1.92554   2.30962 
 C                     1.91208   1.60066   3.16788 
 C                     2.87084   0.65148   2.79841 
 C                     2.76338   0.01771   1.55256 
 C                     1.70265   0.33088   0.6644 
 C                     1.70223  -0.34994  -0.66244 
 C                     2.77219  -0.05231  -1.54471 
 C                     2.87874  -0.69     -2.78864 
 C                     1.90936  -1.62671  -3.16254 
 C                     0.84574  -1.93622  -2.30994 
 C                     0.73716  -1.30656  -1.05316 
 P                    -0.72939  -1.68007   0.01508 
 C                    -0.06331  -2.15481   1.64984 
 C                     1.18818  -2.78509   1.78845 
 C                     1.64985  -3.14148   3.06176 
 C                     0.86628  -2.87511   4.19413 
 C                    -0.38395  -2.25385   4.05434 
 C                    -0.85337  -1.89173   2.78555 
 H                    -1.83279  -1.41737   2.6562 
 H                     1.23193  -3.1507    5.18891 
 H                     1.81569  -2.95804   0.90906 
 C                    -1.38117  -3.22315  -0.73829 
 C                    -2.32706  -3.12192  -1.77778 
 C                    -2.7676   -4.27558  -2.43584 
 C                    -2.28387  -5.53527  -2.05052 
 C                    -1.35531  -5.63846  -1.00622 
 C                    -0.89897  -4.48563  -0.35157 
 H                    -0.18017  -4.57215   0.46869 
 H                    -2.64055  -6.43769  -2.5577 
 H                    -2.73078  -2.14087  -2.04693 
 H                     0.10243  -2.67448  -2.61726 
 H                     1.98433  -2.12124  -4.1363 
 H                     3.69611  -0.4492   -3.47289 
 O                     3.62434   0.93794  -1.11471 
 C                     4.99969   0.90532  -1.52247 
 H                     5.37      1.91854  -1.29077 
 H                     5.09334   0.76106  -2.61467 
 C                     5.80174  -0.14749  -0.75418 
 H                     6.83539  -0.12295  -1.14523 
 H                     5.39738  -1.14685  -1.00145 
 C                     5.79946   0.06799   0.78054 
 H                     6.83051   0.02738   1.17709 
 H                     5.40913   1.07334   1.02607 
 C                     4.97662  -0.97249   1.54348 
 H                     5.33279  -1.99127   1.31392 
 O                     3.60405  -0.98326   1.12572 
 H                     5.06498  -0.83008   2.63631 
 H                     3.68029   0.39815   3.48754 
 H                     1.98774   2.09259   4.1429 
 H                     0.12217   2.67266   2.61432 
 Cl                   -3.91874   1.61504  -0.62567 
 Cl                   -3.92628  -1.58567   0.63328 
 H                    -0.89728   6.62906   0.68979 
 H                    -3.47366   4.24231   3.22112 
 H                    -1.02645   2.10882  -4.93127 
 H                     2.66351   3.55995  -3.18966 
 H                    -3.5077   -4.19048  -3.23781 
 H                    -0.98631  -6.62044  -0.69226 
 H                     2.62967  -3.61905   3.16837 
 H                    -0.9973   -2.04727   4.93728 
 
 Stoichiometry    C40H34Cl2O2P2Pd
 Framework group  C1[X(C40H34Cl2O2P2Pd)]
 Deg. of freedom   237
 Full point group                 C1      NOp   1
 Largest Abelian subgroup         C1      NOp   1
 Largest concise Abelian subgroup C1      NOp   1
                         Standard orientation:                         
 ---------------------------------------------------------------------
 Center     Atomic      Atomic             Coordinates (Angstroms)
 Number     Number       Type             X           Y           Z
 ---------------------------------------------------------------------
      1         46           0       -2.267567    0.099641   -0.009005
      2         15           0       -0.795258   -1.650993    0.027475
      3          6           0       -0.160439   -2.139036    1.670759
      4          6           0       -0.962408   -1.861656    2.794825
      5          6           0       -0.520302   -2.236672    4.069692
      6          6           0        0.714670   -2.883773    4.227209
      7          6           0        1.509905   -3.163840    3.106373
      8          6           0        1.074990   -2.795978    1.826860
      9          1           0        1.711584   -2.981681    0.956715
     10          1           0        1.059239   -3.168852    5.226829
     11          1           0       -1.930298   -1.367753    2.651491
     12          6           0       -1.501376   -3.175896   -0.714308
     13          6           0       -1.058752   -4.450310   -0.318951
     14          6           0       -1.553088   -5.592980   -0.963612
     15          6           0       -2.480576   -5.468162   -2.006541
     16          6           0       -2.924544   -4.196666   -2.400655
     17          6           0       -2.445711   -3.052445   -1.752744
     18          1           0       -2.818332   -2.061284   -2.029341
     19          1           0       -2.867120   -6.362592   -2.505953
     20          1           0       -0.340481   -4.553377    0.499903
     21          6           0        0.688340   -1.342695   -1.038253
     22          6           0        0.772349   -1.983570   -2.291343
     23          6           0        1.844221   -1.716858   -3.148032
     24          6           0        2.846721   -0.812568   -2.782057
     25          6           0        2.765962   -0.164835   -1.541387
     26          6           0        1.688258   -0.419316   -0.654912
     27          6           0        1.716421    0.270838    0.666800
     28          6           0        2.767653   -0.071656    1.555287
     29          6           0        2.900840    0.569591    2.794814
     30          6           0        1.976871    1.555103    3.158057
     31          6           0        0.932447    1.909391    2.299174
     32          6           0        0.797659    1.276161    1.046740
     33         15           0       -0.645371    1.712292   -0.029771
     34          6           0        0.048542    2.141613   -1.665516
     35          6           0        1.329651    2.709290   -1.804122
     36          6           0        1.812414    3.033091   -3.078306
     37          6           0        1.020665    2.796458   -4.211602
     38          6           0       -0.258743    2.237740   -4.071879
     39          6           0       -0.749508    1.908552   -2.802196
     40          1           0       -1.751260    1.483333   -2.672991
     41          1           0        1.402657    3.046348   -5.207025
     42          1           0        1.961834    2.858266   -0.923685
     43          6           0       -1.223941    3.290919    0.709602
     44          6           0       -2.177151    3.243703    1.746246
     45          6           0       -2.563331    4.422386    2.394018
     46          6           0       -2.017648    5.654114    2.001124
     47          6           0       -1.081640    5.704104    0.959589
     48          6           0       -0.679644    4.525496    0.315284
     49          1           0        0.045297    4.570735   -0.502898
     50          1           0       -2.331769    6.576646    2.500213
     51          1           0       -2.628990    2.285505    2.021194
     52          1           0        0.224856    2.685207    2.598180
     53          1           0        2.072480    2.052831    4.128373
     54          1           0        3.703219    0.294601    3.483913
     55          8           0        3.572123   -1.105385    1.135900
     56          6           0        4.946039   -1.136495    1.548573
     57          1           0        5.267456   -2.168244    1.325844
     58          1           0        5.042888   -0.988613    2.640008
     59          6           0        5.800915   -0.129787    0.775466
     60          1           0        6.830819   -0.201518    1.170579
     61          1           0        5.444762    0.889892    1.013743
     62          6           0        5.793375   -0.356625   -0.757603
     63          1           0        6.826515   -0.369173   -1.150556
     64          1           0        5.355479   -1.343676   -0.997078
     65          6           0        5.024666    0.716742   -1.531372
     66          1           0        5.429147    1.718740   -1.308090
     67          8           0        3.652828    0.797358   -1.118868
     68          1           0        5.109711    0.561856   -2.622773
     69          1           0        3.669862   -0.604133   -3.470005
     70          1           0        1.899195   -2.219320   -4.119061
     71          1           0        0.002460   -2.696388   -2.593220
     72         17           0       -3.993251   -1.419023    0.623561
     73         17           0       -3.840954    1.768569   -0.659272
     74          1           0       -1.214585   -6.583782   -0.643052
     75          1           0       -3.663324   -4.094122   -3.201803
     76          1           0       -1.143005   -2.019790    4.943575
     77          1           0        2.477964   -3.661704    3.226742
     78          1           0       -3.309412    4.379474    3.193807
     79          1           0       -0.664283    6.664573    0.639690
     80          1           0        2.814634    3.461685   -3.184798
     81          1           0       -0.878406    2.054460   -4.955553
 ---------------------------------------------------------------------
 Rotational constants (GHZ):           0.0661676           0.0639826           0.0508338
 General basis read from cards:  (5D, 7F)
 ======================================================================================================
                                       Pseudopotential Parameters
 ======================================================================================================
  Center     Atomic      Valence      Angular      Power
  Number     Number     Electrons     Momentum     of R      Exponent        Coefficient   SO-Coeffient
 ======================================================================================================
    1         46           18
                                      G and up 
                                                     2        1.0000000        0.00000000    0.00000000
                                      S - G
                                                     2       12.4300000      240.22904000    0.00000000
                                                     2        6.1707590       35.17194300    0.00000000
                                      P - G
                                                     2       11.0800000      170.41727600    0.00000000
                                                     2        5.8295540       28.47213300    0.00000000
                                      D - G
                                                     2        9.5100000       69.01384500    0.00000000
                                                     2        4.1397810       11.75086200    0.00000000
                                      F - G
                                                     2       13.2700000      -31.92955400    0.00000000
                                                     2        6.6300000       -5.39821700    0.00000000
    2         15
                                   No pseudopotential on this center.
    3          6
                                   No pseudopotential on this center.
    4          6
                                   No pseudopotential on this center.
    5          6
                                   No pseudopotential on this center.
    6          6
                                   No pseudopotential on this center.
    7          6
                                   No pseudopotential on this center.
    8          6
                                   No pseudopotential on this center.
    9          1
                                   No pseudopotential on this center.
   10          1
                                   No pseudopotential on this center.
   11          1
                                   No pseudopotential on this center.
   12          6
                                   No pseudopotential on this center.
   13          6
                                   No pseudopotential on this center.
   14          6
                                   No pseudopotential on this center.
   15          6
                                   No pseudopotential on this center.
   16          6
                                   No pseudopotential on this center.
   17          6
                                   No pseudopotential on this center.
   18          1
                                   No pseudopotential on this center.
   19          1
                                   No pseudopotential on this center.
   20          1
                                   No pseudopotential on this center.
   21          6
                                   No pseudopotential on this center.
   22          6
                                   No pseudopotential on this center.
   23          6
                                   No pseudopotential on this center.
   24          6
                                   No pseudopotential on this center.
   25          6
                                   No pseudopotential on this center.
   26          6
                                   No pseudopotential on this center.
   27          6
                                   No pseudopotential on this center.
   28          6
                                   No pseudopotential on this center.
   29          6
                                   No pseudopotential on this center.
   30          6
                                   No pseudopotential on this center.
   31          6
                                   No pseudopotential on this center.
   32          6
                                   No pseudopotential on this center.
   33         15
                                   No pseudopotential on this center.
   34          6
                                   No pseudopotential on this center.
   35          6
                                   No pseudopotential on this center.
   36          6
                                   No pseudopotential on this center.
   37          6
                                   No pseudopotential on this center.
   38          6
                                   No pseudopotential on this center.
   39          6
                                   No pseudopotential on this center.
   40          1
                                   No pseudopotential on this center.
   41          1
                                   No pseudopotential on this center.
   42          1
                                   No pseudopotential on this center.
   43          6
                                   No pseudopotential on this center.
   44          6
                                   No pseudopotential on this center.
   45          6
                                   No pseudopotential on this center.
   46          6
                                   No pseudopotential on this center.
   47          6
                                   No pseudopotential on this center.
   48          6
                                   No pseudopotential on this center.
   49          1
                                   No pseudopotential on this center.
   50          1
                                   No pseudopotential on this center.
   51          1
                                   No pseudopotential on this center.
   52          1
                                   No pseudopotential on this center.
   53          1
                                   No pseudopotential on this center.
   54          1
                                   No pseudopotential on this center.
   55          8
                                   No pseudopotential on this center.
   56          6
                                   No pseudopotential on this center.
   57          1
                                   No pseudopotential on this center.
   58          1
                                   No pseudopotential on this center.
   59          6
                                   No pseudopotential on this center.
   60          1
                                   No pseudopotential on this center.
   61          1
                                   No pseudopotential on this center.
   62          6
                                   No pseudopotential on this center.
   63          1
                                   No pseudopotential on this center.
   64          1
                                   No pseudopotential on this center.
   65          6
                                   No pseudopotential on this center.
   66          1
                                   No pseudopotential on this center.
   67          8
                                   No pseudopotential on this center.
   68          1
                                   No pseudopotential on this center.
   69          1
                                   No pseudopotential on this center.
   70          1
                                   No pseudopotential on this center.
   71          1
                                   No pseudopotential on this center.
   72         17
                                   No pseudopotential on this center.
   73         17
                                   No pseudopotential on this center.
   74          1
                                   No pseudopotential on this center.
   75          1
                                   No pseudopotential on this center.
   76          1
                                   No pseudopotential on this center.
   77          1
                                   No pseudopotential on this center.
   78          1
                                   No pseudopotential on this center.
   79          1
                                   No pseudopotential on this center.
   80          1
                                   No pseudopotential on this center.
   81          1
                                   No pseudopotential on this center.
 ======================================================================================================
 There are  1923 symmetry adapted cartesian basis functions of A   symmetry.
 There are  1690 symmetry adapted basis functions of A   symmetry.
  1690 basis functions,  2755 primitive gaussians,  1923 cartesian basis functions
   186 alpha electrons      186 beta electrons
       nuclear repulsion energy      7748.1941664779 Hartrees.
 NAtoms=   81 NActive=   81 NUniq=   81 SFac= 1.00D+00 NAtFMM=   60 NAOKFM=T Big=T
 Integral buffers will be    131072 words long.
 Raffenetti 2 integral format.
 Two-electron integral symmetry is turned on.
 Nuclear repulsion after empirical dispersion term =     7748.0389870679 Hartrees.
 One-electron integrals computed using PRISM.
   1 Symmetry operations used in ECPInt.
 ECPInt:  NShTT=  220780 NPrTT=  689732 LenC2=  176694 LenP2D=  363172.
 LDataN:  DoStor=T MaxTD1= 7 Len=  274
 Number of processors reduced to  22 by ecpmxn.
 NBasis=  1690 RedAO= T EigKep=  3.45D-06  NBF=  1690
 NBsUse=  1690 1.00D-06 EigRej= -1.00D+00 NBFU=  1690
 Defaulting to unpruned grid for atomic number  46.
 ExpMin= 1.60D-02 ExpMax= 6.95D+04 ExpMxC= 2.37D+03 IAcc=3 IRadAn=         5 AccDes= 0.00D+00
 Harris functional with IExCor= 1009 and IRadAn=       5 diagonalized for initial guess.
 HarFok:  IExCor= 1009 AccDes= 0.00D+00 IRadAn=         5 IDoV= 1 UseB2=F ITyADJ=14
 ICtDFT=  3500011 ScaDFX=  1.000000  1.000000  1.000000  1.000000
 Defaulting to unpruned grid for atomic number  46.
 FoFCou: FMM=F IPFlag=           0 FMFlag=      100000 FMFlg1=        2001
         NFxFlg=           0 DoJE=T BraDBF=F KetDBF=T FulRan=T
         wScrn=  0.000000 ICntrl=       500 IOpCl=  0 I1Cent=   200000004 NGrid=           0
         NMat0=    1 NMatS0=      1 NMatT0=    0 NMatD0=    1 NMtDS0=    0 NMtDT0=    0
 Petite list used in FoFCou.
 Requested convergence on RMS density matrix=1.00D-08 within 128 cycles.
 Requested convergence on MAX density matrix=1.00D-06.
 Requested convergence on             energy=1.00D-06.
 No special actions if energy rises.
 Defaulting to unpruned grid for atomic number  46.
 Defaulting to unpruned grid for atomic number  46.
 Defaulting to unpruned grid for atomic number  46.
 Defaulting to unpruned grid for atomic number  46.
 Defaulting to unpruned grid for atomic number  46.
 Defaulting to unpruned grid for atomic number  46.
 Defaulting to unpruned grid for atomic number  46.
 Defaulting to unpruned grid for atomic number  46.
 Defaulting to unpruned grid for atomic number  46.
 Defaulting to unpruned grid for atomic number  46.
 Defaulting to unpruned grid for atomic number  46.
 Defaulting to unpruned grid for atomic number  46.
 Defaulting to unpruned grid for atomic number  46.
 Defaulting to unpruned grid for atomic number  46.
 Defaulting to unpruned grid for atomic number  46.
 Defaulting to unpruned grid for atomic number  46.
 Defaulting to unpruned grid for atomic number  46.
 Defaulting to unpruned grid for atomic number  46.
 Defaulting to unpruned grid for atomic number  46.
 Defaulting to unpruned grid for atomic number  46.
 Defaulting to unpruned grid for atomic number  46.
 Defaulting to unpruned grid for atomic number  46.
 Defaulting to unpruned grid for atomic number  46.
 Defaulting to unpruned grid for atomic number  46.
 Defaulting to unpruned grid for atomic number  46.
 Defaulting to unpruned grid for atomic number  46.
 Defaulting to unpruned grid for atomic number  46.
 Defaulting to unpruned grid for atomic number  46.
 Defaulting to unpruned grid for atomic number  46.
 Defaulting to unpruned grid for atomic number  46.
 Defaulting to unpruned grid for atomic number  46.
 Defaulting to unpruned grid for atomic number  46.
 EnCoef did     6 forward-backward iterations
 EnCoef did   100 forward-backward iterations
 EnCoef did   100 forward-backward iterations
 EnCoef did     1 forward-backward iterations
 Restarting incremental Fock formation.
 SCF Done:  E(RPBE1PBE) =  -3424.52120463     A.U. after   21 cycles
            NFock= 21  Conv=0.50D-08     -V/T= 2.0279
 DoSCS=F DFT=T ScalE2(SS,OS)=  1.000000  1.000000
 Range of M.O.s used for correlation:     1  1690
 NBasis=  1690 NAE=   186 NBE=   186 NFC=     0 NFV=     0
 NROrb=   1690 NOA=   186 NOB=   186 NVA=  1504 NVB=  1504

 **** Warning!!: The largest alpha MO coefficient is  0.42807515D+02

          Differentiating once with respect to magnetic field using GIAOs.
          Electric field/nuclear overlap derivatives assumed to be zero.
 Defaulting to unpruned grid for atomic number  46.
 FoFCou: FMM=F IPFlag=           0 FMFlag=      100000 FMFlg1=        2001
         NFxFlg=           0 DoJE=F BraDBF=F KetDBF=T FulRan=T
         wScrn=  0.000000 ICntrl=      6100 IOpCl=  0 I1Cent=           7 NGrid=          81
         NMat0=    1 NMatS0=      1 NMatT0=    0 NMatD0=    1 NMtDS0=    0 NMtDT0=    0
 Symmetry not used in FoFCou.
   1 Symmetry operations used in ECPInt.
 ECPInt:  NShTT=  220780 NPrTT=  689732 LenC2=  220781 LenP2D=  689732.
 LDataN:  DoStor=T MaxTD1= 8 Len=  415
 Number of processors reduced to  14 by ecpmxn.
 FoFJK:  IHMeth= 1 ICntrl=    6127 DoSepK=F KAlg= 0 I1Cent=           0 FoldK=F
 IRaf=         1 NMat=       1 IRICut=       1 DoRegI=T DoRafI=F ISym2E= 0 IDoP0=0 IntGTp=1.
 Defaulting to unpruned grid for atomic number  46.
 Defaulting to unpruned grid for atomic number  46.
 Defaulting to unpruned grid for atomic number  46.
 Defaulting to unpruned grid for atomic number  46.
 Defaulting to unpruned grid for atomic number  46.
 Defaulting to unpruned grid for atomic number  46.
 Defaulting to unpruned grid for atomic number  46.
 Defaulting to unpruned grid for atomic number  46.
 Defaulting to unpruned grid for atomic number  46.
 Defaulting to unpruned grid for atomic number  46.
 Defaulting to unpruned grid for atomic number  46.
 Defaulting to unpruned grid for atomic number  46.
 Defaulting to unpruned grid for atomic number  46.
 Defaulting to unpruned grid for atomic number  46.
 Defaulting to unpruned grid for atomic number  46.
 Defaulting to unpruned grid for atomic number  46.
 Defaulting to unpruned grid for atomic number  46.
 Defaulting to unpruned grid for atomic number  46.
 Defaulting to unpruned grid for atomic number  46.
 Defaulting to unpruned grid for atomic number  46.
 Defaulting to unpruned grid for atomic number  46.
 Defaulting to unpruned grid for atomic number  46.
 Defaulting to unpruned grid for atomic number  46.
 Defaulting to unpruned grid for atomic number  46.
 Defaulting to unpruned grid for atomic number  46.
 Defaulting to unpruned grid for atomic number  46.
 Defaulting to unpruned grid for atomic number  46.
 Defaulting to unpruned grid for atomic number  46.
 Defaulting to unpruned grid for atomic number  46.
 Defaulting to unpruned grid for atomic number  46.
 Defaulting to unpruned grid for atomic number  46.
 Defaulting to unpruned grid for atomic number  46.
          There are     3 degrees of freedom in the 1st order CPHF.  IDoFFX=0 NUNeed=     3.
      3 vectors produced by pass  0 Test12= 9.32D-12 3.33D-08 XBig12= 2.03D+02 2.44D+00.
 AX will form     3 AO Fock derivatives at one time.
      3 vectors produced by pass  1 Test12= 9.32D-12 3.33D-08 XBig12= 1.08D+00 2.76D-01.
      3 vectors produced by pass  2 Test12= 9.32D-12 3.33D-08 XBig12= 1.03D-02 3.28D-02.
      3 vectors produced by pass  3 Test12= 9.32D-12 3.33D-08 XBig12= 2.58D-04 7.85D-03.
      3 vectors produced by pass  4 Test12= 9.32D-12 3.33D-08 XBig12= 1.53D-06 3.77D-04.
      3 vectors produced by pass  5 Test12= 9.32D-12 3.33D-08 XBig12= 1.06D-08 3.95D-05.
      3 vectors produced by pass  6 Test12= 9.32D-12 3.33D-08 XBig12= 2.19D-10 6.23D-06.
      3 vectors produced by pass  7 Test12= 9.32D-12 3.33D-08 XBig12= 2.43D-12 5.04D-07.
 InvSVY:  IOpt=1 It=  1 EMax= 3.55D-15
 Solved reduced A of dimension    24 with     3 vectors.
 Calculating GIAO nuclear magnetic shielding tensors.
 SCF GIAO Magnetic shielding tensor (ppm):
      1  Pd   Isotropic =  -162.8727   Anisotropy =   275.5378
   XX=    20.7371   YX=    -1.2969   ZX=     0.4406
   XY=    -1.6226   YY=   -12.0077   ZY=   -47.5280
   XZ=    -2.0983   YZ=  -100.2357   ZZ=  -497.3475
   Eigenvalues:  -508.3471    -1.0901    20.8192
      2  P    Isotropic =   238.5059   Anisotropy =   125.3708
   XX=   252.7142   YX=   -50.2428   ZX=    12.0248
   XY=   -78.9080   YY=   258.5426   ZY=   -10.7624
   XZ=    33.4456   YZ=    14.1543   ZZ=   204.2609
   Eigenvalues:   178.3172   215.1142   322.0864
      3  C    Isotropic =    50.5532   Anisotropy =   179.7415
   XX=    51.0969   YX=    62.7634   ZX=   -11.6457
   XY=    66.0918   YY=   132.9166   ZY=    32.0504
   XZ=   -19.2763   YZ=    30.9148   ZZ=   -32.3539
   Eigenvalues:   -47.3201    28.5988   170.3809
      4  C    Isotropic =    38.6249   Anisotropy =   201.0307
   XX=   -20.1312   YX=    97.7215   ZX=    -4.6473
   XY=   103.1509   YY=   119.6796   ZY=     5.1267
   XZ=     2.9712   YZ=    15.7317   ZZ=    16.3263
   Eigenvalues:   -72.9439    16.1731   172.6454
      5  C    Isotropic =    51.0908   Anisotropy =   189.1285
   XX=    32.4288   YX=    68.3185   ZX=    50.0983
   XY=    67.0491   YY=   143.4640   ZY=    -3.1565
   XZ=    50.0691   YZ=    -4.8717   ZZ=   -22.6203
   Eigenvalues:   -60.3213    36.4173   177.1765
      6  C    Isotropic =    48.8651   Anisotropy =   193.3695
   XX=    52.0514   YX=    66.4264   ZX=   -20.4634
   XY=    66.5628   YY=   139.8968   ZY=    37.4853
   XZ=   -21.1234   YZ=    33.3401   ZZ=   -45.3530
   Eigenvalues:   -62.8252    31.6424   177.7781
      7  C    Isotropic =    54.0253   Anisotropy =   185.0320
   XX=    -8.1944   YX=    94.0506   ZX=    -4.5829
   XY=    94.4716   YY=   128.5255   ZY=    11.9972
   XZ=    -4.5648   YZ=    15.6427   ZZ=    41.7448
   Eigenvalues:   -57.3609    42.0568   177.3800
      8  C    Isotropic =    43.5722   Anisotropy =   200.9136
   XX=    17.8452   YX=    74.5656   ZX=    51.5631
   XY=    69.2944   YY=   142.8626   ZY=    -4.7297
   XZ=    52.4482   YZ=    -0.7319   ZZ=   -29.9914
   Eigenvalues:   -72.3539    25.5559   177.5146
      9  H    Isotropic =    23.7255   Anisotropy =     9.8218
   XX=    24.5704   YX=    -0.8026   ZX=     6.8665
   XY=     0.0136   YY=    24.9259   ZY=    -5.0203
   XZ=     3.0027   YZ=    -3.8889   ZZ=    21.6802
   Eigenvalues:    16.5320    24.3712    30.2734
     10  H    Isotropic =    23.8853   Anisotropy =     3.4736
   XX=    24.5640   YX=    -1.8116   ZX=    -1.6015
   XY=    -1.8417   YY=    22.3706   ZY=    -1.1895
   XZ=    -1.3164   YZ=    -0.9321   ZZ=    24.7213
   Eigenvalues:    20.6548    24.8000    26.2010
     11  H    Isotropic =    21.9533   Anisotropy =    11.4460
   XX=    19.3751   YX=    -0.9641   ZX=     1.1844
   XY=     0.8712   YY=    17.4205   ZY=    -2.6373
   XZ=     0.8128   YZ=    -1.8854   ZZ=    29.0642
   Eigenvalues:    16.9885    19.2873    29.5840
     12  C    Isotropic =    44.5535   Anisotropy =   182.9403
   XX=    95.6585   YX=   -15.4124   ZX=   -75.3724
   XY=   -17.9251   YY=   -25.1067   ZY=   -22.7991
   XZ=   -95.5493   YZ=   -33.0979   ZZ=    63.1086
   Eigenvalues:   -49.7595    16.9063   166.5137
     13  C    Isotropic =    47.3921   Anisotropy =   193.2402
   XX=    70.9993   YX=     5.7312   ZX=  -119.0025
   XY=    14.8937   YY=    26.8534   ZY=     6.1515
   XZ=  -116.5326   YZ=     9.8946   ZZ=    44.3236
   Eigenvalues:   -62.7042    28.6615   176.2189
     14  C    Isotropic =    53.4902   Anisotropy =   181.7159
   XX=   105.3734   YX=    33.0663   ZX=   -76.0988
   XY=    33.0394   YY=   -38.6710   ZY=    22.2976
   XZ=   -72.6179   YZ=    20.0799   ZZ=    93.7682
   Eigenvalues:   -56.7574    42.5938   174.6341
     15  C    Isotropic =    49.4957   Anisotropy =   189.9797
   XX=   102.1634   YX=   -20.3878   ZX=   -84.8962
   XY=   -20.4817   YY=   -28.7864   ZY=   -38.3236
   XZ=   -86.9228   YZ=   -41.1171   ZZ=    75.1102
   Eigenvalues:   -59.9178    32.2562   176.1488
     16  C    Isotropic =    52.6686   Anisotropy =   184.5013
   XX=    71.6898   YX=    10.4224   ZX=  -114.9648
   XY=    11.8831   YY=    38.3660   ZY=     1.6285
   XZ=  -114.8656   YZ=     3.2426   ZZ=    47.9498
   Eigenvalues:   -56.6151    38.9513   175.6694
     17  C    Isotropic =    36.7381   Anisotropy =   201.1027
   XX=    80.6510   YX=    34.0026   ZX=   -96.0522
   XY=    30.0421   YY=   -53.4658   ZY=    17.1286
   XZ=   -81.3255   YZ=    24.5983   ZZ=    83.0290
   Eigenvalues:   -74.4507    13.8584   170.8065
     18  H    Isotropic =    22.3252   Anisotropy =    13.1866
   XX=    21.4523   YX=     2.0669   ZX=     3.6583
   XY=     2.7869   YY=    21.6193   ZY=     7.6485
   XZ=     2.0479   YZ=     5.9669   ZZ=    23.9040
   Eigenvalues:    15.8588    20.0006    31.1163
     19  H    Isotropic =    23.7810   Anisotropy =     3.5624
   XX=    22.7042   YX=    -0.7267   ZX=     2.8790
   XY=    -0.3202   YY=    25.4700   ZY=    -0.0719
   XZ=     2.4372   YZ=    -0.6322   ZZ=    23.1689
   Eigenvalues:    20.2640    24.9231    26.1560
     20  H    Isotropic =    24.1548   Anisotropy =    14.3930
   XX=    19.3400   YX=     2.2694   ZX=     4.1176
   XY=     2.0335   YY=    32.3000   ZY=     5.1256
   XZ=     1.2200   YZ=     1.5700   ZZ=    20.8245
   Eigenvalues:    17.3041    21.4102    33.7502
     21  C    Isotropic =    41.0679   Anisotropy =   184.4561
   XX=    21.3255   YX=   -66.7984   ZX=    58.6663
   XY=   -68.3067   YY=   100.8315   ZY=   -26.6593
   XZ=    49.6956   YZ=   -55.4357   ZZ=     1.0468
   Eigenvalues:   -45.3982     4.5633   164.0386
     22  C    Isotropic =    51.4453   Anisotropy =   188.0714
   XX=    32.0491   YX=   -93.5479   ZX=    13.7992
   XY=   -94.3410   YY=    76.4225   ZY=   -61.6868
   XZ=     7.4811   YZ=   -67.8200   ZZ=    45.8644
   Eigenvalues:   -54.3393    31.8491   176.8263
     23  C    Isotropic =    52.0296   Anisotropy =   184.9150
   XX=    76.5360   YX=   -50.5001   ZX=    32.1429
   XY=   -55.0124   YY=    93.3132   ZY=   -80.1381
   XZ=    35.0181   YZ=   -79.5408   ZZ=   -13.7604
   Eigenvalues:   -56.5551    37.3376   175.3062
     24  C    Isotropic =    67.1453   Anisotropy =   177.1024
   XX=    49.0292   YX=   -57.2867   ZX=    64.8066
   XY=   -82.7681   YY=   105.1752   ZY=   -37.0743
   XZ=    72.3799   YZ=   -27.3513   ZZ=    47.2315
   Eigenvalues:   -27.6234    43.8458   185.2135
     25  C    Isotropic =    22.9118   Anisotropy =   142.4258
   XX=     0.9660   YX=   -76.5594   ZX=    13.3801
   XY=   -80.2297   YY=    33.7939   ZY=   -46.2956
   XZ=     7.1137   YZ=   -42.2089   ZZ=    33.9755
   Eigenvalues:   -67.0898    17.9628   117.8623
     26  C    Isotropic =    47.7429   Anisotropy =   159.4034
   XX=    60.2956   YX=   -51.7964   ZX=    24.8434
   XY=   -40.8021   YY=    88.0290   ZY=   -72.5369
   XZ=    15.9359   YZ=   -70.6296   ZZ=    -5.0960
   Eigenvalues:   -44.1207    33.3376   154.0118
     27  C    Isotropic =    47.8828   Anisotropy =   159.6187
   XX=    68.5670   YX=    53.8991   ZX=   -30.2919
   XY=    42.5509   YY=    80.2856   ZY=   -69.9278
   XZ=   -21.7747   YZ=   -69.3884   ZZ=    -5.2042
   Eigenvalues:   -44.1941    33.5473   154.2953
     28  C    Isotropic =    22.8756   Anisotropy =   142.2408
   XX=    14.2175   YX=    78.2247   ZX=   -17.0326
   XY=    81.8181   YY=    20.3925   ZY=   -44.8359
   XZ=   -10.7257   YZ=   -41.3894   ZZ=    34.0169
   Eigenvalues:   -67.1200    18.0440   117.7028
     29  C    Isotropic =    67.1549   Anisotropy =   177.1551
   XX=    61.1449   YX=    60.8304   ZX=   -67.8359
   XY=    86.4354   YY=    93.0406   ZY=   -31.6235
   XZ=   -74.5653   YZ=   -21.2142   ZZ=    47.2792
   Eigenvalues:   -27.6541    43.8606   185.2583
     30  C    Isotropic =    52.1602   Anisotropy =   184.9871
   XX=    85.6679   YX=    51.0864   ZX=   -38.8486
   XY=    55.7812   YY=    84.1621   ZY=   -77.4552
   XZ=   -41.6006   YZ=   -76.3727   ZZ=   -13.3495
   Eigenvalues:   -56.4214    37.4171   175.4849
     31  C    Isotropic =    51.4482   Anisotropy =   187.8567
   XX=    48.2953   YX=    95.8027   ZX=   -19.0997
   XY=    96.9305   YY=    59.9908   ZY=   -60.1609
   XZ=   -13.4664   YZ=   -66.4412   ZZ=    46.0586
   Eigenvalues:   -54.1973    31.8559   176.6860
     32  C    Isotropic =    41.0207   Anisotropy =   184.7909
   XX=    34.0550   YX=    72.7938   ZX=   -60.7652
   XY=    74.3203   YY=    88.3070   ZY=   -21.7890
   XZ=   -54.0521   YZ=   -51.0973   ZZ=     0.7001
   Eigenvalues:   -45.2150     4.0625   164.2146
     33  P    Isotropic =   238.5887   Anisotropy =   126.2657
   XX=   263.5616   YX=    50.7962   ZX=   -13.3551
   XY=    79.4479   YY=   247.2841   ZY=    -8.6565
   XZ=   -32.2656   YZ=    17.8544   ZZ=   204.9202
   Eigenvalues:   176.8938   216.1064   322.7658
     34  C    Isotropic =    50.6218   Anisotropy =   179.6791
   XX=    42.2383   YX=   -56.7836   ZX=    15.6840
   XY=   -60.5844   YY=   141.7817   ZY=    28.3292
   XZ=    23.1934   YZ=    26.9270   ZZ=   -32.1544
   Eigenvalues:   -47.2135    28.6711   170.4079
     35  C    Isotropic =    43.4800   Anisotropy =   201.0261
   XX=    10.0116   YX=   -65.7613   ZX=   -50.5934
   XY=   -60.1069   YY=   152.3030   ZY=    -3.7540
   XZ=   -51.0255   YZ=     0.2085   ZZ=   -31.8745
   Eigenvalues:   -72.4713    25.4139   177.4974
     36  C    Isotropic =    53.9497   Anisotropy =   185.0884
   XX=   -20.9850   YX=   -83.9534   ZX=     4.9785
   XY=   -83.9426   YY=   141.2457   ZY=     9.1074
   XZ=     5.2253   YZ=    12.6820   ZZ=    41.5883
   Eigenvalues:   -57.4160    41.9231   177.3419
     37  C    Isotropic =    48.8226   Anisotropy =   193.3707
   XX=    42.3534   YX=   -60.0158   ZX=    25.3581
   XY=   -60.1834   YY=   149.3634   ZY=    32.5734
   XZ=    25.5794   YZ=    28.4841   ZZ=   -45.2489
   Eigenvalues:   -62.8404    31.5718   177.7365
     38  C    Isotropic =    51.0830   Anisotropy =   189.2189
   XX=    25.5056   YX=   -60.5140   ZX=   -48.5355
   XY=   -59.3254   YY=   152.2786   ZY=    -2.9432
   XZ=   -48.7559   YZ=    -4.5282   ZZ=   -24.5350
   Eigenvalues:   -60.3899    36.4100   177.2290
     39  C    Isotropic =    38.5302   Anisotropy =   200.7179
   XX=   -33.5051   YX=   -87.3345   ZX=     4.6908
   XY=   -92.6314   YY=   132.7057   ZY=     2.0888
   XZ=    -1.7412   YZ=    12.9182   ZZ=    16.3898
   Eigenvalues:   -73.1010    16.3494   172.3421
     40  H    Isotropic =    22.0041   Anisotropy =    11.3495
   XX=    19.4267   YX=     0.7414   ZX=    -1.5370
   XY=    -1.1130   YY=    17.5229   ZY=    -2.4014
   XZ=    -1.0715   YZ=    -1.6942   ZZ=    29.0626
   Eigenvalues:    17.0960    19.3458    29.5704
     41  H    Isotropic =    23.8803   Anisotropy =     3.4243
   XX=    24.7292   YX=     1.6807   ZX=     1.4875
   XY=     1.7309   YY=    22.1432   ZY=    -1.2713
   XZ=     1.2203   YZ=    -0.9867   ZZ=    24.7684
   Eigenvalues:    20.6479    24.8298    26.1631
     42  H    Isotropic =    23.7558   Anisotropy =     9.8660
   XX=    24.7388   YX=     1.0013   ZX=    -7.2425
   XY=     0.1123   YY=    24.9154   ZY=    -4.3818
   XZ=    -3.2874   YZ=    -3.5566   ZZ=    21.6131
   Eigenvalues:    16.6215    24.3127    30.3331
     43  C    Isotropic =    44.5216   Anisotropy =   183.0805
   XX=    97.5478   YX=     5.5848   ZX=    73.1692
   XY=     8.1265   YY=   -27.0913   ZY=   -28.8034
   XZ=    92.8329   YZ=   -40.8630   ZZ=    63.1082
   Eigenvalues:   -49.9646    16.9541   166.5752
     44  C    Isotropic =    36.7143   Anisotropy =   200.7532
   XX=    74.1794   YX=   -44.6118   ZX=    96.8398
   XY=   -40.5220   YY=   -47.3099   ZY=     8.9977
   XZ=    82.8972   YZ=    17.8203   ZZ=    83.2733
   Eigenvalues:   -74.3607    13.9538   170.5497
     45  C    Isotropic =    52.6442   Anisotropy =   184.5675
   XX=    69.1694   YX=   -13.0662   ZX=   114.8669
   XY=   -14.4842   YY=    40.3495   ZY=    -7.6321
   XZ=   114.7589   YZ=    -6.0613   ZZ=    48.4136
   Eigenvalues:   -56.6763    38.9197   175.6892
     46  C    Isotropic =    49.5167   Anisotropy =   189.9834
   XX=   104.3761   YX=     9.7587   ZX=    81.5921
   XY=     9.7491   YY=   -31.2373   ZY=   -44.9914
   XZ=    83.3480   YZ=   -47.9219   ZZ=    75.4113
   Eigenvalues:   -59.8989    32.2766   176.1723
     47  C    Isotropic =    53.5411   Anisotropy =   181.9322
   XX=    99.1074   YX=   -44.1621   ZX=    77.7041
   XY=   -44.1153   YY=   -32.5107   ZY=    15.9914
   XZ=    74.1262   YZ=    14.1187   ZZ=    94.0265
   Eigenvalues:   -56.7519    42.5459   174.8292
     48  C    Isotropic =    47.5156   Anisotropy =   193.1325
   XX=    68.8898   YX=    -9.5027   ZX=   118.9898
   XY=   -18.2679   YY=    28.9938   ZY=    -3.4658
   XZ=   117.0064   YZ=     0.3627   ZZ=    44.6631
   Eigenvalues:   -62.5718    28.8479   176.2706
     49  H    Isotropic =    24.1260   Anisotropy =    14.3763
   XX=    19.1527   YX=    -1.2129   ZX=    -3.7625
   XY=    -0.9921   YY=    32.5383   ZY=     5.3890
   XZ=    -1.1194   YZ=     1.6517   ZZ=    20.6868
   Eigenvalues:    17.2511    21.4167    33.7102
     50  H    Isotropic =    23.7788   Anisotropy =     3.5704
   XX=    22.8086   YX=     0.9601   ZX=    -2.8734
   XY=     0.5438   YY=    25.3703   ZY=     0.1541
   XZ=    -2.4814   YZ=    -0.4146   ZZ=    23.1575
   Eigenvalues:    20.2581    24.9192    26.1591
     51  H    Isotropic =    22.3432   Anisotropy =    13.1903
   XX=    21.0837   YX=    -2.0312   ZX=    -3.0688
   XY=    -2.7727   YY=    22.0409   ZY=     7.8861
   XZ=    -1.6185   YZ=     6.0900   ZZ=    23.9051
   Eigenvalues:    15.9073    19.9856    31.1368
     52  H    Isotropic =    24.9648   Anisotropy =    12.7673
   XX=    26.0464   YX=    -4.4516   ZX=     6.1707
   XY=    -1.8472   YY=    22.4701   ZY=     1.6396
   XZ=     6.9908   YZ=    -3.0698   ZZ=    26.3778
   Eigenvalues:    18.6852    22.7329    33.4763
     53  H    Isotropic =    24.5161   Anisotropy =     4.8414
   XX=    25.6570   YX=    -2.4574   ZX=     2.5674
   XY=    -1.9311   YY=    23.9796   ZY=     1.2575
   XZ=     2.0269   YZ=     0.8180   ZZ=    23.9117
   Eigenvalues:    20.8207    24.9838    27.7437
     54  H    Isotropic =    24.7532   Anisotropy =     6.3121
   XX=    24.7022   YX=    -1.9996   ZX=    -0.4199
   XY=     0.0960   YY=    23.9585   ZY=     4.4392
   XZ=    -0.7347   YZ=     3.2353   ZZ=    25.5989
   Eigenvalues:    20.8169    24.4815    28.9613
     55  O    Isotropic =   205.2606   Anisotropy =   130.4377
   XX=   193.8431   YX=    33.2956   ZX=   -36.9725
   XY=    58.7017   YY=   246.3234   ZY=   -15.7145
   XZ=   -88.5617   YZ=   -12.0062   ZZ=   175.6152
   Eigenvalues:   117.9174   205.6453   292.2190
     56  C    Isotropic =   114.7069   Anisotropy =    55.5068
   XX=   150.5481   YX=     0.8318   ZX=     5.1972
   XY=     4.7168   YY=    98.1468   ZY=   -11.2908
   XZ=    10.8686   YZ=   -14.6454   ZZ=    95.4256
   Eigenvalues:    82.8370   109.5722   151.7114
     57  H    Isotropic =    27.7573   Anisotropy =     9.0946
   XX=    30.6025   YX=    -3.7025   ZX=     1.4571
   XY=    -2.3427   YY=    28.9678   ZY=    -2.7415
   XZ=     1.4362   YZ=    -3.2735   ZZ=    23.7017
   Eigenvalues:    22.3368    27.1148    33.8204
     58  H    Isotropic =    26.9101   Anisotropy =     7.6186
   XX=    29.1781   YX=    -1.0287   ZX=     3.1298
   XY=    -0.6558   YY=    21.8348   ZY=    -2.4277
   XZ=     1.1930   YZ=    -1.1916   ZZ=    29.7175
   Eigenvalues:    21.4210    27.3203    31.9892
     59  C    Isotropic =   157.0090   Anisotropy =    25.8398
   XX=   150.7341   YX=     1.1062   ZX=     3.1890
   XY=     7.3806   YY=   149.7825   ZY=   -11.7068
   XZ=     3.0172   YZ=    -7.1371   ZZ=   170.5105
   Eigenvalues:   142.8470   153.9445   174.2355
     60  H    Isotropic =    29.9315   Anisotropy =    11.9406
   XX=    36.4163   YX=     0.8483   ZX=     3.1009
   XY=     1.4607   YY=    23.4917   ZY=    -0.8223
   XZ=     3.5863   YZ=     0.4045   ZZ=    29.8865
   Eigenvalues:    23.3451    28.5575    37.8919
     61  H    Isotropic =    29.6401   Anisotropy =     2.5939
   XX=    30.7294   YX=     0.4579   ZX=    -0.3489
   XY=     1.7832   YY=    29.3703   ZY=     0.8113
   XZ=    -1.2685   YZ=     2.4983   ZZ=    28.8207
   Eigenvalues:    26.9396    30.6114    31.3694
     62  C    Isotropic =   157.0574   Anisotropy =    25.7262
   XX=   150.1069   YX=    -1.1270   ZX=    -4.1766
   XY=    -7.6226   YY=   150.5700   ZY=   -11.3246
   XZ=    -3.6447   YZ=    -6.8671   ZZ=   170.4951
   Eigenvalues:   142.8217   154.1422   174.2082
     63  H    Isotropic =    29.9328   Anisotropy =    11.9475
   XX=    36.1642   YX=    -1.8983   ZX=    -3.1416
   XY=    -2.5181   YY=    23.7660   ZY=    -0.5703
   XZ=    -3.5177   YZ=     0.6894   ZZ=    29.8681
   Eigenvalues:    23.3392    28.5613    37.8978
     64  H    Isotropic =    29.6460   Anisotropy =     2.6331
   XX=    30.5277   YX=    -0.5786   ZX=     0.4370
   XY=    -1.9169   YY=    29.5911   ZY=     0.7913
   XZ=     1.4936   YZ=     2.3798   ZZ=    28.8191
   Eigenvalues:    26.9179    30.6186    31.4014
     65  C    Isotropic =   114.7770   Anisotropy =    55.4769
   XX=   149.8082   YX=    -5.0594   ZX=    -6.0194
   XY=    -9.0403   YY=    99.0242   ZY=   -10.7314
   XZ=   -11.9478   YZ=   -13.7148   ZZ=    95.4987
   Eigenvalues:    82.9652   109.6043   151.7616
     66  H    Isotropic =    27.7666   Anisotropy =     9.0639
   XX=    31.1268   YX=     3.5253   ZX=    -1.6500
   XY=     2.1258   YY=    28.4788   ZY=    -2.6151
   XZ=    -1.6745   YZ=    -3.1323   ZZ=    23.6944
   Eigenvalues:    22.3348    27.1559    33.8092
     67  O    Isotropic =   204.8810   Anisotropy =   130.9361
   XX=   185.8545   YX=   -28.5800   ZX=    35.6468
   XY=   -53.9736   YY=   253.3518   ZY=   -19.2031
   XZ=    86.7593   YZ=   -19.4786   ZZ=   175.4367
   Eigenvalues:   117.6685   204.8028   292.1717
     68  H    Isotropic =    26.9293   Anisotropy =     7.5755
   XX=    29.3199   YX=     0.3964   ZX=    -3.3026
   XY=    -0.0068   YY=    21.7606   ZY=    -2.1549
   XZ=    -1.2628   YZ=    -1.0857   ZZ=    29.7075
   Eigenvalues:    21.4344    27.3738    31.9796
     69  H    Isotropic =    24.7712   Anisotropy =     6.2943
   XX=    24.8765   YX=     1.8631   ZX=     0.7876
   XY=    -0.2020   YY=    23.8420   ZY=     4.4117
   XZ=     1.0178   YZ=     3.1536   ZZ=    25.5951
   Eigenvalues:    20.8336    24.5125    28.9674
     70  H    Isotropic =    24.5107   Anisotropy =     4.8568
   XX=    26.0208   YX=     2.2691   ZX=    -2.4632
   XY=     1.7843   YY=    23.6284   ZY=     1.5028
   XZ=    -1.9526   YZ=     0.9791   ZZ=    23.8831
   Eigenvalues:    20.7975    24.9861    27.7486
     71  H    Isotropic =    24.9678   Anisotropy =    12.8104
   XX=    26.5766   YX=     4.1089   ZX=    -6.0237
   XY=     1.5502   YY=    21.9888   ZY=     2.1869
   XZ=    -7.2740   YZ=    -2.4902   ZZ=    26.3381
   Eigenvalues:    18.6474    22.7480    33.5081
     72  Cl   Isotropic =   842.7448   Anisotropy =   530.4794
   XX=   721.0870   YX=   121.0050   ZX=  -111.3994
   XY=   132.6108   YY=   688.9417   ZY=   142.1244
   XZ=   -81.2198   YZ=   242.6772   ZZ=  1118.2057
   Eigenvalues:   505.4862   826.3504  1196.3977
     73  Cl   Isotropic =   841.7932   Anisotropy =   531.2707
   XX=   695.0475   YX=  -123.3315   ZX=   120.3063
   XY=  -135.3643   YY=   711.3927   ZY=   128.7190
   XZ=   102.7906   YZ=   235.8021   ZZ=  1118.9394
   Eigenvalues:   503.5064   825.8995  1195.9736
     74  H    Isotropic =    24.0476   Anisotropy =     6.9846
   XX=    22.2830   YX=     1.5578   ZX=     3.2869
   XY=     1.8697   YY=    26.3277   ZY=     2.4158
   XZ=     2.7405   YZ=     1.3459   ZZ=    23.5322
   Eigenvalues:    19.8261    23.6127    28.7041
     75  H    Isotropic =    23.6151   Anisotropy =     7.1328
   XX=    21.4111   YX=     0.8714   ZX=     1.9633
   XY=     1.1200   YY=    27.2967   ZY=     2.1970
   XZ=     1.5705   YZ=     1.9388   ZZ=    22.1375
   Eigenvalues:    19.9229    22.5522    28.3703
     76  H    Isotropic =    23.8597   Anisotropy =     6.3229
   XX=    23.7019   YX=    -1.8829   ZX=     0.9629
   XY=    -1.2132   YY=    21.7463   ZY=    -3.0515
   XZ=     1.2501   YZ=    -2.3680   ZZ=    26.1311
   Eigenvalues:    20.1829    23.3214    28.0750
     77  H    Isotropic =    24.0388   Anisotropy =     6.5176
   XX=    21.8725   YX=    -0.2791   ZX=     0.0444
   XY=    -0.7865   YY=    23.1303   ZY=    -2.6828
   XZ=    -0.1462   YZ=    -2.4697   ZZ=    27.1136
   Eigenvalues:    21.3658    22.3668    28.3839
     78  H    Isotropic =    23.6192   Anisotropy =     7.1436
   XX=    21.2929   YX=    -0.3856   ZX=    -1.7820
   XY=    -0.6386   YY=    27.4291   ZY=     2.3422
   XZ=    -1.4061   YZ=     2.0708   ZZ=    22.1355
   Eigenvalues:    19.9244    22.5516    28.3816
     79  H    Isotropic =    24.0426   Anisotropy =     6.9698
   XX=    22.0506   YX=    -1.2157   ZX=    -3.0931
   XY=    -1.5165   YY=    26.5710   ZY=     2.6580
   XZ=    -2.6295   YZ=     1.5517   ZZ=    23.5061
   Eigenvalues:    19.8180    23.6206    28.6891
     80  H    Isotropic =    24.0290   Anisotropy =     6.4282
   XX=    21.9371   YX=     0.4484   ZX=    -0.3874
   XY=     0.9509   YY=    23.0570   ZY=    -2.5642
   XZ=    -0.1557   YZ=    -2.3835   ZZ=    27.0930
   Eigenvalues:    21.3726    22.4000    28.3145
     81  H    Isotropic =    23.8696   Anisotropy =     6.3323
   XX=    23.9534   YX=     1.7356   ZX=    -1.2263
   XY=     1.0913   YY=    21.5393   ZY=    -2.9526
   XZ=    -1.4619   YZ=    -2.2403   ZZ=    26.1162
   Eigenvalues:    20.2025    23.3152    28.0912
 End of Minotr F.D. properties file   721 does not exist.
 End of Minotr F.D. properties file   722 does not exist.
 End of Minotr F.D. properties file   788 does not exist.

 **********************************************************************

            Population analysis using the SCF Density.

 **********************************************************************

 Orbital symmetries:
       Occupied  (A) (A) (A) (A) (A) (A) (A) (A) (A) (A) (A) (A)
                 (A) (A) (A) (A) (A) (A) (A) (A) (A) (A) (A) (A)
                 (A) (A) (A) (A) (A) (A) (A) (A) (A) (A) (A) (A)
                 (A) (A) (A) (A) (A) (A) (A) (A) (A) (A) (A) (A)
                 (A) (A) (A) (A) (A) (A) (A) (A) (A) (A) (A) (A)
                 (A) (A) (A) (A) (A) (A) (A) (A) (A) (A) (A) (A)
                 (A) (A) (A) (A) (A) (A) (A) (A) (A) (A) (A) (A)
                 (A) (A) (A) (A) (A) (A) (A) (A) (A) (A) (A) (A)
                 (A) (A) (A) (A) (A) (A) (A) (A) (A) (A) (A) (A)
                 (A) (A) (A) (A) (A) (A) (A) (A) (A) (A) (A) (A)
                 (A) (A) (A) (A) (A) (A) (A) (A) (A) (A) (A) (A)
                 (A) (A) (A) (A) (A) (A) (A) (A) (A) (A) (A) (A)
                 (A) (A) (A) (A) (A) (A) (A) (A) (A) (A) (A) (A)
                 (A) (A) (A) (A) (A) (A) (A) (A) (A) (A) (A) (A)
                 (A) (A) (A) (A) (A) (A) (A) (A) (A) (A) (A) (A)
                 (A) (A) (A) (A) (A) (A)
       Virtual   (A) (A) (A) (A) (A) (A) (A) (A) (A) (A) (A) (A)
                 (A) (A) (A) (A) (A) (A) (A) (A) (A) (A) (A) (A)
                 (A) (A) (A) (A) (A) (A) (A) (A) (A) (A) (A) (A)
                 (A) (A) (A) (A) (A) (A) (A) (A) (A) (A) (A) (A)
                 (A) (A) (A) (A) (A) (A) (A) (A) (A) (A) (A) (A)
                 (A) (A) (A) (A) (A) (A) (A) (A) (A) (A) (A) (A)
                 (A) (A) (A) (A) (A) (A) (A) (A) (A) (A) (A) (A)
                 (A) (A) (A) (A) (A) (A) (A) (A) (A) (A) (A) (A)
                 (A) (A) (A) (A) (A) (A) (A) (A) (A) (A) (A) (A)
                 (A) (A) (A) (A) (A) (A) (A) (A) (A) (A) (A) (A)
                 (A) (A) (A) (A) (A) (A) (A) (A) (A) (A) (A) (A)
                 (A) (A) (A) (A) (A) (A) (A) (A) (A) (A) (A) (A)
                 (A) (A) (A) (A) (A) (A) (A) (A) (A) (A) (A) (A)
                 (A) (A) (A) (A) (A) (A) (A) (A) (A) (A) (A) (A)
                 (A) (A) (A) (A) (A) (A) (A) (A) (A) (A) (A) (A)
                 (A) (A) (A) (A) (A) (A) (A) (A) (A) (A) (A) (A)
                 (A) (A) (A) (A) (A) (A) (A) (A) (A) (A) (A) (A)
                 (A) (A) (A) (A) (A) (A) (A) (A) (A) (A) (A) (A)
                 (A) (A) (A) (A) (A) (A) (A) (A) (A) (A) (A) (A)
                 (A) (A) (A) (A) (A) (A) (A) (A) (A) (A) (A) (A)
                 (A) (A) (A) (A) (A) (A) (A) (A) (A) (A) (A) (A)
                 (A) (A) (A) (A) (A) (A) (A) (A) (A) (A) (A) (A)
                 (A) (A) (A) (A) (A) (A) (A) (A) (A) (A) (A) (A)
                 (A) (A) (A) (A) (A) (A) (A) (A) (A) (A) (A) (A)
                 (A) (A) (A) (A) (A) (A) (A) (A) (A) (A) (A) (A)
                 (A) (A) (A) (A) (A) (A) (A) (A) (A) (A) (A) (A)
                 (A) (A) (A) (A) (A) (A) (A) (A) (A) (A) (A) (A)
                 (A) (A) (A) (A) (A) (A) (A) (A) (A) (A) (A) (A)
                 (A) (A) (A) (A) (A) (A) (A) (A) (A) (A) (A) (A)
                 (A) (A) (A) (A) (A) (A) (A) (A) (A) (A) (A) (A)
                 (A) (A) (A) (A) (A) (A) (A) (A) (A) (A) (A) (A)
                 (A) (A) (A) (A) (A) (A) (A) (A) (A) (A) (A) (A)
                 (A) (A) (A) (A) (A) (A) (A) (A) (A) (A) (A) (A)
                 (A) (A) (A) (A) (A) (A) (A) (A) (A) (A) (A) (A)
                 (A) (A) (A) (A) (A) (A) (A) (A) (A) (A) (A) (A)
                 (A) (A) (A) (A) (A) (A) (A) (A) (A) (A) (A) (A)
                 (A) (A) (A) (A) (A) (A) (A) (A) (A) (A) (A) (A)
                 (A) (A) (A) (A) (A) (A) (A) (A) (A) (A) (A) (A)
                 (A) (A) (A) (A) (A) (A) (A) (A) (A) (A) (A) (A)
                 (A) (A) (A) (A) (A) (A) (A) (A) (A) (A) (A) (A)
                 (A) (A) (A) (A) (A) (A) (A) (A) (A) (A) (A) (A)
                 (A) (A) (A) (A) (A) (A) (A) (A) (A) (A) (A) (A)
                 (A) (A) (A) (A) (A) (A) (A) (A) (A) (A) (A) (A)
                 (A) (A) (A) (A) (A) (A) (A) (A) (A) (A) (A) (A)
                 (A) (A) (A) (A) (A) (A) (A) (A) (A) (A) (A) (A)
                 (A) (A) (A) (A) (A) (A) (A) (A) (A) (A) (A) (A)
                 (A) (A) (A) (A) (A) (A) (A) (A) (A) (A) (A) (A)
                 (A) (A) (A) (A) (A) (A) (A) (A) (A) (A) (A) (A)
                 (A) (A) (A) (A) (A) (A) (A) (A) (A) (A) (A) (A)
                 (A) (A) (A) (A) (A) (A) (A) (A) (A) (A) (A) (A)
                 (A) (A) (A) (A) (A) (A) (A) (A) (A) (A) (A) (A)
                 (A) (A) (A) (A) (A) (A) (A) (A) (A) (A) (A) (A)
                 (A) (A) (A) (A) (A) (A) (A) (A) (A) (A) (A) (A)
                 (A) (A) (A) (A) (A) (A) (A) (A) (A) (A) (A) (A)
                 (A) (A) (A) (A) (A) (A) (A) (A) (A) (A) (A) (A)
                 (A) (A) (A) (A) (A) (A) (A) (A) (A) (A) (A) (A)
                 (A) (A) (A) (A) (A) (A) (A) (A) (A) (A) (A) (A)
                 (A) (A) (A) (A) (A) (A) (A) (A) (A) (A) (A) (A)
                 (A) (A) (A) (A) (A) (A) (A) (A) (A) (A) (A) (A)
                 (A) (A) (A) (A) (A) (A) (A) (A) (A) (A) (A) (A)
                 (A) (A) (A) (A) (A) (A) (A) (A) (A) (A) (A) (A)
                 (A) (A) (A) (A) (A) (A) (A) (A) (A) (A) (A) (A)
                 (A) (A) (A) (A) (A) (A) (A) (A) (A) (A) (A) (A)
                 (A) (A) (A) (A) (A) (A) (A) (A) (A) (A) (A) (A)
                 (A) (A) (A) (A) (A) (A) (A) (A) (A) (A) (A) (A)
                 (A) (A) (A) (A) (A) (A) (A) (A) (A) (A) (A) (A)
                 (A) (A) (A) (A) (A) (A) (A) (A) (A) (A) (A) (A)
                 (A) (A) (A) (A) (A) (A) (A) (A) (A) (A) (A) (A)
                 (A) (A) (A) (A) (A) (A) (A) (A) (A) (A) (A) (A)
                 (A) (A) (A) (A) (A) (A) (A) (A) (A) (A) (A) (A)
                 (A) (A) (A) (A) (A) (A) (A) (A) (A) (A) (A) (A)
                 (A) (A) (A) (A) (A) (A) (A) (A) (A) (A) (A) (A)
                 (A) (A) (A) (A) (A) (A) (A) (A) (A) (A) (A) (A)
                 (A) (A) (A) (A) (A) (A) (A) (A) (A) (A) (A) (A)
                 (A) (A) (A) (A) (A) (A) (A) (A) (A) (A) (A) (A)
                 (A) (A) (A) (A) (A) (A) (A) (A) (A) (A) (A) (A)
                 (A) (A) (A) (A) (A) (A) (A) (A) (A) (A) (A) (A)
                 (A) (A) (A) (A) (A) (A) (A) (A) (A) (A) (A) (A)
                 (A) (A) (A) (A) (A) (A) (A) (A) (A) (A) (A) (A)
                 (A) (A) (A) (A) (A) (A) (A) (A) (A) (A) (A) (A)
                 (A) (A) (A) (A) (A) (A) (A) (A) (A) (A) (A) (A)
                 (A) (A) (A) (A) (A) (A) (A) (A) (A) (A) (A) (A)
                 (A) (A) (A) (A) (A) (A) (A) (A) (A) (A) (A) (A)
                 (A) (A) (A) (A) (A) (A) (A) (A) (A) (A) (A) (A)
                 (A) (A) (A) (A) (A) (A) (A) (A) (A) (A) (A) (A)
                 (A) (A) (A) (A) (A) (A) (A) (A) (A) (A) (A) (A)
                 (A) (A) (A) (A) (A) (A) (A) (A) (A) (A) (A) (A)
                 (A) (A) (A) (A) (A) (A) (A) (A) (A) (A) (A) (A)
                 (A) (A) (A) (A) (A) (A) (A) (A) (A) (A) (A) (A)
                 (A) (A) (A) (A) (A) (A) (A) (A) (A) (A) (A) (A)
                 (A) (A) (A) (A) (A) (A) (A) (A) (A) (A) (A) (A)
                 (A) (A) (A) (A) (A) (A) (A) (A) (A) (A) (A) (A)
                 (A) (A) (A) (A) (A) (A) (A) (A) (A) (A) (A) (A)
                 (A) (A) (A) (A) (A) (A) (A) (A) (A) (A) (A) (A)
                 (A) (A) (A) (A) (A) (A) (A) (A) (A) (A) (A) (A)
                 (A) (A) (A) (A) (A) (A) (A) (A) (A) (A) (A) (A)
                 (A) (A) (A) (A) (A) (A) (A) (A) (A) (A) (A) (A)
                 (A) (A) (A) (A) (A) (A) (A) (A) (A) (A) (A) (A)
                 (A) (A) (A) (A) (A) (A) (A) (A) (A) (A) (A) (A)
                 (A) (A) (A) (A) (A) (A) (A) (A) (A) (A) (A) (A)
                 (A) (A) (A) (A) (A) (A) (A) (A) (A) (A) (A) (A)
                 (A) (A) (A) (A) (A) (A) (A) (A) (A) (A) (A) (A)
                 (A) (A) (A) (A) (A) (A) (A) (A) (A) (A) (A) (A)
                 (A) (A) (A) (A) (A) (A) (A) (A) (A) (A) (A) (A)
                 (A) (A) (A) (A) (A) (A) (A) (A) (A) (A) (A) (A)
                 (A) (A) (A) (A) (A) (A) (A) (A) (A) (A) (A) (A)
                 (A) (A) (A) (A) (A) (A) (A) (A) (A) (A) (A) (A)
                 (A) (A) (A) (A) (A) (A) (A) (A) (A) (A) (A) (A)
                 (A) (A) (A) (A) (A) (A) (A) (A) (A) (A) (A) (A)
                 (A) (A) (A) (A) (A) (A) (A) (A) (A) (A) (A) (A)
                 (A) (A) (A) (A) (A) (A) (A) (A) (A) (A) (A) (A)
                 (A) (A) (A) (A) (A) (A) (A) (A) (A) (A) (A) (A)
                 (A) (A) (A) (A) (A) (A) (A) (A) (A) (A) (A) (A)
                 (A) (A) (A) (A) (A) (A) (A) (A) (A) (A) (A) (A)
                 (A) (A) (A) (A) (A) (A) (A) (A) (A) (A) (A) (A)
                 (A) (A) (A) (A) (A) (A) (A) (A) (A) (A) (A) (A)
                 (A) (A) (A) (A) (A) (A) (A) (A) (A) (A) (A) (A)
                 (A) (A) (A) (A) (A) (A) (A) (A) (A) (A) (A) (A)
                 (A) (A) (A) (A) (A) (A) (A) (A) (A) (A) (A) (A)
                 (A) (A) (A) (A) (A) (A) (A) (A) (A) (A) (A) (A)
                 (A) (A) (A) (A) (A) (A) (A) (A) (A) (A) (A) (A)
                 (A) (A) (A) (A) (A) (A) (A) (A) (A) (A) (A) (A)
                 (A) (A) (A) (A) (A) (A) (A) (A) (A) (A) (A) (A)
                 (A) (A) (A) (A) (A) (A) (A) (A) (A) (A) (A) (A)
                 (A) (A) (A) (A) (A) (A) (A) (A) (A) (A) (A) (A)
                 (A) (A) (A) (A)
 The electronic state is 1-A.
 Alpha  occ. eigenvalues -- -101.60468-101.60458 -77.26091 -77.26091 -19.25124
 Alpha  occ. eigenvalues --  -19.25119 -10.30658 -10.30656 -10.29945 -10.29942
 Alpha  occ. eigenvalues --  -10.26284 -10.26275 -10.26136 -10.26105 -10.25315
 Alpha  occ. eigenvalues --  -10.25300 -10.24936 -10.24915 -10.24865 -10.24864
 Alpha  occ. eigenvalues --  -10.24765 -10.24763 -10.24676 -10.24674 -10.24512
 Alpha  occ. eigenvalues --  -10.24486 -10.24363 -10.24344 -10.24153 -10.24136
 Alpha  occ. eigenvalues --  -10.24101 -10.24100 -10.24012 -10.23986 -10.23896
 Alpha  occ. eigenvalues --  -10.23892 -10.23857 -10.23840 -10.23662 -10.23657
 Alpha  occ. eigenvalues --  -10.23589 -10.23586 -10.23487 -10.23485 -10.23265
 Alpha  occ. eigenvalues --  -10.23264  -9.42979  -9.42968  -7.16166  -7.16156
 Alpha  occ. eigenvalues --   -7.15714  -7.15703  -7.15654  -7.15643  -6.65296
 Alpha  occ. eigenvalues --   -6.65295  -4.78889  -4.78889  -4.78854  -4.78853
 Alpha  occ. eigenvalues --   -4.78648  -4.78647  -3.51508  -2.19216  -2.19092
 Alpha  occ. eigenvalues --   -2.15834  -1.10934  -1.10138  -0.91127  -0.89233
 Alpha  occ. eigenvalues --   -0.88925  -0.88666  -0.88224  -0.88103  -0.84540
 Alpha  occ. eigenvalues --   -0.82160  -0.80899  -0.80269  -0.79178  -0.77778
 Alpha  occ. eigenvalues --   -0.77687  -0.77666  -0.77564  -0.77091  -0.77005
 Alpha  occ. eigenvalues --   -0.76948  -0.76893  -0.74263  -0.73298  -0.72597
 Alpha  occ. eigenvalues --   -0.70211  -0.69167  -0.68459  -0.65664  -0.65352
 Alpha  occ. eigenvalues --   -0.63356  -0.63332  -0.62945  -0.62722  -0.62247
 Alpha  occ. eigenvalues --   -0.62110  -0.61904  -0.61565  -0.60289  -0.58755
 Alpha  occ. eigenvalues --   -0.57900  -0.56395  -0.54392  -0.53967  -0.53872
 Alpha  occ. eigenvalues --   -0.52886  -0.52401  -0.52270  -0.52091  -0.51784
 Alpha  occ. eigenvalues --   -0.50959  -0.49273  -0.48739  -0.47925  -0.47877
 Alpha  occ. eigenvalues --   -0.47751  -0.47531  -0.47085  -0.47028  -0.46760
 Alpha  occ. eigenvalues --   -0.46549  -0.46319  -0.46109  -0.45429  -0.44503
 Alpha  occ. eigenvalues --   -0.44231  -0.44125  -0.44049  -0.43595  -0.43570
 Alpha  occ. eigenvalues --   -0.43209  -0.42992  -0.42808  -0.41424  -0.41298
 Alpha  occ. eigenvalues --   -0.41155  -0.40873  -0.40323  -0.39532  -0.38870
 Alpha  occ. eigenvalues --   -0.38769  -0.38620  -0.38363  -0.38021  -0.37673
 Alpha  occ. eigenvalues --   -0.37549  -0.36923  -0.36851  -0.36428  -0.36391
 Alpha  occ. eigenvalues --   -0.36099  -0.36047  -0.35835  -0.35527  -0.35275
 Alpha  occ. eigenvalues --   -0.34729  -0.34709  -0.33601  -0.33436  -0.32415
 Alpha  occ. eigenvalues --   -0.31240  -0.31171  -0.29896  -0.29621  -0.29307
 Alpha  occ. eigenvalues --   -0.28062  -0.27591  -0.27507  -0.27277  -0.27106
 Alpha  occ. eigenvalues --   -0.26952  -0.26698  -0.26221  -0.25813  -0.25732
 Alpha  occ. eigenvalues --   -0.25568  -0.24262  -0.24213  -0.23084  -0.22529
 Alpha  occ. eigenvalues --   -0.22383
 Alpha virt. eigenvalues --   -0.07960  -0.04216  -0.04101  -0.03962  -0.03507
 Alpha virt. eigenvalues --   -0.02733  -0.02578  -0.01828  -0.01455  -0.01328
 Alpha virt. eigenvalues --   -0.01211  -0.00508  -0.00246   0.01512   0.01806
 Alpha virt. eigenvalues --    0.02903   0.03315   0.03679   0.04850   0.04977
 Alpha virt. eigenvalues --    0.05061   0.05501   0.05825   0.06282   0.06290
 Alpha virt. eigenvalues --    0.07125   0.07355   0.07651   0.07960   0.08202
 Alpha virt. eigenvalues --    0.08276   0.08405   0.08644   0.08725   0.08895
 Alpha virt. eigenvalues --    0.09650   0.09777   0.10004   0.10206   0.10521
 Alpha virt. eigenvalues --    0.10573   0.10977   0.11340   0.11392   0.11560
 Alpha virt. eigenvalues --    0.11659   0.11975   0.12105   0.12351   0.12562
 Alpha virt. eigenvalues --    0.12782   0.12860   0.13153   0.13336   0.13666
 Alpha virt. eigenvalues --    0.13680   0.14221   0.14374   0.14876   0.15069
 Alpha virt. eigenvalues --    0.15270   0.15616   0.16123   0.16391   0.16451
 Alpha virt. eigenvalues --    0.16719   0.17296   0.17503   0.17925   0.18253
 Alpha virt. eigenvalues --    0.18514   0.19037   0.19287   0.19344   0.19648
 Alpha virt. eigenvalues --    0.19919   0.20344   0.20578   0.20639   0.20824
 Alpha virt. eigenvalues --    0.21120   0.21618   0.21716   0.21924   0.22149
 Alpha virt. eigenvalues --    0.22322   0.22522   0.22571   0.22781   0.22970
 Alpha virt. eigenvalues --    0.23313   0.23630   0.23722   0.23893   0.24048
 Alpha virt. eigenvalues --    0.24123   0.24179   0.24451   0.24498   0.24777
 Alpha virt. eigenvalues --    0.24941   0.25190   0.25420   0.25753   0.25899
 Alpha virt. eigenvalues --    0.26205   0.26220   0.26542   0.26759   0.26862
 Alpha virt. eigenvalues --    0.27206   0.27422   0.27621   0.28290   0.28363
 Alpha virt. eigenvalues --    0.28437   0.28559   0.28788   0.29135   0.29285
 Alpha virt. eigenvalues --    0.29295   0.29657   0.29745   0.30039   0.30245
 Alpha virt. eigenvalues --    0.30639   0.31178   0.31367   0.31522   0.31937
 Alpha virt. eigenvalues --    0.32014   0.32169   0.32354   0.32472   0.33076
 Alpha virt. eigenvalues --    0.33248   0.33572   0.33727   0.33807   0.33888
 Alpha virt. eigenvalues --    0.34125   0.34396   0.34944   0.34970   0.34997
 Alpha virt. eigenvalues --    0.35265   0.35483   0.35842   0.35940   0.36139
 Alpha virt. eigenvalues --    0.36422   0.36534   0.36687   0.36735   0.37156
 Alpha virt. eigenvalues --    0.37563   0.37601   0.37765   0.37884   0.37920
 Alpha virt. eigenvalues --    0.38204   0.38580   0.38735   0.38912   0.39234
 Alpha virt. eigenvalues --    0.39277   0.39697   0.39832   0.40128   0.40257
 Alpha virt. eigenvalues --    0.40320   0.40350   0.40533   0.41009   0.41055
 Alpha virt. eigenvalues --    0.41663   0.41702   0.41908   0.42030   0.42160
 Alpha virt. eigenvalues --    0.42188   0.42388   0.42559   0.43031   0.43098
 Alpha virt. eigenvalues --    0.43219   0.43577   0.43802   0.43860   0.43923
 Alpha virt. eigenvalues --    0.44088   0.44235   0.44304   0.44335   0.44468
 Alpha virt. eigenvalues --    0.44530   0.44734   0.44844   0.45155   0.45275
 Alpha virt. eigenvalues --    0.45557   0.45692   0.45958   0.46036   0.46209
 Alpha virt. eigenvalues --    0.46535   0.46729   0.46927   0.47202   0.47284
 Alpha virt. eigenvalues --    0.47548   0.47788   0.47993   0.48008   0.48138
 Alpha virt. eigenvalues --    0.48479   0.48731   0.48852   0.49097   0.49221
 Alpha virt. eigenvalues --    0.49341   0.49448   0.49734   0.50019   0.50260
 Alpha virt. eigenvalues --    0.50613   0.50773   0.50826   0.51082   0.51246
 Alpha virt. eigenvalues --    0.51261   0.51315   0.51523   0.51979   0.52062
 Alpha virt. eigenvalues --    0.52372   0.52671   0.52740   0.53163   0.53619
 Alpha virt. eigenvalues --    0.53963   0.54025   0.54225   0.54512   0.54688
 Alpha virt. eigenvalues --    0.54936   0.55207   0.55712   0.55798   0.56350
 Alpha virt. eigenvalues --    0.56642   0.56697   0.57170   0.57651   0.57867
 Alpha virt. eigenvalues --    0.57971   0.58441   0.58931   0.59064   0.60241
 Alpha virt. eigenvalues --    0.60280   0.60905   0.61003   0.61244   0.61509
 Alpha virt. eigenvalues --    0.61622   0.62232   0.62318   0.62763   0.63002
 Alpha virt. eigenvalues --    0.63946   0.64220   0.64248   0.64523   0.64566
 Alpha virt. eigenvalues --    0.64904   0.65024   0.65127   0.65412   0.65751
 Alpha virt. eigenvalues --    0.66111   0.66342   0.66441   0.66797   0.67025
 Alpha virt. eigenvalues --    0.67354   0.67724   0.68230   0.68643   0.68683
 Alpha virt. eigenvalues --    0.68699   0.68793   0.68914   0.69284   0.69557
 Alpha virt. eigenvalues --    0.69906   0.70150   0.70347   0.70543   0.70859
 Alpha virt. eigenvalues --    0.71098   0.71314   0.71666   0.71812   0.72175
 Alpha virt. eigenvalues --    0.72494   0.72970   0.72980   0.73319   0.73510
 Alpha virt. eigenvalues --    0.73609   0.73776   0.74008   0.74148   0.74794
 Alpha virt. eigenvalues --    0.75022   0.75137   0.75607   0.75670   0.75847
 Alpha virt. eigenvalues --    0.75973   0.76593   0.76873   0.77217   0.77752
 Alpha virt. eigenvalues --    0.77847   0.78505   0.78578   0.78855   0.79230
 Alpha virt. eigenvalues --    0.79446   0.79574   0.79760   0.79892   0.80201
 Alpha virt. eigenvalues --    0.80458   0.80871   0.81079   0.81128   0.81294
 Alpha virt. eigenvalues --    0.81544   0.81770   0.82173   0.82377   0.82690
 Alpha virt. eigenvalues --    0.82841   0.83197   0.83575   0.83844   0.84293
 Alpha virt. eigenvalues --    0.84816   0.84878   0.85038   0.85406   0.85731
 Alpha virt. eigenvalues --    0.85782   0.85947   0.86819   0.86995   0.87734
 Alpha virt. eigenvalues --    0.87782   0.88310   0.88646   0.88881   0.88960
 Alpha virt. eigenvalues --    0.89430   0.90212   0.90378   0.90682   0.90928
 Alpha virt. eigenvalues --    0.91108   0.91509   0.92028   0.92068   0.92427
 Alpha virt. eigenvalues --    0.92650   0.93124   0.93377   0.93539   0.93942
 Alpha virt. eigenvalues --    0.94025   0.94117   0.94707   0.94805   0.94940
 Alpha virt. eigenvalues --    0.95451   0.96055   0.96757   0.96839   0.96873
 Alpha virt. eigenvalues --    0.96938   0.97479   0.97586   0.98224   0.98321
 Alpha virt. eigenvalues --    0.98912   0.99097   0.99603   0.99714   0.99863
 Alpha virt. eigenvalues --    1.00238   1.00984   1.01176   1.01619   1.02291
 Alpha virt. eigenvalues --    1.02400   1.02619   1.03162   1.03679   1.04094
 Alpha virt. eigenvalues --    1.04560   1.05117   1.05180   1.06166   1.06295
 Alpha virt. eigenvalues --    1.06569   1.06985   1.07226   1.08041   1.08555
 Alpha virt. eigenvalues --    1.09093   1.09539   1.09740   1.09816   1.10582
 Alpha virt. eigenvalues --    1.10943   1.11047   1.11227   1.11434   1.11706
 Alpha virt. eigenvalues --    1.12146   1.12686   1.12881   1.13047   1.13258
 Alpha virt. eigenvalues --    1.13757   1.13962   1.14229   1.14650   1.14824
 Alpha virt. eigenvalues --    1.15057   1.15611   1.16030   1.16353   1.16909
 Alpha virt. eigenvalues --    1.17375   1.17530   1.17774   1.18448   1.18593
 Alpha virt. eigenvalues --    1.18729   1.18962   1.19079   1.19719   1.19750
 Alpha virt. eigenvalues --    1.20253   1.20516   1.20627   1.21085   1.21205
 Alpha virt. eigenvalues --    1.21431   1.22129   1.22199   1.22609   1.23380
 Alpha virt. eigenvalues --    1.23529   1.23545   1.23780   1.24257   1.24866
 Alpha virt. eigenvalues --    1.24940   1.25470   1.25515   1.25982   1.26173
 Alpha virt. eigenvalues --    1.26621   1.26755   1.26815   1.26864   1.27307
 Alpha virt. eigenvalues --    1.27753   1.28055   1.28314   1.28698   1.28933
 Alpha virt. eigenvalues --    1.29198   1.29447   1.29510   1.30013   1.30397
 Alpha virt. eigenvalues --    1.30565   1.30792   1.31001   1.31241   1.31638
 Alpha virt. eigenvalues --    1.31843   1.32658   1.32734   1.32779   1.33508
 Alpha virt. eigenvalues --    1.33584   1.34060   1.34526   1.34759   1.34806
 Alpha virt. eigenvalues --    1.35589   1.35706   1.36368   1.36559   1.36799
 Alpha virt. eigenvalues --    1.37854   1.37947   1.38454   1.38485   1.39358
 Alpha virt. eigenvalues --    1.39405   1.39511   1.40168   1.40260   1.40522
 Alpha virt. eigenvalues --    1.41679   1.41892   1.42756   1.43529   1.43812
 Alpha virt. eigenvalues --    1.44109   1.44639   1.44877   1.45120   1.45406
 Alpha virt. eigenvalues --    1.46417   1.46569   1.46918   1.46932   1.47679
 Alpha virt. eigenvalues --    1.47999   1.48546   1.48665   1.49099   1.49559
 Alpha virt. eigenvalues --    1.49705   1.50123   1.50241   1.50868   1.51081
 Alpha virt. eigenvalues --    1.51218   1.51667   1.51794   1.52412   1.52566
 Alpha virt. eigenvalues --    1.52734   1.53481   1.53706   1.54339   1.54355
 Alpha virt. eigenvalues --    1.54718   1.54766   1.55525   1.55637   1.55790
 Alpha virt. eigenvalues --    1.56114   1.56909   1.57504   1.57706   1.58033
 Alpha virt. eigenvalues --    1.58195   1.58417   1.58764   1.59432   1.59645
 Alpha virt. eigenvalues --    1.59902   1.60267   1.60584   1.60897   1.61067
 Alpha virt. eigenvalues --    1.61726   1.61839   1.62172   1.62458   1.62654
 Alpha virt. eigenvalues --    1.62977   1.63487   1.63973   1.64084   1.64788
 Alpha virt. eigenvalues --    1.64949   1.65460   1.65527   1.65870   1.66363
 Alpha virt. eigenvalues --    1.67046   1.67081   1.67253   1.67681   1.67842
 Alpha virt. eigenvalues --    1.67957   1.68295   1.68633   1.69147   1.69229
 Alpha virt. eigenvalues --    1.69994   1.70125   1.70394   1.70425   1.70787
 Alpha virt. eigenvalues --    1.71134   1.71284   1.71808   1.72128   1.72469
 Alpha virt. eigenvalues --    1.72597   1.72800   1.73160   1.73308   1.73484
 Alpha virt. eigenvalues --    1.74074   1.74450   1.74647   1.75338   1.75399
 Alpha virt. eigenvalues --    1.75614   1.76228   1.76316   1.76447   1.77039
 Alpha virt. eigenvalues --    1.77431   1.77551   1.77965   1.77993   1.78554
 Alpha virt. eigenvalues --    1.78961   1.79298   1.79763   1.80026   1.80132
 Alpha virt. eigenvalues --    1.80489   1.80659   1.80986   1.81456   1.82306
 Alpha virt. eigenvalues --    1.82629   1.82703   1.83299   1.83604   1.84236
 Alpha virt. eigenvalues --    1.84777   1.84936   1.85469   1.85946   1.86117
 Alpha virt. eigenvalues --    1.86358   1.87087   1.87423   1.87650   1.87741
 Alpha virt. eigenvalues --    1.88283   1.88532   1.89100   1.89229   1.90147
 Alpha virt. eigenvalues --    1.90604   1.91086   1.91470   1.91856   1.92342
 Alpha virt. eigenvalues --    1.92502   1.93220   1.93683   1.94197   1.94223
 Alpha virt. eigenvalues --    1.94446   1.94566   1.94929   1.95193   1.95660
 Alpha virt. eigenvalues --    1.95731   1.96446   1.97291   1.97368   1.97811
 Alpha virt. eigenvalues --    1.98538   1.98786   1.98873   1.99062   1.99545
 Alpha virt. eigenvalues --    1.99899   2.00226   2.00527   2.00845   2.01781
 Alpha virt. eigenvalues --    2.01843   2.02137   2.02598   2.02761   2.03249
 Alpha virt. eigenvalues --    2.03604   2.03751   2.04666   2.04830   2.05537
 Alpha virt. eigenvalues --    2.05612   2.05865   2.06096   2.06736   2.07145
 Alpha virt. eigenvalues --    2.07249   2.07337   2.08385   2.09030   2.09174
 Alpha virt. eigenvalues --    2.09841   2.10036   2.10407   2.10690   2.11089
 Alpha virt. eigenvalues --    2.11257   2.11363   2.11521   2.11913   2.12366
 Alpha virt. eigenvalues --    2.12396   2.12814   2.12857   2.13578   2.13819
 Alpha virt. eigenvalues --    2.14393   2.14662   2.14828   2.15428   2.15650
 Alpha virt. eigenvalues --    2.15838   2.16208   2.16388   2.17048   2.17532
 Alpha virt. eigenvalues --    2.17720   2.17789   2.17853   2.18542   2.18674
 Alpha virt. eigenvalues --    2.18996   2.19699   2.20064   2.20307   2.20758
 Alpha virt. eigenvalues --    2.20952   2.21267   2.21860   2.22116   2.22176
 Alpha virt. eigenvalues --    2.22513   2.22617   2.23227   2.23479   2.23964
 Alpha virt. eigenvalues --    2.24107   2.24247   2.24915   2.25047   2.26131
 Alpha virt. eigenvalues --    2.26163   2.26427   2.26992   2.27859   2.28353
 Alpha virt. eigenvalues --    2.29329   2.29407   2.29909   2.30910   2.31218
 Alpha virt. eigenvalues --    2.31588   2.31877   2.31955   2.32390   2.33022
 Alpha virt. eigenvalues --    2.33393   2.33627   2.33812   2.34257   2.34904
 Alpha virt. eigenvalues --    2.35779   2.36916   2.37076   2.37604   2.37745
 Alpha virt. eigenvalues --    2.37795   2.38484   2.39077   2.39291   2.40261
 Alpha virt. eigenvalues --    2.40957   2.41154   2.41707   2.41734   2.42278
 Alpha virt. eigenvalues --    2.42618   2.42948   2.43171   2.43641   2.43837
 Alpha virt. eigenvalues --    2.44037   2.44729   2.45144   2.45321   2.45745
 Alpha virt. eigenvalues --    2.45880   2.46567   2.47277   2.48049   2.48117
 Alpha virt. eigenvalues --    2.48677   2.48839   2.49253   2.49660   2.50318
 Alpha virt. eigenvalues --    2.50785   2.50930   2.51574   2.51811   2.51960
 Alpha virt. eigenvalues --    2.52089   2.52886   2.52974   2.53031   2.53720
 Alpha virt. eigenvalues --    2.53881   2.54149   2.54615   2.54685   2.55735
 Alpha virt. eigenvalues --    2.56281   2.56564   2.56609   2.56995   2.57339
 Alpha virt. eigenvalues --    2.57579   2.57928   2.58078   2.58770   2.58833
 Alpha virt. eigenvalues --    2.59336   2.59469   2.60185   2.60244   2.60404
 Alpha virt. eigenvalues --    2.61075   2.61560   2.62151   2.62199   2.62406
 Alpha virt. eigenvalues --    2.62732   2.63484   2.63669   2.63781   2.64224
 Alpha virt. eigenvalues --    2.64563   2.64754   2.64884   2.65306   2.65585
 Alpha virt. eigenvalues --    2.65649   2.65837   2.66147   2.66331   2.66383
[...]
                                                    1527(v),1226(r),947(r)
                                                    955(r),1499(v),239(v),377(r)
                                                    212(g),269(r),1489(v),711(r)
                                                    1225(r),214(g),567(r)
                                                    1492(v),253(v),714(r)
                                                    1055(r),900(v),267(r),439(r)
                                                    1259(r),1543(v),345(r)
                                                    740(r),1127(r),1053(r)
                                                    210(g),661(r),414(v),949(r)
                                                    592(v),591(v),208(g),441(r)
                                                    717(r),446(r),854(r),464(r)
                                                    413(v),543(r),739(r),935(r)
                                                    975(r),226(g),1565(r)
                                                    1121(r),1227(r),191(g)
                                                    1608(v),193(g),280(r),896(v)
                                                    371(r),908(v),541(r)
  1586. BD*(   1)Pd   1 - P  33          0.17475     0.60381  1585(g),188(g),196(g),205(g)
                                                    893(g),201(g),211(v),206(g)
                                                    195(g),192(g),200(g),922(v)
                                                    1522(v),240(r),904(g),901(g)
                                                    219(v),1494(v),222(v)
                                                    1588(g),395(r),1493(v)
                                                    190(g),1087(r),1521(v)
                                                    924(v),242(r),411(r),869(v)
                                                    1496(v),1093(v),898(g)
                                                    583(r),207(g),194(g),412(r)
                                                    1525(v),1094(v),867(v)
                                                    216(v),608(r),245(r),927(v)
                                                    217(v),576(r),1248(r)
                                                    1497(v),905(g),581(r),902(g)
                                                    223(v),203(g),899(g),220(v)
                                                    266(r),842(r),895(g),199(g)
                                                    868(v),410(r),1489(v)
                                                    1052(r),932(v),948(r)
                                                    1490(v),544(r),870(v),582(r)
                                                    738(r),923(v),951(r),370(r)
                                                    250(r),925(v),1092(v),189(g)
                                                    712(r),215(v),897(g),241(r)
                                                    243(r),1122(r),212(v),372(r)
                                                    1484(r),193(g),1491(v)
                                                    950(r),373(r),931(v),1663(r)
                                                    213(v),584(r),1667(r)
                                                    1226(r),896(g),224(v),906(g)
                                                    947(r),1661(r),1263(r)
                                                    1527(v),249(r),239(r)
                                                    1651(v),1224(r),218(v)
                                                    873(v),440(r),438(r),1520(v)
                                                    921(v),1669(r),955(r)
                                                    1055(r),377(r),1492(v)
                                                    587(r),1517(v),369(r),439(r)
                                                    900(g),737(r),197(g),619(r)
                                                    894(g),854(r),1259(r)
                                                    1499(v),935(v),371(r),208(g)
                                                    975(r),1232(r),714(r),269(r)
                                                    1053(r),345(r),567(r),740(r)
                                                    878(v),661(r),1225(r),267(r)
                                                    743(r),253(r),1227(r)
                                                    1096(v),543(r),713(r)
                                                    1550(r),441(r),226(v)
                                                    1127(r),1198(r),1121(r)
                                                    1095(v),908(g),210(g)
                                                    1664(v),1119(r)
  1587. BD*(   1)Pd   1 -Cl  72          0.18598     0.19290  1588(g),1585(g),211(v)
                                                    201(g),205(g),206(g),893(v)
                                                    1590(v),1494(g),1591(v)
                                                    192(g),197(g),240(r),222(v)
                                                    922(r),188(g),195(g),901(v)
                                                    200(g),219(v),196(g),904(v)
                                                    1522(v),1596(r),216(v)
                                                    199(g),1619(r),581(r),194(g)
                                                    1496(g),1491(g),190(g)
                                                    210(g),242(r),1521(v)
                                                    1493(g),411(r),1094(r)
                                                    1093(r),1518(v),1489(g)
                                                    583(r)
  1588. BD*(   1)Pd   1 -Cl  73          0.18621     0.19315  1587(g),1586(g),893(v)
                                                    201(g),205(g),206(g),211(v)
                                                    1649(v),1522(g),1647(v)
                                                    192(g),922(r),904(v),196(g)
                                                    197(g),200(g),240(r),188(g)
                                                    195(g),219(v),901(v),222(v)
                                                    1494(v),1663(r),898(v)
                                                    1669(r),867(r),194(g),210(g)
                                                    199(g),190(g),1519(g)
                                                    1493(v),924(r),1521(g)
                                                    1093(r),412(r),1496(v)
                                                    411(r),1490(v),869(r)
                                                    1517(g)
  1589. BD*(   1) P   2 - C   3          0.06774     0.21637   
  1590. BD*(   1) P   2 - C  12          0.06999     0.21306   
  1591. BD*(   1) P   2 - C  21          0.07849     0.20331   
  1592. BD*(   1) C   3 - C   4          0.02369     0.51729   
  1593. BD*(   2) C   3 - C   4          0.36229     0.02058  1598(v),1603(v),1635(r)
                                                    266(g),1590(v),1622(r)
                                                    1591(v)
  1594. BD*(   1) C   3 - C   8          0.02737     0.51674   
  1595. BD*(   1) C   4 - C   5          0.01554     0.54096   
  1596. BD*(   1) C   4 - H  11          0.01577     0.42678   
  1597. BD*(   1) C   5 - C   6          0.01442     0.52962   
  1598. BD*(   2) C   5 - C   6          0.32232     0.02073  1593(v),1603(v),293(g)
                                                    319(g)
  1599. BD*(   1) C   5 - H  76          0.01328     0.40120   
  1600. BD*(   1) C   6 - C   7          0.01474     0.52879   
  1601. BD*(   1) C   6 - H  10          0.01297     0.39748   
  1602. BD*(   1) C   7 - C   8          0.01585     0.53512   
  1603. BD*(   2) C   7 - C   8          0.32003     0.02229  1598(v),1593(v),345(g)
                                                    1607(r)
  1604. BD*(   1) C   7 - H  77          0.01386     0.39337   
  1605. BD*(   1) C   8 - H   9          0.01512     0.41333   
  1606. BD*(   1) C  12 - C  13          0.02631     0.52587   
  1607. BD*(   2) C  12 - C  13          0.37188     0.02196  1612(v),1617(v),1591(v)
                                                    438(g),437(g),1603(r),413(g)
  1608. BD*(   1) C  12 - C  17          0.02355     0.51975   
  1609. BD*(   1) C  13 - C  14          0.01513     0.53836   
  1610. BD*(   1) C  13 - H  20          0.01610     0.40774   
  1611. BD*(   1) C  14 - C  15          0.01439     0.53647   
  1612. BD*(   2) C  14 - C  15          0.32284     0.02556  1607(v),1617(v),490(g)
                                                    464(g)
  1613. BD*(   1) C  14 - H  74          0.01334     0.40172   
  1614. BD*(   1) C  15 - C  16          0.01450     0.53573   
  1615. BD*(   1) C  15 - H  19          0.01291     0.40444   
  1616. BD*(   1) C  16 - C  17          0.01619     0.54977   
  1617. BD*(   2) C  16 - C  17          0.29949     0.03333  1612(v),1607(v),516(g)
  1618. BD*(   1) C  16 - H  75          0.01341     0.40565   
  1619. BD*(   1) C  17 - H  18          0.01413     0.43600   
  1620. BD*(   1) C  21 - C  22          0.02179     0.51412   
  1621. BD*(   1) C  21 - C  26          0.03208     0.51070   
  1622. BD*(   2) C  21 - C  26          0.40238     0.01692  1624(v),1629(v),1635(v)
                                                    1652(r),1654(r),1589(v)
                                                    1634(v),1636(v),1593(r)
                                                    608(v),713(g),712(g),583(g)
  1623. BD*(   1) C  22 - C  23          0.01514     0.53795   
  1624. BD*(   2) C  22 - C  23          0.32444     0.02010  1622(v),1629(v),635(g)
                                                    608(g),1652(r)
  1625. BD*(   1) C  22 - H  71          0.01588     0.41047   
  1626. BD*(   1) C  23 - C  24          0.01279     0.53369   
  1627. BD*(   1) C  23 - H  70          0.01336     0.39373   
  1628. BD*(   1) C  24 - C  25          0.03141     0.51022   
  1629. BD*(   2) C  24 - C  25          0.36751     0.01243  1622(v),1624(v),661(g)
                                                    1654(r),1689(v)
  1630. BD*(   1) C  24 - H  69          0.01467     0.38537   
  1631. BD*(   1) C  25 - C  26          0.03897     0.48942   
  1632. BD*(   1) C  25 - O  67          0.03098     0.33219   
  1633. BD*(   1) C  26 - C  27          0.02918     0.42013   
  1634. BD*(   1) C  27 - C  28          0.03900     0.48954   
  1635. BD*(   2) C  27 - C  28          0.39001     0.01605  1645(v),1640(v),1622(v)
                                                    1593(r),1631(v),1621(v)
                                                    791(v)
  1636. BD*(   1) C  27 - C  32          0.03210     0.51090   
  1637. BD*(   1) C  28 - C  29          0.03141     0.51022   
  1638. BD*(   1) C  28 - O  55          0.03103     0.33177   
  1639. BD*(   1) C  29 - C  30          0.01278     0.53354   
  1640. BD*(   2) C  29 - C  30          0.35062     0.01315  1645(v),1635(v),817(g)
                                                    791(g)
  1641. BD*(   1) C  29 - H  54          0.01468     0.38530   
  1642. BD*(   1) C  30 - C  31          0.01513     0.53787   
  1643. BD*(   1) C  30 - H  53          0.01335     0.39372   
  1644. BD*(   1) C  31 - C  32          0.02187     0.51428   
  1645. BD*(   2) C  31 - C  32          0.38683     0.01428  1640(v),1635(v),842(g)
                                                    1648(v),1652(r)
  1646. BD*(   1) C  31 - H  52          0.01590     0.41045   
  1647. BD*(   1) C  32 - P  33          0.07878     0.20340   
  1648. BD*(   1) P  33 - C  34          0.06766     0.21642   
  1649. BD*(   1) P  33 - C  43          0.06993     0.21326   
  1650. BD*(   1) C  34 - C  35          0.02740     0.51621   
  1651. BD*(   1) C  34 - C  39          0.02371     0.51739   
  1652. BD*(   2) C  34 - C  39          0.36217     0.02051  1659(v),1654(v),1622(r)
                                                    1052(g),1649(v),1645(r)
                                                    1624(r),1647(v)
  1653. BD*(   1) C  35 - C  36          0.01585     0.53502   
  1654. BD*(   2) C  35 - C  36          0.31969     0.02215  1659(v),1652(v),1666(r)
                                                    975(g),1622(r),1629(r)
  1655. BD*(   1) C  35 - H  42          0.01507     0.41283   
  1656. BD*(   1) C  36 - C  37          0.01475     0.52858   
  1657. BD*(   1) C  36 - H  80          0.01386     0.39322   
  1658. BD*(   1) C  37 - C  38          0.01443     0.52952   
  1659. BD*(   2) C  37 - C  38          0.32220     0.02059  1652(v),1654(v),1027(g)
                                                    1001(g)
  1660. BD*(   1) C  37 - H  41          0.01297     0.39734   
  1661. BD*(   1) C  38 - C  39          0.01556     0.54091   
  1662. BD*(   1) C  38 - H  81          0.01328     0.40099   
  1663. BD*(   1) C  39 - H  40          0.01560     0.42696   
  1664. BD*(   1) C  43 - C  44          0.02352     0.51957   
  1665. BD*(   1) C  43 - C  48          0.02633     0.52619   
  1666. BD*(   2) C  43 - C  48          0.37155     0.02210  1673(v),1668(v),1654(r)
                                                    1647(v),1224(g),1223(g)
                                                    1095(g)
  1667. BD*(   1) C  44 - C  45          0.01619     0.54989   
  1668. BD*(   2) C  44 - C  45          0.29942     0.03333  1673(v),1666(v),1146(g)
  1669. BD*(   1) C  44 - H  51          0.01413     0.43579   
  1670. BD*(   1) C  45 - C  46          0.01449     0.53569   
  1671. BD*(   1) C  45 - H  78          0.01341     0.40564   
  1672. BD*(   1) C  46 - C  47          0.01438     0.53656   
  1673. BD*(   2) C  46 - C  47          0.32257     0.02562  1666(v),1668(v),1172(g)
                                                    1198(g)
  1674. BD*(   1) C  46 - H  50          0.01290     0.40448   
  1675. BD*(   1) C  47 - C  48          0.01513     0.53831   
  1676. BD*(   1) C  47 - H  79          0.01333     0.40177   
  1677. BD*(   1) C  48 - H  49          0.01612     0.40782   
  1678. BD*(   1) O  55 - C  56          0.02802     0.25345   
  1679. BD*(   1) C  56 - H  57          0.01934     0.32719   
  1680. BD*(   1) C  56 - H  58          0.02591     0.32223   
  1681. BD*(   1) C  56 - C  59          0.02386     0.32564   
  1682. BD*(   1) C  59 - H  60          0.00927     0.33783   
  1683. BD*(   1) C  59 - H  61          0.01522     0.34146   
  1684. BD*(   1) C  59 - C  62          0.01638     0.31664   
  1685. BD*(   1) C  62 - H  63          0.00928     0.33783   
  1686. BD*(   1) C  62 - H  64          0.01521     0.34144   
  1687. BD*(   1) C  62 - C  65          0.02382     0.32571   
  1688. BD*(   1) C  65 - H  66          0.01936     0.32715   
  1689. BD*(   1) C  65 - O  67          0.02799     0.25355   
  1690. BD*(   1) C  65 - H  68          0.02589     0.32234   
       -------------------------------
              Total Lewis  390.34659  ( 97.5866%)
        Valence non-Lewis    8.94199  (  2.2355%)
        Rydberg non-Lewis    0.71142  (  0.1779%)
       -------------------------------
            Total unit  1  400.00000  (100.0000%)
           Charge unit  1    0.00000
 1\1\GINC-NOTCH075\SP\RPBE1PBE\Gen\C40H34Cl2O2P2Pd1\U1010977\01-Nov-202
 1\0\\# PBE1PBE gen pseudo=read int=(grid=ultrafine) empiricaldispersio
 n=GD3BJ pop=nbo guess=read geom=check\\title\\0,1\Pd,0,-2.2712541304,0
 .0096262486,0.0011289013\P,0,-0.7155233465,1.6868614779,-0.0169775876\
 C,0,-0.0515713246,2.1557307033,-1.6543209942\C,0,-0.8618341142,1.92605
 38647,-2.7831894463\C,0,-0.3972420749,2.2886485355,-4.0536463859\C,0,0
 .8682866576,2.8761235261,-4.2020226534\C,0,1.6719655806,3.1088359536,-
 3.0763864003\C,0,1.2148866102,2.7530024858,-1.8012045522\H,0,1.8564723
 141,2.9010457122,-0.9275110057\H,0,1.2300536905,3.1515750623,-5.198259
 7527\H,0,-1.8531037223,1.4787174451,-2.6469189093\C,0,-1.3495241961,3.
 2386981778,0.7340331516\C,0,-0.8440376004,4.4930113713,0.3499283968\C,
 0,-1.2847079359,5.6535111937,1.001618869\C,0,-2.2210803227,5.566132389
 3,2.0404106424\C,0,-2.7277633133,4.3148083079,2.4232899493\C,0,-2.3026
 399027,3.1535379791,1.7682846757\H,0,-2.7240020872,2.1796197845,2.0360
 347988\H,0,-2.565599035,6.4745376026,2.5453264851\H,0,-0.1185331503,4.
 5671596083,-0.4656717082\C,0,0.7473303573,1.298876957,1.0513920379\C,0
 ,0.8576551555,1.9255387764,2.3096196591\C,0,1.9120779994,1.6006601334,
 3.1678798177\C,0,2.8708400284,0.6514758584,2.7984111218\C,0,2.76338130
 9,0.0177141487,1.5525613879\C,0,1.7026517396,0.3308815806,0.6644038041
 \C,0,1.7022299115,-0.3499386261,-0.6624388956\C,0,2.7721913037,-0.0523
 14348,-1.5447105115\C,0,2.87873504,-0.6900041937,-2.7886410269\C,0,1.9
 093608919,-1.6267077567,-3.1625374074\C,0,0.8457381132,-1.9362209647,-
 2.3099353755\C,0,0.7371564896,-1.3065572748,-1.0531644389\P,0,-0.72939
 27697,-1.6800671883,0.0150792462\C,0,-0.0633086215,-2.154805415,1.6498
 418597\C,0,1.1881844405,-2.7850922961,1.7884540575\C,0,1.6498533226,-3
 .1414765234,3.0617583872\C,0,0.8662755704,-2.8751129553,4.1941347115\C
 ,0,-0.3839487865,-2.2538484963,4.0543437523\C,0,-0.853365985,-1.891728
 3908,2.7855543213\H,0,-1.8327883997,-1.4173747988,2.6562024616\H,0,1.2
 319325282,-3.1506971316,5.1889104748\H,0,1.8156916232,-2.9580387046,0.
 9090555948\C,0,-1.381172949,-3.223146923,-0.7382922702\C,0,-2.32705834
 7,-3.1219220237,-1.7777752121\C,0,-2.7675956479,-4.2755755722,-2.43583
 97173\C,0,-2.2838659079,-5.5352668317,-2.0505179478\C,0,-1.3553148812,
 -5.6384614777,-1.0062245965\C,0,-0.8989711792,-4.4856268648,-0.3515733
 759\H,0,-0.1801656929,-4.5721512957,0.4686945672\H,0,-2.6405466912,-6.
 4376899503,-2.5577035542\H,0,-2.730784369,-2.1408715328,-2.0469259055\
 H,0,0.1024276911,-2.6744772277,-2.6172598301\H,0,1.9843296171,-2.12123
 5748,-4.1362971965\H,0,3.6961101171,-0.4491976445,-3.4728926031\O,0,3.
 6243391799,0.9379357703,-1.1147104036\C,0,4.999686816,0.9053173391,-1.
 522468204\H,0,5.3699990213,1.918535467,-1.2907739226\H,0,5.093343582,0
 .7610561786,-2.6146659581\C,0,5.8017420497,-0.1474909724,-0.7541780138
 \H,0,6.835392928,-0.1229499821,-1.1452336012\H,0,5.3973797056,-1.14684
 8982,-1.0014458077\C,0,5.7994625527,0.0679926045,0.7805448273\H,0,6.83
 0507629,0.0273816483,1.1770865184\H,0,5.4091296245,1.0733438204,1.0260
 661932\C,0,4.9766198785,-0.9724939804,1.5434771259\H,0,5.3327910134,-1
 .9912705228,1.3139203843\O,0,3.6040466861,-0.9832624654,1.1257156419\H
 ,0,5.0649826764,-0.8300775148,2.6363124575\H,0,3.6802917558,0.39815171
 42,3.4875362705\H,0,1.9877397815,2.0925930886,4.1428998966\H,0,0.12216
 81501,2.6726567254,2.6143197622\Cl,0,-3.9187438574,1.6150438183,-0.625
 6691122\Cl,0,-3.9262821877,-1.5856720629,0.6332823045\H,0,-0.897276283
 3,6.629057106,0.6897888171\H,0,-3.47366032,4.2423114127,3.2211183122\H
 ,0,-1.026453758,2.1088166172,-4.931269032\H,0,2.6635107067,3.559948917
 ,-3.1896618291\H,0,-3.5076977985,-4.1904839719,-3.2378052158\H,0,-0.98
 63086386,-6.6204410078,-0.6922588025\H,0,2.6296650971,-3.6190547359,3.
 1683734696\H,0,-0.9972976089,-2.0472727568,4.9372840498\\Version=ES64L
 -G16RevB.01\State=1-A\HF=-3424.5212046\RMSD=3.210e-09\Dipole=5.8989707
 ,-0.0299237,0.0020606\Quadrupole=-17.3006462,3.5439769,13.7566693,-0.0
 72809,0.1669771,5.7373021\PG=C01 [X(C40H34Cl2O2P2Pd1)]\\@


 JUST WHEN YOU THINK YOU'VE GOT THE WORLD ON A STRING,
 YOU FIND OUT IT'S YOUR LEASH.
 Job cpu time:       0 days  2 hours  4 minutes 18.0 seconds.
 Elapsed time:       0 days  0 hours  3 minutes 54.6 seconds.
 File lengths (MBytes):  RWF=   1458 Int=      0 D2E=      0 Chk=    220 Scr=      1
 Normal termination of Gaussian 16 at Mon Nov  1 20:06:34 2021.
