 Entering Gaussian System, Link 0=/uufs/chpc.utah.edu/sys/installdir/gaussian16/B01/E6B/g16/g16
 Input=R-C4-Tunephos_1_SPE_NoPd.com
 Output=R-C4-Tunephos_1_SPE_NoPd.log
 Initial command:
 /uufs/chpc.utah.edu/sys/installdir/gaussian16/B01/E6B/g16/l1.exe "/scratch/general/lustre/u1010977/3354025/notchpeak.peaks/Gau-124235.inp" -scrdir="/scratch/general/lustre/u1010977/3354025/notchpeak.peaks/"
 Entering Link 1 = /uufs/chpc.utah.edu/sys/installdir/gaussian16/B01/E6B/g16/l1.exe PID=    124237.
  
 Copyright (c) 1988-2017, Gaussian, Inc.  All Rights Reserved.
  
 This is part of the Gaussian(R) 16 program.  It is based on
 the Gaussian(R) 09 system (copyright 2009, Gaussian, Inc.),
 the Gaussian(R) 03 system (copyright 2003, Gaussian, Inc.),
 the Gaussian(R) 98 system (copyright 1998, Gaussian, Inc.),
 the Gaussian(R) 94 system (copyright 1995, Gaussian, Inc.),
 the Gaussian 92(TM) system (copyright 1992, Gaussian, Inc.),
 the Gaussian 90(TM) system (copyright 1990, Gaussian, Inc.),
 the Gaussian 88(TM) system (copyright 1988, Gaussian, Inc.),
 the Gaussian 86(TM) system (copyright 1986, Carnegie Mellon
 University), and the Gaussian 82(TM) system (copyright 1983,
 Carnegie Mellon University). Gaussian is a federally registered
 trademark of Gaussian, Inc.
  
 This software contains proprietary and confidential information,
 including trade secrets, belonging to Gaussian, Inc.
  
 This software is provided under written license and may be
 used, copied, transmitted, or stored only in accord with that
 written license.
  
 The following legend is applicable only to US Government
 contracts under FAR:
  
                    RESTRICTED RIGHTS LEGEND
  
 Use, reproduction and disclosure by the US Government is
 subject to restrictions as set forth in subparagraphs (a)
 and (c) of the Commercial Computer Software - Restricted
 Rights clause in FAR 52.227-19.
  
 Gaussian, Inc.
 340 Quinnipiac St., Bldg. 40, Wallingford CT 06492
  
  
 ---------------------------------------------------------------
 Warning -- This program may not be used in any manner that
 competes with the business of Gaussian, Inc. or will provide
 assistance to any competitor of Gaussian, Inc.  The licensee
 of this program is prohibited from giving any competitor of
 Gaussian, Inc. access to this program.  By using this program,
 the user acknowledges that Gaussian, Inc. is engaged in the
 business of creating and licensing software in the field of
 computational chemistry and represents and warrants to the
 licensee that it is not a competitor of Gaussian, Inc. and that
 it will not use this program in any manner prohibited above.
 ---------------------------------------------------------------
  

 Cite this work as:
 Gaussian 16, Revision B.01,
 M. J. Frisch, G. W. Trucks, H. B. Schlegel, G. E. Scuseria, 
 M. A. Robb, J. R. Cheeseman, G. Scalmani, V. Barone, 
 G. A. Petersson, H. Nakatsuji, X. Li, M. Caricato, A. V. Marenich, 
 J. Bloino, B. G. Janesko, R. Gomperts, B. Mennucci, H. P. Hratchian, 
 J. V. Ortiz, A. F. Izmaylov, J. L. Sonnenberg, D. Williams-Young, 
 F. Ding, F. Lipparini, F. Egidi, J. Goings, B. Peng, A. Petrone, 
 T. Henderson, D. Ranasinghe, V. G. Zakrzewski, J. Gao, N. Rega, 
 G. Zheng, W. Liang, M. Hada, M. Ehara, K. Toyota, R. Fukuda, 
 J. Hasegawa, M. Ishida, T. Nakajima, Y. Honda, O. Kitao, H. Nakai, 
 T. Vreven, K. Throssell, J. A. Montgomery, Jr., J. E. Peralta, 
 F. Ogliaro, M. J. Bearpark, J. J. Heyd, E. N. Brothers, K. N. Kudin, 
 V. N. Staroverov, T. A. Keith, R. Kobayashi, J. Normand, 
 K. Raghavachari, A. P. Rendell, J. C. Burant, S. S. Iyengar, 
 J. Tomasi, M. Cossi, J. M. Millam, M. Klene, C. Adamo, R. Cammi, 
 J. W. Ochterski, R. L. Martin, K. Morokuma, O. Farkas, 
 J. B. Foresman, and D. J. Fox, Gaussian, Inc., Wallingford CT, 2016.
 
 ******************************************
 Gaussian 16:  ES64L-G16RevB.01 20-Dec-2017
                 1-Nov-2021 
 ******************************************
 %NProcShared=32
 Will use up to   32 processors via shared memory.
 %mem=18GB
 %chk=R-C4-Tunephos_1_SPE_NoPd.chk
 ----------------------------------------------------------------------
 # PBE1PBE/def2TZVP int=(grid=ultrafine) empiricaldispersion=GD3BJ nmr=
 giao
 ----------------------------------------------------------------------
 1/38=1,172=1/1;
 2/12=2,17=6,18=5,40=1/2;
 3/5=44,7=101,11=2,25=1,30=1,74=-13,75=-5,124=41/1,2,3,8;
 4//1;
 5/5=2,38=5/2;
 8/6=1,10=90,11=11/1;
 10/13=100,45=16/2;
 6/7=2,8=2,9=2,10=2,28=1/1;
 99/9=1/99;
 -----
 title
 -----
 Symbolic Z-matrix:
 Charge =  0 Multiplicity = 1
 P                    -0.71552   1.68686  -0.01698 
 C                    -0.05157   2.15573  -1.65432 
 C                    -0.86183   1.92605  -2.78319 
 C                    -0.39724   2.28865  -4.05365 
 C                     0.86829   2.87612  -4.20202 
 C                     1.67197   3.10884  -3.07639 
 C                     1.21489   2.753    -1.8012 
 H                     1.85647   2.90105  -0.92751 
 H                     1.23005   3.15158  -5.19826 
 H                    -1.8531    1.47872  -2.64692 
 C                    -1.34952   3.2387    0.73403 
 C                    -0.84404   4.49301   0.34993 
 C                    -1.28471   5.65351   1.00162 
 C                    -2.22108   5.56613   2.04041 
 C                    -2.72776   4.31481   2.42329 
 C                    -2.30264   3.15354   1.76828 
 H                    -2.724     2.17962   2.03603 
 H                    -2.5656    6.47454   2.54533 
 H                    -0.11853   4.56716  -0.46567 
 C                     0.74733   1.29888   1.05139 
 C                     0.85766   1.92554   2.30962 
 C                     1.91208   1.60066   3.16788 
 C                     2.87084   0.65148   2.79841 
 C                     2.76338   0.01771   1.55256 
 C                     1.70265   0.33088   0.6644 
 C                     1.70223  -0.34994  -0.66244 
 C                     2.77219  -0.05231  -1.54471 
 C                     2.87874  -0.69     -2.78864 
 C                     1.90936  -1.62671  -3.16254 
 C                     0.84574  -1.93622  -2.30994 
 C                     0.73716  -1.30656  -1.05316 
 P                    -0.72939  -1.68007   0.01508 
 C                    -0.06331  -2.15481   1.64984 
 C                     1.18818  -2.78509   1.78845 
 C                     1.64985  -3.14148   3.06176 
 C                     0.86628  -2.87511   4.19413 
 C                    -0.38395  -2.25385   4.05434 
 C                    -0.85337  -1.89173   2.78555 
 H                    -1.83279  -1.41737   2.6562 
 H                     1.23193  -3.1507    5.18891 
 H                     1.81569  -2.95804   0.90906 
 C                    -1.38117  -3.22315  -0.73829 
 C                    -2.32706  -3.12192  -1.77778 
 C                    -2.7676   -4.27558  -2.43584 
 C                    -2.28387  -5.53527  -2.05052 
 C                    -1.35531  -5.63846  -1.00622 
 C                    -0.89897  -4.48563  -0.35157 
 H                    -0.18017  -4.57215   0.46869 
 H                    -2.64055  -6.43769  -2.5577 
 H                    -2.73078  -2.14087  -2.04693 
 H                     0.10243  -2.67448  -2.61726 
 H                     1.98433  -2.12124  -4.1363 
 H                     3.69611  -0.4492   -3.47289 
 O                     3.62434   0.93794  -1.11471 
 C                     4.99969   0.90532  -1.52247 
 H                     5.37      1.91854  -1.29077 
 H                     5.09334   0.76106  -2.61467 
 C                     5.80174  -0.14749  -0.75418 
 H                     6.83539  -0.12295  -1.14523 
 H                     5.39738  -1.14685  -1.00145 
 C                     5.79946   0.06799   0.78054 
 H                     6.83051   0.02738   1.17709 
 H                     5.40913   1.07334   1.02607 
 C                     4.97662  -0.97249   1.54348 
 H                     5.33279  -1.99127   1.31392 
 O                     3.60405  -0.98326   1.12572 
 H                     5.06498  -0.83008   2.63631 
 H                     3.68029   0.39815   3.48754 
 H                     1.98774   2.09259   4.1429 
 H                     0.12217   2.67266   2.61432 
 H                    -0.89728   6.62906   0.68979 
 H                    -3.47366   4.24231   3.22112 
 H                    -1.02645   2.10882  -4.93127 
 H                     2.66351   3.55995  -3.18966 
 H                    -3.5077   -4.19048  -3.23781 
 H                    -0.98631  -6.62044  -0.69226 
 H                     2.62967  -3.61905   3.16837 
 H                    -0.9973   -2.04727   4.93728 
 
 Stoichiometry    C40H34O2P2
 Framework group  C1[X(C40H34O2P2)]
 Deg. of freedom   228
 Full point group                 C1      NOp   1
 Largest Abelian subgroup         C1      NOp   1
 Largest concise Abelian subgroup C1      NOp   1
                         Standard orientation:                         
 ---------------------------------------------------------------------
 Center     Atomic      Atomic             Coordinates (Angstroms)
 Number     Number       Type             X           Y           Z
 ---------------------------------------------------------------------
      1         15           0        1.690215   -1.456799    0.058210
      2          6           0        2.088390   -0.827641    1.727695
      3          6           0        1.811719   -1.661653    2.828376
      4          6           0        2.119511   -1.224047    4.122651
      5          6           0        2.698901    0.038102    4.322624
      6          6           0        2.978474    0.865464    3.225161
      7          6           0        2.677631    0.435471    1.926614
      8          1           0        2.862058    1.095432    1.073779
      9          1           0        2.931389    0.378708    5.337106
     10          1           0        1.371556   -2.649850    2.652259
     11          6           0        3.273203   -2.074621   -0.639369
     12          6           0        4.509553   -1.577282   -0.191655
     13          6           0        5.697145   -2.003953   -0.802579
     14          6           0        5.654933   -2.918118   -1.863728
     15          6           0        4.421519   -3.416680   -2.310115
     16          6           0        3.233032   -3.005622   -1.696243
     17          1           0        2.271793   -3.421298   -2.014027
     18          1           0        6.584324   -3.251790   -2.336729
     19          1           0        4.548242   -0.869211    0.641529
     20          6           0        1.346570    0.028326   -0.994500
     21          6           0        2.026054    0.165330   -2.222321
     22          6           0        1.736926    1.237670   -3.071118
     23          6           0        0.771949    2.188313   -2.722147
     24          6           0        0.085894    2.054436   -1.506932
     25          6           0        0.362057    0.975156   -0.628903
     26          6           0       -0.374563    0.946572    0.667478
     27          6           0       -0.115772    1.997629    1.584052
     28          6           0       -0.805880    2.077747    2.801711
     29          6           0       -1.756681    1.100593    3.114835
     30          6           0       -2.028617    0.055244    2.227526
     31          6           0       -1.345980   -0.026640    0.996656
     32         15           0       -1.672290   -1.470262   -0.117300
     33          6           0       -2.077746   -0.769737   -1.756313
     34          6           0       -2.702799    0.484359   -1.895093
     35          6           0       -3.005175    0.972868   -3.172348
     36          6           0       -2.690135    0.213475   -4.308698
     37          6           0       -2.074147   -1.039380   -4.169098
     38          6           0       -1.765841   -1.535538   -2.896272
     39          1           0       -1.296454   -2.517442   -2.767617
     40          1           0       -2.923532    0.600099   -5.306334
     41          1           0       -2.913596    1.093083   -1.010765
     42          6           0       -3.245366   -2.137981    0.555802
     43          6           0       -3.187500   -3.105665    1.578402
     44          6           0       -4.367657   -3.560138    2.177336
     45          6           0       -5.610301   -3.068458    1.749111
     46          6           0       -5.669913   -2.118002    0.721256
     47          6           0       -4.490735   -1.647799    0.126030
     48          1           0       -4.543010   -0.911787   -0.681782
     49          1           0       -6.533122   -3.435876    2.209796
     50          1           0       -2.218385   -3.514921    1.880430
     51          1           0       -2.778542   -0.694470    2.487377
     52          1           0       -2.292239    1.154877    4.068050
     53          1           0       -0.595189    2.880464    3.512728
     54          8           0        0.891027    2.858776    1.214684
     55          6           0        0.839749    4.225175    1.649697
     56          1           0        1.861538    4.600395    1.469192
     57          1           0        0.649088    4.295663    2.736508
     58          6           0       -0.180228    5.043238    0.854470
     59          1           0       -0.173352    6.068375    1.268000
     60          1           0       -1.188798    4.633647    1.050399
     61          6           0        0.100318    5.073486   -0.669404
     62          1           0        0.075590    6.112697   -1.045408
     63          1           0        1.115582    4.688524   -0.880150
     64          6           0       -0.905980    4.266904   -1.493139
     65          1           0       -1.933945    4.618049   -1.299633
     66          8           0       -0.933152    2.885789   -1.105351
     67          1           0       -0.717313    4.378408   -2.576814
     68          1           0        0.547359    3.012160   -3.404140
     69          1           0        2.269796    1.334009   -4.022514
     70          1           0        2.786175   -0.563476   -2.510465
     71          1           0        6.658168   -1.623134   -0.441412
     72          1           0        4.383744   -4.145515   -3.125909
     73          1           0        1.903144   -1.871723    4.978320
     74          1           0        3.423388    1.854424    3.378476
     75          1           0       -4.316014   -4.317055    2.966355
     76          1           0       -6.638017   -1.742509    0.373689
     77          1           0       -3.478751    1.954679   -3.278421
     78          1           0       -1.829614   -1.633871   -5.055234
 ---------------------------------------------------------------------
 Rotational constants (GHZ):           0.0849405           0.0680085           0.0644007
 Standard basis: def2TZVP (5D, 7F)
 There are  1800 symmetry adapted cartesian basis functions of A   symmetry.
 There are  1580 symmetry adapted basis functions of A   symmetry.
  1580 basis functions,  2552 primitive gaussians,  1800 cartesian basis functions
   160 alpha electrons      160 beta electrons
       nuclear repulsion energy      5873.8714553948 Hartrees.
 NAtoms=   78 NActive=   78 NUniq=   78 SFac= 1.00D+00 NAtFMM=   60 NAOKFM=T Big=T
 Integral buffers will be    131072 words long.
 Raffenetti 2 integral format.
 Two-electron integral symmetry is turned on.
 Nuclear repulsion after empirical dispersion term =     5873.7418191081 Hartrees.
 One-electron integrals computed using PRISM.
   1 Symmetry operations used in ECPInt.
 ECPInt:  NShTT=  195000 NPrTT=  604449 LenC2=  154461 LenP2D=  315060.
 LDataN:  DoStor=T MaxTD1= 6 Len=  172
 Number of processors reduced to  24 by ecpmxn.
 NBasis=  1580 RedAO= T EigKep=  3.66D-06  NBF=  1580
 NBsUse=  1580 1.00D-06 EigRej= -1.00D+00 NBFU=  1580
 ExpMin= 9.04D-02 ExpMax= 5.24D+04 ExpMxC= 1.79D+03 IAcc=3 IRadAn=         5 AccDes= 0.00D+00
 Harris functional with IExCor= 1009 and IRadAn=       5 diagonalized for initial guess.
 HarFok:  IExCor= 1009 AccDes= 0.00D+00 IRadAn=         5 IDoV= 1 UseB2=F ITyADJ=14
 ICtDFT=  3500011 ScaDFX=  1.000000  1.000000  1.000000  1.000000
 FoFCou: FMM=F IPFlag=           0 FMFlag=      100000 FMFlg1=        2001
         NFxFlg=           0 DoJE=T BraDBF=F KetDBF=T FulRan=T
         wScrn=  0.000000 ICntrl=       500 IOpCl=  0 I1Cent=   200000004 NGrid=           0
         NMat0=    1 NMatS0=      1 NMatT0=    0 NMatD0=    1 NMtDS0=    0 NMtDT0=    0
 Petite list used in FoFCou.
 Requested convergence on RMS density matrix=1.00D-08 within 128 cycles.
 Requested convergence on MAX density matrix=1.00D-06.
 Requested convergence on             energy=1.00D-06.
 No special actions if energy rises.
 Integral accuracy reduced to 1.0D-05 until final iterations.
 Problem detected with inexpensive integrals.
 Switching to full accuracy and repeating last cycle.
 SCF Done:  E(RPBE1PBE) =  -2376.32918942     A.U. after   15 cycles
            NFock= 15  Conv=0.34D-08     -V/T= 2.0048
 DoSCS=F DFT=T ScalE2(SS,OS)=  1.000000  1.000000
 Range of M.O.s used for correlation:     1  1580
 NBasis=  1580 NAE=   160 NBE=   160 NFC=     0 NFV=     0
 NROrb=   1580 NOA=   160 NOB=   160 NVA=  1420 NVB=  1420

 **** Warning!!: The largest alpha MO coefficient is  0.48272602D+02

          Differentiating once with respect to magnetic field using GIAOs.
          Electric field/nuclear overlap derivatives assumed to be zero.
 FoFCou: FMM=F IPFlag=           0 FMFlag=      100000 FMFlg1=        2001
         NFxFlg=           0 DoJE=F BraDBF=F KetDBF=T FulRan=T
         wScrn=  0.000000 ICntrl=      6100 IOpCl=  0 I1Cent=           7 NGrid=          78
         NMat0=    1 NMatS0=      1 NMatT0=    0 NMatD0=    1 NMtDS0=    0 NMtDT0=    0
 Symmetry not used in FoFCou.
   1 Symmetry operations used in ECPInt.
 ECPInt:  NShTT=  195000 NPrTT=  604449 LenC2=  195001 LenP2D=  604449.
 LDataN:  DoStor=T MaxTD1= 7 Len=  274
 Number of processors reduced to  15 by ecpmxn.
 FoFJK:  IHMeth= 1 ICntrl=    6127 DoSepK=F KAlg= 0 I1Cent=           0 FoldK=F
 IRaf=         1 NMat=       1 IRICut=       1 DoRegI=T DoRafI=F ISym2E= 0 IDoP0=0 IntGTp=1.
          There are     3 degrees of freedom in the 1st order CPHF.  IDoFFX=0 NUNeed=     3.
      3 vectors produced by pass  0 Test12= 7.57D-12 3.33D-08 XBig12= 1.73D+02 1.72D+00.
 AX will form     3 AO Fock derivatives at one time.
      3 vectors produced by pass  1 Test12= 7.57D-12 3.33D-08 XBig12= 7.32D-01 1.64D-01.
      3 vectors produced by pass  2 Test12= 7.57D-12 3.33D-08 XBig12= 3.24D-03 8.73D-03.
      3 vectors produced by pass  3 Test12= 7.57D-12 3.33D-08 XBig12= 9.93D-06 7.48D-04.
      3 vectors produced by pass  4 Test12= 7.57D-12 3.33D-08 XBig12= 6.08D-08 6.69D-05.
      3 vectors produced by pass  5 Test12= 7.57D-12 3.33D-08 XBig12= 3.33D-10 4.78D-06.
      3 vectors produced by pass  6 Test12= 7.57D-12 3.33D-08 XBig12= 1.81D-12 4.00D-07.
 InvSVY:  IOpt=1 It=  1 EMax= 3.55D-15
 Solved reduced A of dimension    21 with     3 vectors.
 Calculating GIAO nuclear magnetic shielding tensors.
 SCF GIAO Magnetic shielding tensor (ppm):
      1  P    Isotropic =   292.9392   Anisotropy =    52.3483
   XX=   280.9240   YX=    41.1648   ZX=    -1.0089
   XY=     1.6129   YY=   314.5468   ZY=   -21.1971
   XZ=    20.3050   YZ=   -12.1332   ZZ=   283.3468
   Eigenvalues:   259.1655   291.8140   327.8380
      2  C    Isotropic =    42.4125   Anisotropy =   204.7012
   XX=   144.9695   YX=   -71.9028   ZX=   -21.4377
   XY=   -68.7777   YY=    29.1498   ZY=    -8.2780
   XZ=   -15.7514   YZ=   -11.4427   ZZ=   -46.8818
   Eigenvalues:   -53.3324     1.6900   178.8800
      3  C    Isotropic =    43.6652   Anisotropy =   186.0301
   XX=   125.5281   YX=   -94.9358   ZX=     0.4859
   XY=   -86.5144   YY=   -27.5818   ZY=   -16.7729
   XZ=   -12.2041   YZ=    -5.1491   ZZ=    33.0493
   Eigenvalues:   -71.2123    34.5227   167.6852
      4  C    Isotropic =    52.5555   Anisotropy =   186.1091
   XX=   149.9175   YX=   -61.3582   ZX=     6.4217
   XY=   -63.0881   YY=    26.1306   ZY=    49.5677
   XZ=     7.8278   YZ=    49.0909   ZZ=   -18.3815
   Eigenvalues:   -58.6252    39.6635   176.6282
      5  C    Isotropic =    51.4438   Anisotropy =   189.7019
   XX=   149.4846   YX=   -58.0439   ZX=   -32.1843
   XY=   -59.2221   YY=    49.8450   ZY=   -23.1236
   XZ=   -26.8648   YZ=   -24.6112   ZZ=   -44.9981
   Eigenvalues:   -60.1779    36.5976   177.9118
      6  C    Isotropic =    52.4474   Anisotropy =   186.5772
   XX=   137.1714   YX=   -87.4418   ZX=    -9.5900
   XY=   -88.1378   YY=   -19.7791   ZY=    -8.3763
   XZ=   -13.8040   YZ=    -8.4663   ZZ=    39.9500
   Eigenvalues:   -60.6037    41.1137   176.8322
      7  C    Isotropic =    40.6037   Anisotropy =   200.2706
   XX=   145.1848   YX=   -69.6252   ZX=    15.9540
   XY=   -67.8267   YY=     7.2092   ZY=    52.5162
   XZ=     4.7547   YZ=    50.9042   ZZ=   -30.5830
   Eigenvalues:   -78.0661    25.7597   174.1174
      8  H    Isotropic =    23.5568   Anisotropy =     9.6388
   XX=    24.5644   YX=    -0.9059   ZX=     4.6858
   XY=    -0.2018   YY=    23.4672   ZY=     7.0153
   XZ=     4.3175   YZ=     3.5542   ZZ=    22.6389
   Eigenvalues:    16.0469    24.6408    29.9827
      9  H    Isotropic =    24.0862   Anisotropy =     3.7146
   XX=    22.4398   YX=     1.7077   ZX=     1.0708
   XY=     1.6138   YY=    24.9049   ZY=    -1.7597
   XZ=     0.8254   YZ=    -1.3829   ZZ=    24.9140
   Eigenvalues:    20.9613    24.7347    26.5626
     10  H    Isotropic =    23.5666   Anisotropy =     8.0888
   XX=    21.5302   YX=    -1.3157   ZX=     0.0126
   XY=     0.2719   YY=    21.0345   ZY=    -2.2680
   XZ=     0.0236   YZ=    -2.8284   ZZ=    28.1351
   Eigenvalues:    20.0511    21.6895    28.9591
     11  C    Isotropic =    40.4616   Anisotropy =   205.3528
   XX=   -36.0309   YX=     9.0790   ZX=    21.4334
   XY=     4.3114   YY=    92.5272   ZY=   -89.9286
   XZ=    28.6072   YZ=  -104.2038   ZZ=    64.8885
   Eigenvalues:   -52.7966    -3.1820   177.3635
     12  C    Isotropic =    43.7630   Anisotropy =   196.5008
   XX=    24.5375   YX=   -15.1793   ZX=    -1.5990
   XY=    -1.7827   YY=    64.8140   ZY=  -128.6531
   XZ=    -4.8720   YZ=  -112.8174   ZZ=    41.9375
   Eigenvalues:   -68.6052    25.1306   174.7635
     13  C    Isotropic =    50.7447   Anisotropy =   185.6394
   XX=   -36.7172   YX=   -40.7183   ZX=   -25.0252
   XY=   -39.8013   YY=   101.0980   ZY=   -81.8219
   XZ=   -21.8898   YZ=   -75.7751   ZZ=    87.8531
   Eigenvalues:   -62.8460    40.5757   174.5043
     14  C    Isotropic =    52.0342   Anisotropy =   186.1594
   XX=   -29.8246   YX=    17.1867   ZX=    40.4422
   XY=    15.7748   YY=   109.2760   ZY=   -78.8340
   XZ=    43.5744   YZ=   -82.2844   ZZ=    76.6512
   Eigenvalues:   -57.6221    37.5843   176.1405
     15  C    Isotropic =    52.7614   Anisotropy =   182.9106
   XX=    42.4681   YX=    -9.8444   ZX=     4.4859
   XY=   -10.0021   YY=    72.5003   ZY=  -115.7796
   XZ=     3.7511   YZ=  -114.4009   ZZ=    43.3157
   Eigenvalues:   -58.2238    41.8061   174.7018
     16  C    Isotropic =    43.3306   Anisotropy =   183.6364
   XX=   -43.6869   YX=   -41.8740   ZX=   -18.5709
   XY=   -40.3087   YY=    86.0992   ZY=   -86.3935
   XZ=   -32.3526   YZ=   -70.2297   ZZ=    87.5795
   Eigenvalues:   -71.8104    36.0473   165.7548
     17  H    Isotropic =    23.1842   Anisotropy =    10.1315
   XX=    22.2653   YX=    -2.8818   ZX=    -3.3547
   XY=    -2.4976   YY=    24.8673   ZY=     4.4939
   XZ=    -3.3158   YZ=     3.1789   ZZ=    22.4201
   Eigenvalues:    18.8117    20.8024    29.9386
     18  H    Isotropic =    23.8653   Anisotropy =     3.8053
   XX=    25.1441   YX=     0.4077   ZX=     0.2308
   XY=     0.6364   YY=    23.0345   ZY=     2.9156
   XZ=     0.8778   YZ=     2.5018   ZZ=    23.4173
   Eigenvalues:    20.5105    24.6833    26.4022
     19  H    Isotropic =    23.8751   Anisotropy =    14.6171
   XX=    32.1779   YX=    -1.9920   ZX=    -5.1946
   XY=    -2.8759   YY=    18.6428   ZY=     3.4326
   XZ=    -1.3368   YZ=     0.8913   ZZ=    20.8045
   Eigenvalues:    17.2957    20.7097    33.6198
     20  C    Isotropic =    36.4666   Anisotropy =   190.6678
   XX=    73.7789   YX=    75.8248   ZX=    39.7005
   XY=    74.9002   YY=    28.1225   ZY=    63.9155
   XZ=    50.1615   YZ=    57.1090   ZZ=     7.4983
   Eigenvalues:   -46.9000    -7.2788   163.5784
     21  C    Isotropic =    55.6291   Anisotropy =   180.9572
   XX=    60.8182   YX=    99.0067   ZX=    60.1250
   XY=    89.6516   YY=    48.4081   ZY=    16.0369
   XZ=    66.7698   YZ=    10.7076   ZZ=    57.6610
   Eigenvalues:   -51.9002    42.5203   176.2672
     22  C    Isotropic =    52.6950   Anisotropy =   182.2193
   XX=    82.5450   YX=    50.7321   ZX=    83.1268
   XY=    44.5461   YY=    83.1980   ZY=    38.9743
   XZ=    85.8043   YZ=    39.1333   ZZ=    -7.6581
   Eigenvalues:   -58.9676    42.8781   174.1745
     23  C    Isotropic =    71.6778   Anisotropy =   169.4799
   XX=   101.4927   YX=    76.0882   ZX=    35.2545
   XY=    55.2329   YY=    55.6212   ZY=    67.8626
   XZ=    28.3282   YZ=    70.0627   ZZ=    57.9196
   Eigenvalues:   -19.0409    49.4099   184.6645
     24  C    Isotropic =    23.5366   Anisotropy =   140.6794
   XX=    21.8392   YX=    80.4511   ZX=    47.3484
   XY=    78.3536   YY=     6.9881   ZY=    15.7484
   XZ=    38.0622   YZ=    13.2378   ZZ=    41.7825
   Eigenvalues:   -68.5944    21.8813   117.3228
     25  C    Isotropic =    48.1294   Anisotropy =   160.4449
   XX=    76.6695   YX=    43.2710   ZX=    75.9998
   XY=    50.7224   YY=    65.5797   ZY=    24.2097
   XZ=    66.2480   YZ=    37.8726   ZZ=     2.1391
   Eigenvalues:   -40.9481    30.2437   155.0927
     26  C    Isotropic =    47.9623   Anisotropy =   160.2139
   XX=    77.8004   YX=   -46.0017   ZX=    74.3634
   XY=   -52.9041   YY=    66.3705   ZY=   -20.2161
   XZ=    64.8704   YZ=   -34.7571   ZZ=    -0.2839
   Eigenvalues:   -41.0777    30.1930   154.7716
     27  C    Isotropic =    23.4497   Anisotropy =   140.5351
   XX=    24.1650   YX=   -81.7031   ZX=    44.5797
   XY=   -79.4513   YY=     5.3259   ZY=   -16.2811
   XZ=    35.5102   YZ=   -13.8738   ZZ=    40.8584
   Eigenvalues:   -68.7413    21.9508   117.1398
     28  C    Isotropic =    71.5387   Anisotropy =   169.4144
   XX=   103.2334   YX=   -76.5029   ZX=    33.7010
   XY=   -55.3773   YY=    58.2328   ZY=   -67.3300
   XZ=    27.4998   YZ=   -69.6963   ZZ=    53.1498
   Eigenvalues:   -19.1574    49.2919   184.4816
     29  C    Isotropic =    52.6740   Anisotropy =   181.9303
   XX=    83.6613   YX=   -53.5759   ZX=    81.9051
   XY=   -47.3083   YY=    84.3519   ZY=   -34.4923
   XZ=    84.7383   YZ=   -34.6219   ZZ=    -9.9913
   Eigenvalues:   -58.8963    42.9574   173.9608
     30  C    Isotropic =    55.6168   Anisotropy =   181.2030
   XX=    63.2594   YX=  -101.3780   ZX=    56.6497
   XY=   -91.7924   YY=    46.7464   ZY=   -15.6920
   XZ=    63.4845   YZ=   -10.4849   ZZ=    56.8447
   Eigenvalues:   -52.0338    42.4654   176.4189
     31  C    Isotropic =    36.1524   Anisotropy =   190.6866
   XX=    74.9300   YX=   -76.7785   ZX=    37.9832
   XY=   -76.1484   YY=    30.6364   ZY=   -62.5728
   XZ=    48.0213   YZ=   -55.5362   ZZ=     2.8908
   Eigenvalues:   -46.9819    -7.8377   163.2768
     32  P    Isotropic =   293.4122   Anisotropy =    51.8189
   XX=   282.3992   YX=   -41.4641   ZX=    -4.0867
   XY=    -2.4959   YY=   312.7421   ZY=    22.1444
   XZ=    19.8394   YZ=    13.1243   ZZ=   285.0951
   Eigenvalues:   260.5471   291.7313   327.9581
     33  C    Isotropic =    42.3599   Anisotropy =   204.8558
   XX=   140.8119   YX=    76.4083   ZX=   -16.0309
   XY=    72.7232   YY=    32.3456   ZY=    12.1224
   XZ=   -11.0701   YZ=    15.6652   ZZ=   -46.0778
   Eigenvalues:   -53.4069     1.5561   178.9304
     34  C    Isotropic =    40.4591   Anisotropy =   200.2431
   XX=   140.7070   YX=    72.6058   ZX=    22.2968
   XY=    71.9044   YY=    16.2343   ZY=   -49.2298
   XZ=    11.4515   YZ=   -47.6915   ZZ=   -35.5641
   Eigenvalues:   -78.2137    25.6365   173.9545
     35  C    Isotropic =    52.4832   Anisotropy =   186.5507
   XX=   132.0736   YX=    91.9643   ZX=    -4.2332
   XY=    93.3102   YY=   -15.1645   ZY=     5.9401
   XZ=    -8.2781   YZ=     5.9761   ZZ=    40.5405
   Eigenvalues:   -60.5201    41.1194   176.8503
     36  C    Isotropic =    51.3836   Anisotropy =   189.8794
   XX=   146.4251   YX=    62.3232   ZX=   -27.5691
   XY=    63.3031   YY=    50.6767   ZY=    27.9411
   XZ=   -22.4288   YZ=    29.3855   ZZ=   -42.9511
   Eigenvalues:   -60.2849    36.4658   177.9699
     37  C    Isotropic =    52.5333   Anisotropy =   186.2170
   XX=   145.8721   YX=    64.8610   ZX=    13.0712
   XY=    66.6364   YY=    35.0156   ZY=   -45.8171
   XZ=    14.5860   YZ=   -45.3856   ZZ=   -23.2876
   Eigenvalues:   -58.7182    39.6402   176.6780
     38  C    Isotropic =    43.5177   Anisotropy =   186.1951
   XX=   119.8396   YX=    99.3366   ZX=     5.5154
   XY=    91.4750   YY=   -23.1531   ZY=    14.1645
   XZ=    -6.6287   YZ=     2.8521   ZZ=    33.8666
   Eigenvalues:   -71.4658    34.3711   167.6477
     39  H    Isotropic =    23.5677   Anisotropy =     7.9628
   XX=    21.5552   YX=     1.3965   ZX=     0.0300
   XY=    -0.2340   YY=    20.8660   ZY=     1.8874
   XZ=    -0.0247   YZ=     2.4634   ZZ=    28.2819
   Eigenvalues:    20.0641    21.7627    28.8762
     40  H    Isotropic =    24.0860   Anisotropy =     3.6762
   XX=    22.5778   YX=    -1.8621   ZX=     0.9427
   XY=    -1.7406   YY=    24.6214   ZY=     1.7634
   XZ=     0.6918   YZ=     1.3759   ZZ=    25.0588
   Eigenvalues:    20.9565    24.7646    26.5368
     41  H    Isotropic =    23.5821   Anisotropy =     9.6661
   XX=    24.6013   YX=     0.6495   ZX=     4.7710
   XY=    -0.1031   YY=    23.9447   ZY=    -6.9097
   XZ=     4.3173   YZ=    -3.4250   ZZ=    22.2002
   Eigenvalues:    16.1386    24.5815    30.0262
     42  C    Isotropic =    40.5291   Anisotropy =   205.1721
   XX=   -35.6172   YX=   -12.1487   ZX=    19.4385
   XY=    -7.6669   YY=    85.4637   ZY=    90.7004
   XZ=    26.4904   YZ=   105.5628   ZZ=    71.7408
   Eigenvalues:   -52.7463    -2.9769   177.3105
     43  C    Isotropic =    43.3914   Anisotropy =   183.7848
   XX=   -45.0720   YX=    40.1363   ZX=   -18.3964
   XY=    39.3445   YY=    81.8635   ZY=    86.0664
   XZ=   -32.1251   YZ=    69.3522   ZZ=    93.3827
   Eigenvalues:   -71.7190    35.9787   165.9146
     44  C    Isotropic =    52.7497   Anisotropy =   182.9624
   XX=    42.0935   YX=     9.3213   ZX=     2.6992
   XY=     9.5069   YY=    64.5060   ZY=   116.6555
   XZ=     2.0064   YZ=   115.2030   ZZ=    51.6497
   Eigenvalues:   -58.2561    41.7806   174.7247
     45  C    Isotropic =    52.0710   Anisotropy =   186.1424
   XX=   -29.1042   YX=   -21.0319   ZX=    38.2969
   XY=   -19.8801   YY=   102.8293   ZY=    80.4873
   XZ=    41.4019   YZ=    84.0118   ZZ=    82.4880
   Eigenvalues:   -57.5920    37.6391   176.1660
     46  C    Isotropic =    50.7441   Anisotropy =   185.5467
   XX=   -38.1774   YX=    39.0540   ZX=   -25.0045
   XY=    38.0012   YY=    96.9433   ZY=    81.5977
   XZ=   -21.8934   YZ=    75.5988   ZZ=    93.4663
   Eigenvalues:   -62.7706    40.5609   174.4419
     47  C    Isotropic =    43.9780   Anisotropy =   196.3848
   XX=    24.5334   YX=    14.5682   ZX=    -3.4692
   XY=     1.6141   YY=    56.6881   ZY=   129.0551
   XZ=    -6.9251   YZ=   113.2108   ZZ=    50.7126
   Eigenvalues:   -68.4143    25.4470   174.9012
     48  H    Isotropic =    23.8582   Anisotropy =    14.5967
   XX=    32.0599   YX=     2.4432   ZX=    -4.9985
   XY=     3.1860   YY=    18.9575   ZY=    -3.6548
   XZ=    -1.1733   YZ=    -1.0285   ZZ=    20.5572
   Eigenvalues:    17.2613    20.7240    33.5894
     49  H    Isotropic =    23.8627   Anisotropy =     3.8135
   XX=    25.1686   YX=    -0.3844   ZX=     0.2770
   XY=    -0.6296   YY=    23.2125   ZY=    -2.9246
   XZ=     0.9049   YZ=    -2.4907   ZZ=    23.2069
   Eigenvalues:    20.5013    24.6817    26.4050
     50  H    Isotropic =    23.1934   Anisotropy =    10.1646
   XX=    22.2143   YX=     2.9607   ZX=    -3.1627
   XY=     2.5582   YY=    25.2539   ZY=    -4.4814
   XZ=    -3.1960   YZ=    -3.1505   ZZ=    22.1120
   Eigenvalues:    18.7896    20.8208    29.9698
     51  H    Isotropic =    25.2729   Anisotropy =    12.4899
   XX=    22.1072   YX=     2.3087   ZX=    -0.6309
   XY=     4.6897   YY=    26.4654   ZY=     5.1106
   XZ=     2.6588   YZ=     6.6029   ZZ=    27.2463
   Eigenvalues:    19.3085    22.9108    33.5995
     52  H    Isotropic =    24.6274   Anisotropy =     4.8372
   XX=    24.1514   YX=     2.0488   ZX=    -1.0398
   XY=     2.4443   YY=    25.8361   ZY=     2.1926
   XZ=    -0.6948   YZ=     1.9903   ZZ=    23.8947
   Eigenvalues:    21.1479    24.8820    27.8522
     53  H    Isotropic =    25.0660   Anisotropy =     6.3648
   XX=    24.6111   YX=     0.2783   ZX=    -4.2987
   XY=     2.1407   YY=    24.8257   ZY=    -0.8511
   XZ=    -3.0989   YZ=    -0.5022   ZZ=    25.7610
   Eigenvalues:    21.3720    24.5167    29.3092
     54  O    Isotropic =   209.3211   Anisotropy =   122.6118
   XX=   254.6890   YX=   -49.2530   ZX=    14.8219
   XY=   -30.3572   YY=   193.6750   ZY=   -34.7365
   XZ=    14.8203   YZ=   -83.4844   ZZ=   179.5993
   Eigenvalues:   125.0897   211.8113   291.0623
     55  C    Isotropic =   115.0030   Anisotropy =    54.3827
   XX=    98.4817   YX=    -7.7146   ZX=    10.4515
   XY=    -4.0597   YY=   149.4290   ZY=     6.1705
   XZ=    13.7356   YZ=    12.0512   ZZ=    97.0982
   Eigenvalues:    83.9356   109.8152   151.2581
     56  H    Isotropic =    27.7980   Anisotropy =     8.8355
   XX=    28.7022   YX=     2.0859   ZX=     2.8281
   XY=     3.3785   YY=    30.5940   ZY=     1.7547
   XZ=     3.3684   YZ=     1.8477   ZZ=    24.0977
   Eigenvalues:    22.5182    27.1874    33.6883
     57  H    Isotropic =    26.9184   Anisotropy =     7.3980
   XX=    21.8677   YX=     0.2722   ZX=     1.9096
   XY=     0.5369   YY=    28.9199   ZY=     3.0621
   XZ=     0.7918   YZ=     1.2801   ZZ=    29.9676
   Eigenvalues:    21.6480    27.2568    31.8504
     58  C    Isotropic =   157.0784   Anisotropy =    26.0353
   XX=   149.6291   YX=    -7.5461   ZX=    10.1977
   XY=    -1.3866   YY=   149.8829   ZY=     3.1036
   XZ=     5.8328   YZ=     3.1884   ZZ=   171.7234
   Eigenvalues:   143.0134   153.7866   174.4353
     59  H    Isotropic =    29.9900   Anisotropy =    11.6450
   XX=    23.8168   YX=    -2.1965   ZX=     0.3827
   XY=    -1.5699   YY=    35.9843   ZY=     3.1331
   XZ=    -0.8860   YZ=     3.5754   ZZ=    30.1690
   Eigenvalues:    23.5210    28.6958    37.7533
     60  H    Isotropic =    29.5599   Anisotropy =     2.3479
   XX=    29.7088   YX=    -1.6661   ZX=    -0.8577
   XY=    -0.3820   YY=    30.3129   ZY=    -0.4653
   XZ=    -2.5091   YZ=    -1.6028   ZZ=    28.6579
   Eigenvalues:    26.8238    30.7306    31.1251
     61  C    Isotropic =   157.0782   Anisotropy =    26.0026
   XX=   149.4729   YX=     7.0803   ZX=    10.5501
   XY=     1.1930   YY=   150.3233   ZY=    -3.7100
   XZ=     5.9549   YZ=    -3.8082   ZZ=   171.4385
   Eigenvalues:   143.0430   153.7784   174.4133
     62  H    Isotropic =    29.9937   Anisotropy =    11.6450
   XX=    23.7649   YX=     1.9902   ZX=     0.5072
   XY=     1.3995   YY=    36.2897   ZY=    -2.8923
   XZ=    -0.7746   YZ=    -3.3622   ZZ=    29.9266
   Eigenvalues:    23.5258    28.6983    37.7571
     63  H    Isotropic =    29.5646   Anisotropy =     2.3889
   XX=    29.6962   YX=     1.7142   ZX=    -0.8135
   XY=     0.4887   YY=    30.2682   ZY=     0.5354
   XZ=    -2.5166   YZ=     1.6225   ZZ=    28.7294
   Eigenvalues:    26.8055    30.7311    31.1573
     64  C    Isotropic =   115.0855   Anisotropy =    54.3081
   XX=    98.4530   YX=     6.5206   ZX=    10.8049
   XY=     2.6901   YY=   150.2160   ZY=    -4.0663
   XZ=    13.9653   YZ=    -9.9059   ZZ=    96.5875
   Eigenvalues:    84.0690   109.8966   151.2909
     65  H    Isotropic =    27.8130   Anisotropy =     8.7962
   XX=    28.7981   YX=    -2.1764   ZX=     2.7806
   XY=    -3.5204   YY=    30.6568   ZY=    -1.4476
   XZ=     3.2657   YZ=    -1.5385   ZZ=    23.9841
   Eigenvalues:    22.5250    27.2369    33.6771
     66  O    Isotropic =   209.0359   Anisotropy =   122.8722
   XX=   252.9709   YX=    49.8419   ZX=    16.3331
   XY=    30.9827   YY=   190.4690   ZY=    35.4666
   XZ=    14.5626   YZ=    84.0476   ZZ=   183.6678
   Eigenvalues:   124.8414   211.3156   290.9507
     67  H    Isotropic =    26.9413   Anisotropy =     7.3410
   XX=    21.9102   YX=    -0.4174   ZX=     1.9324
   XY=    -0.6632   YY=    29.1024   ZY=    -3.0346
   XZ=     0.7893   YZ=    -1.2748   ZZ=    29.8112
   Eigenvalues:    21.6778    27.3108    31.8353
     68  H    Isotropic =    25.0950   Anisotropy =     6.3388
   XX=    24.6854   YX=    -0.1081   ZX=    -4.3378
   XY=    -1.9751   YY=    24.7944   ZY=     0.7445
   XZ=    -3.1634   YZ=     0.4434   ZZ=    25.8053
   Eigenvalues:    21.4032    24.5610    29.3209
     69  H    Isotropic =    24.6350   Anisotropy =     4.8289
   XX=    24.2512   YX=    -2.0516   ZX=    -1.1083
   XY=    -2.4049   YY=    25.9251   ZY=    -2.1436
   XZ=    -0.7173   YZ=    -1.9154   ZZ=    23.7289
   Eigenvalues:    21.1651    24.8858    27.8543
     70  H    Isotropic =    25.2803   Anisotropy =    12.5387
   XX=    22.2260   YX=    -2.4048   ZX=    -0.6616
   XY=    -4.8569   YY=    26.7927   ZY=    -5.1409
   XZ=     2.6346   YZ=    -6.6114   ZZ=    26.8223
   Eigenvalues:    19.2907    22.9108    33.6395
     71  H    Isotropic =    23.9414   Anisotropy =     7.1109
   XX=    25.9059   YX=    -1.9473   ZX=    -2.5600
   XY=    -2.1386   YY=    22.1697   ZY=     2.9838
   XZ=    -1.3497   YZ=     2.5809   ZZ=    23.7486
   Eigenvalues:    20.0222    23.1200    28.6820
     72  H    Isotropic =    23.6950   Anisotropy =     5.7843
   XX=    27.0614   YX=    -0.7854   ZX=    -1.3298
   XY=    -0.6124   YY=    22.0460   ZY=     1.7786
   XZ=    -1.1091   YZ=     1.5062   ZZ=    21.9777
   Eigenvalues:    20.3454    23.1885    27.5512
     73  H    Isotropic =    24.1118   Anisotropy =     5.0236
   XX=    22.0778   YX=     0.8757   ZX=     2.6033
   XY=     1.5414   YY=    24.1817   ZY=     0.5647
   XZ=     1.8505   YZ=     0.7974   ZZ=    26.0759
   Eigenvalues:    20.8653    24.0092    27.4609
     74  H    Isotropic =    24.0466   Anisotropy =     6.6525
   XX=    23.0644   YX=     0.5141   ZX=     2.2344
   XY=    -0.1247   YY=    21.5718   ZY=    -0.2661
   XZ=     2.3663   YZ=    -0.0796   ZZ=    27.5036
   Eigenvalues:    21.4719    22.1863    28.4816
     75  H    Isotropic =    23.6956   Anisotropy =     5.8100
   XX=    27.0527   YX=     0.9232   ZX=    -1.2614
   XY=     0.7397   YY=    22.1876   ZY=    -1.7967
   XZ=    -1.0691   YZ=    -1.5213   ZZ=    21.8466
   Eigenvalues:    20.3339    23.1840    27.5689
     76  H    Isotropic =    23.9345   Anisotropy =     7.0975
   XX=    25.8253   YX=     2.0902   ZX=    -2.4163
   XY=     2.2510   YY=    22.4563   ZY=    -3.0900
   XZ=    -1.2124   YZ=    -2.6555   ZZ=    23.5218
   Eigenvalues:    20.0098    23.1275    28.6662
     77  H    Isotropic =    24.0463   Anisotropy =     6.5504
   XX=    23.1169   YX=    -0.6258   ZX=     2.1184
   XY=     0.0086   YY=    21.5330   ZY=    -0.0255
   XZ=     2.2874   YZ=    -0.1869   ZZ=    27.4891
   Eigenvalues:    21.4471    22.2786    28.4133
     78  H    Isotropic =    24.1225   Anisotropy =     5.0458
   XX=    22.1588   YX=    -1.0494   ZX=     2.5809
   XY=    -1.6778   YY=    24.1918   ZY=    -0.6067
   XZ=     1.8136   YZ=    -0.8445   ZZ=    26.0170
   Eigenvalues:    20.8747    24.0065    27.4864
 End of Minotr F.D. properties file   721 does not exist.
 End of Minotr F.D. properties file   722 does not exist.
 End of Minotr F.D. properties file   788 does not exist.

 **********************************************************************

            Population analysis using the SCF Density.

 **********************************************************************

 Orbital symmetries:
       Occupied  (A) (A) (A) (A) (A) (A) (A) (A) (A) (A) (A) (A)
                 (A) (A) (A) (A) (A) (A) (A) (A) (A) (A) (A) (A)
                 (A) (A) (A) (A) (A) (A) (A) (A) (A) (A) (A) (A)
                 (A) (A) (A) (A) (A) (A) (A) (A) (A) (A) (A) (A)
                 (A) (A) (A) (A) (A) (A) (A) (A) (A) (A) (A) (A)
                 (A) (A) (A) (A) (A) (A) (A) (A) (A) (A) (A) (A)
                 (A) (A) (A) (A) (A) (A) (A) (A) (A) (A) (A) (A)
                 (A) (A) (A) (A) (A) (A) (A) (A) (A) (A) (A) (A)
                 (A) (A) (A) (A) (A) (A) (A) (A) (A) (A) (A) (A)
                 (A) (A) (A) (A) (A) (A) (A) (A) (A) (A) (A) (A)
                 (A) (A) (A) (A) (A) (A) (A) (A) (A) (A) (A) (A)
                 (A) (A) (A) (A) (A) (A) (A) (A) (A) (A) (A) (A)
                 (A) (A) (A) (A) (A) (A) (A) (A) (A) (A) (A) (A)
                 (A) (A) (A) (A)
       Virtual   (A) (A) (A) (A) (A) (A) (A) (A) (A) (A) (A) (A)
                 (A) (A) (A) (A) (A) (A) (A) (A) (A) (A) (A) (A)
                 (A) (A) (A) (A) (A) (A) (A) (A) (A) (A) (A) (A)
                 (A) (A) (A) (A) (A) (A) (A) (A) (A) (A) (A) (A)
                 (A) (A) (A) (A) (A) (A) (A) (A) (A) (A) (A) (A)
                 (A) (A) (A) (A) (A) (A) (A) (A) (A) (A) (A) (A)
                 (A) (A) (A) (A) (A) (A) (A) (A) (A) (A) (A) (A)
                 (A) (A) (A) (A) (A) (A) (A) (A) (A) (A) (A) (A)
                 (A) (A) (A) (A) (A) (A) (A) (A) (A) (A) (A) (A)
                 (A) (A) (A) (A) (A) (A) (A) (A) (A) (A) (A) (A)
                 (A) (A) (A) (A) (A) (A) (A) (A) (A) (A) (A) (A)
                 (A) (A) (A) (A) (A) (A) (A) (A) (A) (A) (A) (A)
                 (A) (A) (A) (A) (A) (A) (A) (A) (A) (A) (A) (A)
                 (A) (A) (A) (A) (A) (A) (A) (A) (A) (A) (A) (A)
                 (A) (A) (A) (A) (A) (A) (A) (A) (A) (A) (A) (A)
                 (A) (A) (A) (A) (A) (A) (A) (A) (A) (A) (A) (A)
                 (A) (A) (A) (A) (A) (A) (A) (A) (A) (A) (A) (A)
                 (A) (A) (A) (A) (A) (A) (A) (A) (A) (A) (A) (A)
                 (A) (A) (A) (A) (A) (A) (A) (A) (A) (A) (A) (A)
                 (A) (A) (A) (A) (A) (A) (A) (A) (A) (A) (A) (A)
                 (A) (A) (A) (A) (A) (A) (A) (A) (A) (A) (A) (A)
                 (A) (A) (A) (A) (A) (A) (A) (A) (A) (A) (A) (A)
                 (A) (A) (A) (A) (A) (A) (A) (A) (A) (A) (A) (A)
                 (A) (A) (A) (A) (A) (A) (A) (A) (A) (A) (A) (A)
                 (A) (A) (A) (A) (A) (A) (A) (A) (A) (A) (A) (A)
                 (A) (A) (A) (A) (A) (A) (A) (A) (A) (A) (A) (A)
                 (A) (A) (A) (A) (A) (A) (A) (A) (A) (A) (A) (A)
                 (A) (A) (A) (A) (A) (A) (A) (A) (A) (A) (A) (A)
                 (A) (A) (A) (A) (A) (A) (A) (A) (A) (A) (A) (A)
                 (A) (A) (A) (A) (A) (A) (A) (A) (A) (A) (A) (A)
                 (A) (A) (A) (A) (A) (A) (A) (A) (A) (A) (A) (A)
                 (A) (A) (A) (A) (A) (A) (A) (A) (A) (A) (A) (A)
                 (A) (A) (A) (A) (A) (A) (A) (A) (A) (A) (A) (A)
                 (A) (A) (A) (A) (A) (A) (A) (A) (A) (A) (A) (A)
                 (A) (A) (A) (A) (A) (A) (A) (A) (A) (A) (A) (A)
                 (A) (A) (A) (A) (A) (A) (A) (A) (A) (A) (A) (A)
                 (A) (A) (A) (A) (A) (A) (A) (A) (A) (A) (A) (A)
                 (A) (A) (A) (A) (A) (A) (A) (A) (A) (A) (A) (A)
                 (A) (A) (A) (A) (A) (A) (A) (A) (A) (A) (A) (A)
                 (A) (A) (A) (A) (A) (A) (A) (A) (A) (A) (A) (A)
                 (A) (A) (A) (A) (A) (A) (A) (A) (A) (A) (A) (A)
                 (A) (A) (A) (A) (A) (A) (A) (A) (A) (A) (A) (A)
                 (A) (A) (A) (A) (A) (A) (A) (A) (A) (A) (A) (A)
                 (A) (A) (A) (A) (A) (A) (A) (A) (A) (A) (A) (A)
                 (A) (A) (A) (A) (A) (A) (A) (A) (A) (A) (A) (A)
                 (A) (A) (A) (A) (A) (A) (A) (A) (A) (A) (A) (A)
                 (A) (A) (A) (A) (A) (A) (A) (A) (A) (A) (A) (A)
                 (A) (A) (A) (A) (A) (A) (A) (A) (A) (A) (A) (A)
                 (A) (A) (A) (A) (A) (A) (A) (A) (A) (A) (A) (A)
                 (A) (A) (A) (A) (A) (A) (A) (A) (A) (A) (A) (A)
                 (A) (A) (A) (A) (A) (A) (A) (A) (A) (A) (A) (A)
                 (A) (A) (A) (A) (A) (A) (A) (A) (A) (A) (A) (A)
                 (A) (A) (A) (A) (A) (A) (A) (A) (A) (A) (A) (A)
                 (A) (A) (A) (A) (A) (A) (A) (A) (A) (A) (A) (A)
                 (A) (A) (A) (A) (A) (A) (A) (A) (A) (A) (A) (A)
                 (A) (A) (A) (A) (A) (A) (A) (A) (A) (A) (A) (A)
                 (A) (A) (A) (A) (A) (A) (A) (A) (A) (A) (A) (A)
                 (A) (A) (A) (A) (A) (A) (A) (A) (A) (A) (A) (A)
                 (A) (A) (A) (A) (A) (A) (A) (A) (A) (A) (A) (A)
                 (A) (A) (A) (A) (A) (A) (A) (A) (A) (A) (A) (A)
                 (A) (A) (A) (A) (A) (A) (A) (A) (A) (A) (A) (A)
                 (A) (A) (A) (A) (A) (A) (A) (A) (A) (A) (A) (A)
                 (A) (A) (A) (A) (A) (A) (A) (A) (A) (A) (A) (A)
                 (A) (A) (A) (A) (A) (A) (A) (A) (A) (A) (A) (A)
                 (A) (A) (A) (A) (A) (A) (A) (A) (A) (A) (A) (A)
                 (A) (A) (A) (A) (A) (A) (A) (A) (A) (A) (A) (A)
                 (A) (A) (A) (A) (A) (A) (A) (A) (A) (A) (A) (A)
                 (A) (A) (A) (A) (A) (A) (A) (A) (A) (A) (A) (A)
                 (A) (A) (A) (A) (A) (A) (A) (A) (A) (A) (A) (A)
                 (A) (A) (A) (A) (A) (A) (A) (A) (A) (A) (A) (A)
                 (A) (A) (A) (A) (A) (A) (A) (A) (A) (A) (A) (A)
                 (A) (A) (A) (A) (A) (A) (A) (A) (A) (A) (A) (A)
                 (A) (A) (A) (A) (A) (A) (A) (A) (A) (A) (A) (A)
                 (A) (A) (A) (A) (A) (A) (A) (A) (A) (A) (A) (A)
                 (A) (A) (A) (A) (A) (A) (A) (A) (A) (A) (A) (A)
                 (A) (A) (A) (A) (A) (A) (A) (A) (A) (A) (A) (A)
                 (A) (A) (A) (A) (A) (A) (A) (A) (A) (A) (A) (A)
                 (A) (A) (A) (A) (A) (A) (A) (A) (A) (A) (A) (A)
                 (A) (A) (A) (A) (A) (A) (A) (A) (A) (A) (A) (A)
                 (A) (A) (A) (A) (A) (A) (A) (A) (A) (A) (A) (A)
                 (A) (A) (A) (A) (A) (A) (A) (A) (A) (A) (A) (A)
                 (A) (A) (A) (A) (A) (A) (A) (A) (A) (A) (A) (A)
                 (A) (A) (A) (A) (A) (A) (A) (A) (A) (A) (A) (A)
                 (A) (A) (A) (A) (A) (A) (A) (A) (A) (A) (A) (A)
                 (A) (A) (A) (A) (A) (A) (A) (A) (A) (A) (A) (A)
                 (A) (A) (A) (A) (A) (A) (A) (A) (A) (A) (A) (A)
                 (A) (A) (A) (A) (A) (A) (A) (A) (A) (A) (A) (A)
                 (A) (A) (A) (A) (A) (A) (A) (A) (A) (A) (A) (A)
                 (A) (A) (A) (A) (A) (A) (A) (A) (A) (A) (A) (A)
                 (A) (A) (A) (A) (A) (A) (A) (A) (A) (A) (A) (A)
                 (A) (A) (A) (A) (A) (A) (A) (A) (A) (A) (A) (A)
                 (A) (A) (A) (A) (A) (A) (A) (A) (A) (A) (A) (A)
                 (A) (A) (A) (A) (A) (A) (A) (A) (A) (A) (A) (A)
                 (A) (A) (A) (A) (A) (A) (A) (A) (A) (A) (A) (A)
                 (A) (A) (A) (A) (A) (A) (A) (A) (A) (A) (A) (A)
                 (A) (A) (A) (A) (A) (A) (A) (A) (A) (A) (A) (A)
                 (A) (A) (A) (A) (A) (A) (A) (A) (A) (A) (A) (A)
                 (A) (A) (A) (A) (A) (A) (A) (A) (A) (A) (A) (A)
                 (A) (A) (A) (A) (A) (A) (A) (A) (A) (A) (A) (A)
                 (A) (A) (A) (A) (A) (A) (A) (A) (A) (A) (A) (A)
                 (A) (A) (A) (A) (A) (A) (A) (A) (A) (A) (A) (A)
                 (A) (A) (A) (A) (A) (A) (A) (A) (A) (A) (A) (A)
                 (A) (A) (A) (A) (A) (A) (A) (A) (A) (A) (A) (A)
                 (A) (A) (A) (A) (A) (A) (A) (A) (A) (A) (A) (A)
                 (A) (A) (A) (A) (A) (A) (A) (A) (A) (A) (A) (A)
                 (A) (A) (A) (A) (A) (A) (A) (A) (A) (A) (A) (A)
                 (A) (A) (A) (A) (A) (A) (A) (A) (A) (A) (A) (A)
                 (A) (A) (A) (A) (A) (A) (A) (A) (A) (A) (A) (A)
                 (A) (A) (A) (A) (A) (A) (A) (A) (A) (A) (A) (A)
                 (A) (A) (A) (A) (A) (A) (A) (A) (A) (A) (A) (A)
                 (A) (A) (A) (A) (A) (A) (A) (A) (A) (A) (A) (A)
                 (A) (A) (A) (A) (A) (A) (A) (A) (A) (A) (A) (A)
                 (A) (A) (A) (A) (A) (A) (A) (A) (A) (A) (A) (A)
                 (A) (A) (A) (A) (A) (A) (A) (A) (A) (A) (A) (A)
                 (A) (A) (A) (A) (A) (A) (A) (A) (A) (A) (A) (A)
                 (A) (A) (A) (A) (A) (A) (A) (A) (A) (A) (A) (A)
                 (A) (A) (A) (A) (A) (A) (A) (A) (A) (A) (A) (A)
                 (A) (A) (A) (A) (A) (A) (A) (A) (A) (A) (A) (A)
                 (A) (A) (A) (A)
 The electronic state is 1-A.
 Alpha  occ. eigenvalues --  -77.18981 -77.18974 -19.23007 -19.23002 -10.28226
 Alpha  occ. eigenvalues --  -10.28225 -10.28182 -10.28178 -10.23603 -10.23595
 Alpha  occ. eigenvalues --  -10.23346 -10.23344 -10.23331 -10.23299 -10.23287
 Alpha  occ. eigenvalues --  -10.23266 -10.23165 -10.23162 -10.23003 -10.22998
 Alpha  occ. eigenvalues --  -10.22967 -10.22962 -10.22895 -10.22892 -10.22825
 Alpha  occ. eigenvalues --  -10.22808 -10.22783 -10.22782 -10.22757 -10.22751
 Alpha  occ. eigenvalues --  -10.22625 -10.22624 -10.22611 -10.22605 -10.22555
 Alpha  occ. eigenvalues --  -10.22542 -10.22451 -10.22428 -10.22424 -10.22421
 Alpha  occ. eigenvalues --  -10.22135 -10.22133 -10.21490 -10.21489  -6.58604
 Alpha  occ. eigenvalues --   -6.58599  -4.72193  -4.72187  -4.72187  -4.72182
 Alpha  occ. eigenvalues --   -4.71741  -4.71736  -1.08814  -1.08026  -0.88589
 Alpha  occ. eigenvalues --   -0.87696  -0.87461  -0.87081  -0.87036  -0.86108
 Alpha  occ. eigenvalues --   -0.82691  -0.79599  -0.78633  -0.78125  -0.77207
 Alpha  occ. eigenvalues --   -0.76477  -0.76471  -0.76181  -0.76164  -0.75785
 Alpha  occ. eigenvalues --   -0.75744  -0.75328  -0.74896  -0.72016  -0.68009
 Alpha  occ. eigenvalues --   -0.66490  -0.65709  -0.63370  -0.63253  -0.62019
 Alpha  occ. eigenvalues --   -0.62004  -0.61588  -0.61511  -0.60958  -0.60898
 Alpha  occ. eigenvalues --   -0.59961  -0.59668  -0.58062  -0.56711  -0.55843
 Alpha  occ. eigenvalues --   -0.54250  -0.52651  -0.52568  -0.52328  -0.50850
 Alpha  occ. eigenvalues --   -0.50649  -0.50391  -0.49851  -0.49775  -0.48833
 Alpha  occ. eigenvalues --   -0.47142  -0.46744  -0.46379  -0.46336  -0.46049
 Alpha  occ. eigenvalues --   -0.45958  -0.45948  -0.45852  -0.45432  -0.45183
 Alpha  occ. eigenvalues --   -0.44495  -0.44385  -0.43247  -0.43050  -0.43016
 Alpha  occ. eigenvalues --   -0.42743  -0.42719  -0.41960  -0.41598  -0.41309
 Alpha  occ. eigenvalues --   -0.41082  -0.40801  -0.39221  -0.39117  -0.38806
 Alpha  occ. eigenvalues --   -0.38474  -0.38255  -0.37594  -0.37458  -0.37059
 Alpha  occ. eigenvalues --   -0.36924  -0.36690  -0.36286  -0.35500  -0.35264
 Alpha  occ. eigenvalues --   -0.35246  -0.35095  -0.35030  -0.34216  -0.34024
 Alpha  occ. eigenvalues --   -0.33624  -0.33433  -0.32614  -0.32435  -0.31419
 Alpha  occ. eigenvalues --   -0.30850  -0.28580  -0.27884  -0.26634  -0.26578
 Alpha  occ. eigenvalues --   -0.26395  -0.26386  -0.25982  -0.25954  -0.25570
 Alpha  occ. eigenvalues --   -0.25258  -0.23572  -0.21961  -0.21814  -0.18610
 Alpha virt. eigenvalues --   -0.02831  -0.02567  -0.02361  -0.01799  -0.01392
 Alpha virt. eigenvalues --   -0.01002  -0.00652  -0.00497   0.00103   0.00432
 Alpha virt. eigenvalues --    0.01068   0.01719   0.03999   0.04646   0.05228
 Alpha virt. eigenvalues --    0.05424   0.05618   0.06407   0.06852   0.06867
 Alpha virt. eigenvalues --    0.07664   0.08000   0.08164   0.08196   0.08580
 Alpha virt. eigenvalues --    0.09337   0.09442   0.09696   0.09708   0.09883
 Alpha virt. eigenvalues --    0.10016   0.10053   0.10181   0.10863   0.11158
 Alpha virt. eigenvalues --    0.11351   0.11445   0.11722   0.12285   0.12289
 Alpha virt. eigenvalues --    0.12432   0.12605   0.12924   0.13158   0.13311
 Alpha virt. eigenvalues --    0.13411   0.14052   0.14118   0.14227   0.14252
 Alpha virt. eigenvalues --    0.14494   0.14634   0.15273   0.15316   0.15559
 Alpha virt. eigenvalues --    0.15915   0.16833   0.16867   0.17123   0.17271
 Alpha virt. eigenvalues --    0.17769   0.18061   0.18683   0.18895   0.19310
 Alpha virt. eigenvalues --    0.19445   0.20035   0.20159   0.20710   0.20800
 Alpha virt. eigenvalues --    0.21355   0.21469   0.21788   0.21847   0.22103
 Alpha virt. eigenvalues --    0.22539   0.22855   0.22950   0.22979   0.23369
 Alpha virt. eigenvalues --    0.23410   0.23495   0.23665   0.23978   0.24227
 Alpha virt. eigenvalues --    0.24290   0.24538   0.24789   0.24937   0.24993
 Alpha virt. eigenvalues --    0.25098   0.25162   0.25520   0.25648   0.25866
 Alpha virt. eigenvalues --    0.26297   0.26419   0.26595   0.27088   0.27240
 Alpha virt. eigenvalues --    0.27403   0.27867   0.27912   0.28246   0.28486
 Alpha virt. eigenvalues --    0.28683   0.28997   0.29124   0.29840   0.29917
 Alpha virt. eigenvalues --    0.30079   0.30088   0.30552   0.30753   0.30952
 Alpha virt. eigenvalues --    0.31075   0.31341   0.32055   0.32479   0.32584
 Alpha virt. eigenvalues --    0.32832   0.33095   0.33416   0.33492   0.33712
 Alpha virt. eigenvalues --    0.34077   0.34370   0.34409   0.34739   0.35042
 Alpha virt. eigenvalues --    0.35089   0.35221   0.35304   0.35790   0.36180
 Alpha virt. eigenvalues --    0.36224   0.36476   0.36574   0.36647   0.36762
 Alpha virt. eigenvalues --    0.37128   0.37447   0.37601   0.37894   0.37988
 Alpha virt. eigenvalues --    0.38246   0.38732   0.38910   0.39022   0.39150
 Alpha virt. eigenvalues --    0.39608   0.39646   0.39695   0.40100   0.40691
 Alpha virt. eigenvalues --    0.40997   0.41054   0.41083   0.41170   0.41343
 Alpha virt. eigenvalues --    0.41724   0.41770   0.41897   0.42178   0.42720
 Alpha virt. eigenvalues --    0.42968   0.43106   0.43150   0.43282   0.43332
 Alpha virt. eigenvalues --    0.43654   0.43915   0.44052   0.44203   0.44397
 Alpha virt. eigenvalues --    0.44629   0.44784   0.45013   0.45129   0.45278
 Alpha virt. eigenvalues --    0.45456   0.45652   0.45725   0.45826   0.45946
 Alpha virt. eigenvalues --    0.45978   0.46100   0.46361   0.46826   0.47075
 Alpha virt. eigenvalues --    0.47308   0.47649   0.47770   0.48075   0.48175
 Alpha virt. eigenvalues --    0.48322   0.48446   0.48859   0.49056   0.49336
 Alpha virt. eigenvalues --    0.49445   0.49527   0.50080   0.50135   0.50321
 Alpha virt. eigenvalues --    0.50449   0.50695   0.50756   0.50894   0.51157
 Alpha virt. eigenvalues --    0.51372   0.51671   0.51887   0.52080   0.52571
 Alpha virt. eigenvalues --    0.52699   0.52765   0.53002   0.53371   0.53712
 Alpha virt. eigenvalues --    0.54118   0.54191   0.54737   0.54768   0.54858
 Alpha virt. eigenvalues --    0.55038   0.55487   0.55558   0.55904   0.56308
 Alpha virt. eigenvalues --    0.56599   0.56983   0.57363   0.57445   0.58120
 Alpha virt. eigenvalues --    0.58236   0.58457   0.58796   0.59284   0.59327
 Alpha virt. eigenvalues --    0.60513   0.60721   0.60964   0.61219   0.61892
 Alpha virt. eigenvalues --    0.62143   0.62530   0.62613   0.63287   0.63957
 Alpha virt. eigenvalues --    0.63998   0.64379   0.64527   0.65509   0.65784
 Alpha virt. eigenvalues --    0.65959   0.66055   0.66708   0.66913   0.67347
 Alpha virt. eigenvalues --    0.67670   0.67750   0.67848   0.67957   0.68150
 Alpha virt. eigenvalues --    0.68397   0.68606   0.69002   0.69252   0.69425
 Alpha virt. eigenvalues --    0.69438   0.70057   0.70297   0.70735   0.70785
 Alpha virt. eigenvalues --    0.71146   0.71570   0.71761   0.72004   0.72322
 Alpha virt. eigenvalues --    0.72422   0.72837   0.73181   0.73472   0.73717
 Alpha virt. eigenvalues --    0.74060   0.74156   0.74430   0.74551   0.75011
 Alpha virt. eigenvalues --    0.75246   0.75409   0.75601   0.75679   0.76348
 Alpha virt. eigenvalues --    0.76855   0.76895   0.77531   0.78019   0.78178
 Alpha virt. eigenvalues --    0.78218   0.78753   0.78872   0.79312   0.79398
 Alpha virt. eigenvalues --    0.79696   0.79972   0.80107   0.80676   0.80754
 Alpha virt. eigenvalues --    0.81325   0.81454   0.81893   0.82297   0.82546
 Alpha virt. eigenvalues --    0.82806   0.82906   0.83380   0.83470   0.84016
 Alpha virt. eigenvalues --    0.84096   0.84364   0.84746   0.85128   0.85678
 Alpha virt. eigenvalues --    0.85881   0.86032   0.86384   0.86602   0.87498
 Alpha virt. eigenvalues --    0.87645   0.88076   0.88862   0.89376   0.89742
 Alpha virt. eigenvalues --    0.90007   0.90230   0.90665   0.90816   0.91083
 Alpha virt. eigenvalues --    0.91796   0.91821   0.92333   0.92458   0.92821
 Alpha virt. eigenvalues --    0.93087   0.93518   0.93646   0.94021   0.94280
 Alpha virt. eigenvalues --    0.94705   0.94885   0.95470   0.95603   0.95976
 Alpha virt. eigenvalues --    0.96015   0.97146   0.97458   0.97502   0.97699
 Alpha virt. eigenvalues --    0.98246   0.98432   0.98606   0.99234   0.99397
 Alpha virt. eigenvalues --    1.00112   1.00523   1.00744   1.00957   1.00992
 Alpha virt. eigenvalues --    1.01515   1.02210   1.03026   1.03062   1.03605
 Alpha virt. eigenvalues --    1.03754   1.04094   1.05243   1.05342   1.06261
 Alpha virt. eigenvalues --    1.07003   1.07175   1.07400   1.07636   1.08107
 Alpha virt. eigenvalues --    1.08766   1.08868   1.09296   1.09721   1.10047
 Alpha virt. eigenvalues --    1.10284   1.10644   1.11163   1.11264   1.12055
 Alpha virt. eigenvalues --    1.12254   1.12891   1.13150   1.13582   1.13726
 Alpha virt. eigenvalues --    1.14389   1.14570   1.14936   1.14966   1.15240
 Alpha virt. eigenvalues --    1.15694   1.16102   1.16636   1.16832   1.17049
 Alpha virt. eigenvalues --    1.17306   1.17466   1.17528   1.18116   1.18540
 Alpha virt. eigenvalues --    1.18781   1.19463   1.19527   1.20632   1.20723
 Alpha virt. eigenvalues --    1.21246   1.21274   1.21761   1.21915   1.22326
 Alpha virt. eigenvalues --    1.22461   1.22692   1.23453   1.23778   1.24034
 Alpha virt. eigenvalues --    1.24313   1.24412   1.24501   1.25087   1.25318
 Alpha virt. eigenvalues --    1.25462   1.25672   1.26461   1.26591   1.26688
 Alpha virt. eigenvalues --    1.27184   1.27357   1.27567   1.27604   1.27921
 Alpha virt. eigenvalues --    1.28406   1.28947   1.29027   1.29473   1.29667
 Alpha virt. eigenvalues --    1.29857   1.30019   1.30336   1.30439   1.31066
 Alpha virt. eigenvalues --    1.31330   1.31775   1.31860   1.32337   1.32430
 Alpha virt. eigenvalues --    1.33208   1.33375   1.33552   1.33749   1.34213
 Alpha virt. eigenvalues --    1.34263   1.35244   1.35530   1.35687   1.36601
 Alpha virt. eigenvalues --    1.36711   1.37876   1.37911   1.38079   1.38315
 Alpha virt. eigenvalues --    1.38639   1.39761   1.40088   1.40526   1.40945
 Alpha virt. eigenvalues --    1.41544   1.41657   1.42658   1.42818   1.42905
 Alpha virt. eigenvalues --    1.44363   1.44690   1.44708   1.45287   1.46013
 Alpha virt. eigenvalues --    1.46204   1.46363   1.46868   1.47195   1.47416
 Alpha virt. eigenvalues --    1.47947   1.48015   1.48884   1.49093   1.49825
 Alpha virt. eigenvalues --    1.49890   1.50526   1.51030   1.51358   1.51425
 Alpha virt. eigenvalues --    1.51620   1.51670   1.51889   1.51907   1.52542
 Alpha virt. eigenvalues --    1.53014   1.53449   1.53672   1.53942   1.54227
 Alpha virt. eigenvalues --    1.54365   1.55269   1.55770   1.55788   1.56143
 Alpha virt. eigenvalues --    1.56604   1.56888   1.57216   1.58013   1.58159
 Alpha virt. eigenvalues --    1.58558   1.58623   1.58953   1.59680   1.59979
 Alpha virt. eigenvalues --    1.60459   1.60525   1.61010   1.61159   1.61827
 Alpha virt. eigenvalues --    1.62392   1.62509   1.62749   1.62942   1.63195
 Alpha virt. eigenvalues --    1.63311   1.63545   1.63834   1.64220   1.64591
 Alpha virt. eigenvalues --    1.64872   1.65522   1.65832   1.66471   1.66615
 Alpha virt. eigenvalues --    1.67004   1.67964   1.68242   1.68306   1.68742
 Alpha virt. eigenvalues --    1.68948   1.69023   1.69616   1.69782   1.69841
 Alpha virt. eigenvalues --    1.70137   1.70685   1.70720   1.71049   1.71581
 Alpha virt. eigenvalues --    1.71900   1.72227   1.72281   1.72365   1.72402
 Alpha virt. eigenvalues --    1.72836   1.72977   1.73093   1.73430   1.73945
 Alpha virt. eigenvalues --    1.73989   1.74369   1.74600   1.74774   1.74950
 Alpha virt. eigenvalues --    1.75512   1.76116   1.76424   1.76631   1.76680
 Alpha virt. eigenvalues --    1.77386   1.78229   1.78645   1.78691   1.79382
 Alpha virt. eigenvalues --    1.79698   1.79850   1.80400   1.80597   1.80906
 Alpha virt. eigenvalues --    1.81362   1.81543   1.81916   1.81981   1.83173
 Alpha virt. eigenvalues --    1.83618   1.83754   1.84046   1.84124   1.84814
 Alpha virt. eigenvalues --    1.85349   1.85665   1.86057   1.86419   1.86958
 Alpha virt. eigenvalues --    1.87011   1.87798   1.87847   1.88225   1.88374
 Alpha virt. eigenvalues --    1.88510   1.89666   1.89818   1.90025   1.90668
 Alpha virt. eigenvalues --    1.91836   1.92075   1.92718   1.93033   1.93146
 Alpha virt. eigenvalues --    1.93615   1.93656   1.94101   1.95099   1.95231
 Alpha virt. eigenvalues --    1.95685   1.96005   1.96022   1.96213   1.96523
 Alpha virt. eigenvalues --    1.97316   1.97650   1.99099   1.99402   1.99513
 Alpha virt. eigenvalues --    1.99853   2.00533   2.00832   2.01081   2.02139
 Alpha virt. eigenvalues --    2.02319   2.02808   2.03349   2.03598   2.04050
 Alpha virt. eigenvalues --    2.04616   2.04753   2.04830   2.05098   2.05534
 Alpha virt. eigenvalues --    2.06515   2.07271   2.07798   2.08024   2.08245
 Alpha virt. eigenvalues --    2.08731   2.09239   2.10608   2.10818   2.11353
 Alpha virt. eigenvalues --    2.11572   2.11894   2.11944   2.12476   2.12589
 Alpha virt. eigenvalues --    2.13400   2.13534   2.13886   2.14141   2.14640
 Alpha virt. eigenvalues --    2.14730   2.15323   2.15634   2.15904   2.15991
 Alpha virt. eigenvalues --    2.16210   2.16602   2.17226   2.17638   2.17966
 Alpha virt. eigenvalues --    2.18043   2.18669   2.18824   2.18974   2.20030
 Alpha virt. eigenvalues --    2.20076   2.20538   2.21636   2.21661   2.22229
 Alpha virt. eigenvalues --    2.23088   2.23746   2.23899   2.24420   2.24697
 Alpha virt. eigenvalues --    2.25043   2.26055   2.26356   2.26749   2.26799
 Alpha virt. eigenvalues --    2.27204   2.27335   2.28246   2.28784   2.29367
 Alpha virt. eigenvalues --    2.29908   2.31015   2.31859   2.32729   2.33361
 Alpha virt. eigenvalues --    2.33632   2.33912   2.34158   2.34704   2.35051
 Alpha virt. eigenvalues --    2.36265   2.36369   2.37844   2.38249   2.38501
 Alpha virt. eigenvalues --    2.39049   2.39858   2.41113   2.41249   2.41733
 Alpha virt. eigenvalues --    2.41950   2.42393   2.42737   2.43115   2.43641
 Alpha virt. eigenvalues --    2.43925   2.44136   2.44585   2.45613   2.46045
 Alpha virt. eigenvalues --    2.46444   2.46521   2.47801   2.47931   2.48066
 Alpha virt. eigenvalues --    2.48408   2.49216   2.49531   2.49841   2.50164
 Alpha virt. eigenvalues --    2.51283   2.52253   2.52388   2.52679   2.52992
 Alpha virt. eigenvalues --    2.53511   2.53942   2.54150   2.54993   2.55382
 Alpha virt. eigenvalues --    2.55745   2.56091   2.56185   2.56649   2.57248
 Alpha virt. eigenvalues --    2.57964   2.58125   2.58277   2.58339   2.58940
 Alpha virt. eigenvalues --    2.59489   2.60114   2.60361   2.60619   2.60803
 Alpha virt. eigenvalues --    2.61591   2.61843   2.61869   2.62457   2.62734
 Alpha virt. eigenvalues --    2.62897   2.63243   2.63444   2.64252   2.64529
 Alpha virt. eigenvalues --    2.64750   2.64795   2.65509   2.65661   2.65784
 Alpha virt. eigenvalues --    2.65955   2.66405   2.66543   2.66572   2.66787
 Alpha virt. eigenvalues --    2.67009   2.67431   2.67538   2.67634   2.67779
 Alpha virt. eigenvalues --    2.67990   2.68199   2.68342   2.68644   2.68835
 Alpha virt. eigenvalues --    2.69043   2.69455   2.69569   2.70096   2.70427
 Alpha virt. eigenvalues --    2.70699   2.70793   2.71281   2.71328   2.72276
 Alpha virt. eigenvalues --    2.72506   2.72789   2.73116   2.73453   2.73795
 Alpha virt. eigenvalues --    2.73985   2.74069   2.74439   2.74851   2.74958
 Alpha virt. eigenvalues --    2.75670   2.75735   2.76055   2.76467   2.76772
 Alpha virt. eigenvalues --    2.77156   2.77469   2.77644   2.77917   2.78492
 Alpha virt. eigenvalues --    2.78576   2.78637   2.78776   2.78903   2.78964
 Alpha virt. eigenvalues --    2.79923   2.80324   2.80513   2.80894   2.80974
 Alpha virt. eigenvalues --    2.81150   2.81574   2.81943   2.82227   2.82368
 Alpha virt. eigenvalues --    2.82932   2.83667   2.83824   2.84073   2.84128
 Alpha virt. eigenvalues --    2.84327   2.84633   2.85211   2.85347   2.85747
 Alpha virt. eigenvalues --    2.85895   2.86358   2.86507   2.86581   2.86797
 Alpha virt. eigenvalues --    2.87505   2.87738   2.87940   2.88356   2.88465
 Alpha virt. eigenvalues --    2.88874   2.88972   2.89418   2.89720   2.89927
 Alpha virt. eigenvalues --    2.90218   2.90706   2.91080   2.91463   2.91725
 Alpha virt. eigenvalues --    2.92107   2.92449   2.92545   2.92653   2.93097
 Alpha virt. eigenvalues --    2.93666   2.93986   2.94171   2.94598   2.95451
 Alpha virt. eigenvalues --    2.95639   2.95713   2.96448   2.97322   2.97492
 Alpha virt. eigenvalues --    2.97794   2.98001   2.98463   2.99066   2.99874
 Alpha virt. eigenvalues --    2.99952   3.00362   3.00632   3.01184   3.02208
 Alpha virt. eigenvalues --    3.02274   3.02954   3.03992   3.04437   3.04823
 Alpha virt. eigenvalues --    3.05033   3.05570   3.06254   3.07196   3.07252
 Alpha virt. eigenvalues --    3.07984   3.08720   3.08751   3.09078   3.10119
 Alpha virt. eigenvalues --    3.10383   3.10798   3.11239   3.11325   3.11496
 Alpha virt. eigenvalues --    3.12725   3.12832   3.13404   3.13620   3.13907
 Alpha virt. eigenvalues --    3.13936   3.14143   3.14209   3.14644   3.15006
 Alpha virt. eigenvalues --    3.15018   3.15086   3.16076   3.16579   3.16908
 Alpha virt. eigenvalues --    3.17008   3.17102   3.17147   3.17799   3.17875
 Alpha virt. eigenvalues --    3.17983   3.18308   3.18469   3.18771   3.18992
 Alpha virt. eigenvalues --    3.19435   3.19824   3.19981   3.20248   3.20604
 Alpha virt. eigenvalues --    3.20686   3.20725   3.21693   3.22097   3.22320
 Alpha virt. eigenvalues --    3.22835   3.22985   3.23265   3.23355   3.23684
 Alpha virt. eigenvalues --    3.23969   3.24640   3.24946   3.25026   3.25263
 Alpha virt. eigenvalues --    3.25622   3.26028   3.26455   3.26487   3.26933
 Alpha virt. eigenvalues --    3.27305   3.27658   3.28171   3.28581   3.28880
 Alpha virt. eigenvalues --    3.29142   3.29547   3.29966   3.30535   3.30739
 Alpha virt. eigenvalues --    3.30803   3.30960   3.31100   3.31380   3.31505
 Alpha virt. eigenvalues --    3.32364   3.32375   3.32741   3.33003   3.33304
 Alpha virt. eigenvalues --    3.33609   3.33859   3.34142   3.34423   3.34698
 Alpha virt. eigenvalues --    3.35205   3.35235   3.35859   3.36188   3.36450
 Alpha virt. eigenvalues --    3.36776   3.36830   3.37296   3.37330   3.38027
 Alpha virt. eigenvalues --    3.38354   3.38796   3.39018   3.39082   3.39736
 Alpha virt. eigenvalues --    3.39830   3.39919   3.40342   3.40440   3.40843
 Alpha virt. eigenvalues --    3.41054   3.41201   3.41640   3.41682   3.42101
 Alpha virt. eigenvalues --    3.42463   3.42563   3.42798   3.43190   3.43577
 Alpha virt. eigenvalues --    3.43659   3.43698   3.44432   3.44634   3.44684
 Alpha virt. eigenvalues --    3.44822   3.44899   3.45638   3.45893   3.46132
 Alpha virt. eigenvalues --    3.46509   3.46772   3.47058   3.47182   3.47803
 Alpha virt. eigenvalues --    3.48357   3.48519   3.48789   3.48966   3.49339
 Alpha virt. eigenvalues --    3.49386   3.49592   3.49688   3.49937   3.50483
 Alpha virt. eigenvalues --    3.50500   3.50742   3.50976   3.52081   3.52470
 Alpha virt. eigenvalues --    3.52510   3.52991   3.53115   3.53710   3.53955
 Alpha virt. eigenvalues --    3.54246   3.54417   3.54519   3.55053   3.55088
 Alpha virt. eigenvalues --    3.55327   3.55381   3.55955   3.56342   3.56727
 Alpha virt. eigenvalues --    3.56894   3.57359   3.57892   3.57913   3.58362
 Alpha virt. eigenvalues --    3.58480   3.58939   3.59376   3.59471   3.59579
 Alpha virt. eigenvalues --    3.60274   3.60805   3.61077   3.61298   3.61730
 Alpha virt. eigenvalues --    3.62262   3.62923   3.63362   3.63876   3.64541
 Alpha virt. eigenvalues --    3.65452   3.65695   3.65914   3.66908   3.67806
 Alpha virt. eigenvalues --    3.68181   3.68329   3.69301   3.69423   3.70997
 Alpha virt. eigenvalues --    3.71103   3.71343   3.71384   3.71866   3.72065
 Alpha virt. eigenvalues --    3.72090   3.72576   3.73264   3.73621   3.74264
 Alpha virt. eigenvalues --    3.75075   3.75260   3.75882   3.75959   3.76640
 Alpha virt. eigenvalues --    3.77541   3.78211   3.78452   3.78966   3.79090
 Alpha virt. eigenvalues --    3.80606   3.80921   3.81528   3.82244   3.82643
 Alpha virt. eigenvalues --    3.84783   3.86056   3.86371   3.87212   3.88584
 Alpha virt. eigenvalues --    3.88804   3.89363   3.89779   3.90037   3.90906
 Alpha virt. eigenvalues --    3.91650   3.91725   3.92655   3.93513   3.93641
 Alpha virt. eigenvalues --    3.94578   3.94902   3.95074   3.95789   3.95832
 Alpha virt. eigenvalues --    3.96747   3.97455   3.97528   3.99163   4.00049
 Alpha virt. eigenvalues --    4.00778   4.02342   4.02419   4.02784   4.03151
 Alpha virt. eigenvalues --    4.03755   4.04206   4.04615   4.05009   4.05768
 Alpha virt. eigenvalues --    4.06456   4.06524   4.06832   4.07728   4.07827
 Alpha virt. eigenvalues --    4.08128   4.08257   4.10174   4.11248   4.11596
 Alpha virt. eigenvalues --    4.12435   4.12636   4.13214   4.13294   4.13603
 Alpha virt. eigenvalues --    4.14308   4.14524   4.15002   4.15411   4.15578
 Alpha virt. eigenvalues --    4.16706   4.17244   4.17661   4.18349   4.19608
 Alpha virt. eigenvalues --    4.19779   4.19879   4.20280   4.20554   4.20673
 Alpha virt. eigenvalues --    4.20930   4.21257   4.21471   4.21776   4.21869
 Alpha virt. eigenvalues --    4.22020   4.22736   4.22998   4.23151   4.23190
 Alpha virt. eigenvalues --    4.23754   4.23798   4.23854   4.24343   4.24529
 Alpha virt. eigenvalues --    4.24735   4.25042   4.25175   4.26000   4.26082
 Alpha virt. eigenvalues --    4.27012   4.27256   4.27495   4.27575   4.28322
 Alpha virt. eigenvalues --    4.28473   4.28738   4.29847   4.29926   4.30334
 Alpha virt. eigenvalues --    4.31412   4.31770   4.32335   4.32602   4.34070
 Alpha virt. eigenvalues --    4.34159   4.35088   4.35103   4.35868   4.35980
 Alpha virt. eigenvalues --    4.36927   4.37259   4.37596   4.38876   4.39075
 Alpha virt. eigenvalues --    4.40580   4.40747   4.41132   4.41626   4.43440
 Alpha virt. eigenvalues --    4.43798   4.46075   4.47725   4.47847   4.50762
 Alpha virt. eigenvalues --    4.52384   4.54269   4.55880   4.57583   4.58914
 Alpha virt. eigenvalues --    4.59406   4.59721   4.61617   4.61695   4.61873
 Alpha virt. eigenvalues --    4.62623   4.63155   4.64589   4.64667   4.65168
 Alpha virt. eigenvalues --    4.65343   4.66206   4.66338   4.66405   4.68345
 Alpha virt. eigenvalues --    4.68411   4.70239   4.71325   4.71459   4.73195
 Alpha virt. eigenvalues --    4.73249   4.73983   4.74275   4.75129   4.75231
 Alpha virt. eigenvalues --    4.76506   4.77861   4.78359   4.79222   4.79414
 Alpha virt. eigenvalues --    4.83480   4.86047   4.86145   4.86793   4.87225
 Alpha virt. eigenvalues --    4.87502   4.89764   4.91515   4.92912   4.93218
 Alpha virt. eigenvalues --    4.93838   4.94909   4.95375   4.96481   4.96644
 Alpha virt. eigenvalues --    4.96806   4.97480   4.98967   4.99083   5.02050
 Alpha virt. eigenvalues --    5.05776   5.06526   5.09128   5.10913   5.11195
 Alpha virt. eigenvalues --    5.13484   5.14223   5.14334   5.14672   5.14860
 Alpha virt. eigenvalues --    5.15129   5.15201   5.15629   5.15803   5.21367
 Alpha virt. eigenvalues --    5.22076   5.22709   5.27127   5.27463   5.27658
 Alpha virt. eigenvalues --    5.28260   5.28413   5.35355   5.35402   5.36133
 Alpha virt. eigenvalues --    5.36234   5.38574   5.38664   5.41594   5.42069
 Alpha virt. eigenvalues --    5.42348   5.43093   5.43917   5.46738   5.49109
 Alpha virt. eigenvalues --    5.49737   5.54453   5.58271   5.58389   5.58489
 Alpha virt. eigenvalues --    5.61035   5.61208   5.63378   5.67154   5.69121
 Alpha virt. eigenvalues --    5.91325   5.94601   6.00249   6.00490   6.03941
 Alpha virt. eigenvalues --    6.04193   6.36562   6.42938   6.49919   6.51367
 Alpha virt. eigenvalues --    6.80029   6.83440   6.89341   6.91267   7.03835
 Alpha virt. eigenvalues --    7.04064   7.31681   7.31949   7.49524   7.58587
 Alpha virt. eigenvalues --    7.83326   7.83535   8.08348   8.08786   8.12536
 Alpha virt. eigenvalues --    8.13616  16.04107  16.14117  22.21807  22.22246
 Alpha virt. eigenvalues --   22.26460  22.28741  22.44224  22.47698  22.56090
 Alpha virt. eigenvalues --   22.57881  22.58387  22.60726  22.62843  22.63175
 Alpha virt. eigenvalues --   22.63722  22.63795  22.64775  22.65447  22.66668
 Alpha virt. eigenvalues --   22.67200  22.73441  22.74241  22.77434  22.78515
 Alpha virt. eigenvalues --   22.79224  22.80569  22.80975  22.83190  22.84123
 Alpha virt. eigenvalues --   22.85569  22.88405  22.91744  22.96676  23.08187
 Alpha virt. eigenvalues --   23.09952  23.13651  23.15668  23.18364  23.19184
 Alpha virt. eigenvalues --   23.21359  23.43209  23.67483  44.66102  44.66842
          Condensed to atoms (all electrons):
 Mulliken charges:
               1
     1  P    0.036462
     2  C    0.154440
     3  C   -0.206396
     4  C   -0.110866
     5  C   -0.114007
     6  C   -0.134257
     7  C   -0.154731
     8  H    0.153682
     9  H    0.113098
    10  H    0.123706
    11  C    0.062958
    12  C   -0.121449
    13  C   -0.150278
    14  C   -0.103055
    15  C   -0.108940
    16  C   -0.210702
    17  H    0.124710
    18  H    0.117222
    19  H    0.139982
    20  C   -0.014576
    21  C   -0.186813
    22  C   -0.173659
    23  C   -0.250409
    24  C    0.249421
    25  C    0.069658
    26  C    0.072015
    27  C    0.247333
    28  C   -0.247860
    29  C   -0.174664
    30  C   -0.184109
    31  C   -0.023548
    32  P    0.037590
    33  C    0.157776
    34  C   -0.159156
    35  C   -0.129574
    36  C   -0.116873
    37  C   -0.108780
    38  C   -0.207883
    39  H    0.124078
    40  H    0.112954
    41  H    0.153151
    42  C    0.063241
    43  C   -0.211334
    44  C   -0.108196
    45  C   -0.103644
    46  C   -0.150254
    47  C   -0.122125
    48  H    0.140593
    49  H    0.117191
    50  H    0.124565
    51  H    0.138936
    52  H    0.108373
    53  H    0.094177
    54  O   -0.258099
    55  C   -0.156016
    56  H    0.126437
    57  H    0.114015
    58  C   -0.166739
    59  H    0.113864
    60  H    0.128737
    61  C   -0.165992
    62  H    0.113873
    63  H    0.128611
    64  C   -0.156739
    65  H    0.126246
    66  O   -0.257775
    67  H    0.114088
    68  H    0.094031
    69  H    0.108282
    70  H    0.138988
    71  H    0.115306
    72  H    0.116982
    73  H    0.113325
    74  H    0.107001
    75  H    0.117027
    76  H    0.115276
    77  H    0.106860
    78  H    0.113236
 Sum of Mulliken charges =  -0.00000
 Mulliken charges with hydrogens summed into heavy atoms:
               1
     1  P    0.036462
     2  C    0.154440
     3  C   -0.082690
     4  C    0.002459
     5  C   -0.000910
     6  C   -0.027255
     7  C   -0.001049
    11  C    0.062958
    12  C    0.018534
    13  C   -0.034972
    14  C    0.014167
    15  C    0.008043
    16  C   -0.085992
    20  C   -0.014576
    21  C   -0.047825
    22  C   -0.065377
    23  C   -0.156378
    24  C    0.249421
    25  C    0.069658
    26  C    0.072015
    27  C    0.247333
    28  C   -0.153683
    29  C   -0.066291
    30  C   -0.045173
    31  C   -0.023548
    32  P    0.037590
    33  C    0.157776
    34  C   -0.006006
    35  C   -0.022714
    36  C   -0.003919
    37  C    0.004455
    38  C   -0.083804
    42  C    0.063241
    43  C   -0.086769
    44  C    0.008831
    45  C    0.013547
    46  C   -0.034978
    47  C    0.018468
    54  O   -0.258099
    55  C    0.084436
    58  C    0.075862
    61  C    0.076493
    64  C    0.083596
    66  O   -0.257775
 Electronic spatial extent (au):  <R**2>=          21236.7828
 Charge=             -0.0000 electrons
 Dipole moment (field-independent basis, Debye):
    X=             -0.0349    Y=              4.1625    Z=              0.0656  Tot=              4.1632
 Quadrupole moment (field-independent basis, Debye-Ang):
   XX=           -260.1720   YY=           -244.5088   ZZ=           -247.8126
   XY=             -0.1880   XZ=             -3.4249   YZ=             -0.0511
 Traceless Quadrupole moment (field-independent basis, Debye-Ang):
   XX=             -9.3409   YY=              6.3223   ZZ=              3.0186
   XY=             -0.1880   XZ=             -3.4249   YZ=             -0.0511
 Octapole moment (field-independent basis, Debye-Ang**2):
  XXX=             -0.5770  YYY=            156.5080  ZZZ=              0.4742  XYY=             -3.2733
  XXY=              4.0425  XXZ=             -0.6711  XZZ=              2.6807  YZZ=             13.6966
  YYZ=              3.6763  XYZ=             58.7930
 Hexadecapole moment (field-independent basis, Debye-Ang**3):
 XXXX=         -12149.2134 YYYY=          -8357.9754 ZZZZ=          -7316.7726 XXXY=              9.4117
 XXXZ=           -280.1401 YYYX=              1.2239 YYYZ=             -8.6735 ZZZX=             89.5459
 ZZZY=              5.5429 XXYY=          -3607.5523 XXZZ=          -3401.6794 YYZZ=          -2501.2565
 XXYZ=             -1.1396 YYXZ=           -120.6282 ZZXY=            -10.7702
 N-N= 5.873741819108D+03 E-N=-1.731032375902D+04  KE= 2.364987276023D+03
 1\1\GINC-NOTCH078\SP\RPBE1PBE\def2TZVP\C40H34O2P2\U1010977\01-Nov-2021
 \0\\# PBE1PBE/def2TZVP int=(grid=ultrafine) empiricaldispersion=GD3BJ 
 nmr=giao\\title\\0,1\P,0,-0.7155233465,1.6868614779,-0.0169775876\C,0,
 -0.0515713246,2.1557307033,-1.6543209942\C,0,-0.8618341142,1.926053864
 7,-2.7831894463\C,0,-0.3972420749,2.2886485355,-4.0536463859\C,0,0.868
 2866576,2.8761235261,-4.2020226534\C,0,1.6719655806,3.1088359536,-3.07
 63864003\C,0,1.2148866102,2.7530024858,-1.8012045522\H,0,1.8564723141,
 2.9010457122,-0.9275110057\H,0,1.2300536905,3.1515750623,-5.1982597527
 \H,0,-1.8531037223,1.4787174451,-2.6469189093\C,0,-1.3495241961,3.2386
 981778,0.7340331516\C,0,-0.8440376004,4.4930113713,0.3499283968\C,0,-1
 .2847079359,5.6535111937,1.001618869\C,0,-2.2210803227,5.5661323893,2.
 0404106424\C,0,-2.7277633133,4.3148083079,2.4232899493\C,0,-2.30263990
 27,3.1535379791,1.7682846757\H,0,-2.7240020872,2.1796197845,2.03603479
 88\H,0,-2.565599035,6.4745376026,2.5453264851\H,0,-0.1185331503,4.5671
 596083,-0.4656717082\C,0,0.7473303573,1.298876957,1.0513920379\C,0,0.8
 576551555,1.9255387764,2.3096196591\C,0,1.9120779994,1.6006601334,3.16
 78798177\C,0,2.8708400284,0.6514758584,2.7984111218\C,0,2.763381309,0.
 0177141487,1.5525613879\C,0,1.7026517396,0.3308815806,0.6644038041\C,0
 ,1.7022299115,-0.3499386261,-0.6624388956\C,0,2.7721913037,-0.05231434
 8,-1.5447105115\C,0,2.87873504,-0.6900041937,-2.7886410269\C,0,1.90936
[...]
  1376. RY*(  15) C  64                  0.00002     2.62928   
  1377. RY*(  16) C  64                  0.00001     2.61048   
  1378. RY*(  17) C  64                  0.00000     3.31561   
  1379. RY*(  18) C  64                  0.00000    20.76774   
  1380. RY*(  19) C  64                  0.00001     2.49450   
  1381. RY*(  20) C  64                  0.00000     3.56669   
  1382. RY*(  21) C  64                  0.00000     3.56008   
  1383. RY*(  22) C  64                  0.00000     3.61602   
  1384. RY*(  23) C  64                  0.00000     3.63038   
  1385. RY*(  24) C  64                  0.00000     3.51517   
  1386. RY*(  25) C  64                  0.00000     3.71347   
  1387. RY*(  26) C  64                  0.00000     3.52345   
  1388. RY*(   1) H  65                  0.00062     1.23284   
  1389. RY*(   2) H  65                  0.00013     1.60071   
  1390. RY*(   3) H  65                  0.00013     2.47317   
  1391. RY*(   4) H  65                  0.00009     2.17003   
  1392. RY*(   5) H  65                  0.00001     2.93389   
  1393. RY*(   1) O  66                  0.00462     0.95326   
  1394. RY*(   2) O  66                  0.00281     1.03464   
  1395. RY*(   3) O  66                  0.00088     1.80769   
  1396. RY*(   4) O  66                  0.00038     1.83796   
  1397. RY*(   5) O  66                  0.00022     2.99127   
  1398. RY*(   6) O  66                  0.00016     2.53341   
  1399. RY*(   7) O  66                  0.00012     2.58417   
  1400. RY*(   8) O  66                  0.00011     2.82974   
  1401. RY*(   9) O  66                  0.00006     2.59398   
  1402. RY*(  10) O  66                  0.00005     4.59681   
  1403. RY*(  11) O  66                  0.00005     4.64846   
  1404. RY*(  12) O  66                  0.00003     4.11374   
  1405. RY*(  13) O  66                  0.00002     4.36754   
  1406. RY*(  14) O  66                  0.00001     3.76683   
  1407. RY*(  15) O  66                  0.00000    42.12516   
  1408. RY*(  16) O  66                  0.00001     5.87589   
  1409. RY*(  17) O  66                  0.00001     5.53510   
  1410. RY*(  18) O  66                  0.00000     6.31303   
  1411. RY*(  19) O  66                  0.00000     6.25908   
  1412. RY*(  20) O  66                  0.00000     5.37881   
  1413. RY*(  21) O  66                  0.00000     5.36168   
  1414. RY*(  22) O  66                  0.00000     5.61417   
  1415. RY*(  23) O  66                  0.00000     5.58892   
  1416. RY*(  24) O  66                  0.00000     5.52877   
  1417. RY*(  25) O  66                  0.00000     5.68922   
  1418. RY*(  26) O  66                  0.00000     5.69692   
  1419. RY*(   1) H  67                  0.00096     0.98052   
  1420. RY*(   2) H  67                  0.00013     2.31613   
  1421. RY*(   3) H  67                  0.00013     2.22241   
  1422. RY*(   4) H  67                  0.00009     2.03939   
  1423. RY*(   5) H  67                  0.00001     3.03862   
  1424. RY*(   1) H  68                  0.00069     1.91747   
  1425. RY*(   2) H  68                  0.00025     2.19559   
  1426. RY*(   3) H  68                  0.00010     2.76101   
  1427. RY*(   4) H  68                  0.00008     1.24695   
  1428. RY*(   5) H  68                  0.00001     3.01235   
  1429. RY*(   1) H  69                  0.00032     1.34426   
  1430. RY*(   2) H  69                  0.00018     1.79020   
  1431. RY*(   3) H  69                  0.00015     2.15343   
  1432. RY*(   4) H  69                  0.00010     2.81650   
  1433. RY*(   5) H  69                  0.00001     3.03899   
  1434. RY*(   1) H  70                  0.00098     0.86675   
  1435. RY*(   2) H  70                  0.00028     2.44539   
  1436. RY*(   3) H  70                  0.00018     2.24489   
  1437. RY*(   4) H  70                  0.00013     2.85711   
  1438. RY*(   5) H  70                  0.00001     3.24326   
  1439. RY*(   1) H  71                  0.00045     0.98917   
  1440. RY*(   2) H  71                  0.00019     1.85437   
  1441. RY*(   3) H  71                  0.00012     2.42883   
  1442. RY*(   4) H  71                  0.00012     2.43505   
  1443. RY*(   5) H  71                  0.00002     3.08910   
  1444. RY*(   1) H  72                  0.00035     0.89730   
  1445. RY*(   2) H  72                  0.00021     1.89079   
  1446. RY*(   3) H  72                  0.00012     2.67688   
  1447. RY*(   4) H  72                  0.00011     2.15607   
  1448. RY*(   5) H  72                  0.00002     3.10296   
  1449. RY*(   1) H  73                  0.00035     0.91120   
  1450. RY*(   2) H  73                  0.00020     1.86798   
  1451. RY*(   3) H  73                  0.00011     2.16428   
  1452. RY*(   4) H  73                  0.00008     2.75971   
  1453. RY*(   5) H  73                  0.00002     3.09475   
  1454. RY*(   1) H  74                  0.00043     1.09638   
  1455. RY*(   2) H  74                  0.00019     1.78254   
  1456. RY*(   3) H  74                  0.00015     2.17460   
  1457. RY*(   4) H  74                  0.00010     2.77753   
  1458. RY*(   5) H  74                  0.00002     3.08579   
  1459. RY*(   1) H  75                  0.00035     0.89797   
  1460. RY*(   2) H  75                  0.00021     1.89139   
  1461. RY*(   3) H  75                  0.00012     2.67642   
  1462. RY*(   4) H  75                  0.00011     2.15559   
  1463. RY*(   5) H  75                  0.00002     3.10300   
  1464. RY*(   1) H  76                  0.00045     0.98860   
  1465. RY*(   2) H  76                  0.00019     1.85401   
  1466. RY*(   3) H  76                  0.00012     2.44821   
  1467. RY*(   4) H  76                  0.00012     2.41687   
  1468. RY*(   5) H  76                  0.00002     3.08901   
  1469. RY*(   1) H  77                  0.00044     1.09558   
  1470. RY*(   2) H  77                  0.00019     1.78188   
  1471. RY*(   3) H  77                  0.00015     2.17433   
  1472. RY*(   4) H  77                  0.00010     2.77758   
  1473. RY*(   5) H  77                  0.00002     3.08570   
  1474. RY*(   1) H  78                  0.00035     0.91271   
  1475. RY*(   2) H  78                  0.00020     1.86803   
  1476. RY*(   3) H  78                  0.00011     2.16472   
  1477. RY*(   4) H  78                  0.00008     2.75956   
  1478. RY*(   5) H  78                  0.00002     3.09407   
  1479. BD*(   1) P   1 - C   2          0.03581     0.24764   
  1480. BD*(   1) P   1 - C  11          0.04504     0.24450   
  1481. BD*(   1) P   1 - C  20          0.04530     0.23344   
  1482. BD*(   1) C   2 - C   3          0.02389     0.53431   
  1483. BD*(   2) C   2 - C   3          0.36407     0.03580  1488(v),1493(v),1526(r)
                                                    1480(v),1528(r),217(g)
                                                    216(g),1542(r)
  1484. BD*(   1) C   2 - C   7          0.03186     0.53705   
  1485. BD*(   1) C   3 - C   4          0.01603     0.54876   
  1486. BD*(   1) C   3 - H  10          0.01574     0.41165   
  1487. BD*(   1) C   4 - C   5          0.01464     0.54267   
  1488. BD*(   2) C   4 - C   5          0.33357     0.03285  1483(v),1493(v),243(g)
                                                    269(g)
  1489. BD*(   1) C   4 - H  73          0.01348     0.41021   
  1490. BD*(   1) C   5 - C   6          0.01484     0.54424   
  1491. BD*(   1) C   5 - H   9          0.01307     0.40941   
  1492. BD*(   1) C   6 - C   7          0.01755     0.55203   
  1493. BD*(   2) C   6 - C   7          0.31581     0.03949  1483(v),1488(v),1528(r)
                                                    1526(r),295(g)
  1494. BD*(   1) C   6 - H  74          0.01438     0.40838   
  1495. BD*(   1) C   7 - H   8          0.01560     0.43082   
  1496. BD*(   1) C  11 - C  12          0.03043     0.53762   
  1497. BD*(   2) C  11 - C  12          0.35932     0.03334  1507(v),1502(v),1481(v)
                                                    388(g)
  1498. BD*(   1) C  11 - C  16          0.02309     0.52792   
  1499. BD*(   1) C  12 - C  13          0.01708     0.54817   
  1500. BD*(   1) C  12 - H  19          0.01691     0.42271   
  1501. BD*(   1) C  13 - C  14          0.01462     0.54292   
  1502. BD*(   2) C  13 - C  14          0.33073     0.03113  1507(v),1497(v),440(g)
                                                    414(g)
  1503. BD*(   1) C  13 - H  71          0.01401     0.40864   
  1504. BD*(   1) C  14 - C  15          0.01486     0.53988   
  1505. BD*(   1) C  14 - H  18          0.01308     0.40832   
  1506. BD*(   1) C  15 - C  16          0.01615     0.54758   
  1507. BD*(   2) C  15 - C  16          0.32145     0.03274  1497(v),1502(v),466(g)
                                                    492(g)
  1508. BD*(   1) C  15 - H  72          0.01356     0.40810   
  1509. BD*(   1) C  16 - H  17          0.01580     0.41462   
  1510. BD*(   1) C  20 - C  21          0.02205     0.54300   
  1511. BD*(   1) C  20 - C  25          0.03124     0.53649   
  1512. BD*(   2) C  20 - C  25          0.40260     0.04371  1526(v),1514(v),1519(v)
                                                    1542(r),1544(r),1479(v)
                                                    1524(v),533(g),1525(v)
                                                    662(g),558(v)
  1513. BD*(   1) C  21 - C  22          0.01601     0.56228   
  1514. BD*(   2) C  21 - C  22          0.33084     0.04281  1512(v),1519(v),1533(r)
                                                    585(g),558(g)
  1515. BD*(   1) C  21 - H  70          0.01682     0.42973   
  1516. BD*(   1) C  22 - C  23          0.01290     0.55812   
  1517. BD*(   1) C  22 - H  69          0.01373     0.41441   
  1518. BD*(   1) C  23 - C  24          0.03150     0.53623   
  1519. BD*(   2) C  23 - C  24          0.37602     0.03608  1514(v),1512(v),1528(r)
                                                    1544(r),1542(r),611(g)
                                                    1579(v),585(v)
  1520. BD*(   1) C  23 - H  68          0.01484     0.41191   
  1521. BD*(   1) C  24 - C  25          0.03903     0.51466   
  1522. BD*(   1) C  24 - O  66          0.03113     0.35538   
  1523. BD*(   1) C  25 - C  26          0.03032     0.44600   
  1524. BD*(   1) C  26 - C  27          0.03903     0.51480   
  1525. BD*(   1) C  26 - C  31          0.03123     0.53661   
  1526. BD*(   2) C  26 - C  31          0.40226     0.04380  1512(v),1533(v),1528(v)
                                                    1493(r),1483(r),1538(v)
                                                    1521(v),819(g),1511(v)
                                                    688(g),792(v)
  1527. BD*(   1) C  27 - C  28          0.03150     0.53619   
  1528. BD*(   2) C  27 - C  28          0.37616     0.03604  1533(v),1526(v),1519(r)
                                                    1493(r),1483(r),741(g)
                                                    1568(v),767(v)
  1529. BD*(   1) C  27 - O  54          0.03115     0.35500   
  1530. BD*(   1) C  28 - C  29          0.01289     0.55798   
  1531. BD*(   1) C  28 - H  53          0.01484     0.41183   
  1532. BD*(   1) C  29 - C  30          0.01601     0.56220   
  1533. BD*(   2) C  29 - C  30          0.33078     0.04280  1526(v),1528(v),1514(r)
                                                    767(g),792(g)
  1534. BD*(   1) C  29 - H  52          0.01372     0.41440   
  1535. BD*(   1) C  30 - C  31          0.02211     0.54316   
  1536. BD*(   1) C  30 - H  51          0.01684     0.42970   
  1537. BD*(   1) C  31 - P  32          0.04545     0.23348   
  1538. BD*(   1) P  32 - C  33          0.03567     0.24773   
  1539. BD*(   1) P  32 - C  42          0.04497     0.24465   
  1540. BD*(   1) C  33 - C  34          0.03198     0.53659   
  1541. BD*(   1) C  33 - C  38          0.02395     0.53456   
  1542. BD*(   2) C  33 - C  38          0.36351     0.03584  1549(v),1544(v),1512(r)
                                                    1539(v),1519(r),1003(g)
                                                    1002(g),1483(r)
  1543. BD*(   1) C  34 - C  35          0.01757     0.55196   
  1544. BD*(   2) C  34 - C  35          0.31558     0.03937  1542(v),1549(v),1519(r)
                                                    1512(r),925(g)
  1545. BD*(   1) C  34 - H  41          0.01555     0.43031   
  1546. BD*(   1) C  35 - C  36          0.01485     0.54406   
  1547. BD*(   1) C  35 - H  77          0.01439     0.40822   
  1548. BD*(   1) C  36 - C  37          0.01464     0.54264   
  1549. BD*(   2) C  36 - C  37          0.33323     0.03279  1542(v),1544(v),977(g)
                                                    951(g)
  1550. BD*(   1) C  36 - H  40          0.01307     0.40931   
  1551. BD*(   1) C  37 - C  38          0.01605     0.54877   
  1552. BD*(   1) C  37 - H  78          0.01349     0.41015   
  1553. BD*(   1) C  38 - H  39          0.01573     0.41194   
  1554. BD*(   1) C  42 - C  43          0.02302     0.52776   
  1555. BD*(   1) C  42 - C  47          0.03040     0.53791   
  1556. BD*(   2) C  42 - C  47          0.35939     0.03337  1558(v),1563(v),1537(v)
                                                    1174(g)
  1557. BD*(   1) C  43 - C  44          0.01616     0.54777   
  1558. BD*(   2) C  43 - C  44          0.32124     0.03281  1556(v),1563(v),1096(g)
                                                    1070(g)
  1559. BD*(   1) C  43 - H  50          0.01579     0.41464   
  1560. BD*(   1) C  44 - C  45          0.01486     0.53985   
  1561. BD*(   1) C  44 - H  75          0.01357     0.40813   
  1562. BD*(   1) C  45 - C  46          0.01461     0.54299   
  1563. BD*(   2) C  45 - C  46          0.33063     0.03116  1558(v),1556(v),1122(g)
                                                    1148(g)
  1564. BD*(   1) C  45 - H  49          0.01308     0.40834   
  1565. BD*(   1) C  46 - C  47          0.01707     0.54808   
  1566. BD*(   1) C  46 - H  76          0.01400     0.40865   
  1567. BD*(   1) C  47 - H  48          0.01693     0.42272   
  1568. BD*(   1) O  54 - C  55          0.02802     0.27252   
  1569. BD*(   1) C  55 - H  56          0.01955     0.34360   
  1570. BD*(   1) C  55 - H  57          0.02640     0.33956   
  1571. BD*(   1) C  55 - C  58          0.02431     0.34264   
  1572. BD*(   1) C  58 - H  59          0.00942     0.35273   
  1573. BD*(   1) C  58 - H  60          0.01538     0.35849   
  1574. BD*(   1) C  58 - C  61          0.01653     0.33311   
  1575. BD*(   1) C  61 - H  62          0.00943     0.35273   
  1576. BD*(   1) C  61 - H  63          0.01537     0.35847   
  1577. BD*(   1) C  61 - C  64          0.02427     0.34270   
  1578. BD*(   1) C  64 - H  65          0.01957     0.34357   
  1579. BD*(   1) C  64 - O  66          0.02799     0.27262   
  1580. BD*(   1) C  64 - H  67          0.02638     0.33968   
       -------------------------------
              Total Lewis  311.33228  ( 97.2913%)
        Valence non-Lewis    8.03237  (  2.5101%)
        Rydberg non-Lewis    0.63536  (  0.1985%)
       -------------------------------
            Total unit  1  320.00000  (100.0000%)
           Charge unit  1    0.00000
 1\1\GINC-NOTCH078\SP\RPBE1PBE\def2TZVP\C40H34O2P2\U1010977\01-Nov-2021
 \0\\# PBE1PBE/def2TZVP int=(grid=ultrafine) empiricaldispersion=GD3BJ 
 pop=nbo guess=read geom=check\\title\\0,1\P,0,-0.7155233465,1.68686147
 79,-0.0169775876\C,0,-0.0515713246,2.1557307033,-1.6543209942\C,0,-0.8
 618341142,1.9260538647,-2.7831894463\C,0,-0.3972420749,2.2886485355,-4
 .0536463859\C,0,0.8682866576,2.8761235261,-4.2020226534\C,0,1.67196558
 06,3.1088359536,-3.0763864003\C,0,1.2148866102,2.7530024858,-1.8012045
 522\H,0,1.8564723141,2.9010457122,-0.9275110057\H,0,1.2300536905,3.151
 5750623,-5.1982597527\H,0,-1.8531037223,1.4787174451,-2.6469189093\C,0
 ,-1.3495241961,3.2386981778,0.7340331516\C,0,-0.8440376004,4.493011371
 3,0.3499283968\C,0,-1.2847079359,5.6535111937,1.001618869\C,0,-2.22108
 03227,5.5661323893,2.0404106424\C,0,-2.7277633133,4.3148083079,2.42328
 99493\C,0,-2.3026399027,3.1535379791,1.7682846757\H,0,-2.7240020872,2.
 1796197845,2.0360347988\H,0,-2.565599035,6.4745376026,2.5453264851\H,0
 ,-0.1185331503,4.5671596083,-0.4656717082\C,0,0.7473303573,1.298876957
 ,1.0513920379\C,0,0.8576551555,1.9255387764,2.3096196591\C,0,1.9120779
 994,1.6006601334,3.1678798177\C,0,2.8708400284,0.6514758584,2.79841112
 18\C,0,2.763381309,0.0177141487,1.5525613879\C,0,1.7026517396,0.330881
 5806,0.6644038041\C,0,1.7022299115,-0.3499386261,-0.6624388956\C,0,2.7
 721913037,-0.052314348,-1.5447105115\C,0,2.87873504,-0.6900041937,-2.7
 886410269\C,0,1.9093608919,-1.6267077567,-3.1625374074\C,0,0.845738113
 2,-1.9362209647,-2.3099353755\C,0,0.7371564896,-1.3065572748,-1.053164
 4389\P,0,-0.7293927697,-1.6800671883,0.0150792462\C,0,-0.0633086215,-2
 .154805415,1.6498418597\C,0,1.1881844405,-2.7850922961,1.7884540575\C,
 0,1.6498533226,-3.1414765234,3.0617583872\C,0,0.8662755704,-2.87511295
 53,4.1941347115\C,0,-0.3839487865,-2.2538484963,4.0543437523\C,0,-0.85
 3365985,-1.8917283908,2.7855543213\H,0,-1.8327883997,-1.4173747988,2.6
 562024616\H,0,1.2319325282,-3.1506971316,5.1889104748\H,0,1.8156916232
 ,-2.9580387046,0.9090555948\C,0,-1.381172949,-3.223146923,-0.738292270
 2\C,0,-2.327058347,-3.1219220237,-1.7777752121\C,0,-2.7675956479,-4.27
 55755722,-2.4358397173\C,0,-2.2838659079,-5.5352668317,-2.0505179478\C
 ,0,-1.3553148812,-5.6384614777,-1.0062245965\C,0,-0.8989711792,-4.4856
 268648,-0.3515733759\H,0,-0.1801656929,-4.5721512957,0.4686945672\H,0,
 -2.6405466912,-6.4376899503,-2.5577035542\H,0,-2.730784369,-2.14087153
 28,-2.0469259055\H,0,0.1024276911,-2.6744772277,-2.6172598301\H,0,1.98
 43296171,-2.121235748,-4.1362971965\H,0,3.6961101171,-0.4491976445,-3.
 4728926031\O,0,3.6243391799,0.9379357703,-1.1147104036\C,0,4.999686816
 ,0.9053173391,-1.522468204\H,0,5.3699990213,1.918535467,-1.2907739226\
 H,0,5.093343582,0.7610561786,-2.6146659581\C,0,5.8017420497,-0.1474909
 724,-0.7541780138\H,0,6.835392928,-0.1229499821,-1.1452336012\H,0,5.39
 73797056,-1.146848982,-1.0014458077\C,0,5.7994625527,0.0679926045,0.78
 05448273\H,0,6.830507629,0.0273816483,1.1770865184\H,0,5.4091296245,1.
 0733438204,1.0260661932\C,0,4.9766198785,-0.9724939804,1.5434771259\H,
 0,5.3327910134,-1.9912705228,1.3139203843\O,0,3.6040466861,-0.98326246
 54,1.1257156419\H,0,5.0649826764,-0.8300775148,2.6363124575\H,0,3.6802
 917558,0.3981517142,3.4875362705\H,0,1.9877397815,2.0925930886,4.14289
 98966\H,0,0.1221681501,2.6726567254,2.6143197622\H,0,-0.8972762833,6.6
 29057106,0.6897888171\H,0,-3.47366032,4.2423114127,3.2211183122\H,0,-1
 .026453758,2.1088166172,-4.931269032\H,0,2.6635107067,3.559948917,-3.1
 896618291\H,0,-3.5076977985,-4.1904839719,-3.2378052158\H,0,-0.9863086
 386,-6.6204410078,-0.6922588025\H,0,2.6296650971,-3.6190547359,3.16837
 34696\H,0,-0.9972976089,-2.0472727568,4.9372840498\\Version=ES64L-G16R
 evB.01\State=1-A\HF=-2376.3291894\RMSD=2.581e-09\Dipole=1.637854,-0.01
 24761,0.0083418\Quadrupole=4.6981899,-7.1445459,2.446356,-0.1857747,0.
 079596,2.1432177\PG=C01 [X(C40H34O2P2)]\\@


 WHAT, THEN, IS TIME?  IF NO ONE ASKS ME, I KNOW WHAT IT IS.
 IF I WISH TO EXPLAIN WHAT IT IS TO HIM WHO ASKS ME, I DO NOT KNOW.
                                   -- ST. AUGUSTINE (FIFTH CENTURY)
 Job cpu time:       0 days  1 hours 35 minutes  7.5 seconds.
 Elapsed time:       0 days  0 hours  2 minutes 59.4 seconds.
 File lengths (MBytes):  RWF=   1275 Int=      0 D2E=      0 Chk=    192 Scr=      1
 Normal termination of Gaussian 16 at Mon Nov  1 19:02:59 2021.
