 Entering Gaussian System, Link 0=/uufs/chpc.utah.edu/sys/installdir/gaussian16/B01/E6B/g16/g16
 Input=R-C4-Tunephos_3.com
 Output=R-C4-Tunephos_3.log
 Initial command:
 /uufs/chpc.utah.edu/sys/installdir/gaussian16/B01/E6B/g16/l1.exe "/scratch/general/lustre/u1010977/3348969/notchpeak.peaks/Gau-94306.inp" -scrdir="/scratch/general/lustre/u1010977/3348969/notchpeak.peaks/"
 Entering Link 1 = /uufs/chpc.utah.edu/sys/installdir/gaussian16/B01/E6B/g16/l1.exe PID=     94308.
  
 Copyright (c) 1988-2017, Gaussian, Inc.  All Rights Reserved.
  
 This is part of the Gaussian(R) 16 program.  It is based on
 the Gaussian(R) 09 system (copyright 2009, Gaussian, Inc.),
 the Gaussian(R) 03 system (copyright 2003, Gaussian, Inc.),
 the Gaussian(R) 98 system (copyright 1998, Gaussian, Inc.),
 the Gaussian(R) 94 system (copyright 1995, Gaussian, Inc.),
 the Gaussian 92(TM) system (copyright 1992, Gaussian, Inc.),
 the Gaussian 90(TM) system (copyright 1990, Gaussian, Inc.),
 the Gaussian 88(TM) system (copyright 1988, Gaussian, Inc.),
 the Gaussian 86(TM) system (copyright 1986, Carnegie Mellon
 University), and the Gaussian 82(TM) system (copyright 1983,
 Carnegie Mellon University). Gaussian is a federally registered
 trademark of Gaussian, Inc.
  
 This software contains proprietary and confidential information,
 including trade secrets, belonging to Gaussian, Inc.
  
 This software is provided under written license and may be
 used, copied, transmitted, or stored only in accord with that
 written license.
  
 The following legend is applicable only to US Government
 contracts under FAR:
  
                    RESTRICTED RIGHTS LEGEND
  
 Use, reproduction and disclosure by the US Government is
 subject to restrictions as set forth in subparagraphs (a)
 and (c) of the Commercial Computer Software - Restricted
 Rights clause in FAR 52.227-19.
  
 Gaussian, Inc.
 340 Quinnipiac St., Bldg. 40, Wallingford CT 06492
  
  
 ---------------------------------------------------------------
 Warning -- This program may not be used in any manner that
 competes with the business of Gaussian, Inc. or will provide
 assistance to any competitor of Gaussian, Inc.  The licensee
 of this program is prohibited from giving any competitor of
 Gaussian, Inc. access to this program.  By using this program,
 the user acknowledges that Gaussian, Inc. is engaged in the
 business of creating and licensing software in the field of
 computational chemistry and represents and warrants to the
 licensee that it is not a competitor of Gaussian, Inc. and that
 it will not use this program in any manner prohibited above.
 ---------------------------------------------------------------
  

 Cite this work as:
 Gaussian 16, Revision B.01,
 M. J. Frisch, G. W. Trucks, H. B. Schlegel, G. E. Scuseria, 
 M. A. Robb, J. R. Cheeseman, G. Scalmani, V. Barone, 
 G. A. Petersson, H. Nakatsuji, X. Li, M. Caricato, A. V. Marenich, 
 J. Bloino, B. G. Janesko, R. Gomperts, B. Mennucci, H. P. Hratchian, 
 J. V. Ortiz, A. F. Izmaylov, J. L. Sonnenberg, D. Williams-Young, 
 F. Ding, F. Lipparini, F. Egidi, J. Goings, B. Peng, A. Petrone, 
 T. Henderson, D. Ranasinghe, V. G. Zakrzewski, J. Gao, N. Rega, 
 G. Zheng, W. Liang, M. Hada, M. Ehara, K. Toyota, R. Fukuda, 
 J. Hasegawa, M. Ishida, T. Nakajima, Y. Honda, O. Kitao, H. Nakai, 
 T. Vreven, K. Throssell, J. A. Montgomery, Jr., J. E. Peralta, 
 F. Ogliaro, M. J. Bearpark, J. J. Heyd, E. N. Brothers, K. N. Kudin, 
 V. N. Staroverov, T. A. Keith, R. Kobayashi, J. Normand, 
 K. Raghavachari, A. P. Rendell, J. C. Burant, S. S. Iyengar, 
 J. Tomasi, M. Cossi, J. M. Millam, M. Klene, C. Adamo, R. Cammi, 
 J. W. Ochterski, R. L. Martin, K. Morokuma, O. Farkas, 
 J. B. Foresman, and D. J. Fox, Gaussian, Inc., Wallingford CT, 2016.
 
 ******************************************
 Gaussian 16:  ES64L-G16RevB.01 20-Dec-2017
                29-Oct-2021 
 ******************************************
 %NProcShared=32
 Will use up to   32 processors via shared memory.
 %mem=18GB
 %chk=R-C4-Tunephos_3.chk
 ----------------------------------------------------------------------
 # PBEPBE gen 6D pseudo=read scf=maxcycles=500 denfit int=(grid=ultrafi
 ne) empiricaldispersion=GD3BJ opt freq=noraman
 ----------------------------------------------------------------------
 1/18=20,19=15,26=4,38=1/1,3;
 2/9=110,12=2,17=6,18=5,40=1/2;
 3/5=7,8=2,11=2,16=1,17=8,25=1,30=1,71=1,74=1009,75=-5,82=47,124=41/1,2,3;
 4//1;
 5/5=2,7=500,38=5/2;
 6/7=2,8=2,9=2,10=2,28=1/1;
 7//1,2,3,16;
 1/18=20,19=15,26=4/3(2);
 2/9=110/2;
 99//99;
 2/9=110/2;
 3/5=7,6=1,8=2,11=2,16=1,17=8,25=1,30=1,71=1,74=1009,75=-5,82=7,124=41/1,2,3;
 4/5=5,16=3,69=1/1;
 5/5=2,7=500,38=5/2;
 7//1,2,3,16;
 1/18=20,19=15,26=4/3(-5);
 2/9=110/2;
 6/7=2,8=2,9=2,10=2,19=2,28=1/1;
 99/9=1/99;
 -----
 title
 -----
 Symbolic Z-matrix:
 Charge =  0 Multiplicity = 1
 Pd                   -2.4656    0.0144   -0.0009 
 P                    -0.7596    1.7091    0.0434 
 C                    -0.1313    2.2008   -1.6482 
 C                    -0.969     2.0429   -2.7718 
 C                    -0.5184    2.4006   -4.0576 
 C                     0.7772    2.9232   -4.2295 
 C                     1.618     3.0915   -3.1135 
 C                     1.1624    2.7349   -1.8299 
 H                     1.8185    2.8565   -0.9792 
 H                     1.1254    3.1957   -5.2153 
 H                    -1.968     1.6506   -2.65 
 C                    -1.3105    3.3531    0.7852 
 C                    -0.8304    4.5911    0.3014 
 C                    -1.2505    5.8052    0.8786 
 C                    -2.1591    5.7986    1.9524 
 C                    -2.6449    4.5747    2.4465 
 C                    -2.2209    3.364     1.8659 
 H                    -2.6026    2.4324    2.257 
 H                    -2.484     6.7297    2.3938 
 H                    -0.1336    4.6269   -0.5212 
 C                     0.719     1.2024    1.1068 
 C                     0.7715    1.7202    2.4209 
 C                     1.7985    1.3713    3.307 
 C                     2.8148    0.5104    2.8798 
 C                     2.8119   -0.0019    1.563 
 C                     1.7388    0.2999    0.6768 
 C                     1.7358   -0.3206   -0.6746 
 C                     2.813    -0.0313   -1.5599 
 C                     2.8109   -0.5437   -2.8768 
 C                     1.7849   -1.3925   -3.3048 
 C                     0.7531   -1.7294   -2.4196 
 C                     0.7058   -1.2111   -1.1054 
 P                    -0.7797   -1.7003   -0.0435 
 C                    -0.1588   -2.1991    1.6488 
 C                     1.1283   -2.7483    1.8319 
 C                     1.5784   -3.1102    3.1159 
 C                     0.7385   -2.9321    4.2311 
 C                    -0.5507   -2.3944    4.0578 
 C                    -0.9958   -2.0315    2.7716 
 H                    -1.99     -1.6276    2.6487 
 H                     1.0824   -3.2086    5.2172 
 H                     1.7838   -2.8776    0.9819 
 C                    -1.3492   -3.3378   -0.7856 
 C                    -2.2587   -3.3381   -1.8671 
 C                    -2.6963   -4.5439   -2.448 
 C                    -2.2252   -5.7733   -1.9534 
 C                    -1.3176   -5.7905   -0.8789 
 C                    -0.8839   -4.5812   -0.3014 
 H                    -0.1883   -4.6251    0.5218 
 H                    -2.5606   -6.7005   -2.3951 
 H                    -2.6291   -2.4022   -2.2586 
 H                    -0.0155   -2.3901   -2.7848 
 H                     1.7892   -1.7863   -4.3107 
 H                     3.5902   -0.2844   -3.5766 
 O                     3.834     0.7829   -1.1149 
 C                     5.1439    0.5209   -1.6078 
 H                     5.3782    1.2777   -2.357 
 H                     5.2432   -0.4513   -2.0922 
 C                     6.1658    0.5796   -0.4633 
 H                     6.043     1.501     0.1068 
 H                     7.1548    0.6425   -0.918 
 C                     6.1582   -0.6524    0.469 
 H                     6.0249   -1.5723   -0.1011 
 H                     7.146    -0.7271    0.9245 
 C                     5.1361   -0.5816    1.6127 
 H                     5.3608   -1.3412    2.3621 
 O                     3.8236   -0.8282    1.1188 
 H                     5.2465    0.3893    2.0972 
 H                     3.5904    0.242     3.5803 
 H                     1.8066    1.7651    4.3128 
 H                     0.0104    2.39      2.7855 
 Cl                   -4.1298    1.643    -0.1036 
 Cl                   -4.1491   -1.5944    0.1001 
 H                    -0.8752    6.7425    0.494 
 H                    -3.3455    4.564     3.269 
 H                    -1.1677    2.2756   -4.912 
 H                     2.6152    3.4874   -3.2387 
 H                    -3.396    -4.525    -3.2711 
 H                    -0.9536   -6.732    -0.4939 
 H                     2.5708   -3.5177    3.2421 
 H                    -1.1994   -2.2619    4.9115 
 

 GradGradGradGradGradGradGradGradGradGradGradGradGradGradGradGradGradGrad
 Berny optimization.
 Initialization pass.
                           ----------------------------
                           !    Initial Parameters    !
                           ! (Angstroms and Degrees)  !
 --------------------------                            --------------------------
 ! Name  Definition              Value          Derivative Info.                !
 --------------------------------------------------------------------------------
 ! R1    R(1,2)                  2.4051         estimate D2E/DX2                !
 ! R2    R(1,33)                 2.4051         estimate D2E/DX2                !
 ! R3    R(1,72)                 2.3308         estimate D2E/DX2                !
 ! R4    R(1,73)                 2.3308         estimate D2E/DX2                !
 ! R5    R(2,3)                  1.8703         estimate D2E/DX2                !
 ! R6    R(2,12)                 1.8859         estimate D2E/DX2                !
 ! R7    R(2,21)                 1.8905         estimate D2E/DX2                !
 ! R8    R(3,4)                  1.4104         estimate D2E/DX2                !
 ! R9    R(3,8)                  1.4114         estimate D2E/DX2                !
 ! R10   R(4,5)                  1.4086         estimate D2E/DX2                !
 ! R11   R(4,11)                 1.0802         estimate D2E/DX2                !
 ! R12   R(5,6)                  1.4076         estimate D2E/DX2                !
 ! R13   R(5,76)                 1.0804         estimate D2E/DX2                !
 ! R14   R(6,7)                  1.4074         estimate D2E/DX2                !
 ! R15   R(6,10)                 1.0804         estimate D2E/DX2                !
 ! R16   R(7,8)                  1.408          estimate D2E/DX2                !
 ! R17   R(7,77)                 1.0802         estimate D2E/DX2                !
 ! R18   R(8,9)                  1.0812         estimate D2E/DX2                !
 ! R19   R(12,13)                1.4132         estimate D2E/DX2                !
 ! R20   R(12,17)                1.4131         estimate D2E/DX2                !
 ! R21   R(13,14)                1.4084         estimate D2E/DX2                !
 ! R22   R(13,20)                1.0786         estimate D2E/DX2                !
 ! R23   R(14,15)                1.4066         estimate D2E/DX2                !
 ! R24   R(14,74)                1.0804         estimate D2E/DX2                !
 ! R25   R(15,16)                1.4064         estimate D2E/DX2                !
 ! R26   R(15,19)                1.0804         estimate D2E/DX2                !
 ! R27   R(16,17)                1.4081         estimate D2E/DX2                !
 ! R28   R(16,75)                1.0805         estimate D2E/DX2                !
 ! R29   R(17,18)                1.0801         estimate D2E/DX2                !
 ! R30   R(21,22)                1.4134         estimate D2E/DX2                !
 ! R31   R(21,26)                1.4281         estimate D2E/DX2                !
 ! R32   R(22,23)                1.4006         estimate D2E/DX2                !
 ! R33   R(22,71)                1.0774         estimate D2E/DX2                !
 ! R34   R(23,24)                1.3988         estimate D2E/DX2                !
 ! R35   R(23,70)                1.0802         estimate D2E/DX2                !
 ! R36   R(24,25)                1.4129         estimate D2E/DX2                !
 ! R37   R(24,69)                1.079          estimate D2E/DX2                !
 ! R38   R(25,26)                1.4241         estimate D2E/DX2                !
 ! R39   R(25,67)                1.3797         estimate D2E/DX2                !
 ! R40   R(26,27)                1.487          estimate D2E/DX2                !
 ! R41   R(27,28)                1.424          estimate D2E/DX2                !
 ! R42   R(27,32)                1.4281         estimate D2E/DX2                !
 ! R43   R(28,29)                1.4131         estimate D2E/DX2                !
 ! R44   R(28,55)                1.3796         estimate D2E/DX2                !
 ! R45   R(29,30)                1.3987         estimate D2E/DX2                !
 ! R46   R(29,54)                1.079          estimate D2E/DX2                !
 ! R47   R(30,31)                1.4006         estimate D2E/DX2                !
 ! R48   R(30,53)                1.0802         estimate D2E/DX2                !
 ! R49   R(31,32)                1.4135         estimate D2E/DX2                !
 ! R50   R(31,52)                1.0773         estimate D2E/DX2                !
 ! R51   R(32,33)                1.8904         estimate D2E/DX2                !
 ! R52   R(33,34)                1.8703         estimate D2E/DX2                !
 ! R53   R(33,43)                1.8859         estimate D2E/DX2                !
 ! R54   R(34,35)                1.4113         estimate D2E/DX2                !
 ! R55   R(34,39)                1.4104         estimate D2E/DX2                !
 ! R56   R(35,36)                1.4079         estimate D2E/DX2                !
 ! R57   R(35,42)                1.0812         estimate D2E/DX2                !
 ! R58   R(36,37)                1.4074         estimate D2E/DX2                !
 ! R59   R(36,80)                1.0802         estimate D2E/DX2                !
 ! R60   R(37,38)                1.4075         estimate D2E/DX2                !
 ! R61   R(37,41)                1.0803         estimate D2E/DX2                !
 ! R62   R(38,39)                1.4086         estimate D2E/DX2                !
 ! R63   R(38,81)                1.0804         estimate D2E/DX2                !
 ! R64   R(39,40)                1.0801         estimate D2E/DX2                !
 ! R65   R(43,44)                1.4131         estimate D2E/DX2                !
 ! R66   R(43,48)                1.4132         estimate D2E/DX2                !
 ! R67   R(44,45)                1.4082         estimate D2E/DX2                !
 ! R68   R(44,51)                1.08           estimate D2E/DX2                !
 ! R69   R(45,46)                1.4064         estimate D2E/DX2                !
 ! R70   R(45,78)                1.0805         estimate D2E/DX2                !
 ! R71   R(46,47)                1.4066         estimate D2E/DX2                !
 ! R72   R(46,50)                1.0804         estimate D2E/DX2                !
 ! R73   R(47,48)                1.4085         estimate D2E/DX2                !
 ! R74   R(47,79)                1.0803         estimate D2E/DX2                !
 ! R75   R(48,49)                1.0786         estimate D2E/DX2                !
 ! R76   R(55,56)                1.4239         estimate D2E/DX2                !
 ! R77   R(56,57)                1.0904         estimate D2E/DX2                !
 ! R78   R(56,58)                1.0907         estimate D2E/DX2                !
 ! R79   R(56,59)                1.5354         estimate D2E/DX2                !
 ! R80   R(59,60)                1.0904         estimate D2E/DX2                !
 ! R81   R(59,61)                1.0903         estimate D2E/DX2                !
 ! R82   R(59,62)                1.545          estimate D2E/DX2                !
 ! R83   R(62,63)                1.0904         estimate D2E/DX2                !
 ! R84   R(62,64)                1.0903         estimate D2E/DX2                !
 ! R85   R(62,65)                1.5355         estimate D2E/DX2                !
 ! R86   R(65,66)                1.0905         estimate D2E/DX2                !
 ! R87   R(65,67)                1.4239         estimate D2E/DX2                !
 ! R88   R(65,68)                1.0907         estimate D2E/DX2                !
 ! A1    A(2,1,33)              90.3134         estimate D2E/DX2                !
 ! A2    A(2,1,72)              90.8554         estimate D2E/DX2                !
 ! A3    A(33,1,73)             90.8576         estimate D2E/DX2                !
 ! A4    A(72,1,73)             88.1939         estimate D2E/DX2                !
 ! A5    A(1,2,3)              114.0088         estimate D2E/DX2                !
 ! A6    A(1,2,12)             114.4751         estimate D2E/DX2                !
 ! A7    A(1,2,21)             112.1043         estimate D2E/DX2                !
 ! A8    A(3,2,12)             102.9862         estimate D2E/DX2                !
 ! A9    A(3,2,21)             108.4502         estimate D2E/DX2                !
 ! A10   A(12,2,21)            103.938          estimate D2E/DX2                !
 ! A11   A(2,3,4)              119.4448         estimate D2E/DX2                !
 ! A12   A(2,3,8)              121.5914         estimate D2E/DX2                !
 ! A13   A(4,3,8)              118.963          estimate D2E/DX2                !
 ! A14   A(3,4,5)              120.5819         estimate D2E/DX2                !
 ! A15   A(3,4,11)             120.0105         estimate D2E/DX2                !
 ! A16   A(5,4,11)             119.4065         estimate D2E/DX2                !
 ! A17   A(4,5,6)              120.0128         estimate D2E/DX2                !
 ! A18   A(4,5,76)             120.016          estimate D2E/DX2                !
 ! A19   A(6,5,76)             119.9711         estimate D2E/DX2                !
 ! A20   A(5,6,7)              119.8319         estimate D2E/DX2                !
 ! A21   A(5,6,10)             120.1139         estimate D2E/DX2                !
 ! A22   A(7,6,10)             120.0542         estimate D2E/DX2                !
 ! A23   A(6,7,8)              119.9546         estimate D2E/DX2                !
 ! A24   A(6,7,77)             120.2278         estimate D2E/DX2                !
 ! A25   A(8,7,77)             119.8162         estimate D2E/DX2                !
 ! A26   A(3,8,7)              120.6523         estimate D2E/DX2                !
 ! A27   A(3,8,9)              119.8356         estimate D2E/DX2                !
 ! A28   A(7,8,9)              119.5035         estimate D2E/DX2                !
 ! A29   A(2,12,13)            121.9895         estimate D2E/DX2                !
 ! A30   A(2,12,17)            119.7189         estimate D2E/DX2                !
 ! A31   A(13,12,17)           118.289          estimate D2E/DX2                !
 ! A32   A(12,13,14)           120.8983         estimate D2E/DX2                !
 ! A33   A(12,13,20)           120.6375         estimate D2E/DX2                !
 ! A34   A(14,13,20)           118.4641         estimate D2E/DX2                !
 ! A35   A(13,14,15)           120.0971         estimate D2E/DX2                !
 ! A36   A(13,14,74)           119.8903         estimate D2E/DX2                !
 ! A37   A(15,14,74)           120.0125         estimate D2E/DX2                !
 ! A38   A(14,15,16)           119.6949         estimate D2E/DX2                !
 ! A39   A(14,15,19)           120.1368         estimate D2E/DX2                !
 ! A40   A(16,15,19)           120.1681         estimate D2E/DX2                !
 ! A41   A(15,16,17)           119.9579         estimate D2E/DX2                !
 ! A42   A(15,16,75)           120.001          estimate D2E/DX2                !
 ! A43   A(17,16,75)           120.0408         estimate D2E/DX2                !
 ! A44   A(12,17,16)           121.0626         estimate D2E/DX2                !
 ! A45   A(12,17,18)           119.8652         estimate D2E/DX2                !
 ! A46   A(16,17,18)           119.0721         estimate D2E/DX2                !
 ! A47   A(2,21,22)            116.9907         estimate D2E/DX2                !
 ! A48   A(2,21,26)            123.9552         estimate D2E/DX2                !
 ! A49   A(22,21,26)           119.0088         estimate D2E/DX2                !
 ! A50   A(21,22,23)           121.6135         estimate D2E/DX2                !
 ! A51   A(21,22,71)           121.0731         estimate D2E/DX2                !
 ! A52   A(23,22,71)           117.3068         estimate D2E/DX2                !
 ! A53   A(22,23,24)           119.5293         estimate D2E/DX2                !
 ! A54   A(22,23,70)           120.2506         estimate D2E/DX2                !
 ! A55   A(24,23,70)           120.22           estimate D2E/DX2                !
 ! A56   A(23,24,25)           120.4175         estimate D2E/DX2                !
 ! A57   A(23,24,69)           118.4949         estimate D2E/DX2                !
 ! A58   A(25,24,69)           121.0849         estimate D2E/DX2                !
 ! A59   A(24,25,26)           120.3089         estimate D2E/DX2                !
 ! A60   A(24,25,67)           121.0429         estimate D2E/DX2                !
 ! A61   A(26,25,67)           118.6279         estimate D2E/DX2                !
 ! A62   A(21,26,25)           118.9906         estimate D2E/DX2                !
 ! A63   A(21,26,27)           122.4049         estimate D2E/DX2                !
 ! A64   A(25,26,27)           118.5956         estimate D2E/DX2                !
 ! A65   A(26,27,28)           118.5996         estimate D2E/DX2                !
 ! A66   A(26,27,32)           122.3973         estimate D2E/DX2                !
 ! A67   A(28,27,32)           118.9943         estimate D2E/DX2                !
 ! A68   A(27,28,29)           120.3041         estimate D2E/DX2                !
 ! A69   A(27,28,55)           118.6321         estimate D2E/DX2                !
 ! A70   A(29,28,55)           121.0439         estimate D2E/DX2                !
 ! A71   A(28,29,30)           120.4189         estimate D2E/DX2                !
 ! A72   A(28,29,54)           121.0778         estimate D2E/DX2                !
 ! A73   A(30,29,54)           118.5006         estimate D2E/DX2                !
 ! A74   A(29,30,31)           119.5357         estimate D2E/DX2                !
 ! A75   A(29,30,53)           120.2152         estimate D2E/DX2                !
 ! A76   A(31,30,53)           120.2491         estimate D2E/DX2                !
 ! A77   A(30,31,32)           121.6052         estimate D2E/DX2                !
 ! A78   A(30,31,52)           117.3125         estimate D2E/DX2                !
 ! A79   A(32,31,52)           121.0758         estimate D2E/DX2                !
 ! A80   A(27,32,31)           119.0108         estimate D2E/DX2                !
 ! A81   A(27,32,33)           123.9635         estimate D2E/DX2                !
 ! A82   A(31,32,33)           116.9796         estimate D2E/DX2                !
 ! A83   A(1,33,32)            112.104          estimate D2E/DX2                !
 ! A84   A(1,33,34)            114.005          estimate D2E/DX2                !
 ! A85   A(1,33,43)            114.4784         estimate D2E/DX2                !
 ! A86   A(32,33,34)           108.4456         estimate D2E/DX2                !
 ! A87   A(32,33,43)           103.943          estimate D2E/DX2                !
 ! A88   A(34,33,43)           102.9871         estimate D2E/DX2                !
 ! A89   A(33,34,35)           121.5958         estimate D2E/DX2                !
 ! A90   A(33,34,39)           119.4452         estimate D2E/DX2                !
 ! A91   A(35,34,39)           118.958          estimate D2E/DX2                !
 ! A92   A(34,35,36)           120.6576         estimate D2E/DX2                !
 ! A93   A(34,35,42)           119.8333         estimate D2E/DX2                !
 ! A94   A(36,35,42)           119.5005         estimate D2E/DX2                !
 ! A95   A(35,36,37)           119.9554         estimate D2E/DX2                !
 ! A96   A(35,36,80)           119.8165         estimate D2E/DX2                !
 ! A97   A(37,36,80)           120.2268         estimate D2E/DX2                !
 ! A98   A(36,37,38)           119.8264         estimate D2E/DX2                !
 ! A99   A(36,37,41)           120.0599         estimate D2E/DX2                !
 ! A100  A(38,37,41)           120.1138         estimate D2E/DX2                !
 ! A101  A(37,38,39)           120.0175         estimate D2E/DX2                !
 ! A102  A(37,38,81)           119.9685         estimate D2E/DX2                !
 ! A103  A(39,38,81)           120.0139         estimate D2E/DX2                !
 ! A104  A(34,39,38)           120.5815         estimate D2E/DX2                !
 ! A105  A(34,39,40)           120.0052         estimate D2E/DX2                !
 ! A106  A(38,39,40)           119.4121         estimate D2E/DX2                !
 ! A107  A(33,43,44)           119.7171         estimate D2E/DX2                !
 ! A108  A(33,43,48)           121.9878         estimate D2E/DX2                !
 ! A109  A(44,43,48)           118.2924         estimate D2E/DX2                !
 ! A110  A(43,44,45)           121.0589         estimate D2E/DX2                !
 ! A111  A(43,44,51)           119.8675         estimate D2E/DX2                !
 ! A112  A(45,44,51)           119.0735         estimate D2E/DX2                !
 ! A113  A(44,45,46)           119.9574         estimate D2E/DX2                !
 ! A114  A(44,45,78)           120.0348         estimate D2E/DX2                !
 ! A115  A(46,45,78)           120.0075         estimate D2E/DX2                !
 ! A116  A(45,46,47)           119.7002         estimate D2E/DX2                !
 ! A117  A(45,46,50)           120.1602         estimate D2E/DX2                !
 ! A118  A(47,46,50)           120.1395         estimate D2E/DX2                !
 ! A119  A(46,47,48)           120.0903         estimate D2E/DX2                !
 ! A120  A(46,47,79)           120.0185         estimate D2E/DX2                !
 ! A121  A(48,47,79)           119.8911         estimate D2E/DX2                !
 ! A122  A(43,48,47)           120.9006         estimate D2E/DX2                !
 ! A123  A(43,48,49)           120.6404         estimate D2E/DX2                !
 ! A124  A(47,48,49)           118.4589         estimate D2E/DX2                !
 ! A125  A(28,55,56)           117.4235         estimate D2E/DX2                !
 ! A126  A(55,56,57)           107.9277         estimate D2E/DX2                !
 ! A127  A(55,56,58)           113.6719         estimate D2E/DX2                !
 ! A128  A(55,56,59)           110.3162         estimate D2E/DX2                !
 ! A129  A(57,56,58)           107.0938         estimate D2E/DX2                !
 ! A130  A(57,56,59)           110.0358         estimate D2E/DX2                !
 ! A131  A(58,56,59)           107.7291         estimate D2E/DX2                !
 ! A132  A(56,59,60)           110.3071         estimate D2E/DX2                !
 ! A133  A(56,59,61)           107.1601         estimate D2E/DX2                !
 ! A134  A(56,59,62)           114.5839         estimate D2E/DX2                !
 ! A135  A(60,59,61)           105.7494         estimate D2E/DX2                !
 ! A136  A(60,59,62)           110.9623         estimate D2E/DX2                !
 ! A137  A(61,59,62)           107.5843         estimate D2E/DX2                !
 ! A138  A(59,62,63)           110.9666         estimate D2E/DX2                !
 ! A139  A(59,62,64)           107.5937         estimate D2E/DX2                !
 ! A140  A(59,62,65)           114.5799         estimate D2E/DX2                !
 ! A141  A(63,62,64)           105.746          estimate D2E/DX2                !
 ! A142  A(63,62,65)           110.3009         estimate D2E/DX2                !
 ! A143  A(64,62,65)           107.1603         estimate D2E/DX2                !
 ! A144  A(62,65,66)           110.0353         estimate D2E/DX2                !
 ! A145  A(62,65,67)           110.3182         estimate D2E/DX2                !
 ! A146  A(62,65,68)           107.7305         estimate D2E/DX2                !
 ! A147  A(66,65,67)           107.9198         estimate D2E/DX2                !
 ! A148  A(66,65,68)           107.0946         estimate D2E/DX2                !
 ! A149  A(67,65,68)           113.6759         estimate D2E/DX2                !
 ! A150  A(25,67,65)           117.4204         estimate D2E/DX2                !
 ! A151  L(2,1,73,72,-1)       179.0493         estimate D2E/DX2                !
 ! A152  L(33,1,72,73,-1)      179.0516         estimate D2E/DX2                !
 ! A153  L(2,1,73,72,-2)       183.5858         estimate D2E/DX2                !
 ! A154  L(33,1,72,73,-2)      183.5863         estimate D2E/DX2                !
 ! D1    D(33,1,2,3)            85.8381         estimate D2E/DX2                !
 ! D2    D(33,1,2,12)         -155.9302         estimate D2E/DX2                !
 ! D3    D(33,1,2,21)          -37.8617         estimate D2E/DX2                !
 ! D4    D(72,1,2,3)           -90.6422         estimate D2E/DX2                !
 ! D5    D(72,1,2,12)           27.5895         estimate D2E/DX2                !
 ! D6    D(72,1,2,21)          145.658          estimate D2E/DX2                !
 ! D7    D(2,1,33,32)          -37.862          estimate D2E/DX2                !
 ! D8    D(2,1,33,34)           85.8284         estimate D2E/DX2                !
 ! D9    D(2,1,33,43)         -155.939          estimate D2E/DX2                !
 ! D10   D(73,1,33,32)         145.6571         estimate D2E/DX2                !
 ! D11   D(73,1,33,34)         -90.6525         estimate D2E/DX2                !
 ! D12   D(73,1,33,43)          27.58           estimate D2E/DX2                !
 ! D13   D(1,2,3,4)             26.0149         estimate D2E/DX2                !
 ! D14   D(1,2,3,8)           -154.3336         estimate D2E/DX2                !
 ! D15   D(12,2,3,4)           -98.607          estimate D2E/DX2                !
 ! D16   D(12,2,3,8)            81.0445         estimate D2E/DX2                !
 ! D17   D(21,2,3,4)           151.6667         estimate D2E/DX2                !
 ! D18   D(21,2,3,8)           -28.6818         estimate D2E/DX2                !
 ! D19   D(1,2,12,13)         -145.0163         estimate D2E/DX2                !
 ! D20   D(1,2,12,17)           35.5804         estimate D2E/DX2                !
 ! D21   D(3,2,12,13)          -20.7002         estimate D2E/DX2                !
 ! D22   D(3,2,12,17)          159.8964         estimate D2E/DX2                !
 ! D23   D(21,2,12,13)          92.3709         estimate D2E/DX2                !
 ! D24   D(21,2,12,17)         -87.0325         estimate D2E/DX2                !
 ! D25   D(1,2,21,22)          -99.1183         estimate D2E/DX2                !
 ! D26   D(1,2,21,26)           78.403          estimate D2E/DX2                !
 ! D27   D(3,2,21,22)          134.1225         estimate D2E/DX2                !
 ! D28   D(3,2,21,26)          -48.3562         estimate D2E/DX2                !
 ! D29   D(12,2,21,22)          25.0431         estimate D2E/DX2                !
 ! D30   D(12,2,21,26)        -157.4356         estimate D2E/DX2                !
 ! D31   D(2,3,4,5)           -179.7541         estimate D2E/DX2                !
 ! D32   D(2,3,4,11)             0.6397         estimate D2E/DX2                !
 ! D33   D(8,3,4,5)              0.5852         estimate D2E/DX2                !
 ! D34   D(8,3,4,11)          -179.0211         estimate D2E/DX2                !
 ! D35   D(2,3,8,7)            179.6421         estimate D2E/DX2                !
 ! D36   D(2,3,8,9)              0.7135         estimate D2E/DX2                !
 ! D37   D(4,3,8,7)             -0.7047         estimate D2E/DX2                !
 ! D38   D(4,3,8,9)           -179.6333         estimate D2E/DX2                !
 ! D39   D(3,4,5,6)             -0.1223         estimate D2E/DX2                !
 ! D40   D(3,4,5,76)           179.9869         estimate D2E/DX2                !
 ! D41   D(11,4,5,6)           179.4863         estimate D2E/DX2                !
 ! D42   D(11,4,5,76)           -0.4045         estimate D2E/DX2                !
 ! D43   D(4,5,6,7)             -0.2308         estimate D2E/DX2                !
 ! D44   D(4,5,6,10)           179.8416         estimate D2E/DX2                !
 ! D45   D(76,5,6,7)           179.66           estimate D2E/DX2                !
 ! D46   D(76,5,6,10)           -0.2676         estimate D2E/DX2                !
 ! D47   D(5,6,7,8)              0.1126         estimate D2E/DX2                !
 ! D48   D(5,6,7,77)           179.6962         estimate D2E/DX2                !
 ! D49   D(10,6,7,8)          -179.9597         estimate D2E/DX2                !
 ! D50   D(10,6,7,77)           -0.3761         estimate D2E/DX2                !
 ! D51   D(6,7,8,3)              0.3606         estimate D2E/DX2                !
 ! D52   D(6,7,8,9)            179.2927         estimate D2E/DX2                !
 ! D53   D(77,7,8,3)          -179.2248         estimate D2E/DX2                !
 ! D54   D(77,7,8,9)            -0.2927         estimate D2E/DX2                !
 ! D55   D(2,12,13,14)        -179.57           estimate D2E/DX2                !
 ! D56   D(2,12,13,20)           0.5293         estimate D2E/DX2                !
 ! D57   D(17,12,13,14)         -0.1585         estimate D2E/DX2                !
 ! D58   D(17,12,13,20)        179.9409         estimate D2E/DX2                !
 ! D59   D(2,12,17,16)         179.6144         estimate D2E/DX2                !
 ! D60   D(2,12,17,18)          -0.4639         estimate D2E/DX2                !
 ! D61   D(13,12,17,16)          0.1891         estimate D2E/DX2                !
 ! D62   D(13,12,17,18)       -179.8892         estimate D2E/DX2                !
 ! D63   D(12,13,14,15)          0.0525         estimate D2E/DX2                !
 ! D64   D(12,13,14,74)       -179.8275         estimate D2E/DX2                !
 ! D65   D(20,13,14,15)        179.9553         estimate D2E/DX2                !
 ! D66   D(20,13,14,74)          0.0753         estimate D2E/DX2                !
 ! D67   D(13,14,15,16)          0.0274         estimate D2E/DX2                !
 ! D68   D(13,14,15,19)       -179.8229         estimate D2E/DX2                !
 ! D69   D(74,14,15,16)        179.9072         estimate D2E/DX2                !
 ! D70   D(74,14,15,19)          0.0569         estimate D2E/DX2                !
 ! D71   D(14,15,16,17)          0.0026         estimate D2E/DX2                !
 ! D72   D(14,15,16,75)       -179.798          estimate D2E/DX2                !
 ! D73   D(19,15,16,17)        179.8528         estimate D2E/DX2                !
 ! D74   D(19,15,16,75)          0.0522         estimate D2E/DX2                !
 ! D75   D(15,16,17,12)         -0.1133         estimate D2E/DX2                !
 ! D76   D(15,16,17,18)        179.9644         estimate D2E/DX2                !
 ! D77   D(75,16,17,12)        179.6871         estimate D2E/DX2                !
 ! D78   D(75,16,17,18)         -0.2352         estimate D2E/DX2                !
 ! D79   D(2,21,22,23)         177.7579         estimate D2E/DX2                !
 ! D80   D(2,21,22,71)          -1.2867         estimate D2E/DX2                !
 ! D81   D(26,21,22,23)          0.1087         estimate D2E/DX2                !
 ! D82   D(26,21,22,71)       -178.9358         estimate D2E/DX2                !
 ! D83   D(2,21,26,25)         179.5921         estimate D2E/DX2                !
 ! D84   D(2,21,26,27)           0.6948         estimate D2E/DX2                !
 ! D85   D(22,21,26,25)         -2.9335         estimate D2E/DX2                !
 ! D86   D(22,21,26,27)        178.1693         estimate D2E/DX2                !
 ! D87   D(21,22,23,24)          1.2696         estimate D2E/DX2                !
 ! D88   D(21,22,23,70)       -178.8084         estimate D2E/DX2                !
 ! D89   D(71,22,23,24)       -179.6514         estimate D2E/DX2                !
 ! D90   D(71,22,23,70)          0.2706         estimate D2E/DX2                !
 ! D91   D(22,23,24,25)          0.2363         estimate D2E/DX2                !
 ! D92   D(22,23,24,69)       -179.1793         estimate D2E/DX2                !
 ! D93   D(70,23,24,25)       -179.6858         estimate D2E/DX2                !
 ! D94   D(70,23,24,69)          0.8986         estimate D2E/DX2                !
 ! D95   D(23,24,25,26)         -3.1126         estimate D2E/DX2                !
 ! D96   D(23,24,25,67)        178.5486         estimate D2E/DX2                !
 ! D97   D(69,24,25,26)        176.2877         estimate D2E/DX2                !
 ! D98   D(69,24,25,67)         -2.0512         estimate D2E/DX2                !
 ! D99   D(24,25,26,21)          4.4386         estimate D2E/DX2                !
 ! D100  D(24,25,26,27)       -176.6218         estimate D2E/DX2                !
 ! D101  D(67,25,26,21)       -177.1829         estimate D2E/DX2                !
 ! D102  D(67,25,26,27)          1.7567         estimate D2E/DX2                !
 ! D103  D(24,25,67,65)        -34.6771         estimate D2E/DX2                !
 ! D104  D(26,25,67,65)        146.9567         estimate D2E/DX2                !
 ! D105  D(21,26,27,28)        117.5164         estimate D2E/DX2                !
 ! D106  D(21,26,27,32)        -63.5729         estimate D2E/DX2                !
 ! D107  D(25,26,27,28)        -61.3849         estimate D2E/DX2                !
 ! D108  D(25,26,27,32)        117.5257         estimate D2E/DX2                !
 ! D109  D(26,27,28,29)       -176.6188         estimate D2E/DX2                !
 ! D110  D(26,27,28,55)          1.7734         estimate D2E/DX2                !
 ! D111  D(32,27,28,29)          4.4327         estimate D2E/DX2                !
 ! D112  D(32,27,28,55)       -177.1751         estimate D2E/DX2                !
 ! D113  D(26,27,32,31)        178.155          estimate D2E/DX2                !
 ! D114  D(26,27,32,33)          0.702          estimate D2E/DX2                !
 ! D115  D(28,27,32,31)         -2.9384         estimate D2E/DX2                !
 ! D116  D(28,27,32,33)        179.6086         estimate D2E/DX2                !
 ! D117  D(27,28,29,30)         -3.1015         estimate D2E/DX2                !
 ! D118  D(27,28,29,54)        176.2952         estimate D2E/DX2                !
 ! D119  D(55,28,29,30)        178.5456         estimate D2E/DX2                !
 ! D120  D(55,28,29,54)         -2.0577         estimate D2E/DX2                !
 ! D121  D(27,28,55,56)        146.9515         estimate D2E/DX2                !
 ! D122  D(29,28,55,56)        -34.6686         estimate D2E/DX2                !
 ! D123  D(28,29,30,31)          0.2307         estimate D2E/DX2                !
 ! D124  D(28,29,30,53)       -179.6918         estimate D2E/DX2                !
 ! D125  D(54,29,30,31)       -179.1813         estimate D2E/DX2                !
 ! D126  D(54,29,30,53)          0.8962         estimate D2E/DX2                !
 ! D127  D(29,30,31,32)          1.2643         estimate D2E/DX2                !
 ! D128  D(29,30,31,52)       -179.6522         estimate D2E/DX2                !
 ! D129  D(53,30,31,32)       -178.8132         estimate D2E/DX2                !
 ! D130  D(53,30,31,52)          0.2703         estimate D2E/DX2                !
 ! D131  D(30,31,32,27)          0.1191         estimate D2E/DX2                !
 ! D132  D(30,31,32,33)        177.7487         estimate D2E/DX2                !
 ! D133  D(52,31,32,27)       -178.9302         estimate D2E/DX2                !
 ! D134  D(52,31,32,33)         -1.3005         estimate D2E/DX2                !
 ! D135  D(27,32,33,1)          78.3969         estimate D2E/DX2                !
 ! D136  D(27,32,33,34)        -48.3537         estimate D2E/DX2                !
 ! D137  D(27,32,33,43)       -157.4346         estimate D2E/DX2                !
 ! D138  D(31,32,33,1)         -99.1037         estimate D2E/DX2                !
 ! D139  D(31,32,33,34)        134.1457         estimate D2E/DX2                !
 ! D140  D(31,32,33,43)         25.0648         estimate D2E/DX2                !
 ! D141  D(1,33,34,35)        -154.3294         estimate D2E/DX2                !
 ! D142  D(1,33,34,39)          26.0336         estimate D2E/DX2                !
 ! D143  D(32,33,34,35)        -28.6845         estimate D2E/DX2                !
 ! D144  D(32,33,34,39)        151.6785         estimate D2E/DX2                !
 ! D145  D(43,33,34,35)         81.0462         estimate D2E/DX2                !
 ! D146  D(43,33,34,39)        -98.5908         estimate D2E/DX2                !
 ! D147  D(1,33,43,44)          35.579          estimate D2E/DX2                !
 ! D148  D(1,33,43,48)        -145.0302         estimate D2E/DX2                !
 ! D149  D(32,33,43,44)        -87.0389         estimate D2E/DX2                !
 ! D150  D(32,33,43,48)         92.352          estimate D2E/DX2                !
 ! D151  D(34,33,43,44)        159.8929         estimate D2E/DX2                !
 ! D152  D(34,33,43,48)        -20.7162         estimate D2E/DX2                !
 ! D153  D(33,34,35,36)        179.6511         estimate D2E/DX2                !
 ! D154  D(33,34,35,42)          0.722          estimate D2E/DX2                !
 ! D155  D(39,34,35,36)         -0.7102         estimate D2E/DX2                !
 ! D156  D(39,34,35,42)       -179.6394         estimate D2E/DX2                !
 ! D157  D(33,34,39,38)       -179.7607         estimate D2E/DX2                !
 ! D158  D(33,34,39,40)          0.63           estimate D2E/DX2                !
 ! D159  D(35,34,39,38)          0.5927         estimate D2E/DX2                !
 ! D160  D(35,34,39,40)       -179.0166         estimate D2E/DX2                !
 ! D161  D(34,35,36,37)          0.3621         estimate D2E/DX2                !
 ! D162  D(34,35,36,80)       -179.2211         estimate D2E/DX2                !
 ! D163  D(42,35,36,37)        179.2948         estimate D2E/DX2                !
 ! D164  D(42,35,36,80)         -0.2884         estimate D2E/DX2                !
 ! D165  D(35,36,37,38)          0.113          estimate D2E/DX2                !
 ! D166  D(35,36,37,41)       -179.959          estimate D2E/DX2                !
 ! D167  D(80,36,37,38)        179.6946         estimate D2E/DX2                !
 ! D168  D(80,36,37,41)         -0.3775         estimate D2E/DX2                !
 ! D169  D(36,37,38,39)         -0.2292         estimate D2E/DX2                !
 ! D170  D(36,37,38,81)        179.6545         estimate D2E/DX2                !
 ! D171  D(41,37,38,39)        179.8429         estimate D2E/DX2                !
 ! D172  D(41,37,38,81)         -0.2734         estimate D2E/DX2                !
 ! D173  D(37,38,39,34)         -0.128          estimate D2E/DX2                !
 ! D174  D(37,38,39,40)        179.4836         estimate D2E/DX2                !
 ! D175  D(81,38,39,34)        179.9884         estimate D2E/DX2                !
 ! D176  D(81,38,39,40)         -0.4            estimate D2E/DX2                !
 ! D177  D(33,43,44,45)        179.6102         estimate D2E/DX2                !
 ! D178  D(33,43,44,51)         -0.4663         estimate D2E/DX2                !
 ! D179  D(48,43,44,45)          0.1969         estimate D2E/DX2                !
 ! D180  D(48,43,44,51)       -179.8796         estimate D2E/DX2                !
 ! D181  D(33,43,48,47)       -179.564          estimate D2E/DX2                !
 ! D182  D(33,43,48,49)          0.5414         estimate D2E/DX2                !
 ! D183  D(44,43,48,47)         -0.1648         estimate D2E/DX2                !
 ! D184  D(44,43,48,49)        179.9406         estimate D2E/DX2                !
 ! D185  D(43,44,45,46)         -0.1164         estimate D2E/DX2                !
 ! D186  D(43,44,45,78)        179.6862         estimate D2E/DX2                !
 ! D187  D(51,44,45,46)        179.9595         estimate D2E/DX2                !
 ! D188  D(51,44,45,78)         -0.2378         estimate D2E/DX2                !
 ! D189  D(44,45,46,47)         -0.0008         estimate D2E/DX2                !
 ! D190  D(44,45,46,50)        179.8542         estimate D2E/DX2                !
 ! D191  D(78,45,46,47)       -179.8035         estimate D2E/DX2                !
 ! D192  D(78,45,46,50)          0.0515         estimate D2E/DX2                !
 ! D193  D(45,46,47,48)          0.0324         estimate D2E/DX2                !
 ! D194  D(45,46,47,79)        179.9049         estimate D2E/DX2                !
 ! D195  D(50,46,47,48)       -179.8227         estimate D2E/DX2                !
 ! D196  D(50,46,47,79)          0.0499         estimate D2E/DX2                !
 ! D197  D(46,47,48,43)          0.0524         estimate D2E/DX2                !
 ! D198  D(46,47,48,49)        179.9493         estimate D2E/DX2                !
 ! D199  D(79,47,48,43)       -179.8203         estimate D2E/DX2                !
 ! D200  D(79,47,48,49)          0.0766         estimate D2E/DX2                !
 ! D201  D(28,55,56,57)        104.0648         estimate D2E/DX2                !
 ! D202  D(28,55,56,58)        -14.5649         estimate D2E/DX2                !
 ! D203  D(28,55,56,59)       -135.6863         estimate D2E/DX2                !
 ! D204  D(55,56,59,60)        -50.4051         estimate D2E/DX2                !
 ! D205  D(55,56,59,61)       -165.0612         estimate D2E/DX2                !
 ! D206  D(55,56,59,62)         75.6658         estimate D2E/DX2                !
 ! D207  D(57,56,59,60)         68.5678         estimate D2E/DX2                !
 ! D208  D(57,56,59,61)        -46.0883         estimate D2E/DX2                !
 ! D209  D(57,56,59,62)       -165.3613         estimate D2E/DX2                !
 ! D210  D(58,56,59,60)       -175.005          estimate D2E/DX2                !
 ! D211  D(58,56,59,61)         70.3389         estimate D2E/DX2                !
 ! D212  D(58,56,59,62)        -48.9341         estimate D2E/DX2                !
 ! D213  D(56,59,62,63)         39.8209         estimate D2E/DX2                !
 ! D214  D(56,59,62,64)        155.0595         estimate D2E/DX2                !
 ! D215  D(56,59,62,65)        -85.901          estimate D2E/DX2                !
 ! D216  D(60,59,62,63)        165.551          estimate D2E/DX2                !
 ! D217  D(60,59,62,64)        -79.2105         estimate D2E/DX2                !
 ! D218  D(60,59,62,65)         39.829          estimate D2E/DX2                !
 ! D219  D(61,59,62,63)        -79.2142         estimate D2E/DX2                !
 ! D220  D(61,59,62,64)         36.0243         estimate D2E/DX2                !
 ! D221  D(61,59,62,65)        155.0639         estimate D2E/DX2                !
 ! D222  D(59,62,65,66)       -165.3685         estimate D2E/DX2                !
 ! D223  D(59,62,65,67)         75.6674         estimate D2E/DX2                !
 ! D224  D(59,62,65,68)        -48.9397         estimate D2E/DX2                !
 ! D225  D(63,62,65,66)         68.5632         estimate D2E/DX2                !
 ! D226  D(63,62,65,67)        -50.4009         estimate D2E/DX2                !
 ! D227  D(63,62,65,68)       -175.0081         estimate D2E/DX2                !
 ! D228  D(64,62,65,66)        -46.0859         estimate D2E/DX2                !
 ! D229  D(64,62,65,67)       -165.05           estimate D2E/DX2                !
 ! D230  D(64,62,65,68)         70.3428         estimate D2E/DX2                !
 ! D231  D(62,65,67,25)       -135.685          estimate D2E/DX2                !
 ! D232  D(66,65,67,25)        104.0703         estimate D2E/DX2                !
 ! D233  D(68,65,67,25)        -14.5575         estimate D2E/DX2                !
 --------------------------------------------------------------------------------
 Trust Radius=3.00D-01 FncErr=1.00D-07 GrdErr=1.00D-06 EigMax=2.50D+02 EigMin=1.00D-04
 Number of steps in this run=    485 maximum allowed number of steps=    486.
 GradGradGradGradGradGradGradGradGradGradGradGradGradGradGradGradGradGrad

 Stoichiometry    C40H34Cl2O2P2Pd
 Framework group  C1[X(C40H34Cl2O2P2Pd)]
 Deg. of freedom   237
 Full point group                 C1      NOp   1
 Largest Abelian subgroup         C1      NOp   1
 Largest concise Abelian subgroup C1      NOp   1
                         Standard orientation:                         
 ---------------------------------------------------------------------
 Center     Atomic      Atomic             Coordinates (Angstroms)
 Number     Number       Type             X           Y           Z
 ---------------------------------------------------------------------
      1         46           0       -2.431255    0.000442   -0.000175
      2         15           0       -0.734925    1.705313    0.016728
      3          6           0       -0.110148    2.174042   -1.682680
      4          6           0       -0.947406    1.993807   -2.803245
      5          6           0       -0.499392    2.333895   -4.094715
      6          6           0        0.793136    2.861107   -4.275432
      7          6           0        1.633432    3.051640   -3.162631
      8          6           0        1.180410    2.712588   -1.873375
      9          1           0        1.836164    2.851223   -1.025017
     10          1           0        1.139363    3.120121   -5.265553
     11          1           0       -1.944102    1.597780   -2.674811
     12          6           0       -1.294875    3.357560    0.732987
     13          6           0       -0.822043    4.590548    0.229626
     14          6           0       -1.248814    5.811124    0.787968
     15          6           0       -2.156911    5.816161    1.862202
     16          6           0       -2.635519    4.597399    2.375643
     17          6           0       -2.204869    3.380193    1.813847
     18          1           0       -2.581088    2.452671    2.219674
     19          1           0       -2.486928    6.752191    2.289140
     20          1           0       -0.125804    4.617434   -0.593788
     21          6           0        0.746986    1.223746    1.087175
     22          6           0        0.797085    1.762344    2.392983
     23          6           0        1.826429    1.433209    3.283912
     24          6           0        2.847440    0.571527    2.869721
     25          6           0        2.846908    0.038669    1.561102
     26          6           0        1.771733    0.320446    0.670834
     27          6           0        1.771703   -0.321139   -0.670688
     28          6           0        2.846865   -0.039605   -1.560955
     29          6           0        2.847133   -0.572560   -2.869673
     30          6           0        1.825808   -1.433783   -3.283814
     31          6           0        0.796317   -1.762653   -2.392925
     32          6           0        0.746615   -1.224123   -1.086974
     33         15           0       -0.735627   -1.705089   -0.016791
     34          6           0       -0.111183   -2.173795    1.682792
     35          6           0        1.179103   -2.712725    1.873810
     36          6           0        1.631798   -3.051913    3.163087
     37          6           0        0.791364   -2.861163    4.275791
     38          6           0       -0.500952   -2.333589    4.094752
     39          6           0       -0.948654   -1.993407    2.803257
     40          1           0       -1.945191   -1.597147    2.674557
     41          1           0        1.137249   -3.120231    5.265922
     42          1           0        1.834973   -2.851581    1.025604
     43          6           0       -1.296095   -3.357220   -0.732882
     44          6           0       -2.206032   -3.379627   -1.813782
     45          6           0       -2.636996   -4.596844   -2.375516
     46          6           0       -2.158688   -5.815650   -1.861976
     47          6           0       -1.250554   -5.810861   -0.787800
     48          6           0       -0.823512   -4.590220   -0.229518
     49          1           0       -0.127327   -4.617268    0.593914
     50          1           0       -2.488983   -6.751545   -2.288939
     51          1           0       -2.581925   -2.452094   -2.219693
     52          1           0        0.031342   -2.433354   -2.747348
     53          1           0        1.831930   -1.843249   -4.283430
     54          1           0        3.624648   -0.319814   -3.573842
     55          8           0        3.863394    0.787261   -1.129272
     56          6           0        5.174559    0.525038   -1.618678
     57          1           0        5.404227    1.271340   -2.379750
     58          1           0        5.279195   -0.454044   -2.087853
     59          6           0        6.196588    0.607463   -0.475757
     60          1           0        6.068777    1.536960    0.079915
     61          1           0        7.185022    0.668867   -0.931889
     62          6           0        6.196402   -0.609815    0.475714
     63          1           0        6.068108   -1.539271   -0.079851
     64          1           0        7.184803   -0.671752    0.931825
     65          6           0        5.174395   -0.526941    1.618686
     66          1           0        5.403736   -1.273426    2.379768
     67          8           0        3.863115   -0.788710    1.129374
     68          1           0        5.279462    0.452037    2.087875
     69          1           0        3.624852    0.318545    3.573942
     70          1           0        1.832706    1.842745    4.283422
     71          1           0        0.032333    2.433425    2.747443
     72         17           0       -4.104754    1.617735   -0.127505
     73         17           0       -4.105515   -1.616137    0.126848
     74          1           0       -0.879025    6.744410    0.388554
     75          1           0       -3.335702    4.595587    3.198567
     76          1           0       -1.148327    2.191842   -4.946723
     77          1           0        2.628306    3.451202   -3.294519
     78          1           0       -3.337138   -4.594815   -3.198455
     79          1           0       -0.881032   -6.744131   -0.388297
     80          1           0        2.626557   -3.451732    3.295144
     81          1           0       -1.150039   -2.191437    4.946604
 ---------------------------------------------------------------------
 Rotational constants (GHZ):           0.0639308           0.0607520           0.0478964
 General basis read from cards:  (6D, 7F)
 ======================================================================================================
                                       Pseudopotential Parameters
 ======================================================================================================
  Center     Atomic      Valence      Angular      Power
  Number     Number     Electrons     Momentum     of R      Exponent        Coefficient   SO-Coeffient
 ======================================================================================================
    1         46           18
                                      F and up 
                                                     0      598.3336444       -0.05631770    0.00000000
                                                     1      162.4298290      -20.12880360    0.00000000
                                                     2       51.5714771     -105.81979230    0.00000000
                                                     2       16.4888260      -42.57333450    0.00000000
                                                     2        5.8287656       -3.61650860    0.00000000
                                      S - F
                                                     0       73.3806304        3.00036510    0.00000000
                                                     1       14.7550438       32.43500930    0.00000000
                                                     2       17.8350204      459.08303830    0.00000000
                                                     2       12.7111477     -868.06290290    0.00000000
                                                     2        9.3292063      514.47260980    0.00000000
                                      P - F
                                                     0       55.6689877        4.95930990    0.00000000
                                                     1       64.2337771       21.17110290    0.00000000
                                                     2       17.6254952      605.05600920    0.00000000
                                                     2       11.9058155     -726.96418460    0.00000000
                                                     2        8.5100832      396.32748830    0.00000000
                                      D - F
                                                     0       49.9994728        3.05087450    0.00000000
                                                     1       39.7477547       22.25065800    0.00000000
                                                     2       11.4321366      674.83576980    0.00000000
                                                     2        9.1790080    -1040.85540480    0.00000000
                                                     2        7.5624429      505.93751470    0.00000000
    2         15
                                   No pseudopotential on this center.
    3          6
                                   No pseudopotential on this center.
    4          6
                                   No pseudopotential on this center.
    5          6
                                   No pseudopotential on this center.
    6          6
                                   No pseudopotential on this center.
    7          6
                                   No pseudopotential on this center.
    8          6
                                   No pseudopotential on this center.
    9          1
                                   No pseudopotential on this center.
   10          1
                                   No pseudopotential on this center.
   11          1
                                   No pseudopotential on this center.
   12          6
                                   No pseudopotential on this center.
   13          6
                                   No pseudopotential on this center.
   14          6
                                   No pseudopotential on this center.
   15          6
                                   No pseudopotential on this center.
   16          6
                                   No pseudopotential on this center.
   17          6
                                   No pseudopotential on this center.
   18          1
                                   No pseudopotential on this center.
   19          1
                                   No pseudopotential on this center.
   20          1
                                   No pseudopotential on this center.
   21          6
                                   No pseudopotential on this center.
   22          6
                                   No pseudopotential on this center.
   23          6
                                   No pseudopotential on this center.
   24          6
                                   No pseudopotential on this center.
   25          6
                                   No pseudopotential on this center.
   26          6
                                   No pseudopotential on this center.
   27          6
                                   No pseudopotential on this center.
   28          6
                                   No pseudopotential on this center.
   29          6
                                   No pseudopotential on this center.
   30          6
                                   No pseudopotential on this center.
   31          6
                                   No pseudopotential on this center.
   32          6
                                   No pseudopotential on this center.
   33         15
                                   No pseudopotential on this center.
   34          6
                                   No pseudopotential on this center.
   35          6
                                   No pseudopotential on this center.
   36          6
                                   No pseudopotential on this center.
   37          6
                                   No pseudopotential on this center.
   38          6
                                   No pseudopotential on this center.
   39          6
                                   No pseudopotential on this center.
   40          1
                                   No pseudopotential on this center.
   41          1
                                   No pseudopotential on this center.
   42          1
                                   No pseudopotential on this center.
   43          6
                                   No pseudopotential on this center.
   44          6
                                   No pseudopotential on this center.
   45          6
                                   No pseudopotential on this center.
   46          6
                                   No pseudopotential on this center.
   47          6
                                   No pseudopotential on this center.
   48          6
                                   No pseudopotential on this center.
   49          1
                                   No pseudopotential on this center.
   50          1
                                   No pseudopotential on this center.
   51          1
                                   No pseudopotential on this center.
   52          1
                                   No pseudopotential on this center.
   53          1
                                   No pseudopotential on this center.
   54          1
                                   No pseudopotential on this center.
   55          8
                                   No pseudopotential on this center.
   56          6
                                   No pseudopotential on this center.
   57          1
                                   No pseudopotential on this center.
   58          1
                                   No pseudopotential on this center.
   59          6
                                   No pseudopotential on this center.
   60          1
                                   No pseudopotential on this center.
   61          1
                                   No pseudopotential on this center.
   62          6
                                   No pseudopotential on this center.
   63          1
                                   No pseudopotential on this center.
   64          1
                                   No pseudopotential on this center.
   65          6
                                   No pseudopotential on this center.
   66          1
                                   No pseudopotential on this center.
   67          8
                                   No pseudopotential on this center.
   68          1
                                   No pseudopotential on this center.
   69          1
                                   No pseudopotential on this center.
   70          1
                                   No pseudopotential on this center.
   71          1
                                   No pseudopotential on this center.
   72         17
                                   No pseudopotential on this center.
   73         17
                                   No pseudopotential on this center.
   74          1
                                   No pseudopotential on this center.
   75          1
                                   No pseudopotential on this center.
   76          1
                                   No pseudopotential on this center.
   77          1
                                   No pseudopotential on this center.
   78          1
                                   No pseudopotential on this center.
   79          1
                                   No pseudopotential on this center.
   80          1
                                   No pseudopotential on this center.
   81          1
                                   No pseudopotential on this center.
 ======================================================================================================
 There are   798 symmetry adapted cartesian basis functions of A   symmetry.
 There are   798 symmetry adapted basis functions of A   symmetry.
   798 basis functions,  1569 primitive gaussians,   798 cartesian basis functions
   186 alpha electrons      186 beta electrons
       nuclear repulsion energy      7612.8882786176 Hartrees.
 NAtoms=   81 NActive=   81 NUniq=   81 SFac= 1.00D+00 NAtFMM=   60 NAOKFM=T Big=T
 Integral buffers will be    131072 words long.
 Raffenetti 2 integral format.
 Two-electron integral symmetry is turned on.
 Nuclear repulsion after empirical dispersion term =     7612.7274002301 Hartrees.
 Standard density basis: Auto (5D, 7F)
  3474 Density fitting functions
 There are  3474 symmetry adapted density basis functions of A   symmetry.
 One-electron integrals computed using PRISM.
   1 Symmetry operations used in ECPInt.
 ECPInt:  NShTT=   34980 NPrTT=  234589 LenC2=   27029 LenP2D=   89780.
 LDataN:  DoStor=T MaxTD1= 5 Len=  102
 NBasis=   798 RedAO= T EigKep=  3.53D-04  NBF=   798
 NBsUse=   798 1.00D-06 EigRej= -1.00D+00 NBFU=   798
 NBasis=      798 NBas6D=      798 NTT=      318801   NTT6D=   318801
 NDBShl=      690 NDBF=       3474 NDBF6D=     4096  NNucDB=        0
 IDenFi=        2 ISolve=        0 FullAP=F BlkAPC=T NucTyp=        0
 TolInv= 1.00D-06 TolIt=  1.00D-10 IR12=0.
 FoFCou: FMM=F IPFlag=           0 FMFlag=           0 FMFlg1=           0
         NFxFlg=           0 DoJE=F BraDBF=T KetDBF=T FulRan=T
         wScrn=  0.000000 ICntrl=       600 IOpCl=  3 I1Cent=           6 NGrid=           0
         NMat0=    1 NMatS0=   4096 NMatT0=    0 NMatD0=    1 NMtDS0=    0 NMtDT0=    0
 Petite list used in FoFCou.
 DBF EigKep=  1.09D-06 EigRej= -1.00D+00
 NDBF=   3474  NBFD=  3474
 NRank=  3474 NBFDU=  3474
 S*AI*S=  12.7797162084    
 Defaulting to unpruned grid for atomic number  46.
 ExpMin= 2.62D-02 ExpMax= 2.52D+04 ExpMxC= 3.78D+03 IAcc=3 IRadAn=         5 AccDes= 0.00D+00
 Harris functional with IExCor= 1009 and IRadAn=       5 diagonalized for initial guess.
 HarFok:  IExCor= 1009 AccDes= 0.00D+00 IRadAn=         5 IDoV= 1 UseB2=F ITyADJ=14
 ICtDFT=  3500011 ScaDFX=  1.000000  1.000000  1.000000  1.000000
 Defaulting to unpruned grid for atomic number  46.
 FoFCou: FMM=F IPFlag=           0 FMFlag=      100000 FMFlg1=        2001
         NFxFlg=           0 DoJE=T BraDBF=F KetDBF=T FulRan=T
         wScrn=  0.000000 ICntrl=       500 IOpCl=  0 I1Cent=   200000004 NGrid=           0
         NMat0=    1 NMatS0=      1 NMatT0=    0 NMatD0=    1 NMtDS0=    0 NMtDT0=    0
 Petite list used in FoFCou.
 Requested convergence on RMS density matrix=1.00D-08 within 500 cycles.
 Requested convergence on MAX density matrix=1.00D-06.
 Requested convergence on             energy=1.00D-06.
 No special actions if energy rises.
 FoFCou: FMM=F IPFlag=           0 FMFlag=      100000 FMFlg1=        2001
         NFxFlg=           0 DoJE=T BraDBF=T KetDBF=F FulRan=T
         wScrn=  0.000000 ICntrl=       500 IOpCl=  0 I1Cent=           5 NGrid=           0
         NMat0=    1 NMatS0=      1 NMatT0=    0 NMatD0=    1 NMtDS0=    0 NMtDT0=    0
 Symmetry not used in FoFCou.
 Defaulting to unpruned grid for atomic number  46.
 Defaulting to unpruned grid for atomic number  46.
 Defaulting to unpruned grid for atomic number  46.
 Defaulting to unpruned grid for atomic number  46.
 Defaulting to unpruned grid for atomic number  46.
 Defaulting to unpruned grid for atomic number  46.
 Defaulting to unpruned grid for atomic number  46.
 Defaulting to unpruned grid for atomic number  46.
 Defaulting to unpruned grid for atomic number  46.
 Defaulting to unpruned grid for atomic number  46.
 Defaulting to unpruned grid for atomic number  46.
 Defaulting to unpruned grid for atomic number  46.
 Defaulting to unpruned grid for atomic number  46.
 Defaulting to unpruned grid for atomic number  46.
 Defaulting to unpruned grid for atomic number  46.
 Defaulting to unpruned grid for atomic number  46.
 Defaulting to unpruned grid for atomic number  46.
 Defaulting to unpruned grid for atomic number  46.
 Defaulting to unpruned grid for atomic number  46.
 Defaulting to unpruned grid for atomic number  46.
 Defaulting to unpruned grid for atomic number  46.
 Defaulting to unpruned grid for atomic number  46.
 Defaulting to unpruned grid for atomic number  46.
 Defaulting to unpruned grid for atomic number  46.
 Defaulting to unpruned grid for atomic number  46.
 Defaulting to unpruned grid for atomic number  46.
 Defaulting to unpruned grid for atomic number  46.
 Defaulting to unpruned grid for atomic number  46.
 Defaulting to unpruned grid for atomic number  46.
 Defaulting to unpruned grid for atomic number  46.
 Defaulting to unpruned grid for atomic number  46.
 Defaulting to unpruned grid for atomic number  46.
 EnCoef did     6 forward-backward iterations
 EnCoef did   100 forward-backward iterations
 EnCoef did   100 forward-backward iterations
 EnCoef did   100 forward-backward iterations
 EnCoef did   100 forward-backward iterations
 EnCoef did   100 forward-backward iterations
 EnCoef did     2 forward-backward iterations
 EnCoef did     4 forward-backward iterations
 Initial convergence to 1.0D-05 achieved.  Increase integral accuracy.
 SCF Done:  E(RPBE-PBE) =  -3422.40423914     A.U. after   26 cycles
            NFock= 26  Conv=0.37D-08     -V/T= 2.0312

 **********************************************************************

            Population analysis using the SCF Density.

 **********************************************************************

 Orbital symmetries:
       Occupied  (A) (A) (A) (A) (A) (A) (A) (A) (A) (A) (A) (A)
                 (A) (A) (A) (A) (A) (A) (A) (A) (A) (A) (A) (A)
                 (A) (A) (A) (A) (A) (A) (A) (A) (A) (A) (A) (A)
                 (A) (A) (A) (A) (A) (A) (A) (A) (A) (A) (A) (A)
                 (A) (A) (A) (A) (A) (A) (A) (A) (A) (A) (A) (A)
                 (A) (A) (A) (A) (A) (A) (A) (A) (A) (A) (A) (A)
                 (A) (A) (A) (A) (A) (A) (A) (A) (A) (A) (A) (A)
                 (A) (A) (A) (A) (A) (A) (A) (A) (A) (A) (A) (A)
                 (A) (A) (A) (A) (A) (A) (A) (A) (A) (A) (A) (A)
                 (A) (A) (A) (A) (A) (A) (A) (A) (A) (A) (A) (A)
                 (A) (A) (A) (A) (A) (A) (A) (A) (A) (A) (A) (A)
                 (A) (A) (A) (A) (A) (A) (A) (A) (A) (A) (A) (A)
                 (A) (A) (A) (A) (A) (A) (A) (A) (A) (A) (A) (A)
                 (A) (A) (A) (A) (A) (A) (A) (A) (A) (A) (A) (A)
                 (A) (A) (A) (A) (A) (A) (A) (A) (A) (A) (A) (A)
                 (A) (A) (A) (A) (A) (A)
       Virtual   (A) (A) (A) (A) (A) (A) (A) (A) (A) (A) (A) (A)
                 (A) (A) (A) (A) (A) (A) (A) (A) (A) (A) (A) (A)
                 (A) (A) (A) (A) (A) (A) (A) (A) (A) (A) (A) (A)
                 (A) (A) (A) (A) (A) (A) (A) (A) (A) (A) (A) (A)
                 (A) (A) (A) (A) (A) (A) (A) (A) (A) (A) (A) (A)
                 (A) (A) (A) (A) (A) (A) (A) (A) (A) (A) (A) (A)
                 (A) (A) (A) (A) (A) (A) (A) (A) (A) (A) (A) (A)
                 (A) (A) (A) (A) (A) (A) (A) (A) (A) (A) (A) (A)
                 (A) (A) (A) (A) (A) (A) (A) (A) (A) (A) (A) (A)
                 (A) (A) (A) (A) (A) (A) (A) (A) (A) (A) (A) (A)
                 (A) (A) (A) (A) (A) (A) (A) (A) (A) (A) (A) (A)
                 (A) (A) (A) (A) (A) (A) (A) (A) (A) (A) (A) (A)
                 (A) (A) (A) (A) (A) (A) (A) (A) (A) (A) (A) (A)
                 (A) (A) (A) (A) (A) (A) (A) (A) (A) (A) (A) (A)
                 (A) (A) (A) (A) (A) (A) (A) (A) (A) (A) (A) (A)
                 (A) (A) (A) (A) (A) (A) (A) (A) (A) (A) (A) (A)
                 (A) (A) (A) (A) (A) (A) (A) (A) (A) (A) (A) (A)
                 (A) (A) (A) (A) (A) (A) (A) (A) (A) (A) (A) (A)
                 (A) (A) (A) (A) (A) (A) (A) (A) (A) (A) (A) (A)
                 (A) (A) (A) (A) (A) (A) (A) (A) (A) (A) (A) (A)
                 (A) (A) (A) (A) (A) (A) (A) (A) (A) (A) (A) (A)
                 (A) (A) (A) (A) (A) (A) (A) (A) (A) (A) (A) (A)
                 (A) (A) (A) (A) (A) (A) (A) (A) (A) (A) (A) (A)
                 (A) (A) (A) (A) (A) (A) (A) (A) (A) (A) (A) (A)
                 (A) (A) (A) (A) (A) (A) (A) (A) (A) (A) (A) (A)
                 (A) (A) (A) (A) (A) (A) (A) (A) (A) (A) (A) (A)
                 (A) (A) (A) (A) (A) (A) (A) (A) (A) (A) (A) (A)
                 (A) (A) (A) (A) (A) (A) (A) (A) (A) (A) (A) (A)
                 (A) (A) (A) (A) (A) (A) (A) (A) (A) (A) (A) (A)
                 (A) (A) (A) (A) (A) (A) (A) (A) (A) (A) (A) (A)
                 (A) (A) (A) (A) (A) (A) (A) (A) (A) (A) (A) (A)
                 (A) (A) (A) (A) (A) (A) (A) (A) (A) (A) (A) (A)
                 (A) (A) (A) (A) (A) (A) (A) (A) (A) (A) (A) (A)
                 (A) (A) (A) (A) (A) (A) (A) (A) (A) (A) (A) (A)
                 (A) (A) (A) (A) (A) (A) (A) (A) (A) (A) (A) (A)
                 (A) (A) (A) (A) (A) (A) (A) (A) (A) (A) (A) (A)
                 (A) (A) (A) (A) (A) (A) (A) (A) (A) (A) (A) (A)
                 (A) (A) (A) (A) (A) (A) (A) (A) (A) (A) (A) (A)
                 (A) (A) (A) (A) (A) (A) (A) (A) (A) (A) (A) (A)
                 (A) (A) (A) (A) (A) (A) (A) (A) (A) (A) (A) (A)
                 (A) (A) (A) (A) (A) (A) (A) (A) (A) (A) (A) (A)
                 (A) (A) (A) (A) (A) (A) (A) (A) (A) (A) (A) (A)
                 (A) (A) (A) (A) (A) (A) (A) (A) (A) (A) (A) (A)
                 (A) (A) (A) (A) (A) (A) (A) (A) (A) (A) (A) (A)
                 (A) (A) (A) (A) (A) (A) (A) (A) (A) (A) (A) (A)
                 (A) (A) (A) (A) (A) (A) (A) (A) (A) (A) (A) (A)
                 (A) (A) (A) (A) (A) (A) (A) (A) (A) (A) (A) (A)
                 (A) (A) (A) (A) (A) (A) (A) (A) (A) (A) (A) (A)
                 (A) (A) (A) (A) (A) (A) (A) (A) (A) (A) (A) (A)
                 (A) (A) (A) (A) (A) (A) (A) (A) (A) (A) (A) (A)
                 (A) (A) (A) (A) (A) (A) (A) (A) (A) (A) (A) (A)
 The electronic state is 1-A.
 Alpha  occ. eigenvalues -- -100.58436-100.58436 -76.37540 -76.37539 -18.81200
 Alpha  occ. eigenvalues --  -18.81199  -9.97123  -9.97122  -9.96130  -9.96129
 Alpha  occ. eigenvalues --   -9.93297  -9.93296  -9.92908  -9.92890  -9.92344
 Alpha  occ. eigenvalues --   -9.92343  -9.91797  -9.91797  -9.91519  -9.91509
 Alpha  occ. eigenvalues --   -9.91199  -9.91199  -9.91123  -9.91121  -9.91120
 Alpha  occ. eigenvalues --   -9.91120  -9.90957  -9.90955  -9.90902  -9.90901
 Alpha  occ. eigenvalues --   -9.90744  -9.90742  -9.90700  -9.90700  -9.90648
 Alpha  occ. eigenvalues --   -9.90646  -9.90342  -9.90341  -9.90065  -9.90065
 Alpha  occ. eigenvalues --   -9.90050  -9.90050  -9.89970  -9.89969  -9.89778
 Alpha  occ. eigenvalues --   -9.89778  -9.07963  -9.07962  -6.90313  -6.90312
 Alpha  occ. eigenvalues --   -6.89575  -6.89575  -6.89477  -6.89476  -6.35224
 Alpha  occ. eigenvalues --   -6.35223  -4.57049  -4.57049  -4.57024  -4.57024
 Alpha  occ. eigenvalues --   -4.56744  -4.56743  -3.19421  -1.96286  -1.96123
 Alpha  occ. eigenvalues --   -1.92358  -0.98451  -0.97626  -0.79536  -0.77619
 Alpha  occ. eigenvalues --   -0.77458  -0.77273  -0.76544  -0.76476  -0.74257
 Alpha  occ. eigenvalues --   -0.71431  -0.70146  -0.69592  -0.69032  -0.67448
 Alpha  occ. eigenvalues --   -0.67359  -0.67332  -0.67223  -0.66607  -0.66493
 Alpha  occ. eigenvalues --   -0.66449  -0.66445  -0.64301  -0.63803  -0.62889
 Alpha  occ. eigenvalues --   -0.61050  -0.59879  -0.59111  -0.56693  -0.55750
 Alpha  occ. eigenvalues --   -0.54624  -0.54552  -0.54025  -0.53855  -0.53740
 Alpha  occ. eigenvalues --   -0.53286  -0.53224  -0.53083  -0.52406  -0.50951
 Alpha  occ. eigenvalues --   -0.50313  -0.48596  -0.47823  -0.46251  -0.46210
 Alpha  occ. eigenvalues --   -0.45269  -0.44954  -0.44543  -0.44312  -0.43934
 Alpha  occ. eigenvalues --   -0.42980  -0.42652  -0.41756  -0.40709  -0.40608
 Alpha  occ. eigenvalues --   -0.40201  -0.40039  -0.39960  -0.39603  -0.39210
 Alpha  occ. eigenvalues --   -0.39033  -0.38976  -0.38890  -0.38195  -0.37516
 Alpha  occ. eigenvalues --   -0.37264  -0.37177  -0.37055  -0.36463  -0.36370
 Alpha  occ. eigenvalues --   -0.36138  -0.36025  -0.35366  -0.34656  -0.34477
 Alpha  occ. eigenvalues --   -0.34385  -0.34256  -0.33235  -0.32874  -0.32296
 Alpha  occ. eigenvalues --   -0.32113  -0.31867  -0.31813  -0.31351  -0.31133
 Alpha  occ. eigenvalues --   -0.31050  -0.30375  -0.30251  -0.30106  -0.30050
 Alpha  occ. eigenvalues --   -0.30047  -0.29667  -0.29434  -0.29125  -0.29048
 Alpha  occ. eigenvalues --   -0.28481  -0.28343  -0.26937  -0.26269  -0.26186
 Alpha  occ. eigenvalues --   -0.24947  -0.24699  -0.24128  -0.23523  -0.23307
 Alpha  occ. eigenvalues --   -0.22881  -0.22541  -0.22524  -0.22278  -0.21671
 Alpha  occ. eigenvalues --   -0.21593  -0.21538  -0.21089  -0.20911  -0.20113
 Alpha  occ. eigenvalues --   -0.19411  -0.18522  -0.17856  -0.17077  -0.16581
 Alpha  occ. eigenvalues --   -0.16491
 Alpha virt. eigenvalues --   -0.09378  -0.06172  -0.05713  -0.05446  -0.04766
 Alpha virt. eigenvalues --   -0.04300  -0.04181  -0.03451  -0.03353  -0.02828
 Alpha virt. eigenvalues --   -0.02651  -0.02382  -0.02196  -0.00257   0.01695
 Alpha virt. eigenvalues --    0.03466   0.04330   0.04829   0.04879   0.05073
 Alpha virt. eigenvalues --    0.05490   0.05814   0.06946   0.06987   0.07250
 Alpha virt. eigenvalues --    0.07882   0.07902   0.08066   0.08494   0.08909
 Alpha virt. eigenvalues --    0.09401   0.09487   0.09727   0.09788   0.09879
 Alpha virt. eigenvalues --    0.10457   0.10666   0.10895   0.11552   0.11988
 Alpha virt. eigenvalues --    0.12286   0.12337   0.12720   0.13025   0.13072
 Alpha virt. eigenvalues --    0.13368   0.13488   0.13975   0.14138   0.14585
 Alpha virt. eigenvalues --    0.14786   0.14819   0.15106   0.15138   0.15663
 Alpha virt. eigenvalues --    0.15896   0.16387   0.16729   0.16920   0.17169
 Alpha virt. eigenvalues --    0.17390   0.17484   0.17876   0.17908   0.18499
 Alpha virt. eigenvalues --    0.18806   0.19037   0.20255   0.20685   0.20726
 Alpha virt. eigenvalues --    0.21588   0.21855   0.22473   0.23664   0.23798
 Alpha virt. eigenvalues --    0.24903   0.24986   0.25696   0.25758   0.26057
 Alpha virt. eigenvalues --    0.26069   0.26333   0.26583   0.26783   0.27419
 Alpha virt. eigenvalues --    0.27537   0.27606   0.27721   0.28605   0.28996
 Alpha virt. eigenvalues --    0.29308   0.29427   0.30406   0.30567   0.30819
 Alpha virt. eigenvalues --    0.31456   0.31748   0.32805   0.34046   0.34438
 Alpha virt. eigenvalues --    0.35219   0.35421   0.36669   0.37459   0.37727
 Alpha virt. eigenvalues --    0.39265   0.41245   0.41414   0.42043   0.43059
 Alpha virt. eigenvalues --    0.43601   0.43862   0.44267   0.45543   0.46008
[...]
 001039,0.00002756,0.00001859,-0.00000535,-0.00000753,0.00000263,0.0000
 1248,-0.00000047,0.00000378,-0.00000108,0.00000004,0.00000013,-0.00000
 046,0.00000452,0.00000451,-0.00000283,-0.00000566,-0.00000779,-0.00000
 257,0.00000313,-0.00000408,-0.00000472,-0.00000063,0.00000334,0.000001
 44,0.00000141,-0.00000182,-0.00000106,0.00004986,0.00002978,-0.0000237
 1,0.00004457,-0.00002021,0.00000846,-0.00002617,0.00002196,0.00001163,
 -0.00001022,-0.00001476,-0.00006441,-0.00019001,0.00018815,0.00003246,
 0.00002525,0.00002949,0.00005356,0.00000624,-0.00005099,-0.00003877,-0
 .00007268,-0.00004209,-0.00002072,0.00002696,0.00000493,0.00000342,-0.
 00000630,-0.00001887,-0.00000007,0.00006704,0.00003991,-0.00000046,-0.
 00007825,-0.00000161,-0.00005941,0.00004863,0.00014901,0.00060861,0.00
 211136,0.00229343,-0.00184682,-0.00654159,0.00332345,0.00087522,-0.275
 49662,0.10681443,-0.02008143,-0.01206185,0.00642768,-0.00403948,0.0010
 2602,0.00199165,0.00375120,0.00036720,-0.00047777,0.00027698,-0.000191
 49,-0.00043241,-0.00008530,0.00015612,-0.00158247,-0.00015998,0.000060
 64,-0.00157512,-0.00031376,-0.00001485,0.00005715,-0.00002681,0.000017
 31,-0.00007237,-0.00000248,-0.00000800,-0.00000596,-0.00000191,-0.0000
 0661,-0.00001089,-0.00001142,0.00000600,0.00002156,-0.00000522,-0.0000
 7486,-0.00001854,-0.00006039,0.00000824,0.00008438,0.00002029,-0.00000
 332,-0.00000455,-0.00000119,0.00001091,0.00000144,0.00001053,-0.000006
 95,0.00000599,-0.00000024,0.00000436,0.00000235,-0.00001052,0.00000167
 ,0.00000552,-0.00000427,0.00009524,0.00003403,0.00001554,-0.00005715,0
 .00000596,0.00001213,0.00000868,-0.00000138,-0.00000122,-0.00000009,-0
 .00000212,-0.00000483,-0.00000388,0.00000569,-0.00000429,-0.00000143,-
 0.00000349,0.00000122,0.00000423,-0.00000287,0.00000549,0.00001671,-0.
 00000622,0.00000440,-0.00000096,0.00000178,-0.00000641,0.00000599,-0.0
 0000124,0.00000085,-0.00004829,0.00005124,-0.00003828,0.00008637,0.000
 02916,-0.00000316,0.00011496,-0.00014666,-0.00000356,-0.00000203,0.000
 00110,0.00000303,0.00001989,0.00001792,0.00002277,-0.00000408,-0.00000
 107,0.00000367,0.00000041,-0.00000511,0.00000259,-0.00008748,0.0001052
 7,-0.00000483,-0.00000645,-0.00001355,-0.00002717,0.00000027,0.0000040
 5,-0.00000014,-0.00000027,-0.00000143,0.00000060,-0.00000104,-0.000000
 43,-0.00000201,0.00000387,0.00000114,-0.00000267,-0.00000248,-0.000008
 14,-0.00000395,-0.00000655,-0.00002591,-0.00000931,0.29134850,-0.00005
 812,-0.00002395,-0.00002327,0.00015917,0.00005384,0.00006209,-0.000034
 72,-0.00001316,-0.00001648,0.00000817,0.00000383,-0.00000751,-0.000004
 10,-0.00000411,-0.00000254,0.00000030,-0.00000036,0.00000075,-0.000005
 78,0.00000151,-0.00000294,0.00000688,0.00000036,0.00001644,-0.00000206
 ,-0.00000771,0.00000163,0.00000009,-0.00000027,-0.00000080,0.00000188,
 0.00000198,-0.00000329,-0.00003504,-0.00000626,-0.00000935,-0.00000525
 ,-0.00000472,-0.00000493,-0.00000100,-0.00000408,0.00000102,-0.0000003
 5,-0.00000156,0.00000025,-0.00000130,-0.00000248,-0.00000072,0.0000078
 0,0.00001278,-0.00000485,-0.00000060,0.00000393,0.00000169,0.00000001,
 -0.00000016,0.00000042,0.00000033,-0.00000095,0.00000288,-0.00006728,0
 .00001105,-0.00002463,-0.00011732,0.00004865,-0.00003599,0.00011084,-0
 .00006017,-0.00004344,-0.00000715,0.00012397,0.00014763,0.00051719,-0.
 00036832,-0.00017812,-0.00003365,0.00001822,0.00003443,-0.00004006,0.0
 0000432,0.00011362,0.00012129,0.00006771,0.00001234,-0.00001147,-0.000
 00388,0.00000091,-0.00001609,-0.00000305,0.00000202,-0.00002641,-0.000
 04268,-0.00003198,0.00002230,-0.00003325,0.00000585,0.00031578,0.00050
 468,-0.00048053,0.00247960,0.00550851,0.00240107,0.00663617,-0.0011564
 7,-0.00038332,0.10688583,-0.07884405,0.01190882,0.00311448,0.00029003,
 0.00113613,0.00204530,0.00590071,-0.00035817,-0.00048591,-0.00044554,0
 .00012572,-0.00039897,-0.00103122,-0.00012968,-0.00154600,-0.00285153,
 -0.00051169,-0.00145751,-0.00288738,-0.00066150,0.00005988,-0.00008315
 ,0.00021285,-0.00001978,0.00006137,0.00003390,0.00002588,-0.00000094,-
 0.00000649,0.00000019,0.00000702,-0.00000044,0.00002909,-0.00000557,0.
 00000392,-0.00006920,0.00000437,-0.00002197,0.00001696,0.00000704,0.00
 001257,-0.00000196,0.00000225,0.00000707,-0.00000130,-0.00000184,0.000
 00641,0.00000812,0.00000093,-0.00001518,-0.00000416,-0.00000162,0.0000
 0134,-0.00000028,-0.00000262,0.00000415,-0.00012873,-0.00005829,-0.000
 05719,0.00006150,0.00000716,0.00000644,-0.00001508,0.00000730,-0.00001
 087,-0.00000114,-0.00000241,0.00000352,0.00003021,-0.00004546,-0.00000
 879,-0.00000501,-0.00000311,0.00000217,0.00000130,0.00002023,-0.000028
 66,-0.00006651,0.00008838,-0.00001765,0.00000096,-0.00000255,-0.000008
 61,0.00000141,0.00000319,-0.00000184,-0.00007790,-0.00031420,0.0002226
 9,-0.00025198,0.00003952,-0.00006947,-0.00024062,0.00061041,-0.0001280
 4,0.00000751,0.00003247,-0.00002665,-0.00008121,-0.00008920,-0.0000652
 6,-0.00000410,0.00000105,0.00000358,-0.00000367,-0.00000002,-0.0000020
 2,0.00002423,-0.00002938,0.00000914,-0.00006371,-0.00004821,0.00000430
 ,0.00000122,-0.00000121,0.00000089,0.,0.00000146,0.00000195,-0.0000002
 7,0.00000073,-0.00000241,-0.00000121,-0.00000225,0.00000240,0.00000760
 ,0.00000544,0.00000507,-0.00000441,-0.00000693,-0.00000605,-0.11759191
 ,0.07484558,0.00001238,0.00005245,-0.00024827,-0.00014795,-0.00014973,
 -0.00002609,0.00003545,0.00002635,0.00001721,-0.00000343,-0.00000211,0
 .00000080,0.00000510,0.00000150,0.00000476,0.00000270,0.00000088,-0.00
 000059,0.00000741,-0.00000307,-0.00000272,-0.00000977,0.00000081,-0.00
 001943,-0.00000134,0.00000575,0.00000174,0.00000083,0.00000156,-0.0000
 0134,-0.00000401,-0.00000115,0.00001054,0.00003367,0.00001190,-0.00000
 094,-0.00000532,0.00000164,0.00001275,-0.00000121,0.00000498,-0.000000
 92,0.00000060,0.00000302,-0.00000063,0.00000509,0.00000042,-0.00000110
 ,-0.00000097,-0.00000037,0.00000373,-0.00000182,-0.00000352,-0.0000135
 7,-0.00000027,0.00000154,0.00000027,0.00000038,-0.00000082,-0.00000107
 ,0.00001963,0.00004382,-0.00000027,0.00003850,-0.00003500,-0.00001361,
 -0.00002925,0.00000283,0.00000332,0.00007991,-0.00005920,-0.00004075,-
 0.00038600,0.00031060,0.00011029,0.00007391,-0.00002802,0.00003661,0.0
 0002077,-0.00003111,-0.00003635,-0.00005431,-0.00002156,-0.00003050,0.
 00003446,0.00000673,0.00000231,-0.00001278,-0.00001753,-0.00000032,0.0
 0006573,0.00000878,-0.00001284,-0.00005886,-0.00003476,0.00002746,-0.0
 0074857,0.00041308,0.00032265,-0.00103656,0.00183594,-0.00422297,-0.02
 615451,0.01142951,0.00067717,-0.02035903,0.01168447,-0.05636785,0.0234
 8728,-0.01059050,0.00608470,0.00241501,0.00030838,-0.00397517,0.000216
 95,0.00001707,-0.00120433,-0.00011126,-0.00014017,0.00017400,-0.000600
 88,-0.00031680,0.00088168,0.00000306,-0.00066500,0.00094585,-0.0000116
 7,0.00009468,-0.00007657,0.00000168,-0.00007876,-0.00002108,-0.0000151
 0,-0.00000792,0.00000755,-0.00000408,-0.00000915,-0.00000826,0.0000054
 2,-0.00000473,0.00000495,-0.00003947,-0.00000541,-0.00006200,-0.000006
 16,0.00002813,0.00002251,0.00000171,-0.00000345,-0.00000070,0.00001822
 ,0.00000014,0.00000578,-0.00001165,0.00000653,0.00000289,0.00000263,0.
 00000420,-0.00000836,-0.00000037,0.00000648,-0.00000435,0.00008143,0.0
 0002000,0.00002186,-0.00004251,0.00001383,0.00000623,0.00000802,-0.000
 00685,0.00000352,0.,-0.00000201,-0.00000870,-0.00000303,0.00001182,-0.
 00001625,0.00000141,-0.00000966,0.00000258,0.00000036,-0.00000562,0.00
 001092,0.00001558,0.00001473,0.00001668,0.00001090,-0.00000449,-0.0000
 3084,-0.00000521,-0.00000469,0.00000313,0.00012617,0.00010768,-0.00005
 203,0.00005591,0.00003104,0.00006941,0.00013444,-0.00045911,0.00002683
 ,-0.00000935,-0.00004845,0.00001169,-0.00001395,-0.00001034,0.00001514
 ,0.00001124,-0.00000388,0.00000032,-0.00000391,0.00000577,-0.00000546,
 -0.00011970,0.00013392,0.00000336,0.00003188,-0.00003026,0.00003301,-0
 .00000090,0.00000235,0.00000028,-0.00000210,0.00000121,-0.00000022,-0.
 00000076,0.00000020,-0.00000048,0.00000271,0.00000237,-0.00000285,-0.0
 0000285,-0.00000742,-0.00000459,-0.00000607,-0.00001843,-0.00000343,0.
 02165073,-0.01326143,0.05673238,0.00001052,0.00003441,0.00002430,0.000
 03714,0.00001889,0.00000579,-0.00001392,-0.00001267,-0.00000676,0.0000
 0276,-0.00000147,-0.00000005,-0.00000130,0.00000010,-0.00000112,-0.000
 00064,-0.00000065,-0.00000034,-0.00000235,0.00000041,0.00000073,0.0000
 0197,-0.00000240,0.00000671,-0.00000019,-0.00000051,-0.00000002,-0.000
 00041,-0.00000006,0.00000034,0.00000017,0.00000124,-0.00000307,-0.0000
 1545,-0.00000982,0.00000049,0.00000193,-0.00000209,-0.00000436,-0.0000
 0082,-0.00000263,0.00000091,0.00000039,-0.00000095,-0.00000073,-0.0000
 0334,-0.00000342,-0.00000376,0.00000179,0.00000793,0.00000020,0.000005
 63,0.00000396,0.00000370,0.00000077,-0.00000241,0.00000005,-0.00000051
 ,0.00000080,0.00000083,-0.00001980,-0.00000520,0.00002478,0.00001432,-
 0.00000200,-0.00002549,0.00000721,0.00003143,0.00003342,-0.00000399,-0
 .00000709,-0.00002206,-0.00007986,0.00010064,0.00001847,0.00002118,-0.
 00001165,-0.00003096,-0.00000646,0.00000256,0.00000534,0.00000172,-0.0
 0001187,0.00000003,0.00000345,0.00000230,-0.00000542,0.00000580,-0.000
 02136,-0.00000845,0.00004733,0.00001977,-0.00001528,-0.00009365,0.0000
 0079,-0.00021370,0.00033867,0.00014636,-0.00043269,0.00118927,0.002692
 22,-0.00183803,-0.00055671,0.00016255,-0.00079892,-0.00294167,0.004451
 88,-0.00185924,-0.01152779,0.00296380,0.02364201,-0.13984641,0.0300589
 1,0.12635800,0.00904626,-0.00162468,-0.01003974,0.00002491,-0.00167031
 ,0.00005017,0.00033471,-0.00168099,-0.00035090,-0.00008574,-0.00053220
 ,0.00002094,-0.00000813,0.00002832,-0.00001155,-0.00000484,-0.00001507
 ,0.00000427,-0.00000327,0.00000434,-0.00000059,-0.00000006,-0.00000359
 ,0.00000280,0.00000395,-0.00000839,0.00000298,0.00000280,0.00001282,-0
 .00000051,-0.00000406,-0.00001064,-0.00000975,0.00000187,0.00000087,0.
 00000062,0.00000474,0.00000192,-0.00000409,-0.00000405,0.00000382,-0.0
 0000632,0.00000389,0.00000102,-0.00000520,-0.00000104,0.00000187,-0.00
 000115,0.00000502,-0.00000236,0.00000192,-0.00000364,0.00000260,-0.000
 00098,0.00000158,-0.00000165,0.00000149,0.00000013,-0.00000014,-0.0000
 0178,-0.00000189,0.00000490,-0.00000007,0.00000076,-0.00000212,-0.0000
 0006,-0.00000059,-0.00000155,0.00000268,0.00000609,-0.00000409,0.00000
 303,0.00000177,-0.00000112,-0.00000527,-0.00000026,0.00000023,0.000000
 10,0.00000480,0.00003235,-0.00002527,0.00001763,-0.00000076,0.00001331
 ,0.00004014,-0.00010395,-0.00000932,-0.00000477,-0.00001197,0.00000274
 ,-0.00000557,0.00001178,0.00001436,-0.00001585,-0.00003770,-0.00001473
 ,0.00000695,-0.00001027,0.00001044,0.00001057,-0.00002036,0.00000405,-
 0.00002245,-0.00002095,0.00007201,0.00000023,-0.00000149,0.00000034,0.
 00000271,0.00000102,0.00000154,-0.00000001,0.00000029,-0.00000002,-0.0
 0000104,0.00000029,0.00000076,0.00000137,-0.00000052,-0.00000078,-0.00
 000142,-0.00000228,-0.00000204,-0.00068107,0.00028085,0.00130767,0.144
 75020,-0.00000522,-0.00002641,-0.00000251,0.00004712,0.00004527,0.0000
 4946,-0.00000983,-0.00000818,-0.00000758,0.00001001,0.00000150,-0.0000
 0472,-0.00000123,-0.00000176,-0.00000039,0.00000045,0.00000014,-0.0000
 0052,-0.00000324,-0.00000142,-0.00000152,0.00000149,-0.00000068,0.0000
 0174,-0.00000412,-0.00000173,0.00000146,0.00000031,0.00000038,-0.00000
 107,-0.00000113,0.00000162,0.00000119,-0.00001901,0.00000311,0.0000004
 2,0.00000613,-0.00000049,-0.00000640,0.00000287,-0.00000220,-0.0000017
 2,-0.00000119,-0.00000905,-0.00000226,-0.00000420,0.00000570,-0.000005
 40,-0.00000936,-0.00001918,-0.00001074,0.00001161,0.00000493,0.0000269
 2,0.00000080,0.00000102,0.00000161,0.00000120,0.00000261,0.00000043,-0
 .00002439,0.00000064,0.00002074,-0.00000137,0.00002641,-0.00004755,0.0
 0004274,0.00001106,0.00000436,-0.00001749,0.00003506,-0.00000223,-0.00
 001639,0.00001362,-0.00000687,0.00003262,-0.00003214,-0.00001102,-0.00
 000782,0.00004355,0.00003035,0.00000339,0.00000830,0.00001567,-0.00000
 810,-0.00000945,-0.00001197,0.00000143,0.00001153,-0.00000978,-0.00003
 339,0.00000484,0.00001200,0.00008273,-0.00007472,-0.00001118,-0.000226
 40,0.00036320,0.00012221,0.00274784,0.00542931,0.00231810,0.00005601,-
 0.00057861,0.00035707,0.00436424,0.00467551,0.00160292,0.00657874,0.00
 071548,-0.01084670,0.02978201,-0.04268582,-0.02920365,-0.00489740,0.00
 384379,0.00717943,-0.00153809,-0.00305071,-0.00062673,-0.00173431,-0.0
 0283529,-0.00037136,-0.00048961,-0.00106487,-0.00023263,0.00003022,-0.
 00002081,0.00001629,0.00002944,0.00002586,0.00000319,0.00000054,0.0000
 0039,0.00000615,-0.00000172,-0.00000578,0.00000155,-0.00001378,-0.0000
 0233,0.00001045,0.00002733,0.00000678,0.00003505,0.00001680,-0.0000035
 6,-0.00001057,0.00000278,-0.00000078,-0.00000460,0.00000010,0.00000337
 ,-0.00000114,0.00000314,-0.00000775,-0.00000300,-0.00000014,-0.0000028
 9,0.00000259,0.00000022,-0.00000209,-0.00000032,-0.00001750,-0.0000135
 0,-0.00001151,0.00000033,-0.00000064,0.00000090,-0.00000147,0.00000134
 ,-0.00000142,0.00000142,-0.00000108,0.00000003,0.00000106,-0.00000263,
 0.00000222,-0.00000132,-0.00000112,-0.00000044,0.00000066,0.00000165,-
 0.00000336,-0.00000360,0.00000182,0.00000151,-0.00000025,-0.00000057,-
 0.00000096,0.00000206,0.00000074,-0.00000120,-0.00002236,-0.00001562,0
 .00000282,-0.00000914,-0.00000095,-0.00000157,0.00002713,-0.00001079,-
 0.00002890,-0.00000335,0.00000181,-0.00000064,-0.00000884,-0.00000479,
 0.00000058,-0.00002524,-0.00003059,-0.00001392,0.00000595,-0.00002373,
 0.00001196,0.00000966,-0.00002060,-0.00000793,-0.00005883,-0.00002096,
 -0.00004804,0.00000179,0.00000006,-0.00000092,0.00000855,-0.00000684,0
 .00000069,-0.00000028,0.00000089,-0.00000190,0.00000045,0.00000072,0.0
 0000019,-0.00000096,0.00000061,0.00000358,0.00000522,-0.00000342,-0.00
 000456,0.00049637,0.00019428,-0.00057662,-0.03522287,0.03511763,0.0000
 3609,0.00005697,-0.00003058,-0.00001740,-0.00016535,-0.00002986,0.0000
 0200,0.00002091,0.00000258,-0.00000124,0.00000433,0.00000430,0.0000032
 8,0.00000206,0.00000438,-0.00000233,0.00000131,0.00000299,-0.00000225,
 0.00000149,0.00000019,-0.00000598,0.00000437,-0.00000486,0.00000198,-0
 .00000457,-0.00000154,0.00000116,-0.00000079,-0.00000100,0.00000322,-0
 .00000434,0.00000275,0.00001281,-0.00000143,-0.00000531,-0.00001371,-0
 .00000210,0.00001479,-0.00000618,0.00000294,0.00000277,0.00000029,0.00
 000957,0.00000163,0.00000712,-0.00000675,0.00000084,0.00001491,0.00003
 453,0.00000626,-0.00000370,-0.00000796,-0.00002831,-0.00000085,0.00000
 198,0.00000033,-0.00000049,-0.00000697,0.00000037,0.00003875,0.0000074
 1,-0.00001510,-0.00000112,-0.00001487,0.00002303,-0.00002385,-0.000011
 87,-0.00000169,0.00001911,-0.00001092,0.00000531,-0.00000522,-0.000007
 04,0.00000392,-0.00003173,0.00002130,-0.00001760,-0.00001464,-0.000054
 78,-0.00006489,-0.00005407,-0.00006501,-0.00000471,0.00001411,0.000014
 45,-0.00000081,0.00000926,-0.00005627,-0.00001675,0.00015082,0.0001159
 5,-0.00003169,-0.00029558,0.00004099,-0.00041474,0.00114595,-0.0003460
 9,0.00017155,-0.00259326,0.00247144,-0.00332367,-0.00087109,0.00034800
 ,-0.00003101,-0.00075435,0.00103349,0.00136527,-0.00359000,0.00111991,
 0.00562318,0.12651118,-0.02930334,-0.23261948,0.01674016,-0.00457406,-
 0.01833692,-0.00015211,-0.00056974,0.00092760,0.00003914,-0.00056706,0
 .00063464,0.00003919,-0.00019676,0.00000383,-0.00009589,0.00013742,-0.
 00018287,0.00001488,-0.00011664,-0.00001424,-0.00003167,0.00000903,-0.
 00000291,-0.00000448,-0.00001026,-0.00000473,-0.00000995,0.00000445,-0
 .00000642,-0.00001656,0.00001790,0.00000754,0.00000526,0.00002592,-0.0
 0000145,-0.00000098,-0.00000581,-0.00000561,0.00000990,0.00000225,-0.0
 0000337,-0.00001326,0.00001281,-0.00000167,0.00001535,0.00000224,-0.00
 001666,0.00000321,0.00000633,-0.00000306,0.00008765,0.00005102,0.00001
 005,-0.00004052,-0.00000078,0.00001485,0.00000739,0.00000195,-0.000003
 63,-0.00000169,0.00000032,-0.00000080,0.00000236,-0.00000029,-0.000005
 49,-0.00000131,0.00000025,0.00000249,0.00000466,-0.00000050,0.00000186
 ,-0.00000007,0.00000074,-0.00000144,-0.00000309,0.00000237,0.00000073,
 0.00000268,-0.00000048,0.00000228,-0.00002177,-0.00000412,-0.00000488,
 0.00000119,-0.00000186,0.00000248,0.00000535,0.00002251,0.00001405,0.0
 0000257,0.00000439,0.00000211,0.00000263,-0.00000143,0.00000023,0.0000
 1848,0.00001969,0.00001312,-0.00000083,0.00002553,-0.00000654,-0.00007
 212,0.00007851,-0.00000474,-0.00006386,-0.00004171,0.00009401,-0.00000
 117,0.00000158,0.00000190,-0.00000786,0.00000951,0.00000253,0.,-0.0000
 0190,-0.00000119,0.00000199,-0.00000243,-0.00000047,-0.00000453,-0.000
 01055,-0.00001182,0.00000570,-0.00001216,-0.00000541,-0.00026530,0.000
 13470,0.00020893,-0.13588372,0.03030423,0.24608825\\-0.00000101,0.0000
 0018,-0.00000047,-0.00000284,0.00000173,0.00000311,-0.00000241,-0.0000
 0137,-0.00000188,0.00000235,0.00000140,-0.00000073,0.00000092,-0.00000
 053,0.00000164,-0.00000029,-0.00000061,0.00000135,-0.00000111,-0.00000
 099,0.00000029,-0.00000074,0.00000076,-0.00000159,0.00000053,-0.000000
 48,0.00000071,0.00000006,-0.00000011,-0.00000105,-0.00000064,-0.000000
 82,0.00000051,0.00000183,-0.00000027,-0.00000031,-0.00000126,0.0000018
 5,0.00000084,-0.00000039,-0.00000124,0.00000044,0.00000060,-0.00000232
 ,-0.00000034,0.00000077,0.00000149,-0.00000154,-0.00000012,0.00000057,
 -0.00000104,-0.00000048,-0.00000037,-0.00000041,-0.00000033,0.00000122
 ,-0.00000057,0.00000058,-0.00000036,-0.00000126,0.00000095,0.00000103,
 -0.00000053,0.00000184,-0.00000083,0.00000116,-0.00000108,0.00000010,-
 0.00000173,-0.00000076,-0.00000124,-0.00000211,-0.00000083,0.00000281,
 -0.00000124,0.00000148,-0.00000040,0.00000127,0.00000051,0.00000032,-0
 .00000144,-0.00000034,-0.00000296,0.00000137,-0.00000088,0.00000115,0.
 00000198,-0.00000076,0.00000012,0.00000160,0.00000154,0.00000062,-0.00
 000145,0.00000148,-0.00000173,0.00000157,-0.00000154,-0.00000080,-0.00
 000334,-0.00000152,0.00000056,0.00000239,-0.00000134,-0.00000037,0.000
 00119,-0.00000126,0.00000106,0.00000023,0.00000009,0.00000037,-0.00000
 161,0.00000100,0.00000062,-0.00000240,0.00000187,-0.00000135,0.0000014
 9,-0.00000070,0.00000081,-0.00000059,0.00000010,0.00000017,0.00000105,
 0.00000043,0.00000015,-0.00000062,0.00000052,0.00000046,0.00000012,0.0
 0000014,-0.00000044,0.00000068,0.00000047,-0.00000159,0.00000132,0.000
 00116,0.00000187,0.00000086,-0.00000023,0.00000172,-0.00000015,-0.0000
 0112,-0.00000219,-0.00000085,0.00000081,0.00000064,0.00000122,-0.00000
 036,-0.00000123,0.00000051,-0.00000030,0.00000039,0.00000020,-0.000001
 72,-0.00000111,0.00000022,0.00000006,-0.00000062,-0.00000032,0.0000008
 3,0.00000022,-0.00000066,-0.00000049,-0.00000193,-0.00000267,-0.000002
 08,0.00000078,0.00000336,0.00000088,0.00000045,0.,-0.00000003,-0.00000
 024,-0.00000086,0.00000058,-0.00000090,-0.00000037,-0.00000046,0.00000
 050,-0.00000012,0.00000139,0.00000019,-0.00000014,0.00000072,0.0000010
 0,0.00000037,-0.00000039,-0.00000057,0.00000013,0.00000138,-0.00000020
 ,0.00000014,-0.00000206,-0.00000067,-0.00000339,0.00000084,-0.00000047
 ,-0.00000012,-0.00000012,0.00000176,0.00000267,0.,0.00000020,0.0000009
 0,0.00000083,-0.00000012,0.00000066,0.00000006,0.00000066,0.00000027,-
 0.00000162,0.00000119,-0.00000012,0.00000231,-0.00000159,0.00000103,0.
 00000190,0.00000163,-0.00000055,0.00000012,0.00000093,-0.00000061,-0.0
 0000007,-0.00000028,0.00000034,-0.00000056,-0.00000044,-0.00000104,0.0
 0000051,0.00000033,-0.00000016,-0.00000018,0.00000032,-0.00000048,0.00
 000006,-0.00000079,0.00000053,0.00000057,-0.00000026,0.00000012,-0.000
 00064,0.00000045,0.00000100\\\@


 A successful marriage requires falling in love
 many times, always with the same person.
                           -- Mignon McLaughlin
 Job cpu time:       0 days 10 hours 59 minutes 17.8 seconds.
 Elapsed time:       0 days  0 hours 20 minutes 43.9 seconds.
 File lengths (MBytes):  RWF=   5750 Int=      0 D2E=      0 Chk=    148 Scr=      1
 Normal termination of Gaussian 16 at Fri Oct 29 21:15:18 2021.
