 Entering Gaussian System, Link 0=/uufs/chpc.utah.edu/sys/installdir/gaussian16/B01/E6B/g16/g16
 Input=R-C4-Tunephos_2_SPE_NoPd.com
 Output=R-C4-Tunephos_2_SPE_NoPd.log
 Initial command:
 /uufs/chpc.utah.edu/sys/installdir/gaussian16/B01/E6B/g16/l1.exe "/scratch/general/lustre/u1010977/3354027/notchpeak.peaks/Gau-21569.inp" -scrdir="/scratch/general/lustre/u1010977/3354027/notchpeak.peaks/"
 Entering Link 1 = /uufs/chpc.utah.edu/sys/installdir/gaussian16/B01/E6B/g16/l1.exe PID=     21571.
  
 Copyright (c) 1988-2017, Gaussian, Inc.  All Rights Reserved.
  
 This is part of the Gaussian(R) 16 program.  It is based on
 the Gaussian(R) 09 system (copyright 2009, Gaussian, Inc.),
 the Gaussian(R) 03 system (copyright 2003, Gaussian, Inc.),
 the Gaussian(R) 98 system (copyright 1998, Gaussian, Inc.),
 the Gaussian(R) 94 system (copyright 1995, Gaussian, Inc.),
 the Gaussian 92(TM) system (copyright 1992, Gaussian, Inc.),
 the Gaussian 90(TM) system (copyright 1990, Gaussian, Inc.),
 the Gaussian 88(TM) system (copyright 1988, Gaussian, Inc.),
 the Gaussian 86(TM) system (copyright 1986, Carnegie Mellon
 University), and the Gaussian 82(TM) system (copyright 1983,
 Carnegie Mellon University). Gaussian is a federally registered
 trademark of Gaussian, Inc.
  
 This software contains proprietary and confidential information,
 including trade secrets, belonging to Gaussian, Inc.
  
 This software is provided under written license and may be
 used, copied, transmitted, or stored only in accord with that
 written license.
  
 The following legend is applicable only to US Government
 contracts under FAR:
  
                    RESTRICTED RIGHTS LEGEND
  
 Use, reproduction and disclosure by the US Government is
 subject to restrictions as set forth in subparagraphs (a)
 and (c) of the Commercial Computer Software - Restricted
 Rights clause in FAR 52.227-19.
  
 Gaussian, Inc.
 340 Quinnipiac St., Bldg. 40, Wallingford CT 06492
  
  
 ---------------------------------------------------------------
 Warning -- This program may not be used in any manner that
 competes with the business of Gaussian, Inc. or will provide
 assistance to any competitor of Gaussian, Inc.  The licensee
 of this program is prohibited from giving any competitor of
 Gaussian, Inc. access to this program.  By using this program,
 the user acknowledges that Gaussian, Inc. is engaged in the
 business of creating and licensing software in the field of
 computational chemistry and represents and warrants to the
 licensee that it is not a competitor of Gaussian, Inc. and that
 it will not use this program in any manner prohibited above.
 ---------------------------------------------------------------
  

 Cite this work as:
 Gaussian 16, Revision B.01,
 M. J. Frisch, G. W. Trucks, H. B. Schlegel, G. E. Scuseria, 
 M. A. Robb, J. R. Cheeseman, G. Scalmani, V. Barone, 
 G. A. Petersson, H. Nakatsuji, X. Li, M. Caricato, A. V. Marenich, 
 J. Bloino, B. G. Janesko, R. Gomperts, B. Mennucci, H. P. Hratchian, 
 J. V. Ortiz, A. F. Izmaylov, J. L. Sonnenberg, D. Williams-Young, 
 F. Ding, F. Lipparini, F. Egidi, J. Goings, B. Peng, A. Petrone, 
 T. Henderson, D. Ranasinghe, V. G. Zakrzewski, J. Gao, N. Rega, 
 G. Zheng, W. Liang, M. Hada, M. Ehara, K. Toyota, R. Fukuda, 
 J. Hasegawa, M. Ishida, T. Nakajima, Y. Honda, O. Kitao, H. Nakai, 
 T. Vreven, K. Throssell, J. A. Montgomery, Jr., J. E. Peralta, 
 F. Ogliaro, M. J. Bearpark, J. J. Heyd, E. N. Brothers, K. N. Kudin, 
 V. N. Staroverov, T. A. Keith, R. Kobayashi, J. Normand, 
 K. Raghavachari, A. P. Rendell, J. C. Burant, S. S. Iyengar, 
 J. Tomasi, M. Cossi, J. M. Millam, M. Klene, C. Adamo, R. Cammi, 
 J. W. Ochterski, R. L. Martin, K. Morokuma, O. Farkas, 
 J. B. Foresman, and D. J. Fox, Gaussian, Inc., Wallingford CT, 2016.
 
 ******************************************
 Gaussian 16:  ES64L-G16RevB.01 20-Dec-2017
                 1-Nov-2021 
 ******************************************
 %NProcShared=52
 Will use up to   52 processors via shared memory.
 %mem=18GB
 %chk=R-C4-Tunephos_2_SPE_NoPd.chk
 ----------------------------------------------------------------------
 # PBE1PBE/def2TZVP int=(grid=ultrafine) empiricaldispersion=GD3BJ nmr=
 giao
 ----------------------------------------------------------------------
 1/38=1,172=1/1;
 2/12=2,17=6,18=5,40=1/2;
 3/5=44,7=101,11=2,25=1,30=1,74=-13,75=-5,124=41/1,2,3,8;
 4//1;
 5/5=2,38=5/2;
 8/6=1,10=90,11=11/1;
 10/13=100,45=16/2;
 6/7=2,8=2,9=2,10=2,28=1/1;
 99/9=1/99;
 -----
 title
 -----
 Symbolic Z-matrix:
 Charge =  0 Multiplicity = 1
 P                    -0.75289   1.6838   -0.01204 
 C                    -0.05227   2.15999  -1.63239 
 C                    -0.85488   1.9678   -2.77351 
 C                    -0.37056   2.34662  -4.03208 
 C                     0.90714   2.91234  -4.15666 
 C                     1.70468   3.10526  -3.01903 
 C                     1.22832   2.73269  -1.75587 
 H                     1.86524   2.85198  -0.87377 
 H                     1.28375   3.2012   -5.14355 
 H                    -1.85585   1.53667  -2.65628 
 C                    -1.39752   3.23907   0.72405 
 C                    -0.85377   4.48744   0.3732 
 C                    -1.30527   5.65066   1.01208 
 C                    -2.29102   5.57205   2.0051 
 C                    -2.83554   4.32709   2.35469 
 C                    -2.39924   3.16285   1.7119 
 H                    -2.84761   2.19417   1.95306 
 H                    -2.64371   6.48279   2.50008 
 H                    -0.08943   4.55483  -0.40679 
 C                     0.68288   1.28631   1.09116 
 C                     0.71694   1.87704   2.37011 
 C                     1.75168   1.58139   3.26298 
 C                     2.77817   0.7117    2.88798 
 C                     2.75211   0.11776   1.61765 
 C                     1.69884   0.37294   0.70765 
 C                     1.72321  -0.29986  -0.62275 
 C                     2.79601  -0.01932  -1.50713 
 C                     2.83514  -0.58226  -2.79276 
 C                     1.81882  -1.4495   -3.19971 
 C                     0.77756  -1.7797   -2.32811 
 C                     0.72249  -1.21424  -1.03888 
 P                    -0.73025  -1.64057   0.0308 
 C                    -0.06078  -2.11718   1.66386 
 C                     1.23225  -2.65386   1.81596 
 C                     1.68596  -3.02559   3.0876 
 C                     0.85276  -2.86921   4.205 
 C                    -0.43777  -2.34076   4.05166 
 C                    -0.89925  -1.96153   2.78466 
 H                    -1.90904  -1.55846   2.64534 
 H                     1.2117   -3.15669   5.19884 
 H                     1.89627  -2.74471   0.95058 
 C                    -1.33084  -3.2028   -0.7282 
 C                    -2.31881  -3.14243  -1.73075 
 C                    -2.71935  -4.31212  -2.38699 
 C                    -2.15242  -5.54685  -2.03691 
 C                    -1.17993  -5.60988  -1.02972 
 C                    -0.76447  -4.44108  -0.37691 
 H                    -0.01053  -4.49617   0.41414 
 H                    -2.47732  -6.46201  -2.54263 
 H                    -2.78507  -2.18252  -1.97281 
 H                     0.00788  -2.48459  -2.64851 
 H                     1.84472  -1.88237  -4.20474 
 H                     3.65015  -0.33615  -3.47789 
 O                     3.75193   0.86125  -1.05343 
 C                     5.11067   0.62145  -1.47977 
 H                     5.68321   1.44247  -1.01563 
 H                     5.19487   0.74602  -2.57603 
 C                     5.63676  -0.75505  -1.05234 
 H                     6.51661  -0.99562  -1.67676 
 H                     4.86801  -1.50473  -1.30691 
 C                     6.03275  -0.90458   0.43097 
 H                     6.14475  -1.97968   0.6593 
 H                     7.02391  -0.44449   0.60757 
 C                     5.07876  -0.26787   1.43723 
 H                     5.40851  -0.50899   2.46728 
 O                     3.74007  -0.75273   1.21279 
 H                     5.07645   0.83282   1.33145 
 H                     3.59012   0.47398   3.58081 
 H                     1.75909   2.03906   4.25724 
 H                    -0.06573   2.57844   2.66617 
 H                    -0.88729   6.62156   0.72636 
 H                    -3.61884   4.26165   3.11645 
 H                    -0.9946    2.19639  -4.91891 
 H                     2.70676   3.53683  -3.11317 
 H                    -3.4925   -4.25926  -3.16001 
 H                    -0.74449  -6.57303  -0.7438 
 H                     2.69877  -3.42505   3.20404 
 H                    -1.08954  -2.21914   4.92279 
 
 Stoichiometry    C40H34O2P2
 Framework group  C1[X(C40H34O2P2)]
 Deg. of freedom   228
 Full point group                 C1      NOp   1
 Largest Abelian subgroup         C1      NOp   1
 Largest concise Abelian subgroup C1      NOp   1
                         Standard orientation:                         
 ---------------------------------------------------------------------
 Center     Atomic      Atomic             Coordinates (Angstroms)
 Number     Number       Type             X           Y           Z
 ---------------------------------------------------------------------
      1         15           0       -1.829119   -1.301270   -0.241404
      2          6           0       -2.142900   -0.397094   -1.799333
      3          6           0       -1.971151   -1.098695   -3.008271
      4          6           0       -2.229828   -0.454672   -4.224985
      5          6           0       -2.655557    0.881957   -4.240579
      6          6           0       -2.828357    1.578971   -3.035669
      7          6           0       -2.575335    0.943032   -1.813838
      8          1           0       -2.677352    1.498591   -0.876314
      9          1           0       -2.850588    1.382955   -5.194618
     10          1           0       -1.650682   -2.146491   -2.977086
     11          6           0       -3.479475   -1.846529    0.354646
     12          6           0       -4.645351   -1.141073    0.007880
     13          6           0       -5.881393   -1.527321    0.544644
     14          6           0       -5.957271   -2.609246    1.432144
     15          6           0       -4.794783   -3.314974    1.777419
     16          6           0       -3.559061   -2.943496    1.235238
     17          1           0       -2.655366   -3.513983    1.470670
     18          1           0       -6.924661   -2.910333    1.847288
     19          1           0       -4.592371   -0.300487   -0.690504
     20          6           0       -1.348891   -0.032176    1.021640
     21          6           0       -2.001917   -0.062232    2.270029
     22          6           0       -1.652027    0.841725    3.277869
     23          6           0       -0.663683    1.801961    3.050281
     24          6           0       -0.007130    1.838738    1.811422
     25          6           0       -0.317764    0.913832    0.786410
     26          6           0        0.425511    0.998064   -0.503423
     27          6           0        0.303693    2.176840   -1.282777
     28          6           0        0.936892    2.282923   -2.531407
     29          6           0        1.717570    1.225435   -3.003508
     30          6           0        1.892603    0.073855   -2.231397
     31          6           0        1.255100   -0.048095   -0.980957
     32         15           0        1.473143   -1.636621   -0.050655
     33          6           0        1.925466   -1.186546    1.662557
     34          6           0        2.581299    0.020646    1.971824
     35          6           0        2.927259    0.304164    3.298858
     36          6           0        2.626641   -0.614151    4.315511
     37          6           0        1.979302   -1.819625    4.005627
     38          6           0        1.624851   -2.110492    2.682061
     39          1           0        1.129730   -3.052922    2.420839
     40          1           0        2.894443   -0.387939    5.352967
     41          1           0        2.785962    0.753609    1.185098
     42          6           0        3.005501   -2.321844   -0.798787
     43          6           0        2.900039   -3.193699   -1.900415
     44          6           0        4.057135   -3.649425   -2.542841
     45          6           0        5.322033   -3.254455   -2.081819
     46          6           0        5.428316   -2.398658   -0.977082
     47          6           0        4.273806   -1.927926   -0.336470
     48          1           0        4.361825   -1.266125    0.530423
     49          1           0        6.225754   -3.623181   -2.577983
     50          1           0        1.912448   -3.528988   -2.231568
     51          1           0        2.532290   -0.730909   -2.598952
     52          1           0        2.204939    1.304498   -3.980421
     53          1           0        0.812306    3.183260   -3.138106
     54          8           0       -0.498890    3.171354   -0.771094
     55          6           0       -0.099800    4.532375   -1.042743
     56          1           0       -0.882651    5.140218   -0.557982
     57          1           0       -0.155299    4.737423   -2.128683
     58          6           0        1.297575    4.864211   -0.502897
     59          1           0        1.659708    5.770947   -1.021175
     60          1           0        1.978267    4.049091   -0.802985
     61          6           0        1.405441    5.093307    1.018696
     62          1           0        2.472314    5.067200    1.304390
     63          1           0        1.039201    6.105398    1.277163
     64          6           0        0.621491    4.117561    1.891273
     65          1           0        0.838310    4.316230    2.959637
     66          8           0        0.979725    2.763718    1.550187
     67          1           0       -0.466367    4.242784    1.737649
     68          1           0       -0.383017    2.511459    3.833626
     69          1           0       -2.160064    0.799328    4.246459
     70          1           0       -2.794082   -0.791314    2.451955
     71          1           0       -6.787944   -0.982257    0.261678
     72          1           0       -4.850632   -4.172307    2.455633
     73          1           0       -2.095510   -1.000303   -5.164514
     74          1           0       -3.150414    2.625630   -3.043818
     75          1           0        3.968399   -4.332254   -3.393722
     76          1           0        6.413610   -2.098550   -0.605406
     77          1           0        3.420347    1.252231    3.537514
     78          1           0        1.745000   -2.537754    4.798004
 ---------------------------------------------------------------------
 Rotational constants (GHZ):           0.0844206           0.0683823           0.0642687
 Standard basis: def2TZVP (5D, 7F)
 There are  1800 symmetry adapted cartesian basis functions of A   symmetry.
 There are  1580 symmetry adapted basis functions of A   symmetry.
  1580 basis functions,  2552 primitive gaussians,  1800 cartesian basis functions
   160 alpha electrons      160 beta electrons
       nuclear repulsion energy      5874.2868855043 Hartrees.
 NAtoms=   78 NActive=   78 NUniq=   78 SFac= 1.00D+00 NAtFMM=   60 NAOKFM=T Big=T
 Integral buffers will be    131072 words long.
 Raffenetti 2 integral format.
 Two-electron integral symmetry is turned on.
 Nuclear repulsion after empirical dispersion term =     5874.1568745832 Hartrees.
 One-electron integrals computed using PRISM.
   1 Symmetry operations used in ECPInt.
 ECPInt:  NShTT=  195000 NPrTT=  604449 LenC2=  154478 LenP2D=  315115.
 LDataN:  DoStor=T MaxTD1= 6 Len=  172
 Number of processors reduced to  24 by ecpmxn.
 NBasis=  1580 RedAO= T EigKep=  3.64D-06  NBF=  1580
 NBsUse=  1580 1.00D-06 EigRej= -1.00D+00 NBFU=  1580
 ExpMin= 9.04D-02 ExpMax= 5.24D+04 ExpMxC= 1.79D+03 IAcc=3 IRadAn=         5 AccDes= 0.00D+00
 Harris functional with IExCor= 1009 and IRadAn=       5 diagonalized for initial guess.
 HarFok:  IExCor= 1009 AccDes= 0.00D+00 IRadAn=         5 IDoV= 1 UseB2=F ITyADJ=14
 ICtDFT=  3500011 ScaDFX=  1.000000  1.000000  1.000000  1.000000
 FoFCou: FMM=F IPFlag=           0 FMFlag=      100000 FMFlg1=        2001
         NFxFlg=           0 DoJE=T BraDBF=F KetDBF=T FulRan=T
         wScrn=  0.000000 ICntrl=       500 IOpCl=  0 I1Cent=   200000004 NGrid=           0
         NMat0=    1 NMatS0=      1 NMatT0=    0 NMatD0=    1 NMtDS0=    0 NMtDT0=    0
 Petite list used in FoFCou.
 Requested convergence on RMS density matrix=1.00D-08 within 128 cycles.
 Requested convergence on MAX density matrix=1.00D-06.
 Requested convergence on             energy=1.00D-06.
 No special actions if energy rises.
 Integral accuracy reduced to 1.0D-05 until final iterations.
 Problem detected with inexpensive integrals.
 Switching to full accuracy and repeating last cycle.
 SCF Done:  E(RPBE1PBE) =  -2376.32761083     A.U. after   15 cycles
            NFock= 15  Conv=0.47D-08     -V/T= 2.0048
 DoSCS=F DFT=T ScalE2(SS,OS)=  1.000000  1.000000
 Range of M.O.s used for correlation:     1  1580
 NBasis=  1580 NAE=   160 NBE=   160 NFC=     0 NFV=     0
 NROrb=   1580 NOA=   160 NOB=   160 NVA=  1420 NVB=  1420

 **** Warning!!: The largest alpha MO coefficient is  0.47349865D+02

          Differentiating once with respect to magnetic field using GIAOs.
          Electric field/nuclear overlap derivatives assumed to be zero.
 FoFCou: FMM=F IPFlag=           0 FMFlag=      100000 FMFlg1=        2001
         NFxFlg=           0 DoJE=F BraDBF=F KetDBF=T FulRan=T
         wScrn=  0.000000 ICntrl=      6100 IOpCl=  0 I1Cent=           7 NGrid=          78
         NMat0=    1 NMatS0=      1 NMatT0=    0 NMatD0=    1 NMtDS0=    0 NMtDT0=    0
 Symmetry not used in FoFCou.
   1 Symmetry operations used in ECPInt.
 ECPInt:  NShTT=  195000 NPrTT=  604449 LenC2=  195001 LenP2D=  604449.
 LDataN:  DoStor=T MaxTD1= 7 Len=  274
 Number of processors reduced to  15 by ecpmxn.
 FoFJK:  IHMeth= 1 ICntrl=    6127 DoSepK=F KAlg= 0 I1Cent=           0 FoldK=F
 IRaf=         1 NMat=       1 IRICut=       1 DoRegI=T DoRafI=F ISym2E= 0 IDoP0=0 IntGTp=1.
          There are     3 degrees of freedom in the 1st order CPHF.  IDoFFX=0 NUNeed=     3.
      3 vectors produced by pass  0 Test12= 7.57D-12 3.33D-08 XBig12= 1.81D+02 1.75D+00.
 AX will form     3 AO Fock derivatives at one time.
      3 vectors produced by pass  1 Test12= 7.57D-12 3.33D-08 XBig12= 7.63D-01 1.74D-01.
      3 vectors produced by pass  2 Test12= 7.57D-12 3.33D-08 XBig12= 3.34D-03 1.02D-02.
      3 vectors produced by pass  3 Test12= 7.57D-12 3.33D-08 XBig12= 1.01D-05 1.01D-03.
      3 vectors produced by pass  4 Test12= 7.57D-12 3.33D-08 XBig12= 6.30D-08 8.81D-05.
      3 vectors produced by pass  5 Test12= 7.57D-12 3.33D-08 XBig12= 3.41D-10 5.32D-06.
      3 vectors produced by pass  6 Test12= 7.57D-12 3.33D-08 XBig12= 2.03D-12 4.31D-07.
 InvSVY:  IOpt=1 It=  1 EMax= 1.78D-15
 Solved reduced A of dimension    21 with     3 vectors.
 Calculating GIAO nuclear magnetic shielding tensors.
 SCF GIAO Magnetic shielding tensor (ppm):
      1  P    Isotropic =   291.3167   Anisotropy =    55.8165
   XX=   273.9943   YX=   -35.7490   ZX=    -9.2342
   XY=    -4.0387   YY=   308.6927   ZY=    32.1459
   XZ=    21.1411   YZ=    15.1176   ZZ=   291.2632
   Eigenvalues:   256.8313   288.5912   328.5277
      2  C    Isotropic =    42.2099   Anisotropy =   206.0871
   XX=   160.5252   YX=    59.9013   ZX=   -12.6455
   XY=    54.1247   YY=     8.7500   ZY=    18.3406
   XZ=    -6.9598   YZ=    20.3701   ZZ=   -42.6456
   Eigenvalues:   -53.3778     0.4062   179.6013
      3  C    Isotropic =    43.6021   Anisotropy =   186.5007
   XX=   144.8755   YX=    73.5319   ZX=    12.8614
   XY=    67.0138   YY=   -47.9298   ZY=     5.5951
   XZ=    -3.1680   YZ=    -4.8687   ZZ=    33.8607
   Eigenvalues:   -70.8368    33.7073   167.9359
      4  C    Isotropic =    52.4900   Anisotropy =   186.2040
   XX=   162.9033   YX=    44.2940   ZX=     6.1423
   XY=    45.9327   YY=    26.1223   ZY=   -43.7277
   XZ=     7.4410   YZ=   -43.3211   ZZ=   -31.5555
   Eigenvalues:   -58.5005    39.3445   176.6260
      5  C    Isotropic =    51.5284   Anisotropy =   189.3764
   XX=   161.6084   YX=    48.3387   ZX=   -23.4954
   XY=    48.7205   YY=    28.6882   ZY=    36.6165
   XZ=   -18.1031   YZ=    37.4470   ZZ=   -35.7114
   Eigenvalues:   -59.8635    36.6693   177.7793
      6  C    Isotropic =    52.3296   Anisotropy =   187.2809
   XX=   156.0504   YX=    67.1035   ZX=     0.2886
   XY=    68.2164   YY=   -39.8567   ZY=    -1.8099
   XZ=    -4.0756   YZ=    -1.1834   ZZ=    40.7951
   Eigenvalues:   -60.9599    40.7652   177.1835
      7  C    Isotropic =    41.3430   Anisotropy =   201.8210
   XX=   162.1469   YX=    48.0492   ZX=    18.4360
   XY=    48.1633   YY=     7.1194   ZY=   -49.8787
   XZ=     3.7439   YZ=   -45.8249   ZZ=   -45.2372
   Eigenvalues:   -78.6586    26.7973   175.8904
      8  H    Isotropic =    23.6578   Anisotropy =     9.7480
   XX=    24.9059   YX=     0.0919   ZX=     4.2954
   XY=    -0.2334   YY=    24.8955   ZY=    -7.0777
   XZ=     3.8656   YZ=    -3.8717   ZZ=    21.1720
   Eigenvalues:    15.9826    24.8343    30.1564
      9  H    Isotropic =    24.1015   Anisotropy =     3.7518
   XX=    22.1130   YX=    -1.5596   ZX=     1.2144
   XY=    -1.3672   YY=    24.9031   ZY=     1.6943
   XZ=     0.7626   YZ=     1.2659   ZZ=    25.2885
   Eigenvalues:    20.9482    24.7536    26.6028
     10  H    Isotropic =    23.6152   Anisotropy =     8.1379
   XX=    21.5982   YX=     1.3803   ZX=     0.4616
   XY=    -0.3619   YY=    20.4573   ZY=     1.1260
   XZ=     0.1606   YZ=     1.6794   ZZ=    28.7903
   Eigenvalues:    20.0904    21.7149    29.0405
     11  C    Isotropic =    40.0815   Anisotropy =   205.5156
   XX=   -36.9396   YX=    -0.1533   ZX=    30.6109
   XY=     2.7159   YY=    59.1745   ZY=    86.3834
   XZ=    39.9538   YZ=    99.0844   ZZ=    98.0097
   Eigenvalues:   -52.7834    -4.0639   177.0919
     12  C    Isotropic =    43.4397   Anisotropy =   196.1981
   XX=    25.8689   YX=    15.6140   ZX=    16.1256
   XY=     2.9585   YY=    21.2674   ZY=   123.8907
   XZ=     8.2221   YZ=   108.8819   ZZ=    83.1830
   Eigenvalues:   -68.2081    24.2889   174.2385
     13  C    Isotropic =    50.7117   Anisotropy =   185.7841
   XX=   -25.3182   YX=    56.4869   ZX=    -7.4425
   XY=    55.1415   YY=    62.2250   ZY=    80.6158
   XZ=    -5.1269   YZ=    74.1876   ZZ=   115.2282
   Eigenvalues:   -62.9681    40.5354   174.5677
     14  C    Isotropic =    51.9676   Anisotropy =   186.4008
   XX=   -33.0178   YX=   -10.1362   ZX=    46.7488
   XY=    -9.1749   YY=    84.5417   ZY=    75.1113
   XZ=    50.4957   YZ=    78.0469   ZZ=   104.3788
   Eigenvalues:   -57.6552    37.3232   176.2348
     15  C    Isotropic =    52.8283   Anisotropy =   182.8623
   XX=    44.6392   YX=     8.3206   ZX=    19.4303
   XY=     8.4295   YY=    30.7790   ZY=   112.3204
   XZ=    18.6310   YZ=   111.0426   ZZ=    83.0666
   Eigenvalues:   -58.0522    41.8006   174.7365
     16  C    Isotropic =    42.9989   Anisotropy =   183.5643
   XX=   -32.6611   YX=    55.9648   ZX=    -1.2326
   XY=    55.9854   YY=    47.9591   ZY=    81.5915
   XZ=   -16.1384   YZ=    67.6976   ZZ=   113.6987
   Eigenvalues:   -72.2472    35.8688   165.3751
     17  H    Isotropic =    23.1656   Anisotropy =    10.0967
   XX=    22.8721   YX=     3.7930   ZX=    -3.2561
   XY=     3.2505   YY=    25.2952   ZY=    -3.5411
   XZ=    -3.1230   YZ=    -2.2472   ZZ=    21.3296
   Eigenvalues:    18.8166    20.7835    29.8967
     18  H    Isotropic =    23.8924   Anisotropy =     3.7962
   XX=    25.0228   YX=    -0.5423   ZX=    -0.2044
   XY=    -0.9127   YY=    24.1558   ZY=    -2.8236
   XZ=     0.4868   YZ=    -2.4660   ZZ=    22.4985
   Eigenvalues:    20.5328    24.7212    26.4232
     19  H    Isotropic =    23.9815   Anisotropy =    14.7148
   XX=    32.7953   YX=     1.2359   ZX=    -5.2417
   XY=     1.5349   YY=    18.8989   ZY=    -3.1434
   XZ=    -1.1463   YZ=    -1.0526   ZZ=    20.2504
   Eigenvalues:    17.3255    20.8276    33.7914
     20  C    Isotropic =    36.8930   Anisotropy =   189.8686
   XX=    66.0079   YX=   -82.0235   ZX=    22.1516
   XY=   -87.8966   YY=    54.7382   ZY=   -56.3929
   XZ=    31.5231   YZ=   -48.6211   ZZ=   -10.0672
   Eigenvalues:   -45.4869    -7.3062   163.4720
     21  C    Isotropic =    54.1147   Anisotropy =   183.5632
   XX=    51.5683   YX=  -109.3293   ZX=    44.1702
   XY=   -99.2616   YY=    60.7570   ZY=   -20.2526
   XZ=    50.8582   YZ=   -11.8826   ZZ=    50.0188
   Eigenvalues:   -53.9258    39.7797   176.4902
     22  C    Isotropic =    52.1465   Anisotropy =   182.5890
   XX=    83.1714   YX=   -63.8574   ZX=    68.4633
   XY=   -57.5767   YY=    97.1057   ZY=   -24.0479
   XZ=    73.4270   YZ=   -24.3157   ZZ=   -23.8377
   Eigenvalues:   -59.4152    41.9821   173.8725
     23  C    Isotropic =    64.9603   Anisotropy =   165.7856
   XX=    96.9156   YX=   -79.3544   ZX=    16.0059
   XY=   -62.4957   YY=    70.3812   ZY=   -62.1192
   XZ=    14.9340   YZ=   -64.2267   ZZ=    27.5842
   Eigenvalues:   -26.6696    46.0665   175.4841
     24  C    Isotropic =    17.6447   Anisotropy =   145.0247
   XX=    19.2544   YX=   -90.5593   ZX=    33.6949
   XY=   -79.8278   YY=    13.2870   ZY=   -21.0308
   XZ=    25.0363   YZ=   -17.9103   ZZ=    20.3929
   Eigenvalues:   -69.4682     8.0745   114.3279
     25  C    Isotropic =    49.1306   Anisotropy =   160.7945
   XX=    77.8123   YX=   -52.0244   ZX=    61.3414
   XY=   -66.5861   YY=    75.5601   ZY=    -9.3381
   XZ=    58.2748   YZ=   -29.9195   ZZ=    -5.9807
   Eigenvalues:   -38.2364    29.3012   156.3269
     26  C    Isotropic =    48.0190   Anisotropy =   162.9749
   XX=    97.7150   YX=    31.1245   ZX=    72.5533
   XY=    45.1723   YY=    46.5530   ZY=    11.9999
   XZ=    79.8084   YZ=    30.7227   ZZ=    -0.2110
   Eigenvalues:   -41.8096    29.1977   156.6689
     27  C    Isotropic =    23.5436   Anisotropy =   142.1180
   XX=    51.4147   YX=    71.7425   ZX=    59.9954
   XY=    62.8467   YY=   -20.8904   ZY=     3.2190
   XZ=    43.2698   YZ=    -2.4765   ZZ=    40.1066
   Eigenvalues:   -68.2685    20.6104   118.2890
     28  C    Isotropic =    68.1178   Anisotropy =   173.4701
   XX=   121.3681   YX=    66.7694   ZX=    52.7861
   XY=    45.4214   YY=    23.9150   ZY=    57.1874
   XZ=    38.4931   YZ=    60.6630   ZZ=    59.0702
   Eigenvalues:   -22.9755    43.5643   183.7645
     29  C    Isotropic =    52.8901   Anisotropy =   182.4641
   XX=   106.7317   YX=    44.8733   ZX=    84.6983
   XY=    38.4287   YY=    65.6296   ZY=    28.9838
   XZ=    86.5564   YZ=    29.1804   ZZ=   -13.6909
   Eigenvalues:   -58.5477    42.6853   174.5328
     30  C    Isotropic =    55.1525   Anisotropy =   181.8789
   XX=    92.9674   YX=    88.3975   ZX=    66.7858
   XY=    79.7798   YY=    20.7734   ZY=     4.2463
   XZ=    71.6219   YZ=    -5.6036   ZZ=    51.7168
   Eigenvalues:   -51.7960    40.8485   176.4051
     31  C    Isotropic =    36.1170   Anisotropy =   192.0884
   XX=    98.7892   YX=    63.2366   ZX=    48.5242
   XY=    68.6021   YY=    -0.5682   ZY=    55.0886
   XZ=    58.9266   YZ=    44.4511   ZZ=    10.1300
   Eigenvalues:   -47.5074    -8.3174   164.1760
     32  P    Isotropic =   290.0557   Anisotropy =    57.2140
   XX=   282.7672   YX=    41.9351   ZX=    -6.3090
   XY=     5.4275   YY=   309.9041   ZY=   -26.1152
   XZ=    21.0488   YZ=   -15.8947   ZZ=   277.4959
   Eigenvalues:   254.6261   287.3427   328.1984
     33  C    Isotropic =    42.5511   Anisotropy =   205.4142
   XX=   137.0824   YX=   -75.6729   ZX=   -32.9423
   XY=   -72.1380   YY=    37.4645   ZY=     2.0119
   XZ=   -26.0269   YZ=    -0.3356   ZZ=   -46.8936
   Eigenvalues:   -53.2746     1.4340   179.4939
     34  C    Isotropic =    41.4008   Anisotropy =   201.6498
   XX=   141.0197   YX=   -76.2309   ZX=    10.7364
   XY=   -73.0254   YY=     4.0332   ZY=    56.2941
   XZ=    -3.7798   YZ=    54.9954   ZZ=   -20.8506
   Eigenvalues:   -77.9822    26.3505   175.8340
     35  C    Isotropic =    51.9953   Anisotropy =   187.5364
   XX=   127.5117   YX=   -93.9178   ZX=   -20.7907
   XY=   -93.8580   YY=    -9.3373   ZY=   -11.2531
   XZ=   -25.3137   YZ=   -10.8479   ZZ=    37.8116
   Eigenvalues:   -61.2903    40.2567   177.0196
     36  C    Isotropic =    51.5425   Anisotropy =   189.0000
   XX=   141.7295   YX=   -59.2020   ZX=   -42.6865
   XY=   -60.7541   YY=    59.3873   ZY=    -9.9542
   XZ=   -37.5281   YZ=   -11.7531   ZZ=   -46.4892
   Eigenvalues:   -59.6186    36.7037   177.5425
     37  C    Isotropic =    52.5424   Anisotropy =   185.9574
   XX=   143.2383   YX=   -66.9407   ZX=    -0.4295
   XY=   -68.5702   YY=    22.7619   ZY=    54.3028
   XZ=     0.3655   YZ=    53.6275   ZZ=    -8.3729
   Eigenvalues:   -58.3103    39.4236   176.5140
     38  C    Isotropic =    43.8087   Anisotropy =   185.9947
   XX=   115.2122   YX=  -102.0821   ZX=   -11.4256
   XY=   -92.2123   YY=   -14.2732   ZY=   -20.4396
   XZ=   -23.7600   YZ=    -7.3491   ZZ=    30.4872
   Eigenvalues:   -70.4726    34.0935   167.8052
     39  H    Isotropic =    23.6299   Anisotropy =     8.2580
   XX=    21.3286   YX=    -1.3353   ZX=    -0.2227
   XY=     0.3108   YY=    21.7634   ZY=    -2.8669
   XZ=    -0.1933   YZ=    -3.4132   ZZ=    27.7977
   Eigenvalues:    20.1636    21.5909    29.1353
     40  H    Isotropic =    24.0953   Anisotropy =     3.8277
   XX=    22.5741   YX=     1.7316   ZX=     1.2131
   XY=     1.6223   YY=    25.1078   ZY=    -1.9013
   XZ=     0.8695   YZ=    -1.4125   ZZ=    24.6041
   Eigenvalues:    20.9335    24.7054    26.6471
     41  H    Isotropic =    23.5819   Anisotropy =     9.7006
   XX=    24.4131   YX=    -1.4099   ZX=     5.5011
   XY=    -0.9075   YY=    22.8424   ZY=     6.3200
   XZ=     4.6601   YZ=     3.1958   ZZ=    23.4901
   Eigenvalues:    15.9839    24.7128    30.0490
     42  C    Isotropic =    40.0133   Anisotropy =   205.7276
   XX=   -34.8584   YX=    15.1973   ZX=    16.8214
   XY=    10.5545   YY=   100.2718   ZY=   -90.3148
   XZ=    22.8279   YZ=  -103.7750   ZZ=    54.6264
   Eigenvalues:   -52.9298    -4.1953   177.1650
     43  C    Isotropic =    43.0377   Anisotropy =   183.6156
   XX=   -49.1582   YX=   -32.5683   ZX=   -25.9867
   XY=   -29.5166   YY=    98.7274   ZY=   -83.6787
   XZ=   -37.3843   YZ=   -67.6810   ZZ=    79.5440
   Eigenvalues:   -72.2404    35.9055   165.4481
     44  C    Isotropic =    52.8303   Anisotropy =   182.7461
   XX=    41.3619   YX=    -8.0903   ZX=    -3.3269
   XY=    -8.0163   YY=    85.2774   ZY=  -113.4934
   XZ=    -3.8910   YZ=  -112.2128   ZZ=    31.8514
   Eigenvalues:   -58.0239    41.8537   174.6610
     45  C    Isotropic =    51.9105   Anisotropy =   186.3107
   XX=   -26.8084   YX=    23.8099   ZX=    37.0202
   XY=    22.0304   YY=   114.5858   ZY=   -79.6899
   XZ=    39.8576   YZ=   -83.2181   ZZ=    67.9540
   Eigenvalues:   -57.7135    37.3273   176.1176
     46  C    Isotropic =    50.6842   Anisotropy =   185.6210
   XX=   -41.5113   YX=   -30.4902   ZX=   -31.2919
   XY=   -29.7362   YY=   113.2009   ZY=   -78.6677
   XZ=   -27.6609   YZ=   -72.8766   ZZ=    80.3629
   Eigenvalues:   -62.9254    40.5465   174.4315
     47  C    Isotropic =    43.3174   Anisotropy =   196.3447
   XX=    22.4059   YX=   -12.4283   ZX=    -9.9063
   XY=     1.5193   YY=    77.7339   ZY=  -125.9784
   XZ=   -12.1463   YZ=  -109.9856   ZZ=    29.8125
   Eigenvalues:   -68.2042    23.9427   174.2139
     48  H    Isotropic =    23.9479   Anisotropy =    14.6075
   XX=    31.8543   YX=    -2.5247   ZX=    -5.0996
   XY=    -3.6644   YY=    18.7226   ZY=     3.5751
   XZ=    -1.5956   YZ=     0.7820   ZZ=    21.2668
   Eigenvalues:    17.3747    20.7827    33.6862
     49  H    Isotropic =    23.8849   Anisotropy =     3.7944
   XX=    25.2233   YX=     0.2106   ZX=     0.3994
   XY=     0.4597   YY=    22.7388   ZY=     2.8752
   XZ=     1.0759   YZ=     2.4062   ZZ=    23.6927
   Eigenvalues:    20.5222    24.7180    26.4145
     50  H    Isotropic =    23.1384   Anisotropy =    10.0139
   XX=    21.7112   YX=    -2.5103   ZX=    -3.1630
   XY=    -1.9921   YY=    24.7449   ZY=     4.8001
   XZ=    -3.1472   YZ=     3.4479   ZZ=    22.9590
   Eigenvalues:    18.8368    20.7641    29.8143
     51  H    Isotropic =    25.2037   Anisotropy =    12.5407
   XX=    21.7887   YX=    -2.4004   ZX=    -1.3107
   XY=    -4.7254   YY=    27.7431   ZY=    -5.0909
   XZ=     2.2301   YZ=    -6.5332   ZZ=    26.0791
   Eigenvalues:    19.0996    22.9472    33.5641
     52  H    Isotropic =    24.6832   Anisotropy =     4.7353
   XX=    23.5514   YX=    -1.5576   ZX=    -1.2814
   XY=    -2.0568   YY=    26.8372   ZY=    -1.5235
   XZ=    -0.9768   YZ=    -1.3639   ZZ=    23.6610
   Eigenvalues:    21.4820    24.7276    27.8401
     53  H    Isotropic =    25.0503   Anisotropy =     6.3898
   XX=    23.6656   YX=     0.6873   ZX=    -3.9509
   XY=    -1.4523   YY=    24.8898   ZY=     1.8908
   XZ=    -2.6778   YZ=     1.3354   ZZ=    26.5954
   Eigenvalues:    21.4074    24.4333    29.3101
     54  O    Isotropic =   210.0413   Anisotropy =   131.6023
   XX=   282.9278   YX=    37.9024   ZX=     9.1383
   XY=    14.1796   YY=   165.0800   ZY=    27.9888
   XZ=    28.6781   YZ=    84.2383   ZZ=   182.1161
   Eigenvalues:   116.4927   215.8551   297.7761
     55  C    Isotropic =   116.5067   Anisotropy =    70.0662
   XX=   105.9799   YX=    16.2852   ZX=     8.6907
   XY=    18.9146   YY=   157.2705   ZY=   -11.9674
   XZ=    10.0689   YZ=    -6.5076   ZZ=    86.2699
   Eigenvalues:    79.3662   106.9365   163.2176
     56  H    Isotropic =    27.3853   Anisotropy =     7.9384
   XX=    26.9086   YX=    -1.8056   ZX=     1.2008
   XY=    -2.9497   YY=    31.4929   ZY=    -0.5009
   XZ=     0.9217   YZ=    -1.2978   ZZ=    23.7543
   Eigenvalues:    23.4262    26.0521    32.6776
     57  H    Isotropic =    26.7892   Anisotropy =     8.5605
   XX=    22.6478   YX=     0.9844   ZX=     2.5398
   XY=     0.5416   YY=    29.5472   ZY=    -4.7429
   XZ=     2.0744   YZ=    -2.2276   ZZ=    28.1726
   Eigenvalues:    21.2975    26.5739    32.4962
     58  C    Isotropic =   160.7277   Anisotropy =    21.2322
   XX=   160.6169   YX=     8.0213   ZX=    12.2067
   XY=    11.6394   YY=   156.6951   ZY=    -1.5615
   XZ=     9.2499   YZ=    -3.8054   ZZ=   164.8711
   Eigenvalues:   144.4098   162.8908   174.8825
     59  H    Isotropic =    30.1786   Anisotropy =    10.9582
   XX=    26.7703   YX=     5.4610   ZX=    -0.8973
   XY=     4.9272   YY=    32.7422   ZY=    -3.2512
   XZ=    -1.4832   YZ=    -3.0975   ZZ=    31.0234
   Eigenvalues:    23.7160    29.3358    37.4841
     60  H    Isotropic =    29.0662   Anisotropy =     7.4415
   XX=    27.9344   YX=     2.5395   ZX=    -0.6828
   XY=    -0.0599   YY=    31.1321   ZY=     3.3124
   XZ=    -1.2983   YZ=     4.8765   ZZ=    28.1322
   Eigenvalues:    24.5771    28.5943    34.0273
     61  C    Isotropic =   154.7801   Anisotropy =    13.0448
   XX=   143.3464   YX=     9.7894   ZX=    -4.6865
   XY=     1.3049   YY=   157.7538   ZY=     1.9570
   XZ=     0.3287   YZ=    -0.8611   ZZ=   163.2402
   Eigenvalues:   141.2303   159.6334   163.4767
     62  H    Isotropic =    29.3631   Anisotropy =     9.2810
   XX=    31.7024   YX=     3.1481   ZX=     3.7813
   XY=     3.3405   YY=    27.0963   ZY=     1.1423
   XZ=     3.3464   YZ=     1.0759   ZZ=    29.2905
   Eigenvalues:    25.2437    27.2951    35.5504
     63  H    Isotropic =    29.9354   Anisotropy =    11.5068
   XX=    24.2582   YX=     0.3069   ZX=     0.3490
   XY=     0.4194   YY=    36.7980   ZY=     2.4686
   XZ=    -1.1261   YZ=     2.8684   ZZ=    28.7499
   Eigenvalues:    24.1934    28.0061    37.6066
     64  C    Isotropic =   111.3738   Anisotropy =    74.1792
   XX=    92.6259   YX=    -6.5859   ZX=   -15.1222
   XY=   -16.4149   YY=   156.4908   ZY=    11.4705
   XZ=   -10.1346   YZ=    10.8117   ZZ=    85.0049
   Eigenvalues:    75.5636    97.7312   160.8267
     65  H    Isotropic =    26.8959   Anisotropy =     8.2274
   XX=    21.0225   YX=     0.4643   ZX=    -0.9583
   XY=     1.8794   YY=    29.4540   ZY=     3.6587
   XZ=    -1.1628   YZ=     1.3810   ZZ=    30.2111
   Eigenvalues:    20.6463    27.6605    32.3808
     66  O    Isotropic =   221.7035   Anisotropy =    96.8893
   XX=   263.8576   YX=   -35.2998   ZX=    -3.2163
   XY=     4.0927   YY=   234.8813   ZY=   -36.9461
   XZ=    23.0108   YZ=   -86.2216   ZZ=   166.3717
   Eigenvalues:   130.1540   248.6602   286.2964
     67  H    Isotropic =    27.6061   Anisotropy =     6.1355
   XX=    25.3598   YX=    -2.1460   ZX=    -0.7561
   XY=    -1.6674   YY=    31.0547   ZY=     0.0311
   XZ=    -2.9047   YZ=     0.0057   ZZ=    26.4037
   Eigenvalues:    23.6556    27.4662    31.6964
     68  H    Isotropic =    24.9263   Anisotropy =     6.4258
   XX=    23.9878   YX=     0.3119   ZX=    -3.8709
   XY=     2.2512   YY=    24.7044   ZY=    -1.3283
   XZ=    -3.1186   YZ=    -0.5835   ZZ=    26.0868
   Eigenvalues:    21.3200    24.2488    29.2102
     69  H    Isotropic =    24.6535   Anisotropy =     4.8228
   XX=    24.5721   YX=     2.1894   ZX=    -0.6629
   XY=     2.5628   YY=    25.0369   ZY=     2.2588
   XZ=    -0.0409   YZ=     2.1953   ZZ=    24.3516
   Eigenvalues:    21.2856    24.8063    27.8687
     70  H    Isotropic =    25.1872   Anisotropy =    12.5667
   XX=    23.0289   YX=     2.9281   ZX=     0.2401
   XY=     4.6025   YY=    23.7915   ZY=     4.8469
   XZ=     4.2333   YZ=     5.6627   ZZ=    28.7412
   Eigenvalues:    19.0563    22.9403    33.5650
     71  H    Isotropic =    24.0002   Anisotropy =     7.1761
   XX=    26.4671   YX=     2.0009   ZX=    -2.5698
   XY=     1.9361   YY=    22.7061   ZY=    -2.8408
   XZ=    -1.3322   YZ=    -2.5639   ZZ=    22.8274
   Eigenvalues:    20.0633    23.1530    28.7843
     72  H    Isotropic =    23.7074   Anisotropy =     5.7761
   XX=    27.1907   YX=     0.5214   ZX=    -1.4280
   XY=     0.1860   YY=    22.4824   ZY=    -1.5311
   XZ=    -1.1809   YZ=    -1.2473   ZZ=    21.4490
   Eigenvalues:    20.3669    23.1972    27.5581
     73  H    Isotropic =    24.1218   Anisotropy =     5.0200
   XX=    21.8093   YX=    -0.8404   ZX=     2.5493
   XY=    -1.4817   YY=    24.8018   ZY=    -1.0334
   XZ=     1.4899   YZ=    -1.2444   ZZ=    25.7542
   Eigenvalues:    20.8480    24.0488    27.4684
     74  H    Isotropic =    24.0390   Anisotropy =     6.6643
   XX=    23.0664   YX=    -1.1320   ZX=     2.2938
   XY=    -0.2696   YY=    21.7405   ZY=    -0.6959
   XZ=     2.2783   YZ=    -1.0571   ZZ=    27.3102
   Eigenvalues:    21.4353    22.2000    28.4819
     75  H    Isotropic =    23.6948   Anisotropy =     5.7442
   XX=    26.9095   YX=    -1.0855   ZX=    -1.3213
   XY=    -0.8073   YY=    22.0079   ZY=     1.8865
   XZ=    -1.0405   YZ=     1.5597   ZZ=    22.1670
   Eigenvalues:    20.3596    23.2006    27.5242
     76  H    Isotropic =    23.9904   Anisotropy =     7.1712
   XX=    25.6751   YX=    -2.1035   ZX=    -2.4923
   XY=    -2.2800   YY=    22.2089   ZY=     3.0888
   XZ=    -1.3298   YZ=     2.5862   ZZ=    24.0872
   Eigenvalues:    20.0585    23.1415    28.7712
     77  H    Isotropic =    23.9970   Anisotropy =     6.9608
   XX=    22.9113   YX=     0.2934   ZX=     2.5116
   XY=    -0.4941   YY=    21.6464   ZY=    -1.1636
   XZ=     2.3776   YZ=    -0.8695   ZZ=    27.4333
   Eigenvalues:    21.3234    22.0301    28.6376
     78  H    Isotropic =    24.1244   Anisotropy =     4.9933
   XX=    22.1919   YX=     0.6849   ZX=     2.7921
   XY=     1.4979   YY=    24.0438   ZY=     0.1625
   XZ=     1.9925   YZ=     0.5489   ZZ=    26.1374
   Eigenvalues:    20.8392    24.0806    27.4532
 End of Minotr F.D. properties file   721 does not exist.
 End of Minotr F.D. properties file   722 does not exist.
 End of Minotr F.D. properties file   788 does not exist.

 **********************************************************************

            Population analysis using the SCF Density.

 **********************************************************************

 Orbital symmetries:
       Occupied  (A) (A) (A) (A) (A) (A) (A) (A) (A) (A) (A) (A)
                 (A) (A) (A) (A) (A) (A) (A) (A) (A) (A) (A) (A)
                 (A) (A) (A) (A) (A) (A) (A) (A) (A) (A) (A) (A)
                 (A) (A) (A) (A) (A) (A) (A) (A) (A) (A) (A) (A)
                 (A) (A) (A) (A) (A) (A) (A) (A) (A) (A) (A) (A)
                 (A) (A) (A) (A) (A) (A) (A) (A) (A) (A) (A) (A)
                 (A) (A) (A) (A) (A) (A) (A) (A) (A) (A) (A) (A)
                 (A) (A) (A) (A) (A) (A) (A) (A) (A) (A) (A) (A)
                 (A) (A) (A) (A) (A) (A) (A) (A) (A) (A) (A) (A)
                 (A) (A) (A) (A) (A) (A) (A) (A) (A) (A) (A) (A)
                 (A) (A) (A) (A) (A) (A) (A) (A) (A) (A) (A) (A)
                 (A) (A) (A) (A) (A) (A) (A) (A) (A) (A) (A) (A)
                 (A) (A) (A) (A) (A) (A) (A) (A) (A) (A) (A) (A)
                 (A) (A) (A) (A)
       Virtual   (A) (A) (A) (A) (A) (A) (A) (A) (A) (A) (A) (A)
                 (A) (A) (A) (A) (A) (A) (A) (A) (A) (A) (A) (A)
                 (A) (A) (A) (A) (A) (A) (A) (A) (A) (A) (A) (A)
                 (A) (A) (A) (A) (A) (A) (A) (A) (A) (A) (A) (A)
                 (A) (A) (A) (A) (A) (A) (A) (A) (A) (A) (A) (A)
                 (A) (A) (A) (A) (A) (A) (A) (A) (A) (A) (A) (A)
                 (A) (A) (A) (A) (A) (A) (A) (A) (A) (A) (A) (A)
                 (A) (A) (A) (A) (A) (A) (A) (A) (A) (A) (A) (A)
                 (A) (A) (A) (A) (A) (A) (A) (A) (A) (A) (A) (A)
                 (A) (A) (A) (A) (A) (A) (A) (A) (A) (A) (A) (A)
                 (A) (A) (A) (A) (A) (A) (A) (A) (A) (A) (A) (A)
                 (A) (A) (A) (A) (A) (A) (A) (A) (A) (A) (A) (A)
                 (A) (A) (A) (A) (A) (A) (A) (A) (A) (A) (A) (A)
                 (A) (A) (A) (A) (A) (A) (A) (A) (A) (A) (A) (A)
                 (A) (A) (A) (A) (A) (A) (A) (A) (A) (A) (A) (A)
                 (A) (A) (A) (A) (A) (A) (A) (A) (A) (A) (A) (A)
                 (A) (A) (A) (A) (A) (A) (A) (A) (A) (A) (A) (A)
                 (A) (A) (A) (A) (A) (A) (A) (A) (A) (A) (A) (A)
                 (A) (A) (A) (A) (A) (A) (A) (A) (A) (A) (A) (A)
                 (A) (A) (A) (A) (A) (A) (A) (A) (A) (A) (A) (A)
                 (A) (A) (A) (A) (A) (A) (A) (A) (A) (A) (A) (A)
                 (A) (A) (A) (A) (A) (A) (A) (A) (A) (A) (A) (A)
                 (A) (A) (A) (A) (A) (A) (A) (A) (A) (A) (A) (A)
                 (A) (A) (A) (A) (A) (A) (A) (A) (A) (A) (A) (A)
                 (A) (A) (A) (A) (A) (A) (A) (A) (A) (A) (A) (A)
                 (A) (A) (A) (A) (A) (A) (A) (A) (A) (A) (A) (A)
                 (A) (A) (A) (A) (A) (A) (A) (A) (A) (A) (A) (A)
                 (A) (A) (A) (A) (A) (A) (A) (A) (A) (A) (A) (A)
                 (A) (A) (A) (A) (A) (A) (A) (A) (A) (A) (A) (A)
                 (A) (A) (A) (A) (A) (A) (A) (A) (A) (A) (A) (A)
                 (A) (A) (A) (A) (A) (A) (A) (A) (A) (A) (A) (A)
                 (A) (A) (A) (A) (A) (A) (A) (A) (A) (A) (A) (A)
                 (A) (A) (A) (A) (A) (A) (A) (A) (A) (A) (A) (A)
                 (A) (A) (A) (A) (A) (A) (A) (A) (A) (A) (A) (A)
                 (A) (A) (A) (A) (A) (A) (A) (A) (A) (A) (A) (A)
                 (A) (A) (A) (A) (A) (A) (A) (A) (A) (A) (A) (A)
                 (A) (A) (A) (A) (A) (A) (A) (A) (A) (A) (A) (A)
                 (A) (A) (A) (A) (A) (A) (A) (A) (A) (A) (A) (A)
                 (A) (A) (A) (A) (A) (A) (A) (A) (A) (A) (A) (A)
                 (A) (A) (A) (A) (A) (A) (A) (A) (A) (A) (A) (A)
                 (A) (A) (A) (A) (A) (A) (A) (A) (A) (A) (A) (A)
                 (A) (A) (A) (A) (A) (A) (A) (A) (A) (A) (A) (A)
                 (A) (A) (A) (A) (A) (A) (A) (A) (A) (A) (A) (A)
                 (A) (A) (A) (A) (A) (A) (A) (A) (A) (A) (A) (A)
                 (A) (A) (A) (A) (A) (A) (A) (A) (A) (A) (A) (A)
                 (A) (A) (A) (A) (A) (A) (A) (A) (A) (A) (A) (A)
                 (A) (A) (A) (A) (A) (A) (A) (A) (A) (A) (A) (A)
                 (A) (A) (A) (A) (A) (A) (A) (A) (A) (A) (A) (A)
                 (A) (A) (A) (A) (A) (A) (A) (A) (A) (A) (A) (A)
                 (A) (A) (A) (A) (A) (A) (A) (A) (A) (A) (A) (A)
                 (A) (A) (A) (A) (A) (A) (A) (A) (A) (A) (A) (A)
                 (A) (A) (A) (A) (A) (A) (A) (A) (A) (A) (A) (A)
                 (A) (A) (A) (A) (A) (A) (A) (A) (A) (A) (A) (A)
                 (A) (A) (A) (A) (A) (A) (A) (A) (A) (A) (A) (A)
                 (A) (A) (A) (A) (A) (A) (A) (A) (A) (A) (A) (A)
                 (A) (A) (A) (A) (A) (A) (A) (A) (A) (A) (A) (A)
                 (A) (A) (A) (A) (A) (A) (A) (A) (A) (A) (A) (A)
                 (A) (A) (A) (A) (A) (A) (A) (A) (A) (A) (A) (A)
                 (A) (A) (A) (A) (A) (A) (A) (A) (A) (A) (A) (A)
                 (A) (A) (A) (A) (A) (A) (A) (A) (A) (A) (A) (A)
                 (A) (A) (A) (A) (A) (A) (A) (A) (A) (A) (A) (A)
                 (A) (A) (A) (A) (A) (A) (A) (A) (A) (A) (A) (A)
                 (A) (A) (A) (A) (A) (A) (A) (A) (A) (A) (A) (A)
                 (A) (A) (A) (A) (A) (A) (A) (A) (A) (A) (A) (A)
                 (A) (A) (A) (A) (A) (A) (A) (A) (A) (A) (A) (A)
                 (A) (A) (A) (A) (A) (A) (A) (A) (A) (A) (A) (A)
                 (A) (A) (A) (A) (A) (A) (A) (A) (A) (A) (A) (A)
                 (A) (A) (A) (A) (A) (A) (A) (A) (A) (A) (A) (A)
                 (A) (A) (A) (A) (A) (A) (A) (A) (A) (A) (A) (A)
                 (A) (A) (A) (A) (A) (A) (A) (A) (A) (A) (A) (A)
                 (A) (A) (A) (A) (A) (A) (A) (A) (A) (A) (A) (A)
                 (A) (A) (A) (A) (A) (A) (A) (A) (A) (A) (A) (A)
                 (A) (A) (A) (A) (A) (A) (A) (A) (A) (A) (A) (A)
                 (A) (A) (A) (A) (A) (A) (A) (A) (A) (A) (A) (A)
                 (A) (A) (A) (A) (A) (A) (A) (A) (A) (A) (A) (A)
                 (A) (A) (A) (A) (A) (A) (A) (A) (A) (A) (A) (A)
                 (A) (A) (A) (A) (A) (A) (A) (A) (A) (A) (A) (A)
                 (A) (A) (A) (A) (A) (A) (A) (A) (A) (A) (A) (A)
                 (A) (A) (A) (A) (A) (A) (A) (A) (A) (A) (A) (A)
                 (A) (A) (A) (A) (A) (A) (A) (A) (A) (A) (A) (A)
                 (A) (A) (A) (A) (A) (A) (A) (A) (A) (A) (A) (A)
                 (A) (A) (A) (A) (A) (A) (A) (A) (A) (A) (A) (A)
                 (A) (A) (A) (A) (A) (A) (A) (A) (A) (A) (A) (A)
                 (A) (A) (A) (A) (A) (A) (A) (A) (A) (A) (A) (A)
                 (A) (A) (A) (A) (A) (A) (A) (A) (A) (A) (A) (A)
                 (A) (A) (A) (A) (A) (A) (A) (A) (A) (A) (A) (A)
                 (A) (A) (A) (A) (A) (A) (A) (A) (A) (A) (A) (A)
                 (A) (A) (A) (A) (A) (A) (A) (A) (A) (A) (A) (A)
                 (A) (A) (A) (A) (A) (A) (A) (A) (A) (A) (A) (A)
                 (A) (A) (A) (A) (A) (A) (A) (A) (A) (A) (A) (A)
                 (A) (A) (A) (A) (A) (A) (A) (A) (A) (A) (A) (A)
                 (A) (A) (A) (A) (A) (A) (A) (A) (A) (A) (A) (A)
                 (A) (A) (A) (A) (A) (A) (A) (A) (A) (A) (A) (A)
                 (A) (A) (A) (A) (A) (A) (A) (A) (A) (A) (A) (A)
                 (A) (A) (A) (A) (A) (A) (A) (A) (A) (A) (A) (A)
                 (A) (A) (A) (A) (A) (A) (A) (A) (A) (A) (A) (A)
                 (A) (A) (A) (A) (A) (A) (A) (A) (A) (A) (A) (A)
                 (A) (A) (A) (A) (A) (A) (A) (A) (A) (A) (A) (A)
                 (A) (A) (A) (A) (A) (A) (A) (A) (A) (A) (A) (A)
                 (A) (A) (A) (A) (A) (A) (A) (A) (A) (A) (A) (A)
                 (A) (A) (A) (A) (A) (A) (A) (A) (A) (A) (A) (A)
                 (A) (A) (A) (A) (A) (A) (A) (A) (A) (A) (A) (A)
                 (A) (A) (A) (A) (A) (A) (A) (A) (A) (A) (A) (A)
                 (A) (A) (A) (A) (A) (A) (A) (A) (A) (A) (A) (A)
                 (A) (A) (A) (A) (A) (A) (A) (A) (A) (A) (A) (A)
                 (A) (A) (A) (A) (A) (A) (A) (A) (A) (A) (A) (A)
                 (A) (A) (A) (A) (A) (A) (A) (A) (A) (A) (A) (A)
                 (A) (A) (A) (A) (A) (A) (A) (A) (A) (A) (A) (A)
                 (A) (A) (A) (A) (A) (A) (A) (A) (A) (A) (A) (A)
                 (A) (A) (A) (A) (A) (A) (A) (A) (A) (A) (A) (A)
                 (A) (A) (A) (A) (A) (A) (A) (A) (A) (A) (A) (A)
                 (A) (A) (A) (A) (A) (A) (A) (A) (A) (A) (A) (A)
                 (A) (A) (A) (A) (A) (A) (A) (A) (A) (A) (A) (A)
                 (A) (A) (A) (A) (A) (A) (A) (A) (A) (A) (A) (A)
                 (A) (A) (A) (A) (A) (A) (A) (A) (A) (A) (A) (A)
                 (A) (A) (A) (A) (A) (A) (A) (A) (A) (A) (A) (A)
                 (A) (A) (A) (A) (A) (A) (A) (A) (A) (A) (A) (A)
                 (A) (A) (A) (A) (A) (A) (A) (A) (A) (A) (A) (A)
                 (A) (A) (A) (A)
 The electronic state is 1-A.
 Alpha  occ. eigenvalues --  -77.19074 -77.19060 -19.23022 -19.22509 -10.28300
 Alpha  occ. eigenvalues --  -10.28295 -10.27953 -10.27806 -10.23806 -10.23772
 Alpha  occ. eigenvalues --  -10.23638 -10.23585 -10.23416 -10.23409 -10.23323
 Alpha  occ. eigenvalues --  -10.23233 -10.23194 -10.23072 -10.23060 -10.23044
 Alpha  occ. eigenvalues --  -10.23038 -10.23026 -10.22960 -10.22949 -10.22834
 Alpha  occ. eigenvalues --  -10.22829 -10.22825 -10.22793 -10.22754 -10.22743
 Alpha  occ. eigenvalues --  -10.22684 -10.22680 -10.22644 -10.22589 -10.22572
 Alpha  occ. eigenvalues --  -10.22536 -10.22496 -10.22489 -10.22448 -10.22424
 Alpha  occ. eigenvalues --  -10.22225 -10.22104 -10.21674 -10.21640  -6.58696
 Alpha  occ. eigenvalues --   -6.58682  -4.72284  -4.72280  -4.72270  -4.72266
 Alpha  occ. eigenvalues --   -4.71833  -4.71818  -1.08682  -1.07612  -0.88661
 Alpha  occ. eigenvalues --   -0.87742  -0.87501  -0.87105  -0.87028  -0.86172
 Alpha  occ. eigenvalues --   -0.82711  -0.79739  -0.78587  -0.78174  -0.76850
 Alpha  occ. eigenvalues --   -0.76532  -0.76519  -0.76197  -0.76129  -0.75816
 Alpha  occ. eigenvalues --   -0.75764  -0.75341  -0.74891  -0.72062  -0.68107
 Alpha  occ. eigenvalues --   -0.66652  -0.65728  -0.63382  -0.62439  -0.62048
 Alpha  occ. eigenvalues --   -0.61997  -0.61556  -0.61493  -0.61091  -0.60924
 Alpha  occ. eigenvalues --   -0.60365  -0.59531  -0.58159  -0.56883  -0.55764
 Alpha  occ. eigenvalues --   -0.54088  -0.52813  -0.52598  -0.52496  -0.51418
 Alpha  occ. eigenvalues --   -0.50736  -0.50405  -0.49923  -0.49179  -0.48435
 Alpha  occ. eigenvalues --   -0.47116  -0.46581  -0.46412  -0.46164  -0.46058
 Alpha  occ. eigenvalues --   -0.45968  -0.45965  -0.45863  -0.45438  -0.45356
 Alpha  occ. eigenvalues --   -0.45052  -0.43849  -0.43225  -0.43093  -0.43065
 Alpha  occ. eigenvalues --   -0.42718  -0.42650  -0.41973  -0.41818  -0.41621
 Alpha  occ. eigenvalues --   -0.41076  -0.41051  -0.39422  -0.39251  -0.38970
 Alpha  occ. eigenvalues --   -0.38566  -0.38128  -0.37789  -0.37278  -0.37071
 Alpha  occ. eigenvalues --   -0.36930  -0.36329  -0.35969  -0.35660  -0.35329
 Alpha  occ. eigenvalues --   -0.35276  -0.35104  -0.34974  -0.34903  -0.33967
 Alpha  occ. eigenvalues --   -0.33595  -0.33314  -0.32676  -0.32351  -0.30893
 Alpha  occ. eigenvalues --   -0.30176  -0.28810  -0.28038  -0.26706  -0.26658
 Alpha  occ. eigenvalues --   -0.26452  -0.26447  -0.26107  -0.26017  -0.25732
 Alpha  occ. eigenvalues --   -0.25194  -0.23721  -0.22390  -0.21838  -0.18574
 Alpha virt. eigenvalues --   -0.03088  -0.02739  -0.02472  -0.01675  -0.01533
 Alpha virt. eigenvalues --   -0.01096  -0.00806  -0.00620   0.00105   0.00386
 Alpha virt. eigenvalues --    0.01093   0.01767   0.03324   0.04946   0.05419
 Alpha virt. eigenvalues --    0.05595   0.05689   0.06328   0.06816   0.06875
 Alpha virt. eigenvalues --    0.07597   0.07727   0.08138   0.08427   0.08691
 Alpha virt. eigenvalues --    0.09156   0.09320   0.09645   0.09729   0.09889
 Alpha virt. eigenvalues --    0.10186   0.10242   0.10554   0.10743   0.10936
 Alpha virt. eigenvalues --    0.11448   0.11538   0.11574   0.12106   0.12167
 Alpha virt. eigenvalues --    0.12413   0.12672   0.12902   0.13136   0.13252
 Alpha virt. eigenvalues --    0.13453   0.13675   0.13988   0.14197   0.14310
 Alpha virt. eigenvalues --    0.14568   0.14875   0.14949   0.15502   0.15770
 Alpha virt. eigenvalues --    0.16151   0.16612   0.16857   0.17033   0.17483
 Alpha virt. eigenvalues --    0.18081   0.18332   0.18649   0.18919   0.18987
 Alpha virt. eigenvalues --    0.19488   0.20076   0.20328   0.20596   0.20847
 Alpha virt. eigenvalues --    0.21173   0.21502   0.21871   0.21968   0.22195
 Alpha virt. eigenvalues --    0.22230   0.22504   0.22754   0.22929   0.23022
 Alpha virt. eigenvalues --    0.23259   0.23492   0.23743   0.23787   0.24039
 Alpha virt. eigenvalues --    0.24311   0.24447   0.24606   0.24795   0.25010
 Alpha virt. eigenvalues --    0.25091   0.25234   0.25270   0.25592   0.25981
 Alpha virt. eigenvalues --    0.26246   0.26455   0.26809   0.26865   0.27089
 Alpha virt. eigenvalues --    0.27264   0.27667   0.27829   0.28139   0.28346
 Alpha virt. eigenvalues --    0.28781   0.28996   0.29166   0.29207   0.29644
 Alpha virt. eigenvalues --    0.29845   0.30045   0.30522   0.30744   0.31020
 Alpha virt. eigenvalues --    0.31101   0.31456   0.31788   0.32290   0.32486
 Alpha virt. eigenvalues --    0.32675   0.33243   0.33283   0.33698   0.34042
 Alpha virt. eigenvalues --    0.34069   0.34270   0.34432   0.34616   0.34796
 Alpha virt. eigenvalues --    0.35162   0.35217   0.35538   0.35690   0.35824
 Alpha virt. eigenvalues --    0.36025   0.36255   0.36734   0.36872   0.36946
 Alpha virt. eigenvalues --    0.37250   0.37637   0.37867   0.38025   0.38222
 Alpha virt. eigenvalues --    0.38515   0.39095   0.39160   0.39356   0.39389
 Alpha virt. eigenvalues --    0.39520   0.39825   0.40316   0.40451   0.40566
 Alpha virt. eigenvalues --    0.40808   0.40895   0.41250   0.41460   0.41491
 Alpha virt. eigenvalues --    0.41630   0.41791   0.42219   0.42446   0.42528
 Alpha virt. eigenvalues --    0.42675   0.43025   0.43201   0.43454   0.43635
 Alpha virt. eigenvalues --    0.43766   0.43794   0.43976   0.44198   0.44367
 Alpha virt. eigenvalues --    0.44558   0.44784   0.44852   0.44955   0.45054
 Alpha virt. eigenvalues --    0.45321   0.45527   0.45628   0.45812   0.45946
 Alpha virt. eigenvalues --    0.46106   0.46394   0.46612   0.46865   0.47023
 Alpha virt. eigenvalues --    0.47277   0.47462   0.47583   0.47957   0.48107
 Alpha virt. eigenvalues --    0.48450   0.48752   0.48872   0.49085   0.49217
 Alpha virt. eigenvalues --    0.49449   0.49684   0.49842   0.49989   0.50185
 Alpha virt. eigenvalues --    0.50267   0.50484   0.50830   0.51107   0.51128
 Alpha virt. eigenvalues --    0.51371   0.51818   0.51994   0.52140   0.52250
 Alpha virt. eigenvalues --    0.52472   0.52971   0.53185   0.53440   0.53482
 Alpha virt. eigenvalues --    0.53913   0.54047   0.54527   0.54666   0.54859
 Alpha virt. eigenvalues --    0.55131   0.55401   0.55783   0.56195   0.56480
 Alpha virt. eigenvalues --    0.56771   0.56983   0.57366   0.57440   0.57769
 Alpha virt. eigenvalues --    0.58116   0.58267   0.58702   0.59437   0.59854
 Alpha virt. eigenvalues --    0.60124   0.60324   0.60648   0.61017   0.61263
 Alpha virt. eigenvalues --    0.62017   0.62292   0.63020   0.63333   0.63977
 Alpha virt. eigenvalues --    0.64079   0.64521   0.64845   0.64940   0.65337
 Alpha virt. eigenvalues --    0.65667   0.65731   0.66446   0.66541   0.67251
 Alpha virt. eigenvalues --    0.67446   0.67546   0.67572   0.68001   0.68359
 Alpha virt. eigenvalues --    0.68508   0.68722   0.69058   0.69110   0.69350
 Alpha virt. eigenvalues --    0.69594   0.69886   0.70379   0.70497   0.70873
 Alpha virt. eigenvalues --    0.71068   0.71444   0.71579   0.71813   0.72439
 Alpha virt. eigenvalues --    0.72936   0.73008   0.73158   0.73361   0.73695
 Alpha virt. eigenvalues --    0.73825   0.74014   0.74380   0.74561   0.74997
 Alpha virt. eigenvalues --    0.75203   0.75551   0.75815   0.76431   0.76489
 Alpha virt. eigenvalues --    0.76867   0.77087   0.77596   0.77722   0.78121
 Alpha virt. eigenvalues --    0.78473   0.78648   0.78855   0.79284   0.79413
 Alpha virt. eigenvalues --    0.79632   0.80235   0.80255   0.80525   0.80856
 Alpha virt. eigenvalues --    0.81009   0.81153   0.81449   0.81814   0.82263
 Alpha virt. eigenvalues --    0.82557   0.83234   0.83332   0.83536   0.83742
 Alpha virt. eigenvalues --    0.84256   0.84425   0.84439   0.84691   0.85304
 Alpha virt. eigenvalues --    0.85925   0.86228   0.86320   0.86885   0.87085
 Alpha virt. eigenvalues --    0.87528   0.87787   0.88182   0.88527   0.89255
 Alpha virt. eigenvalues --    0.89624   0.90077   0.90672   0.90805   0.91144
 Alpha virt. eigenvalues --    0.91202   0.91613   0.91841   0.92515   0.92667
 Alpha virt. eigenvalues --    0.92930   0.93329   0.93527   0.93774   0.94346
 Alpha virt. eigenvalues --    0.94419   0.94658   0.95177   0.95717   0.95864
 Alpha virt. eigenvalues --    0.96077   0.96227   0.96867   0.97046   0.97778
 Alpha virt. eigenvalues --    0.98352   0.98461   0.98753   0.98993   0.99494
 Alpha virt. eigenvalues --    1.00033   1.00248   1.00566   1.00905   1.01717
 Alpha virt. eigenvalues --    1.02241   1.02414   1.02963   1.03213   1.03613
 Alpha virt. eigenvalues --    1.04267   1.04687   1.05221   1.05794   1.06367
 Alpha virt. eigenvalues --    1.06621   1.06797   1.07747   1.07848   1.08384
 Alpha virt. eigenvalues --    1.08924   1.09244   1.09874   1.09947   1.10442
 Alpha virt. eigenvalues --    1.10782   1.11122   1.11263   1.11904   1.12095
 Alpha virt. eigenvalues --    1.12437   1.13406   1.13586   1.13762   1.14211
 Alpha virt. eigenvalues --    1.14360   1.14591   1.14836   1.15140   1.15569
 Alpha virt. eigenvalues --    1.15695   1.16104   1.16445   1.16942   1.17263
 Alpha virt. eigenvalues --    1.17533   1.17848   1.18102   1.18300   1.18914
 Alpha virt. eigenvalues --    1.19076   1.19599   1.20025   1.20371   1.20640
 Alpha virt. eigenvalues --    1.20956   1.21385   1.22060   1.22181   1.22374
 Alpha virt. eigenvalues --    1.22724   1.23104   1.23530   1.23888   1.24036
 Alpha virt. eigenvalues --    1.24194   1.24495   1.24983   1.25104   1.25658
 Alpha virt. eigenvalues --    1.25944   1.26035   1.26253   1.26409   1.26515
 Alpha virt. eigenvalues --    1.27266   1.27396   1.27577   1.27795   1.27872
 Alpha virt. eigenvalues --    1.27921   1.28704   1.29107   1.29142   1.29941
 Alpha virt. eigenvalues --    1.29978   1.30162   1.30360   1.30599   1.30790
 Alpha virt. eigenvalues --    1.30906   1.31483   1.32192   1.32284   1.32369
 Alpha virt. eigenvalues --    1.32799   1.33004   1.33273   1.34076   1.34442
 Alpha virt. eigenvalues --    1.34493   1.34552   1.35410   1.35636   1.36432
 Alpha virt. eigenvalues --    1.36816   1.37447   1.38019   1.38525   1.38747
 Alpha virt. eigenvalues --    1.39231   1.39487   1.40497   1.40834   1.41333
 Alpha virt. eigenvalues --    1.41576   1.42441   1.42809   1.43058   1.43490
 Alpha virt. eigenvalues --    1.44294   1.44423   1.44662   1.45228   1.45922
 Alpha virt. eigenvalues --    1.46259   1.46905   1.47173   1.47468   1.47579
 Alpha virt. eigenvalues --    1.47822   1.48260   1.48646   1.49022   1.49835
 Alpha virt. eigenvalues --    1.50050   1.50242   1.50764   1.50931   1.51170
 Alpha virt. eigenvalues --    1.51350   1.51700   1.52016   1.52391   1.52625
 Alpha virt. eigenvalues --    1.53150   1.53360   1.53945   1.54189   1.54381
 Alpha virt. eigenvalues --    1.54680   1.54915   1.55594   1.55933   1.56174
 Alpha virt. eigenvalues --    1.56579   1.57169   1.57485   1.58131   1.58331
 Alpha virt. eigenvalues --    1.58361   1.58718   1.58894   1.59671   1.59969
 Alpha virt. eigenvalues --    1.60199   1.60858   1.61215   1.61301   1.61697
 Alpha virt. eigenvalues --    1.62096   1.62354   1.62872   1.63019   1.63057
 Alpha virt. eigenvalues --    1.63419   1.63668   1.63816   1.64227   1.64749
 Alpha virt. eigenvalues --    1.65159   1.65963   1.66112   1.66349   1.66678
 Alpha virt. eigenvalues --    1.66876   1.68096   1.68289   1.68648   1.68686
 Alpha virt. eigenvalues --    1.68919   1.69103   1.69444   1.69736   1.70050
 Alpha virt. eigenvalues --    1.70215   1.70430   1.70866   1.71164   1.71473
 Alpha virt. eigenvalues --    1.71573   1.71842   1.72055   1.72379   1.72742
 Alpha virt. eigenvalues --    1.72919   1.73311   1.73625   1.73705   1.73905
 Alpha virt. eigenvalues --    1.74070   1.74450   1.74557   1.74940   1.75170
 Alpha virt. eigenvalues --    1.75434   1.75759   1.76042   1.76644   1.76777
 Alpha virt. eigenvalues --    1.77376   1.77577   1.78039   1.78530   1.78657
 Alpha virt. eigenvalues --    1.79264   1.79682   1.79871   1.80284   1.80633
 Alpha virt. eigenvalues --    1.81264   1.81600   1.81788   1.82590   1.82640
 Alpha virt. eigenvalues --    1.82863   1.83667   1.84100   1.84301   1.84881
 Alpha virt. eigenvalues --    1.85223   1.85582   1.86321   1.86721   1.87200
 Alpha virt. eigenvalues --    1.87444   1.87609   1.87969   1.88228   1.88314
 Alpha virt. eigenvalues --    1.88895   1.89083   1.90425   1.90781   1.90962
 Alpha virt. eigenvalues --    1.91297   1.91913   1.92394   1.92491   1.92836
 Alpha virt. eigenvalues --    1.93224   1.93300   1.94320   1.94634   1.95056
 Alpha virt. eigenvalues --    1.95621   1.95906   1.96066   1.96432   1.96724
 Alpha virt. eigenvalues --    1.97404   1.98279   1.98702   1.99113   1.99972
 Alpha virt. eigenvalues --    2.00292   2.00932   2.01757   2.01823   2.02126
 Alpha virt. eigenvalues --    2.02487   2.02940   2.03331   2.03652   2.04273
 Alpha virt. eigenvalues --    2.04814   2.04835   2.04991   2.05487   2.05841
 Alpha virt. eigenvalues --    2.06284   2.07540   2.08326   2.08544   2.08936
 Alpha virt. eigenvalues --    2.09717   2.09954   2.10105   2.10810   2.11172
 Alpha virt. eigenvalues --    2.11871   2.11970   2.12310   2.12476   2.12839
 Alpha virt. eigenvalues --    2.12955   2.13566   2.13657   2.14146   2.14372
 Alpha virt. eigenvalues --    2.14613   2.14772   2.15177   2.15718   2.15819
 Alpha virt. eigenvalues --    2.16385   2.16861   2.17183   2.17689   2.17941
 Alpha virt. eigenvalues --    2.18194   2.18716   2.18859   2.19477   2.19716
 Alpha virt. eigenvalues --    2.20292   2.20890   2.21993   2.22125   2.22816
 Alpha virt. eigenvalues --    2.22984   2.23536   2.24122   2.24376   2.24416
 Alpha virt. eigenvalues --    2.25147   2.25333   2.25971   2.26629   2.26964
 Alpha virt. eigenvalues --    2.27226   2.28177   2.28529   2.28741   2.29211
 Alpha virt. eigenvalues --    2.30282   2.30778   2.31496   2.32367   2.33075
 Alpha virt. eigenvalues --    2.33171   2.33485   2.34568   2.34748   2.35099
 Alpha virt. eigenvalues --    2.35599   2.37836   2.38036   2.38245   2.38522
 Alpha virt. eigenvalues --    2.39562   2.41095   2.41353   2.41619   2.41914
 Alpha virt. eigenvalues --    2.42446   2.43016   2.43732   2.44056   2.44265
 Alpha virt. eigenvalues --    2.44443   2.45213   2.45401   2.46374   2.46945
 Alpha virt. eigenvalues --    2.47400   2.47491   2.47876   2.48181   2.48833
 Alpha virt. eigenvalues --    2.48903   2.49174   2.49966   2.50276   2.50752
 Alpha virt. eigenvalues --    2.51520   2.52277   2.52693   2.52811   2.53134
 Alpha virt. eigenvalues --    2.53358   2.53765   2.54792   2.55269   2.55509
 Alpha virt. eigenvalues --    2.55923   2.56099   2.56855   2.57043   2.57574
 Alpha virt. eigenvalues --    2.57632   2.57860   2.58446   2.59063   2.59221
 Alpha virt. eigenvalues --    2.59461   2.60145   2.60779   2.61017   2.61341
 Alpha virt. eigenvalues --    2.61729   2.62203   2.62337   2.62667   2.62798
 Alpha virt. eigenvalues --    2.63117   2.63561   2.64026   2.64097   2.64593
 Alpha virt. eigenvalues --    2.64928   2.65261   2.65437   2.65640   2.65751
 Alpha virt. eigenvalues --    2.66089   2.66294   2.66571   2.66640   2.66880
 Alpha virt. eigenvalues --    2.67027   2.67197   2.67429   2.67645   2.68060
 Alpha virt. eigenvalues --    2.68361   2.68459   2.68598   2.69032   2.69172
 Alpha virt. eigenvalues --    2.69315   2.69506   2.69930   2.70328   2.70705
 Alpha virt. eigenvalues --    2.70944   2.71474   2.71656   2.71970   2.72075
 Alpha virt. eigenvalues --    2.72464   2.72591   2.73017   2.73219   2.73797
 Alpha virt. eigenvalues --    2.73864   2.74404   2.74621   2.74630   2.74774
 Alpha virt. eigenvalues --    2.75010   2.75731   2.75837   2.76132   2.76865
 Alpha virt. eigenvalues --    2.76949   2.77085   2.77302   2.77577   2.77913
 Alpha virt. eigenvalues --    2.78038   2.78184   2.78435   2.78546   2.79065
 Alpha virt. eigenvalues --    2.79524   2.79913   2.80190   2.80483   2.80760
 Alpha virt. eigenvalues --    2.81015   2.81165   2.81239   2.81626   2.81835
 Alpha virt. eigenvalues --    2.82133   2.82690   2.82978   2.83635   2.84162
 Alpha virt. eigenvalues --    2.84319   2.84580   2.84952   2.85271   2.85385
 Alpha virt. eigenvalues --    2.85741   2.86045   2.86440   2.86732   2.86822
 Alpha virt. eigenvalues --    2.87074   2.87257   2.87487   2.87824   2.88013
 Alpha virt. eigenvalues --    2.88208   2.89036   2.89284   2.89699   2.90039
 Alpha virt. eigenvalues --    2.90435   2.90718   2.90962   2.91145   2.91904
 Alpha virt. eigenvalues --    2.92053   2.92177   2.92926   2.92978   2.93077
 Alpha virt. eigenvalues --    2.94041   2.94387   2.94577   2.94866   2.95484
 Alpha virt. eigenvalues --    2.95651   2.96031   2.96162   2.96766   2.97257
 Alpha virt. eigenvalues --    2.97834   2.97986   2.98888   2.99564   3.00084
 Alpha virt. eigenvalues --    3.00601   3.00699   3.01396   3.02294   3.02850
 Alpha virt. eigenvalues --    3.03393   3.03912   3.04035   3.04741   3.05040
 Alpha virt. eigenvalues --    3.05067   3.06369   3.06872   3.07532   3.07837
 Alpha virt. eigenvalues --    3.08184   3.08724   3.09382   3.09640   3.09899
 Alpha virt. eigenvalues --    3.10897   3.11043   3.11495   3.12132   3.12614
 Alpha virt. eigenvalues --    3.13163   3.13332   3.13630   3.13904   3.14065
 Alpha virt. eigenvalues --    3.14169   3.14289   3.14616   3.15165   3.15555
 Alpha virt. eigenvalues --    3.15623   3.15801   3.16237   3.16296   3.16802
 Alpha virt. eigenvalues --    3.17177   3.17331   3.17545   3.17819   3.18224
 Alpha virt. eigenvalues --    3.18275   3.18593   3.18673   3.18761   3.19071
 Alpha virt. eigenvalues --    3.19615   3.19957   3.20161   3.20339   3.20550
 Alpha virt. eigenvalues --    3.20802   3.21616   3.21640   3.22223   3.22520
 Alpha virt. eigenvalues --    3.22650   3.23051   3.23356   3.23563   3.23900
 Alpha virt. eigenvalues --    3.24098   3.24588   3.25025   3.25229   3.25552
 Alpha virt. eigenvalues --    3.25922   3.26010   3.26346   3.26772   3.26978
 Alpha virt. eigenvalues --    3.27141   3.27494   3.27950   3.28662   3.28943
 Alpha virt. eigenvalues --    3.29103   3.29308   3.29527   3.29976   3.30474
 Alpha virt. eigenvalues --    3.30630   3.30909   3.31088   3.31508   3.31713
 Alpha virt. eigenvalues --    3.31917   3.32296   3.32851   3.32893   3.33167
 Alpha virt. eigenvalues --    3.33403   3.34074   3.34192   3.34671   3.35068
 Alpha virt. eigenvalues --    3.35225   3.35572   3.35914   3.36506   3.36629
 Alpha virt. eigenvalues --    3.36689   3.37028   3.37477   3.37710   3.37929
 Alpha virt. eigenvalues --    3.38298   3.38398   3.38658   3.39251   3.39501
 Alpha virt. eigenvalues --    3.39667   3.39803   3.40251   3.40570   3.40697
 Alpha virt. eigenvalues --    3.40791   3.41166   3.41624   3.41975   3.42358
 Alpha virt. eigenvalues --    3.42430   3.42579   3.42947   3.43283   3.43448
 Alpha virt. eigenvalues --    3.43721   3.44086   3.44284   3.44360   3.44763
 Alpha virt. eigenvalues --    3.44988   3.45249   3.45311   3.45570   3.45952
 Alpha virt. eigenvalues --    3.46466   3.46983   3.47191   3.47397   3.47755
 Alpha virt. eigenvalues --    3.47815   3.48122   3.48726   3.48881   3.49190
 Alpha virt. eigenvalues --    3.49280   3.49513   3.49802   3.50057   3.50136
 Alpha virt. eigenvalues --    3.50713   3.51282   3.51606   3.52139   3.52288
 Alpha virt. eigenvalues --    3.52589   3.52786   3.53356   3.53426   3.53708
 Alpha virt. eigenvalues --    3.54015   3.54273   3.54508   3.54816   3.55020
 Alpha virt. eigenvalues --    3.55291   3.55655   3.55995   3.56361   3.56531
 Alpha virt. eigenvalues --    3.56850   3.57629   3.57837   3.58034   3.58243
 Alpha virt. eigenvalues --    3.58363   3.58799   3.59018   3.59563   3.59738
 Alpha virt. eigenvalues --    3.59928   3.60370   3.60636   3.61167   3.61575
 Alpha virt. eigenvalues --    3.61926   3.62377   3.63320   3.63495   3.63611
 Alpha virt. eigenvalues --    3.64866   3.65542   3.65998   3.67005   3.67414
 Alpha virt. eigenvalues --    3.68064   3.68467   3.68935   3.69276   3.69840
 Alpha virt. eigenvalues --    3.70414   3.70936   3.71233   3.71515   3.71641
 Alpha virt. eigenvalues --    3.71965   3.72451   3.73368   3.73859   3.74141
 Alpha virt. eigenvalues --    3.75050   3.75534   3.75776   3.76302   3.77108
 Alpha virt. eigenvalues --    3.77560   3.78275   3.78293   3.78749   3.78966
 Alpha virt. eigenvalues --    3.79715   3.80842   3.81245   3.81638   3.83112
 Alpha virt. eigenvalues --    3.84169   3.84485   3.85895   3.87245   3.87876
 Alpha virt. eigenvalues --    3.88794   3.88875   3.89186   3.89690   3.90417
 Alpha virt. eigenvalues --    3.91015   3.92899   3.93076   3.93834   3.94665
 Alpha virt. eigenvalues --    3.94698   3.95697   3.95894   3.96285   3.96442
 Alpha virt. eigenvalues --    3.97408   3.97462   3.98694   3.99282   3.99594
 Alpha virt. eigenvalues --    4.01208   4.01772   4.02717   4.03115   4.03365
 Alpha virt. eigenvalues --    4.03957   4.04191   4.04613   4.05210   4.05631
 Alpha virt. eigenvalues --    4.05794   4.06440   4.06707   4.07050   4.07598
 Alpha virt. eigenvalues --    4.07968   4.08150   4.09288   4.11122   4.11993
 Alpha virt. eigenvalues --    4.12270   4.12564   4.12931   4.13129   4.13241
 Alpha virt. eigenvalues --    4.13588   4.14399   4.14854   4.15055   4.15612
 Alpha virt. eigenvalues --    4.16073   4.17304   4.17876   4.18684   4.18996
 Alpha virt. eigenvalues --    4.19762   4.19845   4.19852   4.20585   4.20628
 Alpha virt. eigenvalues --    4.20958   4.21178   4.21416   4.21829   4.21984
 Alpha virt. eigenvalues --    4.22119   4.22500   4.22990   4.23025   4.23113
 Alpha virt. eigenvalues --    4.23767   4.23845   4.24189   4.24726   4.24851
 Alpha virt. eigenvalues --    4.25008   4.25374   4.25634   4.26025   4.26583
 Alpha virt. eigenvalues --    4.27053   4.27297   4.27463   4.27946   4.28234
 Alpha virt. eigenvalues --    4.28611   4.29389   4.29644   4.30026   4.30425
 Alpha virt. eigenvalues --    4.31660   4.32558   4.33252   4.33553   4.33991
 Alpha virt. eigenvalues --    4.34842   4.34981   4.35366   4.35599   4.36096
 Alpha virt. eigenvalues --    4.37068   4.37612   4.37864   4.38661   4.39759
 Alpha virt. eigenvalues --    4.40810   4.40922   4.41200   4.41945   4.43277
 Alpha virt. eigenvalues --    4.44454   4.46431   4.47840   4.49048   4.50052
 Alpha virt. eigenvalues --    4.52717   4.54142   4.56489   4.58173   4.58838
 Alpha virt. eigenvalues --    4.60375   4.61527   4.61714   4.62076   4.63217
 Alpha virt. eigenvalues --    4.63633   4.64461   4.64586   4.64912   4.65296
 Alpha virt. eigenvalues --    4.65482   4.65847   4.65998   4.66518   4.67389
 Alpha virt. eigenvalues --    4.68544   4.68744   4.71170   4.72736   4.73279
 Alpha virt. eigenvalues --    4.73339   4.73887   4.74016   4.74748   4.75418
 Alpha virt. eigenvalues --    4.76854   4.77644   4.78721   4.79160   4.79665
 Alpha virt. eigenvalues --    4.84189   4.86035   4.86064   4.86871   4.87484
 Alpha virt. eigenvalues --    4.87825   4.89083   4.91076   4.92741   4.92989
 Alpha virt. eigenvalues --    4.94272   4.94964   4.95356   4.95804   4.96585
 Alpha virt. eigenvalues --    4.96817   4.97937   4.99146   4.99242   5.02497
 Alpha virt. eigenvalues --    5.03164   5.05050   5.08646   5.10593   5.11166
 Alpha virt. eigenvalues --    5.12907   5.14048   5.14178   5.14611   5.14809
 Alpha virt. eigenvalues --    5.15056   5.15284   5.15665   5.15942   5.19182
 Alpha virt. eigenvalues --    5.20863   5.22582   5.27004   5.27345   5.27713
 Alpha virt. eigenvalues --    5.28395   5.28881   5.35331   5.35377   5.36239
 Alpha virt. eigenvalues --    5.36431   5.38789   5.39926   5.41726   5.41934
 Alpha virt. eigenvalues --    5.43092   5.43655   5.44507   5.47783   5.50566
 Alpha virt. eigenvalues --    5.51383   5.55603   5.58043   5.58534   5.58751
 Alpha virt. eigenvalues --    5.59982   5.62469   5.64111   5.67659   5.68003
 Alpha virt. eigenvalues --    5.93045   5.93621   5.98556   6.00378   6.01561
 Alpha virt. eigenvalues --    6.07018   6.34108   6.42887   6.43696   6.48297
 Alpha virt. eigenvalues --    6.81574   6.86628   6.88554   6.92287   7.01471
 Alpha virt. eigenvalues --    7.05064   7.30994   7.35143   7.48776   7.53766
 Alpha virt. eigenvalues --    7.83080   7.83246   8.08314   8.09310   8.11581
 Alpha virt. eigenvalues --    8.12691  16.01812  16.13432  22.21053  22.21904
 Alpha virt. eigenvalues --   22.25817  22.28385  22.45833  22.47383  22.51587
 Alpha virt. eigenvalues --   22.54769  22.56584  22.59956  22.62672  22.63005
 Alpha virt. eigenvalues --   22.63671  22.63910  22.65053  22.65810  22.66960
 Alpha virt. eigenvalues --   22.67293  22.73589  22.74815  22.77723  22.78793
 Alpha virt. eigenvalues --   22.80436  22.80767  22.81946  22.83347  22.84226
 Alpha virt. eigenvalues --   22.85446  22.89181  22.91462  22.97339  23.08098
 Alpha virt. eigenvalues --   23.09770  23.13890  23.14865  23.18142  23.18732
 Alpha virt. eigenvalues --   23.21073  23.39615  23.67758  44.62377  44.65257
          Condensed to atoms (all electrons):
 Mulliken charges:
               1
     1  P    0.031031
     2  C    0.154019
     3  C   -0.204513
     4  C   -0.114316
     5  C   -0.111445
     6  C   -0.139408
     7  C   -0.150438
     8  H    0.152541
     9  H    0.113220
    10  H    0.122776
    11  C    0.058089
    12  C   -0.118522
    13  C   -0.151545
    14  C   -0.101033
    15  C   -0.110942
    16  C   -0.208248
    17  H    0.125852
    18  H    0.117638
    19  H    0.139465
    20  C   -0.030989
    21  C   -0.178883
    22  C   -0.168408
    23  C   -0.218626
    24  C    0.225122
    25  C    0.068727
    26  C    0.072123
    27  C    0.219121
    28  C   -0.224672
    29  C   -0.167062
    30  C   -0.188601
    31  C   -0.008032
    32  P    0.028874
    33  C    0.157166
    34  C   -0.153375
    35  C   -0.137585
    36  C   -0.112185
    37  C   -0.113046
    38  C   -0.206800
    39  H    0.122316
    40  H    0.113274
    41  H    0.154780
    42  C    0.058495
    43  C   -0.207858
    44  C   -0.111719
    45  C   -0.100274
    46  C   -0.152601
    47  C   -0.117208
    48  H    0.139344
    49  H    0.117676
    50  H    0.126014
    51  H    0.137926
    52  H    0.108704
    53  H    0.097095
    54  O   -0.270025
    55  C   -0.134411
    56  H    0.120307
    57  H    0.121649
    58  C   -0.165819
    59  H    0.112634
    60  H    0.145959
    61  C   -0.233562
    62  H    0.109519
    63  H    0.109045
    64  C   -0.084172
    65  H    0.111004
    66  O   -0.282284
    67  H    0.123164
    68  H    0.105908
    69  H    0.109198
    70  H    0.138570
    71  H    0.115641
    72  H    0.117331
    73  H    0.113388
    74  H    0.109137
    75  H    0.117248
    76  H    0.115698
    77  H    0.108426
    78  H    0.113392
 Sum of Mulliken charges =  -0.00000
 Mulliken charges with hydrogens summed into heavy atoms:
               1
     1  P    0.031031
     2  C    0.154019
     3  C   -0.081737
     4  C   -0.000928
     5  C    0.001776
     6  C   -0.030271
     7  C    0.002103
    11  C    0.058089
    12  C    0.020943
    13  C   -0.035904
    14  C    0.016606
    15  C    0.006389
    16  C   -0.082396
    20  C   -0.030989
    21  C   -0.040313
    22  C   -0.059210
    23  C   -0.112718
    24  C    0.225122
    25  C    0.068727
    26  C    0.072123
    27  C    0.219121
    28  C   -0.127577
    29  C   -0.058358
    30  C   -0.050675
    31  C   -0.008032
    32  P    0.028874
    33  C    0.157166
    34  C    0.001406
    35  C   -0.029159
    36  C    0.001089
    37  C    0.000347
    38  C   -0.084483
    42  C    0.058495
    43  C   -0.081844
    44  C    0.005529
    45  C    0.017402
    46  C   -0.036903
    47  C    0.022136
    54  O   -0.270025
    55  C    0.107545
    58  C    0.092774
    61  C   -0.014998
    64  C    0.149997
    66  O   -0.282284
 Electronic spatial extent (au):  <R**2>=          21249.8930
 Charge=              0.0000 electrons
 Dipole moment (field-independent basis, Debye):
    X=              0.3628    Y=              3.7425    Z=              0.1144  Tot=              3.7618
 Quadrupole moment (field-independent basis, Debye-Ang):
   XX=           -260.5304   YY=           -244.5015   ZZ=           -248.1934
   XY=              1.9556   XZ=             -4.7588   YZ=             -0.5154
 Traceless Quadrupole moment (field-independent basis, Debye-Ang):
   XX=             -9.4553   YY=              6.5736   ZZ=              2.8817
   XY=              1.9556   XZ=             -4.7588   YZ=             -0.5154
 Octapole moment (field-independent basis, Debye-Ang**2):
  XXX=             -0.5195  YYY=            150.2895  ZZZ=              3.6807  XYY=              1.5599
  XXY=             -0.3000  XXZ=             10.5917  XZZ=             12.5238  YZZ=             11.2915
  YYZ=             -1.5489  XYZ=             51.7485
 Hexadecapole moment (field-independent basis, Debye-Ang**3):
 XXXX=         -12073.8152 YYYY=          -8444.9572 ZZZZ=          -7263.5822 XXXY=             -7.0976
 XXXZ=           -302.0337 YYYX=            100.4921 YYYZ=            -12.5219 ZZZX=             98.4991
 ZZZY=             24.1763 XXYY=          -3603.8968 XXZZ=          -3397.7203 YYZZ=          -2529.7331
 XXYZ=             -3.0283 YYXZ=           -142.4554 ZZXY=            -19.2535
 N-N= 5.874156874583D+03 E-N=-1.731107815294D+04  KE= 2.364979700557D+03
 1\1\GINC-NOTCH210\SP\RPBE1PBE\def2TZVP\C40H34O2P2\U1010977\01-Nov-2021
 \0\\# PBE1PBE/def2TZVP int=(grid=ultrafine) empiricaldispersion=GD3BJ 
 nmr=giao\\title\\0,1\P,0,-0.7528870539,1.6838009064,-0.0120400664\C,0,
 -0.0522731607,2.1599877643,-1.6323860978\C,0,-0.8548821797,1.967803705
 7,-2.7735069529\C,0,-0.3705586083,2.3466204611,-4.032078732\C,0,0.9071
 361833,2.9123409327,-4.1566621801\C,0,1.7046810123,3.1052572537,-3.019
 031892\C,0,1.2283150918,2.7326934023,-1.7558688637\H,0,1.8652421628,2.
 8519844618,-0.8737696544\H,0,1.2837452367,3.201202874,-5.14355173\H,0,
 -1.8558488657,1.5366739697,-2.6562834953\C,0,-1.3975203415,3.239073515
 2,0.7240523047\C,0,-0.8537667062,4.4874380445,0.373196979\C,0,-1.30527
 17576,5.6506575514,1.0120785517\C,0,-2.2910193594,5.5720509954,2.00510
 32839\C,0,-2.8355401175,4.3270880616,2.35468812\C,0,-2.3992449748,3.16
 2853994,1.7119038838\H,0,-2.8476138167,2.1941667158,1.9530618028\H,0,-
 2.6437071754,6.4827914493,2.5000807047\H,0,-0.0894310248,4.5548311703,
 -0.4067911047\C,0,0.6828832506,1.2863073974,1.0911648976\C,0,0.7169415
 528,1.8770406203,2.3701082604\C,0,1.7516758296,1.581387868,3.262978281
 6\C,0,2.7781691214,0.7116968285,2.8879821586\C,0,2.7521101799,0.117757
 3583,1.6176503353\C,0,1.6988387385,0.3729404664,0.7076536252\C,0,1.723
 2106941,-0.2998638645,-0.6227461736\C,0,2.7960100469,-0.019319171,-1.5
 071330315\C,0,2.8351384698,-0.5822608421,-2.7927606394\C,0,1.818816206
[...]
  1376. RY*(  15) C  64                  0.00002     2.42683   
  1377. RY*(  16) C  64                  0.00002     2.28648   
  1378. RY*(  17) C  64                  0.00000    21.16349   
  1379. RY*(  18) C  64                  0.00000     3.41552   
  1380. RY*(  19) C  64                  0.00001     2.34421   
  1381. RY*(  20) C  64                  0.00000     3.43677   
  1382. RY*(  21) C  64                  0.00000     3.43014   
  1383. RY*(  22) C  64                  0.00000     3.66727   
  1384. RY*(  23) C  64                  0.00000     3.54964   
  1385. RY*(  24) C  64                  0.00000     3.40641   
  1386. RY*(  25) C  64                  0.00000     3.93913   
  1387. RY*(  26) C  64                  0.00000     3.38861   
  1388. RY*(   1) H  65                  0.00087     0.97555   
  1389. RY*(   2) H  65                  0.00025     1.99143   
  1390. RY*(   3) H  65                  0.00013     2.39413   
  1391. RY*(   4) H  65                  0.00006     2.15570   
  1392. RY*(   5) H  65                  0.00001     3.00198   
  1393. RY*(   1) O  66                  0.00442     0.95125   
  1394. RY*(   2) O  66                  0.00336     0.94760   
  1395. RY*(   3) O  66                  0.00108     1.58920   
  1396. RY*(   4) O  66                  0.00034     2.24948   
  1397. RY*(   5) O  66                  0.00014     3.71709   
  1398. RY*(   6) O  66                  0.00015     2.48675   
  1399. RY*(   7) O  66                  0.00010     2.33700   
  1400. RY*(   8) O  66                  0.00010     2.17772   
  1401. RY*(   9) O  66                  0.00007     3.03297   
  1402. RY*(  10) O  66                  0.00006     4.79661   
  1403. RY*(  11) O  66                  0.00005     4.55532   
  1404. RY*(  12) O  66                  0.00001     3.76354   
  1405. RY*(  13) O  66                  0.00002     4.10942   
  1406. RY*(  14) O  66                  0.00001     5.87306   
  1407. RY*(  15) O  66                  0.00002     3.50431   
  1408. RY*(  16) O  66                  0.00000    42.03651   
  1409. RY*(  17) O  66                  0.00001     6.07176   
  1410. RY*(  18) O  66                  0.00000     6.11864   
  1411. RY*(  19) O  66                  0.00000     6.31335   
  1412. RY*(  20) O  66                  0.00000     5.40405   
  1413. RY*(  21) O  66                  0.00000     5.32597   
  1414. RY*(  22) O  66                  0.00000     5.58548   
  1415. RY*(  23) O  66                  0.00000     5.42715   
  1416. RY*(  24) O  66                  0.00000     5.63421   
  1417. RY*(  25) O  66                  0.00000     5.80845   
  1418. RY*(  26) O  66                  0.00000     5.80331   
  1419. RY*(   1) H  67                  0.00150     0.61501   
  1420. RY*(   2) H  67                  0.00026     2.39955   
  1421. RY*(   3) H  67                  0.00014     2.46802   
  1422. RY*(   4) H  67                  0.00009     2.37199   
  1423. RY*(   5) H  67                  0.00002     3.15241   
  1424. RY*(   1) H  68                  0.00068     1.48746   
  1425. RY*(   2) H  68                  0.00020     1.76758   
  1426. RY*(   3) H  68                  0.00016     2.00007   
  1427. RY*(   4) H  68                  0.00009     2.84138   
  1428. RY*(   5) H  68                  0.00002     3.08314   
  1429. RY*(   1) H  69                  0.00037     1.07300   
  1430. RY*(   2) H  69                  0.00020     1.87265   
  1431. RY*(   3) H  69                  0.00010     2.43241   
  1432. RY*(   4) H  69                  0.00010     2.54742   
  1433. RY*(   5) H  69                  0.00001     3.06514   
  1434. RY*(   1) H  70                  0.00097     0.87448   
  1435. RY*(   2) H  70                  0.00029     2.43650   
  1436. RY*(   3) H  70                  0.00017     2.24245   
  1437. RY*(   4) H  70                  0.00013     2.86046   
  1438. RY*(   5) H  70                  0.00002     3.24466   
  1439. RY*(   1) H  71                  0.00045     0.98802   
  1440. RY*(   2) H  71                  0.00019     1.85765   
  1441. RY*(   3) H  71                  0.00012     2.51837   
  1442. RY*(   4) H  71                  0.00011     2.34649   
  1443. RY*(   5) H  71                  0.00002     3.08707   
  1444. RY*(   1) H  72                  0.00035     0.89283   
  1445. RY*(   2) H  72                  0.00021     1.89239   
  1446. RY*(   3) H  72                  0.00012     2.67105   
  1447. RY*(   4) H  72                  0.00012     2.16217   
  1448. RY*(   5) H  72                  0.00002     3.10215   
  1449. RY*(   1) H  73                  0.00036     0.97460   
  1450. RY*(   2) H  73                  0.00020     1.89025   
  1451. RY*(   3) H  73                  0.00012     2.16464   
  1452. RY*(   4) H  73                  0.00008     2.76377   
  1453. RY*(   5) H  73                  0.00001     3.08666   
  1454. RY*(   1) H  74                  0.00039     1.25489   
  1455. RY*(   2) H  74                  0.00018     1.77545   
  1456. RY*(   3) H  74                  0.00017     2.18963   
  1457. RY*(   4) H  74                  0.00012     2.70281   
  1458. RY*(   5) H  74                  0.00001     3.06420   
  1459. RY*(   1) H  75                  0.00035     0.91503   
  1460. RY*(   2) H  75                  0.00020     1.87375   
  1461. RY*(   3) H  75                  0.00012     2.67929   
  1462. RY*(   4) H  75                  0.00012     2.15518   
  1463. RY*(   5) H  75                  0.00002     3.09892   
  1464. RY*(   1) H  76                  0.00045     0.98874   
  1465. RY*(   2) H  76                  0.00019     1.85745   
  1466. RY*(   3) H  76                  0.00012     2.40143   
  1467. RY*(   4) H  76                  0.00012     2.46317   
  1468. RY*(   5) H  76                  0.00002     3.08683   
  1469. RY*(   1) H  77                  0.00044     1.18789   
  1470. RY*(   2) H  77                  0.00018     1.87321   
  1471. RY*(   3) H  77                  0.00017     2.15030   
  1472. RY*(   4) H  77                  0.00012     2.69583   
  1473. RY*(   5) H  77                  0.00001     3.05760   
  1474. RY*(   1) H  78                  0.00035     0.89983   
  1475. RY*(   2) H  78                  0.00020     1.88052   
  1476. RY*(   3) H  78                  0.00011     2.16269   
  1477. RY*(   4) H  78                  0.00008     2.76900   
  1478. RY*(   5) H  78                  0.00002     3.09597   
  1479. BD*(   1) P   1 - C   2          0.03581     0.24671   
  1480. BD*(   1) P   1 - C  11          0.04551     0.24369   
  1481. BD*(   1) P   1 - C  20          0.04560     0.23195   
  1482. BD*(   1) C   2 - C   3          0.02387     0.53534   
  1483. BD*(   2) C   2 - C   3          0.36284     0.03538  1488(v),1493(v),1526(r)
                                                    1480(v),1511(r),217(g)
                                                    216(g)
  1484. BD*(   1) C   2 - C   7          0.03201     0.53575   
  1485. BD*(   1) C   3 - C   4          0.01607     0.54855   
  1486. BD*(   1) C   3 - H  10          0.01598     0.40884   
  1487. BD*(   1) C   4 - C   5          0.01464     0.54281   
  1488. BD*(   2) C   4 - C   5          0.33287     0.03267  1483(v),1493(v),243(g)
                                                    269(g)
  1489. BD*(   1) C   4 - H  73          0.01347     0.40999   
  1490. BD*(   1) C   5 - C   6          0.01486     0.54383   
  1491. BD*(   1) C   5 - H   9          0.01308     0.40927   
  1492. BD*(   1) C   6 - C   7          0.01747     0.55273   
  1493. BD*(   2) C   6 - C   7          0.31551     0.03981  1483(v),1488(v),1526(r)
                                                    1528(r),1521(r),295(g)
  1494. BD*(   1) C   6 - H  74          0.01431     0.40903   
  1495. BD*(   1) C   7 - H   8          0.01570     0.43262   
  1496. BD*(   1) C  11 - C  12          0.03063     0.53667   
  1497. BD*(   2) C  11 - C  12          0.35922     0.03283  1507(v),1502(v),1481(v)
                                                    388(g)
  1498. BD*(   1) C  11 - C  16          0.02321     0.52745   
  1499. BD*(   1) C  12 - C  13          0.01707     0.54794   
  1500. BD*(   1) C  12 - H  19          0.01688     0.42215   
  1501. BD*(   1) C  13 - C  14          0.01461     0.54222   
  1502. BD*(   2) C  13 - C  14          0.33077     0.03065  1507(v),1497(v),440(g)
                                                    414(g)
  1503. BD*(   1) C  13 - H  71          0.01401     0.40820   
  1504. BD*(   1) C  14 - C  15          0.01484     0.53958   
  1505. BD*(   1) C  14 - H  18          0.01307     0.40787   
  1506. BD*(   1) C  15 - C  16          0.01618     0.54667   
  1507. BD*(   2) C  15 - C  16          0.32241     0.03207  1497(v),1502(v),466(g)
                                                    492(g)
  1508. BD*(   1) C  15 - H  72          0.01356     0.40760   
  1509. BD*(   1) C  16 - H  17          0.01578     0.41442   
  1510. BD*(   1) C  20 - C  21          0.02172     0.54224   
  1511. BD*(   2) C  20 - C  21          0.38733     0.03857  1521(v),1516(v),558(g)
                                                    1483(r),1542(r),1479(v)
                                                    1544(r),533(g)
  1512. BD*(   1) C  20 - C  25          0.03137     0.52926   
  1513. BD*(   1) C  21 - C  22          0.01610     0.56005   
  1514. BD*(   1) C  21 - H  70          0.01709     0.42839   
  1515. BD*(   1) C  22 - C  23          0.01294     0.55972   
  1516. BD*(   2) C  22 - C  23          0.35939     0.03610  1511(v),1521(v),585(g)
                                                    611(g),1544(r)
  1517. BD*(   1) C  22 - H  69          0.01392     0.41378   
  1518. BD*(   1) C  23 - C  24          0.03197     0.53324   
  1519. BD*(   1) C  23 - H  68          0.01372     0.40653   
  1520. BD*(   1) C  24 - C  25          0.04224     0.52004   
  1521. BD*(   2) C  24 - C  25          0.38847     0.04071  1511(v),1526(v),1516(v)
                                                    1544(r),1542(r),1493(r)
                                                    1524(v),1525(v),1579(v)
                                                    611(v)
  1522. BD*(   1) C  24 - O  66          0.02722     0.35559   
  1523. BD*(   1) C  25 - C  26          0.03049     0.44499   
  1524. BD*(   1) C  26 - C  27          0.04007     0.51443   
  1525. BD*(   1) C  26 - C  31          0.03122     0.52904   
  1526. BD*(   2) C  26 - C  31          0.41128     0.03997  1533(v),1521(v),1528(v)
                                                    1493(r),1483(r),1538(v)
                                                    1520(v),1512(v),819(g)
                                                    1544(r),792(v),1542(r)
                                                    689(g),688(g)
  1527. BD*(   1) C  27 - C  28          0.03179     0.52966   
  1528. BD*(   2) C  27 - C  28          0.37962     0.03376  1526(v),1533(v),1493(r)
                                                    740(g),1568(v)
  1529. BD*(   1) C  27 - O  54          0.03106     0.35221   
  1530. BD*(   1) C  28 - C  29          0.01313     0.55952   
  1531. BD*(   1) C  28 - H  53          0.01492     0.40972   
  1532. BD*(   1) C  29 - C  30          0.01621     0.56186   
  1533. BD*(   2) C  29 - C  30          0.33246     0.04311  1526(v),1528(v),767(g)
                                                    792(g),796(g)
  1534. BD*(   1) C  29 - H  52          0.01393     0.41323   
  1535. BD*(   1) C  30 - C  31          0.02173     0.54383   
  1536. BD*(   1) C  30 - H  51          0.01715     0.43130   
  1537. BD*(   1) C  31 - P  32          0.04519     0.23159   
  1538. BD*(   1) P  32 - C  33          0.03575     0.24665   
  1539. BD*(   1) P  32 - C  42          0.04559     0.24324   
  1540. BD*(   1) C  33 - C  34          0.03192     0.53652   
  1541. BD*(   1) C  33 - C  38          0.02377     0.53406   
  1542. BD*(   2) C  33 - C  38          0.36390     0.03568  1549(v),1544(v),1521(r)
                                                    1539(v),1003(g),1511(r)
                                                    1002(g),1526(r)
  1543. BD*(   1) C  34 - C  35          0.01744     0.55371   
  1544. BD*(   2) C  34 - C  35          0.31510     0.04073  1542(v),1549(v),1521(r)
                                                    925(g),1526(r),1511(r)
                                                    1516(r)
  1545. BD*(   1) C  34 - H  41          0.01572     0.43340   
  1546. BD*(   1) C  35 - C  36          0.01483     0.54476   
  1547. BD*(   1) C  35 - H  77          0.01426     0.41054   
  1548. BD*(   1) C  36 - C  37          0.01463     0.54331   
  1549. BD*(   2) C  36 - C  37          0.33310     0.03319  1542(v),1544(v),977(g)
                                                    951(g)
  1550. BD*(   1) C  36 - H  40          0.01307     0.41005   
  1551. BD*(   1) C  37 - C  38          0.01603     0.54854   
  1552. BD*(   1) C  37 - H  78          0.01347     0.41045   
  1553. BD*(   1) C  38 - H  39          0.01578     0.41116   
  1554. BD*(   1) C  42 - C  43          0.02327     0.52754   
  1555. BD*(   1) C  42 - C  47          0.03064     0.53635   
  1556. BD*(   2) C  42 - C  47          0.35894     0.03281  1558(v),1563(v),1537(v)
                                                    1174(g)
  1557. BD*(   1) C  43 - C  44          0.01619     0.54628   
  1558. BD*(   2) C  43 - C  44          0.32290     0.03197  1556(v),1563(v),1096(g)
                                                    1070(g)
  1559. BD*(   1) C  43 - H  50          0.01579     0.41432   
  1560. BD*(   1) C  44 - C  45          0.01484     0.53948   
  1561. BD*(   1) C  44 - H  75          0.01356     0.40746   
  1562. BD*(   1) C  45 - C  46          0.01462     0.54206   
  1563. BD*(   2) C  45 - C  46          0.33092     0.03056  1558(v),1556(v),1122(g)
                                                    1148(g)
  1564. BD*(   1) C  45 - H  49          0.01307     0.40776   
  1565. BD*(   1) C  46 - C  47          0.01709     0.54800   
  1566. BD*(   1) C  46 - H  76          0.01401     0.40812   
  1567. BD*(   1) C  47 - H  48          0.01687     0.42207   
  1568. BD*(   1) O  54 - C  55          0.02793     0.26386   
  1569. BD*(   1) C  55 - H  56          0.01887     0.34637   
  1570. BD*(   1) C  55 - H  57          0.02689     0.34126   
  1571. BD*(   1) C  55 - C  58          0.02633     0.33794   
  1572. BD*(   1) C  58 - H  59          0.00924     0.35395   
  1573. BD*(   1) C  58 - H  60          0.01561     0.36894   
  1574. BD*(   1) C  58 - C  61          0.01781     0.34410   
  1575. BD*(   1) C  61 - H  62          0.01411     0.35371   
  1576. BD*(   1) C  61 - H  63          0.01146     0.34569   
  1577. BD*(   1) C  61 - C  64          0.01967     0.35272   
  1578. BD*(   1) C  64 - H  65          0.02825     0.33962   
  1579. BD*(   1) C  64 - O  66          0.02739     0.26563   
  1580. BD*(   1) C  64 - H  67          0.02563     0.34361   
       -------------------------------
              Total Lewis  311.28254  ( 97.2758%)
        Valence non-Lewis    8.08183  (  2.5256%)
        Rydberg non-Lewis    0.63563  (  0.1986%)
       -------------------------------
            Total unit  1  320.00000  (100.0000%)
           Charge unit  1    0.00000
 1\1\GINC-NOTCH210\SP\RPBE1PBE\def2TZVP\C40H34O2P2\U1010977\01-Nov-2021
 \0\\# PBE1PBE/def2TZVP int=(grid=ultrafine) empiricaldispersion=GD3BJ 
 pop=nbo guess=read geom=check\\title\\0,1\P,0,-0.7528870539,1.68380090
 64,-0.0120400664\C,0,-0.0522731607,2.1599877643,-1.6323860978\C,0,-0.8
 548821797,1.9678037057,-2.7735069529\C,0,-0.3705586083,2.3466204611,-4
 .032078732\C,0,0.9071361833,2.9123409327,-4.1566621801\C,0,1.704681012
 3,3.1052572537,-3.019031892\C,0,1.2283150918,2.7326934023,-1.755868863
 7\H,0,1.8652421628,2.8519844618,-0.8737696544\H,0,1.2837452367,3.20120
 2874,-5.14355173\H,0,-1.8558488657,1.5366739697,-2.6562834953\C,0,-1.3
 975203415,3.2390735152,0.7240523047\C,0,-0.8537667062,4.4874380445,0.3
 73196979\C,0,-1.3052717576,5.6506575514,1.0120785517\C,0,-2.2910193594
 ,5.5720509954,2.0051032839\C,0,-2.8355401175,4.3270880616,2.35468812\C
 ,0,-2.3992449748,3.162853994,1.7119038838\H,0,-2.8476138167,2.19416671
 58,1.9530618028\H,0,-2.6437071754,6.4827914493,2.5000807047\H,0,-0.089
 4310248,4.5548311703,-0.4067911047\C,0,0.6828832506,1.2863073974,1.091
 1648976\C,0,0.7169415528,1.8770406203,2.3701082604\C,0,1.7516758296,1.
 581387868,3.2629782816\C,0,2.7781691214,0.7116968285,2.8879821586\C,0,
 2.7521101799,0.1177573583,1.6176503353\C,0,1.6988387385,0.3729404664,0
 .7076536252\C,0,1.7232106941,-0.2998638645,-0.6227461736\C,0,2.7960100
 469,-0.019319171,-1.5071330315\C,0,2.8351384698,-0.5822608421,-2.79276
 06394\C,0,1.8188162063,-1.4494980629,-3.1997088994\C,0,0.7775617308,-1
 .7796956477,-2.3281092318\C,0,0.7224877906,-1.2142440047,-1.0388794469
 \P,0,-0.7302529977,-1.6405683147,0.0307994156\C,0,-0.0607795212,-2.117
 1814823,1.6638644871\C,0,1.2322487798,-2.6538581555,1.815958721\C,0,1.
 6859550343,-3.0255850827,3.087595786\C,0,0.8527568832,-2.8692100663,4.
 2049965643\C,0,-0.4377745422,-2.3407625179,4.0516565456\C,0,-0.8992510
 332,-1.9615344314,2.7846560461\H,0,-1.9090417918,-1.5584563044,2.64534
 30809\H,0,1.2117013546,-3.1566893,5.1988378184\H,0,1.8962748522,-2.744
 7095103,0.9505831515\C,0,-1.3308369494,-3.2028022535,-0.7282000399\C,0
 ,-2.3188086384,-3.1424266155,-1.7307484604\C,0,-2.7193453742,-4.312121
 3841,-2.3869900858\C,0,-2.1524182165,-5.5468461699,-2.0369062887\C,0,-
 1.1799278941,-5.6098816558,-1.0297239754\C,0,-0.7644707982,-4.44107996
 38,-0.3769116916\H,0,-0.0105276498,-4.4961680094,0.4141431971\H,0,-2.4
 773226844,-6.4620133921,-2.5426306886\H,0,-2.7850720628,-2.1825188039,
 -1.9728053006\H,0,0.0078821311,-2.4845889172,-2.648512462\H,0,1.844722
 4969,-1.8823712119,-4.2047408125\H,0,3.6501456071,-0.3361488268,-3.477
 8911186\O,0,3.7519277478,0.8612456417,-1.053430552\C,0,5.1106677144,0.
 6214480034,-1.4797722023\H,0,5.6832113515,1.4424743305,-1.0156269794\H
 ,0,5.1948706806,0.7460194846,-2.576030379\C,0,5.6367571592,-0.75504593
 01,-1.0523380938\H,0,6.5166121235,-0.995619394,-1.676759078\H,0,4.8680
 094229,-1.5047332999,-1.3069147661\C,0,6.0327505961,-0.9045807874,0.43
 09676428\H,0,6.1447514306,-1.979680561,0.6593024855\H,0,7.0239065948,-
 0.4444868116,0.607568119\C,0,5.0787625992,-0.2678694541,1.4372255805\H
 ,0,5.4085085341,-0.5089890701,2.4672795396\O,0,3.7400683203,-0.7527278
 357,1.2127923606\H,0,5.0764478875,0.8328222233,1.331448846\H,0,3.59012
 37877,0.473977376,3.5808098998\H,0,1.7590866009,2.0390557933,4.2572377
 648\H,0,-0.0657273944,2.5784385785,2.666172915\H,0,-0.887292913,6.6215
 64427,0.7263620274\H,0,-3.6188354807,4.2616488402,3.1164484914\H,0,-0.
 994598568,2.1963867225,-4.9189117832\H,0,2.7067600809,3.5368331845,-3.
 113168343\H,0,-3.4924982118,-4.2592601912,-3.1600146582\H,0,-0.7444861
 627,-6.5730263812,-0.7437971787\H,0,2.6987677849,-3.4250534035,3.20403
 9865\H,0,-1.0895388646,-2.2191382827,4.9227940744\\Version=ES64L-G16Re
 vB.01\State=1-A\HF=-2376.3276108\RMSD=3.590e-09\Dipole=1.4759212,0.012
 7837,-0.1087741\Quadrupole=4.8732543,-7.4894217,2.6161675,0.1924067,-1
 .0199121,3.050825\PG=C01 [X(C40H34O2P2)]\\@


 MODELS ARE TO BE USED, NOT BELIEVED.

    -- PARAPHRASED BY H. THIEL IN "PRINCIPLES OF ECONOMETRICS"
 Job cpu time:       0 days  1 hours 50 minutes  5.0 seconds.
 Elapsed time:       0 days  0 hours  2 minutes  8.0 seconds.
 File lengths (MBytes):  RWF=   1275 Int=      0 D2E=      0 Chk=    192 Scr=      1
 Normal termination of Gaussian 16 at Mon Nov  1 19:17:51 2021.
