 Entering Gaussian System, Link 0=/uufs/chpc.utah.edu/sys/installdir/gaussian16/B01/E6B/g16/g16
 Input=R-C4-Tunephos_2_SPE.com
 Output=R-C4-Tunephos_2_SPE.log
 Initial command:
 /uufs/chpc.utah.edu/sys/installdir/gaussian16/B01/E6B/g16/l1.exe "/scratch/general/lustre/u1010977/3354026/notchpeak.peaks/Gau-189785.inp" -scrdir="/scratch/general/lustre/u1010977/3354026/notchpeak.peaks/"
 Entering Link 1 = /uufs/chpc.utah.edu/sys/installdir/gaussian16/B01/E6B/g16/l1.exe PID=    189787.
  
 Copyright (c) 1988-2017, Gaussian, Inc.  All Rights Reserved.
  
 This is part of the Gaussian(R) 16 program.  It is based on
 the Gaussian(R) 09 system (copyright 2009, Gaussian, Inc.),
 the Gaussian(R) 03 system (copyright 2003, Gaussian, Inc.),
 the Gaussian(R) 98 system (copyright 1998, Gaussian, Inc.),
 the Gaussian(R) 94 system (copyright 1995, Gaussian, Inc.),
 the Gaussian 92(TM) system (copyright 1992, Gaussian, Inc.),
 the Gaussian 90(TM) system (copyright 1990, Gaussian, Inc.),
 the Gaussian 88(TM) system (copyright 1988, Gaussian, Inc.),
 the Gaussian 86(TM) system (copyright 1986, Carnegie Mellon
 University), and the Gaussian 82(TM) system (copyright 1983,
 Carnegie Mellon University). Gaussian is a federally registered
 trademark of Gaussian, Inc.
  
 This software contains proprietary and confidential information,
 including trade secrets, belonging to Gaussian, Inc.
  
 This software is provided under written license and may be
 used, copied, transmitted, or stored only in accord with that
 written license.
  
 The following legend is applicable only to US Government
 contracts under FAR:
  
                    RESTRICTED RIGHTS LEGEND
  
 Use, reproduction and disclosure by the US Government is
 subject to restrictions as set forth in subparagraphs (a)
 and (c) of the Commercial Computer Software - Restricted
 Rights clause in FAR 52.227-19.
  
 Gaussian, Inc.
 340 Quinnipiac St., Bldg. 40, Wallingford CT 06492
  
  
 ---------------------------------------------------------------
 Warning -- This program may not be used in any manner that
 competes with the business of Gaussian, Inc. or will provide
 assistance to any competitor of Gaussian, Inc.  The licensee
 of this program is prohibited from giving any competitor of
 Gaussian, Inc. access to this program.  By using this program,
 the user acknowledges that Gaussian, Inc. is engaged in the
 business of creating and licensing software in the field of
 computational chemistry and represents and warrants to the
 licensee that it is not a competitor of Gaussian, Inc. and that
 it will not use this program in any manner prohibited above.
 ---------------------------------------------------------------
  

 Cite this work as:
 Gaussian 16, Revision B.01,
 M. J. Frisch, G. W. Trucks, H. B. Schlegel, G. E. Scuseria, 
 M. A. Robb, J. R. Cheeseman, G. Scalmani, V. Barone, 
 G. A. Petersson, H. Nakatsuji, X. Li, M. Caricato, A. V. Marenich, 
 J. Bloino, B. G. Janesko, R. Gomperts, B. Mennucci, H. P. Hratchian, 
 J. V. Ortiz, A. F. Izmaylov, J. L. Sonnenberg, D. Williams-Young, 
 F. Ding, F. Lipparini, F. Egidi, J. Goings, B. Peng, A. Petrone, 
 T. Henderson, D. Ranasinghe, V. G. Zakrzewski, J. Gao, N. Rega, 
 G. Zheng, W. Liang, M. Hada, M. Ehara, K. Toyota, R. Fukuda, 
 J. Hasegawa, M. Ishida, T. Nakajima, Y. Honda, O. Kitao, H. Nakai, 
 T. Vreven, K. Throssell, J. A. Montgomery, Jr., J. E. Peralta, 
 F. Ogliaro, M. J. Bearpark, J. J. Heyd, E. N. Brothers, K. N. Kudin, 
 V. N. Staroverov, T. A. Keith, R. Kobayashi, J. Normand, 
 K. Raghavachari, A. P. Rendell, J. C. Burant, S. S. Iyengar, 
 J. Tomasi, M. Cossi, J. M. Millam, M. Klene, C. Adamo, R. Cammi, 
 J. W. Ochterski, R. L. Martin, K. Morokuma, O. Farkas, 
 J. B. Foresman, and D. J. Fox, Gaussian, Inc., Wallingford CT, 2016.
 
 ******************************************
 Gaussian 16:  ES64L-G16RevB.01 20-Dec-2017
                 1-Nov-2021 
 ******************************************
 %NProcShared=52
 Will use up to   52 processors via shared memory.
 %mem=18GB
 %chk=R-C4-Tunephos_2_SPE.chk
 ----------------------------------------------------------------------
 # PBE1PBE gen pseudo=read int=(grid=ultrafine) empiricaldispersion=GD3
 BJ nmr=giao
 ----------------------------------------------------------------------
 1/38=1,172=1/1;
 2/12=2,17=6,18=5,40=1/2;
 3/5=7,11=2,16=1,17=8,25=1,30=1,74=-13,75=-5,124=41/1,2,3,8;
 4//1;
 5/5=2,38=5/2;
 8/6=1,10=90,11=11/1;
 10/13=100,45=16/2;
 6/7=2,8=2,9=2,10=2,28=1/1;
 99/9=1/99;
 -----
 title
 -----
 Symbolic Z-matrix:
 Charge =  0 Multiplicity = 1
 Pd                   -2.3083    0.01034  -0.00713 
 P                    -0.75289   1.6838   -0.01204 
 C                    -0.05227   2.15999  -1.63239 
 C                    -0.85488   1.9678   -2.77351 
 C                    -0.37056   2.34662  -4.03208 
 C                     0.90714   2.91234  -4.15666 
 C                     1.70468   3.10526  -3.01903 
 C                     1.22832   2.73269  -1.75587 
 H                     1.86524   2.85198  -0.87377 
 H                     1.28375   3.2012   -5.14355 
 H                    -1.85585   1.53667  -2.65628 
 C                    -1.39752   3.23907   0.72405 
 C                    -0.85377   4.48744   0.3732 
 C                    -1.30527   5.65066   1.01208 
 C                    -2.29102   5.57205   2.0051 
 C                    -2.83554   4.32709   2.35469 
 C                    -2.39924   3.16285   1.7119 
 H                    -2.84761   2.19417   1.95306 
 H                    -2.64371   6.48279   2.50008 
 H                    -0.08943   4.55483  -0.40679 
 C                     0.68288   1.28631   1.09116 
 C                     0.71694   1.87704   2.37011 
 C                     1.75168   1.58139   3.26298 
 C                     2.77817   0.7117    2.88798 
 C                     2.75211   0.11776   1.61765 
 C                     1.69884   0.37294   0.70765 
 C                     1.72321  -0.29986  -0.62275 
 C                     2.79601  -0.01932  -1.50713 
 C                     2.83514  -0.58226  -2.79276 
 C                     1.81882  -1.4495   -3.19971 
 C                     0.77756  -1.7797   -2.32811 
 C                     0.72249  -1.21424  -1.03888 
 P                    -0.73025  -1.64057   0.0308 
 C                    -0.06078  -2.11718   1.66386 
 C                     1.23225  -2.65386   1.81596 
 C                     1.68596  -3.02559   3.0876 
 C                     0.85276  -2.86921   4.205 
 C                    -0.43777  -2.34076   4.05166 
 C                    -0.89925  -1.96153   2.78466 
 H                    -1.90904  -1.55846   2.64534 
 H                     1.2117   -3.15669   5.19884 
 H                     1.89627  -2.74471   0.95058 
 C                    -1.33084  -3.2028   -0.7282 
 C                    -2.31881  -3.14243  -1.73075 
 C                    -2.71935  -4.31212  -2.38699 
 C                    -2.15242  -5.54685  -2.03691 
 C                    -1.17993  -5.60988  -1.02972 
 C                    -0.76447  -4.44108  -0.37691 
 H                    -0.01053  -4.49617   0.41414 
 H                    -2.47732  -6.46201  -2.54263 
 H                    -2.78507  -2.18252  -1.97281 
 H                     0.00788  -2.48459  -2.64851 
 H                     1.84472  -1.88237  -4.20474 
 H                     3.65015  -0.33615  -3.47789 
 O                     3.75193   0.86125  -1.05343 
 C                     5.11067   0.62145  -1.47977 
 H                     5.68321   1.44247  -1.01563 
 H                     5.19487   0.74602  -2.57603 
 C                     5.63676  -0.75505  -1.05234 
 H                     6.51661  -0.99562  -1.67676 
 H                     4.86801  -1.50473  -1.30691 
 C                     6.03275  -0.90458   0.43097 
 H                     6.14475  -1.97968   0.6593 
 H                     7.02391  -0.44449   0.60757 
 C                     5.07876  -0.26787   1.43723 
 H                     5.40851  -0.50899   2.46728 
 O                     3.74007  -0.75273   1.21279 
 H                     5.07645   0.83282   1.33145 
 H                     3.59012   0.47398   3.58081 
 H                     1.75909   2.03906   4.25724 
 H                    -0.06573   2.57844   2.66617 
 Cl                   -3.95943   1.59064  -0.69004 
 Cl                   -3.95274  -1.59353   0.63621 
 H                    -0.88729   6.62156   0.72636 
 H                    -3.61884   4.26165   3.11645 
 H                    -0.9946    2.19639  -4.91891 
 H                     2.70676   3.53683  -3.11317 
 H                    -3.4925   -4.25926  -3.16001 
 H                    -0.74449  -6.57303  -0.7438 
 H                     2.69877  -3.42505   3.20404 
 H                    -1.08954  -2.21914   4.92279 
 
 Stoichiometry    C40H34Cl2O2P2Pd
 Framework group  C1[X(C40H34Cl2O2P2Pd)]
 Deg. of freedom   237
 Full point group                 C1      NOp   1
 Largest Abelian subgroup         C1      NOp   1
 Largest concise Abelian subgroup C1      NOp   1
                         Standard orientation:                         
 ---------------------------------------------------------------------
 Center     Atomic      Atomic             Coordinates (Angstroms)
 Number     Number       Type             X           Y           Z
 ---------------------------------------------------------------------
      1         46           0        2.161744    0.791238   -0.054359
      2         15           0        1.288467   -1.319944   -0.045755
      3          6           0        0.757901   -2.004443   -1.656064
      4          6           0        1.414279   -1.539659   -2.812099
      5          6           0        1.061375   -2.058813   -4.064302
      6          6           0        0.058727   -3.034550   -4.167738
      7          6           0       -0.592738   -3.498239   -3.015313
      8          6           0       -0.244993   -2.987740   -1.758423
      9          1           0       -0.778053   -3.325358   -0.864070
     10          1           0       -0.217886   -3.432865   -5.149602
     11          1           0        2.204468   -0.786633   -2.711598
     12          6           0        2.453438   -2.555126    0.656687
     13          6           0        2.370924   -3.913396    0.302464
     14          6           0        3.215737   -4.848254    0.916824
     15          6           0        4.136519   -4.434301    1.888822
     16          6           0        4.220907   -3.078945    2.241716
     17          6           0        3.389891   -2.137811    1.623133
     18          1           0        3.477908   -1.074489    1.866333
     19          1           0        4.797068   -5.166510    2.364620
     20          1           0        1.658961   -4.240368   -0.461297
     21          6           0       -0.167778   -1.453089    1.093596
     22          6           0        0.038341   -2.023533    2.365575
     23          6           0       -1.011917   -2.111263    3.284577
     24          6           0       -2.286376   -1.653250    2.943036
     25          6           0       -2.500892   -1.082628    1.679881
     26          6           0       -1.447818   -0.950436    0.743851
     27          6           0       -1.738597   -0.323287   -0.577268
     28          6           0       -2.667753   -0.957286   -1.441246
     29          6           0       -2.932901   -0.438411   -2.718641
     30          6           0       -2.293577    0.730684   -3.137088
     31          6           0       -1.411617    1.400247   -2.284586
     32          6           0       -1.130565    0.884574   -1.003972
     33         15           0        0.108271    1.787110    0.038685
     34          6           0       -0.644501    1.993588    1.691850
     35          6           0       -2.039305    2.044425    1.878975
     36          6           0       -2.562355    2.229367    3.164785
     37          6           0       -1.699384    2.369379    4.261569
     38          6           0       -0.309822    2.325387    4.073355
     39          6           0        0.223240    2.136110    2.791917
     40          1           0        1.306403    2.111520    2.625452
     41          1           0       -2.111187    2.509550    5.266544
     42          1           0       -2.714646    1.901095    1.029605
     43          6           0        0.106829    3.463678   -0.713962
     44          6           0        1.028443    3.755977   -1.738669
     45          6           0        0.979136    4.994463   -2.389045
     46          6           0        0.025897    5.952157   -2.011331
     47          6           0       -0.882027    5.667738   -0.982299
     48          6           0       -0.847094    4.424892   -0.335012
     49          1           0       -1.552896    4.210177    0.473056
     50          1           0       -0.001692    6.925141   -2.512722
     51          1           0        1.794174    3.020233   -2.002777
     52          1           0       -0.944541    2.330762   -2.613099
     53          1           0       -2.493955    1.131196   -4.135877
     54          1           0       -3.627604   -0.950916   -3.388670
     55          8           0       -3.244674   -2.117963   -0.977552
     56          6           0       -4.611859   -2.366000   -1.370905
     57          1           0       -4.850148   -3.337070   -0.904469
     58          1           0       -4.674600   -2.507843   -2.466503
     59          6           0       -5.574384   -1.261504   -0.915011
     60          1           0       -6.498155   -1.340836   -1.516904
     61          1           0       -5.122170   -0.289597   -1.177144
     62          6           0       -5.960556   -1.265445    0.578382
     63          1           0       -6.434950   -0.298014    0.822405
     64          1           0       -6.724122   -2.043336    0.771038
     65          6           0       -4.819582   -1.532927    1.555461
     66          1           0       -5.186952   -1.426145    2.595422
     67          8           0       -3.740273   -0.610299    1.307650
     68          1           0       -4.435957   -2.563116    1.436053
     69          1           0       -3.112703   -1.716700    3.656443
     70          1           0       -0.834366   -2.546600    4.273023
     71          1           0        1.023689   -2.408669    2.635655
     72         17           0        4.242972   -0.110416   -0.792915
     73         17           0        3.158626    2.865808    0.572438
     74          1           0        3.155853   -5.902871    0.628384
     75          1           0        4.950859   -2.747113    2.986814
     76          1           0        1.571446   -1.696681   -4.962721
     77          1           0       -1.383238   -4.252162   -3.092716
     78          1           0        1.702606    5.217902   -3.179483
     79          1           0       -1.618919    6.417105   -0.674973
     80          1           0       -3.647659    2.249609    3.308411
     81          1           0        0.364914    2.435577    4.928375
 ---------------------------------------------------------------------
 Rotational constants (GHZ):           0.0669131           0.0629516           0.0505913
 General basis read from cards:  (5D, 7F)
 ======================================================================================================
                                       Pseudopotential Parameters
 ======================================================================================================
  Center     Atomic      Valence      Angular      Power
  Number     Number     Electrons     Momentum     of R      Exponent        Coefficient   SO-Coeffient
 ======================================================================================================
    1         46           18
                                      G and up 
                                                     2        1.0000000        0.00000000    0.00000000
                                      S - G
                                                     2       12.4300000      240.22904000    0.00000000
                                                     2        6.1707590       35.17194300    0.00000000
                                      P - G
                                                     2       11.0800000      170.41727600    0.00000000
                                                     2        5.8295540       28.47213300    0.00000000
                                      D - G
                                                     2        9.5100000       69.01384500    0.00000000
                                                     2        4.1397810       11.75086200    0.00000000
                                      F - G
                                                     2       13.2700000      -31.92955400    0.00000000
                                                     2        6.6300000       -5.39821700    0.00000000
    2         15
                                   No pseudopotential on this center.
    3          6
                                   No pseudopotential on this center.
    4          6
                                   No pseudopotential on this center.
    5          6
                                   No pseudopotential on this center.
    6          6
                                   No pseudopotential on this center.
    7          6
                                   No pseudopotential on this center.
    8          6
                                   No pseudopotential on this center.
    9          1
                                   No pseudopotential on this center.
   10          1
                                   No pseudopotential on this center.
   11          1
                                   No pseudopotential on this center.
   12          6
                                   No pseudopotential on this center.
   13          6
                                   No pseudopotential on this center.
   14          6
                                   No pseudopotential on this center.
   15          6
                                   No pseudopotential on this center.
   16          6
                                   No pseudopotential on this center.
   17          6
                                   No pseudopotential on this center.
   18          1
                                   No pseudopotential on this center.
   19          1
                                   No pseudopotential on this center.
   20          1
                                   No pseudopotential on this center.
   21          6
                                   No pseudopotential on this center.
   22          6
                                   No pseudopotential on this center.
   23          6
                                   No pseudopotential on this center.
   24          6
                                   No pseudopotential on this center.
   25          6
                                   No pseudopotential on this center.
   26          6
                                   No pseudopotential on this center.
   27          6
                                   No pseudopotential on this center.
   28          6
                                   No pseudopotential on this center.
   29          6
                                   No pseudopotential on this center.
   30          6
                                   No pseudopotential on this center.
   31          6
                                   No pseudopotential on this center.
   32          6
                                   No pseudopotential on this center.
   33         15
                                   No pseudopotential on this center.
   34          6
                                   No pseudopotential on this center.
   35          6
                                   No pseudopotential on this center.
   36          6
                                   No pseudopotential on this center.
   37          6
                                   No pseudopotential on this center.
   38          6
                                   No pseudopotential on this center.
   39          6
                                   No pseudopotential on this center.
   40          1
                                   No pseudopotential on this center.
   41          1
                                   No pseudopotential on this center.
   42          1
                                   No pseudopotential on this center.
   43          6
                                   No pseudopotential on this center.
   44          6
                                   No pseudopotential on this center.
   45          6
                                   No pseudopotential on this center.
   46          6
                                   No pseudopotential on this center.
   47          6
                                   No pseudopotential on this center.
   48          6
                                   No pseudopotential on this center.
   49          1
                                   No pseudopotential on this center.
   50          1
                                   No pseudopotential on this center.
   51          1
                                   No pseudopotential on this center.
   52          1
                                   No pseudopotential on this center.
   53          1
                                   No pseudopotential on this center.
   54          1
                                   No pseudopotential on this center.
   55          8
                                   No pseudopotential on this center.
   56          6
                                   No pseudopotential on this center.
   57          1
                                   No pseudopotential on this center.
   58          1
                                   No pseudopotential on this center.
   59          6
                                   No pseudopotential on this center.
   60          1
                                   No pseudopotential on this center.
   61          1
                                   No pseudopotential on this center.
   62          6
                                   No pseudopotential on this center.
   63          1
                                   No pseudopotential on this center.
   64          1
                                   No pseudopotential on this center.
   65          6
                                   No pseudopotential on this center.
   66          1
                                   No pseudopotential on this center.
   67          8
                                   No pseudopotential on this center.
   68          1
                                   No pseudopotential on this center.
   69          1
                                   No pseudopotential on this center.
   70          1
                                   No pseudopotential on this center.
   71          1
                                   No pseudopotential on this center.
   72         17
                                   No pseudopotential on this center.
   73         17
                                   No pseudopotential on this center.
   74          1
                                   No pseudopotential on this center.
   75          1
                                   No pseudopotential on this center.
   76          1
                                   No pseudopotential on this center.
   77          1
                                   No pseudopotential on this center.
   78          1
                                   No pseudopotential on this center.
   79          1
                                   No pseudopotential on this center.
   80          1
                                   No pseudopotential on this center.
   81          1
                                   No pseudopotential on this center.
 ======================================================================================================
 There are  1923 symmetry adapted cartesian basis functions of A   symmetry.
 There are  1690 symmetry adapted basis functions of A   symmetry.
  1690 basis functions,  2755 primitive gaussians,  1923 cartesian basis functions
   186 alpha electrons      186 beta electrons
       nuclear repulsion energy      7744.3559760348 Hartrees.
 NAtoms=   81 NActive=   81 NUniq=   81 SFac= 1.00D+00 NAtFMM=   60 NAOKFM=T Big=T
 Integral buffers will be    131072 words long.
 Raffenetti 2 integral format.
 Two-electron integral symmetry is turned on.
 Nuclear repulsion after empirical dispersion term =     7744.2004934737 Hartrees.
 One-electron integrals computed using PRISM.
   1 Symmetry operations used in ECPInt.
 ECPInt:  NShTT=  220780 NPrTT=  689732 LenC2=  176605 LenP2D=  362999.
 LDataN:  DoStor=T MaxTD1= 7 Len=  274
 Number of processors reduced to  22 by ecpmxn.
 NBasis=  1690 RedAO= T EigKep=  3.39D-06  NBF=  1690
 NBsUse=  1690 1.00D-06 EigRej= -1.00D+00 NBFU=  1690
 Defaulting to unpruned grid for atomic number  46.
 ExpMin= 1.60D-02 ExpMax= 6.95D+04 ExpMxC= 2.37D+03 IAcc=3 IRadAn=         5 AccDes= 0.00D+00
 Harris functional with IExCor= 1009 and IRadAn=       5 diagonalized for initial guess.
 HarFok:  IExCor= 1009 AccDes= 0.00D+00 IRadAn=         5 IDoV= 1 UseB2=F ITyADJ=14
 ICtDFT=  3500011 ScaDFX=  1.000000  1.000000  1.000000  1.000000
 Defaulting to unpruned grid for atomic number  46.
 FoFCou: FMM=F IPFlag=           0 FMFlag=      100000 FMFlg1=        2001
         NFxFlg=           0 DoJE=T BraDBF=F KetDBF=T FulRan=T
         wScrn=  0.000000 ICntrl=       500 IOpCl=  0 I1Cent=   200000004 NGrid=           0
         NMat0=    1 NMatS0=      1 NMatT0=    0 NMatD0=    1 NMtDS0=    0 NMtDT0=    0
 Petite list used in FoFCou.
 Requested convergence on RMS density matrix=1.00D-08 within 128 cycles.
 Requested convergence on MAX density matrix=1.00D-06.
 Requested convergence on             energy=1.00D-06.
 No special actions if energy rises.
 Defaulting to unpruned grid for atomic number  46.
 Defaulting to unpruned grid for atomic number  46.
 Defaulting to unpruned grid for atomic number  46.
 Defaulting to unpruned grid for atomic number  46.
 Defaulting to unpruned grid for atomic number  46.
 Defaulting to unpruned grid for atomic number  46.
 Defaulting to unpruned grid for atomic number  46.
 Defaulting to unpruned grid for atomic number  46.
 Defaulting to unpruned grid for atomic number  46.
 Defaulting to unpruned grid for atomic number  46.
 Defaulting to unpruned grid for atomic number  46.
 Defaulting to unpruned grid for atomic number  46.
 Defaulting to unpruned grid for atomic number  46.
 Defaulting to unpruned grid for atomic number  46.
 Defaulting to unpruned grid for atomic number  46.
 Defaulting to unpruned grid for atomic number  46.
 Defaulting to unpruned grid for atomic number  46.
 Defaulting to unpruned grid for atomic number  46.
 Defaulting to unpruned grid for atomic number  46.
 Defaulting to unpruned grid for atomic number  46.
 Defaulting to unpruned grid for atomic number  46.
 Defaulting to unpruned grid for atomic number  46.
 Defaulting to unpruned grid for atomic number  46.
 Defaulting to unpruned grid for atomic number  46.
 Defaulting to unpruned grid for atomic number  46.
 Defaulting to unpruned grid for atomic number  46.
 Defaulting to unpruned grid for atomic number  46.
 Defaulting to unpruned grid for atomic number  46.
 Defaulting to unpruned grid for atomic number  46.
 Defaulting to unpruned grid for atomic number  46.
 Defaulting to unpruned grid for atomic number  46.
 Defaulting to unpruned grid for atomic number  46.
 Defaulting to unpruned grid for atomic number  46.
 Defaulting to unpruned grid for atomic number  46.
 Defaulting to unpruned grid for atomic number  46.
 Defaulting to unpruned grid for atomic number  46.
 Defaulting to unpruned grid for atomic number  46.
 Defaulting to unpruned grid for atomic number  46.
 Defaulting to unpruned grid for atomic number  46.
 Defaulting to unpruned grid for atomic number  46.
 Defaulting to unpruned grid for atomic number  46.
 Defaulting to unpruned grid for atomic number  46.
 Defaulting to unpruned grid for atomic number  46.
 Defaulting to unpruned grid for atomic number  46.
 Defaulting to unpruned grid for atomic number  46.
 Defaulting to unpruned grid for atomic number  46.
 Defaulting to unpruned grid for atomic number  46.
 Defaulting to unpruned grid for atomic number  46.
 Defaulting to unpruned grid for atomic number  46.
 Defaulting to unpruned grid for atomic number  46.
 Defaulting to unpruned grid for atomic number  46.
 Defaulting to unpruned grid for atomic number  46.
 EnCoef did    10 forward-backward iterations
 EnCoef did   100 forward-backward iterations
 EnCoef did     7 forward-backward iterations
 SCF Done:  E(RPBE1PBE) =  -3424.52027175     A.U. after   19 cycles
            NFock= 19  Conv=0.92D-08     -V/T= 2.0279
 DoSCS=F DFT=T ScalE2(SS,OS)=  1.000000  1.000000
 Range of M.O.s used for correlation:     1  1690
 NBasis=  1690 NAE=   186 NBE=   186 NFC=     0 NFV=     0
 NROrb=   1690 NOA=   186 NOB=   186 NVA=  1504 NVB=  1504

 **** Warning!!: The largest alpha MO coefficient is  0.47975933D+02

          Differentiating once with respect to magnetic field using GIAOs.
          Electric field/nuclear overlap derivatives assumed to be zero.
 Defaulting to unpruned grid for atomic number  46.
 FoFCou: FMM=F IPFlag=           0 FMFlag=      100000 FMFlg1=        2001
         NFxFlg=           0 DoJE=F BraDBF=F KetDBF=T FulRan=T
         wScrn=  0.000000 ICntrl=      6100 IOpCl=  0 I1Cent=           7 NGrid=          81
         NMat0=    1 NMatS0=      1 NMatT0=    0 NMatD0=    1 NMtDS0=    0 NMtDT0=    0
 Symmetry not used in FoFCou.
   1 Symmetry operations used in ECPInt.
 ECPInt:  NShTT=  220780 NPrTT=  689732 LenC2=  220781 LenP2D=  689732.
 LDataN:  DoStor=T MaxTD1= 8 Len=  415
 Number of processors reduced to  14 by ecpmxn.
 FoFJK:  IHMeth= 1 ICntrl=    6127 DoSepK=F KAlg= 0 I1Cent=           0 FoldK=F
 IRaf=         1 NMat=       1 IRICut=       1 DoRegI=T DoRafI=F ISym2E= 0 IDoP0=0 IntGTp=1.
 Defaulting to unpruned grid for atomic number  46.
 Defaulting to unpruned grid for atomic number  46.
 Defaulting to unpruned grid for atomic number  46.
 Defaulting to unpruned grid for atomic number  46.
 Defaulting to unpruned grid for atomic number  46.
 Defaulting to unpruned grid for atomic number  46.
 Defaulting to unpruned grid for atomic number  46.
 Defaulting to unpruned grid for atomic number  46.
 Defaulting to unpruned grid for atomic number  46.
 Defaulting to unpruned grid for atomic number  46.
 Defaulting to unpruned grid for atomic number  46.
 Defaulting to unpruned grid for atomic number  46.
 Defaulting to unpruned grid for atomic number  46.
 Defaulting to unpruned grid for atomic number  46.
 Defaulting to unpruned grid for atomic number  46.
 Defaulting to unpruned grid for atomic number  46.
 Defaulting to unpruned grid for atomic number  46.
 Defaulting to unpruned grid for atomic number  46.
 Defaulting to unpruned grid for atomic number  46.
 Defaulting to unpruned grid for atomic number  46.
 Defaulting to unpruned grid for atomic number  46.
 Defaulting to unpruned grid for atomic number  46.
 Defaulting to unpruned grid for atomic number  46.
 Defaulting to unpruned grid for atomic number  46.
 Defaulting to unpruned grid for atomic number  46.
 Defaulting to unpruned grid for atomic number  46.
 Defaulting to unpruned grid for atomic number  46.
 Defaulting to unpruned grid for atomic number  46.
 Defaulting to unpruned grid for atomic number  46.
 Defaulting to unpruned grid for atomic number  46.
 Defaulting to unpruned grid for atomic number  46.
 Defaulting to unpruned grid for atomic number  46.
 Defaulting to unpruned grid for atomic number  46.
 Defaulting to unpruned grid for atomic number  46.
 Defaulting to unpruned grid for atomic number  46.
 Defaulting to unpruned grid for atomic number  46.
 Defaulting to unpruned grid for atomic number  46.
 Defaulting to unpruned grid for atomic number  46.
 Defaulting to unpruned grid for atomic number  46.
 Defaulting to unpruned grid for atomic number  46.
 Defaulting to unpruned grid for atomic number  46.
 Defaulting to unpruned grid for atomic number  46.
 Defaulting to unpruned grid for atomic number  46.
 Defaulting to unpruned grid for atomic number  46.
 Defaulting to unpruned grid for atomic number  46.
 Defaulting to unpruned grid for atomic number  46.
 Defaulting to unpruned grid for atomic number  46.
 Defaulting to unpruned grid for atomic number  46.
 Defaulting to unpruned grid for atomic number  46.
 Defaulting to unpruned grid for atomic number  46.
 Defaulting to unpruned grid for atomic number  46.
 Defaulting to unpruned grid for atomic number  46.
          There are     3 degrees of freedom in the 1st order CPHF.  IDoFFX=0 NUNeed=     3.
      3 vectors produced by pass  0 Test12= 9.32D-12 3.33D-08 XBig12= 2.09D+02 2.48D+00.
 AX will form     3 AO Fock derivatives at one time.
      3 vectors produced by pass  1 Test12= 9.32D-12 3.33D-08 XBig12= 1.11D+00 2.86D-01.
      3 vectors produced by pass  2 Test12= 9.32D-12 3.33D-08 XBig12= 1.02D-02 3.12D-02.
      3 vectors produced by pass  3 Test12= 9.32D-12 3.33D-08 XBig12= 2.53D-04 7.72D-03.
      3 vectors produced by pass  4 Test12= 9.32D-12 3.33D-08 XBig12= 1.55D-06 3.72D-04.
      3 vectors produced by pass  5 Test12= 9.32D-12 3.33D-08 XBig12= 9.83D-09 3.35D-05.
      3 vectors produced by pass  6 Test12= 9.32D-12 3.33D-08 XBig12= 1.49D-10 3.94D-06.
      3 vectors produced by pass  7 Test12= 9.32D-12 3.33D-08 XBig12= 1.49D-12 3.25D-07.
 InvSVY:  IOpt=1 It=  1 EMax= 1.78D-15
 Solved reduced A of dimension    24 with     3 vectors.
 Calculating GIAO nuclear magnetic shielding tensors.
 SCF GIAO Magnetic shielding tensor (ppm):
      1  Pd   Isotropic =  -164.8867   Anisotropy =   280.2382
   XX=    14.2586   YX=    17.2260   ZX=   -35.1523
   XY=    15.0680   YY=   -14.3913   ZY=    44.2188
   XZ=   -55.3519   YZ=    97.2614   ZZ=  -494.5273
   Eigenvalues:  -508.9730    -7.6258    21.9388
      2  P    Isotropic =   237.9551   Anisotropy =   121.8449
   XX=   216.5285   YX=    37.3056   ZX=     6.9620
   XY=    64.4715   YY=   293.3073   ZY=     5.6618
   XZ=    34.5661   YZ=    -9.2448   ZZ=   204.0296
   Eigenvalues:   177.0366   217.6437   319.1850
      3  C    Isotropic =    50.6893   Anisotropy =   180.5968
   XX=    92.2125   YX=   -76.1193   ZX=    -3.3581
   XY=   -80.1607   YY=    89.6079   ZY=   -35.6739
   XZ=   -11.2305   YZ=   -35.8421   ZZ=   -29.7526
   Eigenvalues:   -47.2037    28.1845   171.0871
      4  C    Isotropic =    38.7816   Anisotropy =   202.2915
   XX=    47.2109   YX=  -120.2900   ZX=    -0.8581
   XY=  -125.3490   YY=    53.3429   ZY=    -4.0185
   XZ=     9.6349   YZ=   -12.4348   ZZ=    15.7910
   Eigenvalues:   -72.6577    15.3599   173.6426
      5  C    Isotropic =    50.9600   Anisotropy =   189.6094
   XX=    81.0303   YX=   -86.1421   ZX=    46.1058
   XY=   -84.8318   YY=    98.4597   ZY=    16.5991
   XZ=    45.7453   YZ=    17.8009   ZZ=   -26.6101
   Eigenvalues:   -60.3876    35.9013   177.3663
      6  C    Isotropic =    48.8239   Anisotropy =   193.2335
   XX=    94.8660   YX=   -80.8899   ZX=   -10.8840
   XY=   -81.1726   YY=    94.2830   ZY=   -42.8774
   XZ=   -12.4191   YZ=   -39.4100   ZZ=   -42.6772
   Eigenvalues:   -62.7853    31.6109   177.6462
      7  C    Isotropic =    53.7768   Anisotropy =   185.8123
   XX=    53.9101   YX=  -116.9698   ZX=     2.0006
   XY=  -117.2400   YY=    65.3408   ZY=   -10.0266
   XZ=     2.9498   YZ=   -13.6770   ZZ=    42.0794
   Eigenvalues:   -58.0274    41.7061   177.6516
      8  C    Isotropic =    44.1871   Anisotropy =   201.3477
   XX=    69.9971   YX=   -95.5460   ZX=    47.1055
   XY=   -89.6723   YY=    96.3245   ZY=    19.9702
   XZ=    49.4463   YZ=    14.7303   ZZ=   -33.7602
   Eigenvalues:   -72.1684    26.3108   178.4189
      9  H    Isotropic =    23.8372   Anisotropy =     9.8529
   XX=    24.6746   YX=     0.5600   ZX=     4.7168
   XY=     0.1140   YY=    25.5540   ZY=     7.0019
   XZ=     1.7599   YZ=     4.4899   ZZ=    21.2830
   Eigenvalues:    16.5103    24.5955    30.4058
     10  H    Isotropic =    23.8888   Anisotropy =     3.5128
   XX=    23.3222   YX=     2.0660   ZX=    -2.0190
   XY=     2.1455   YY=    23.6087   ZY=     0.7603
   XZ=    -1.5156   YZ=     0.4390   ZZ=    24.7356
   Eigenvalues:    20.6293    24.8065    26.2307
     11  H    Isotropic =    21.9694   Anisotropy =    11.4082
   XX=    19.3991   YX=     1.7908   ZX=     0.5847
   XY=    -0.2209   YY=    17.6127   ZY=     3.1941
   XZ=     0.6071   YZ=     2.2494   ZZ=    28.8963
   Eigenvalues:    16.8319    19.5014    29.5748
     12  C    Isotropic =    44.4385   Anisotropy =   182.3830
   XX=    64.0664   YX=    43.5703   ZX=   -80.0148
   XY=    45.2833   YY=    -5.6044   ZY=    -0.6735
   XZ=  -102.1932   YZ=     2.9227   ZZ=    74.8536
   Eigenvalues:   -49.4376    16.7260   166.0272
     13  C    Isotropic =    47.3356   Anisotropy =   193.2338
   XX=    57.8722   YX=     2.8969   ZX=  -113.1706
   XY=    -6.6115   YY=    22.2190   ZY=   -38.9547
   XZ=  -108.9218   YZ=   -42.9673   ZZ=    61.9157
   Eigenvalues:   -62.2786    28.1273   176.1581
     14  C    Isotropic =    53.5406   Anisotropy =   182.0536
   XX=   102.8138   YX=     7.3540   ZX=   -67.5747
   XY=     7.3465   YY=   -47.1283   ZY=   -40.1858
   XZ=   -64.7250   YZ=   -36.9542   ZZ=   104.9364
   Eigenvalues:   -56.8575    42.5697   174.9097
     15  C    Isotropic =    49.3743   Anisotropy =   190.2176
   XX=    67.2167   YX=    51.2642   ZX=   -93.4501
   XY=    51.2952   YY=    -6.0512   ZY=    11.0884
   XZ=   -96.2441   YZ=    13.2136   ZZ=    86.9572
   Eigenvalues:   -60.0068    31.9436   176.1860
     16  C    Isotropic =    52.7233   Anisotropy =   184.4601
   XX=    60.4083   YX=    -4.4054   ZX=  -110.1989
   XY=    -5.9209   YY=    33.2142   ZY=   -33.5903
   XZ=  -109.8514   YZ=   -35.4066   ZZ=    64.5473
   Eigenvalues:   -56.4103    38.8835   175.6967
     17  C    Isotropic =    36.3074   Anisotropy =   201.2193
   XX=    76.0846   YX=     3.5502   ZX=   -86.6541
   XY=     7.3249   YY=   -62.3466   ZY=   -41.0648
   XZ=   -71.0006   YZ=   -43.4669   ZZ=    95.1844
   Eigenvalues:   -74.6289    13.0976   170.4537
     18  H    Isotropic =    22.2510   Anisotropy =    13.3075
   XX=    23.3197   YX=    -1.8174   ZX=     5.7915
   XY=    -2.7991   YY=    19.9941   ZY=    -6.1906
   XZ=     3.7335   YZ=    -5.1190   ZZ=    23.4393
   Eigenvalues:    15.6287    20.0017    31.1227
     19  H    Isotropic =    23.8009   Anisotropy =     3.5534
   XX=    23.0267   YX=     0.0334   ZX=     2.7714
   XY=    -0.4566   YY=    25.6082   ZY=     0.8522
   XZ=     2.1539   YZ=     1.2749   ZZ=    22.7678
   Eigenvalues:    20.2716    24.9613    26.1698
     20  H    Isotropic =    24.2634   Anisotropy =    14.5009
   XX=    22.0293   YX=    -5.5245   ZX=     5.4637
   XY=    -5.5101   YY=    30.0563   ZY=    -3.5597
   XZ=     1.7338   YZ=    -1.0988   ZZ=    20.7044
   Eigenvalues:    17.3483    21.5111    33.9306
     21  C    Isotropic =    42.0067   Anisotropy =   183.4493
   XX=    -9.8840   YX=    33.1728   ZX=    44.9249
   XY=    27.2929   YY=   141.4153   ZY=    36.2948
   XZ=    25.0092   YZ=    58.7561   ZZ=    -5.5112
   Eigenvalues:   -43.5118     5.2256   164.3062
     22  C    Isotropic =    49.6958   Anisotropy =   190.9635
   XX=   -27.7320   YX=    57.7277   ZX=    -5.5474
   XY=    58.8591   YY=   136.9474   ZY=    59.8893
   XZ=   -15.3147   YZ=    59.2701   ZZ=    39.8722
   Eigenvalues:   -55.8297    27.9124   177.0049
     23  C    Isotropic =    51.4123   Anisotropy =   185.7822
   XX=    42.6659   YX=    34.2539   ZX=    -2.2539
   XY=    39.4837   YY=   135.9526   ZY=    75.6320
   XZ=     0.1400   YZ=    77.3003   ZZ=   -24.3817
   Eigenvalues:   -57.2766    36.2464   175.2671
     24  C    Isotropic =    60.7836   Anisotropy =   172.9785
   XX=     5.6337   YX=    21.7464   ZX=    46.9813
   XY=    42.5803   YY=   146.9503   ZY=    46.3089
   XZ=    55.5041   YZ=    44.3078   ZZ=    29.7667
   Eigenvalues:   -34.9995    41.2477   176.1026
     25  C    Isotropic =    17.2686   Anisotropy =   146.8198
   XX=   -51.2532   YX=    39.9042   ZX=    -0.8913
   XY=    50.9926   YY=    86.7755   ZY=    44.0600
   XZ=    -6.0336   YZ=    37.2474   ZZ=    16.2836
   Eigenvalues:   -67.8462     4.5037   115.1485
     26  C    Isotropic =    48.7817   Anisotropy =   159.4352
   XX=    29.5574   YX=    35.9825   ZX=    -8.6775
   XY=    17.6798   YY=   124.2105   ZY=    63.6696
   XZ=   -11.7864   YZ=    68.1697   ZZ=    -7.4230
   Eigenvalues:   -40.4998    31.7730   155.0718
     27  C    Isotropic =    47.5753   Anisotropy =   160.7072
   XX=    92.7037   YX=   -56.6869   ZX=   -40.8453
   XY=   -38.5290   YY=    59.8502   ZY=    52.5152
   XZ=   -41.3143   YZ=    63.3802   ZZ=    -9.8278
   Eigenvalues:   -43.9970    32.0095   154.7135
     28  C    Isotropic =    22.8703   Anisotropy =   143.9705
   XX=    52.1646   YX=   -66.7205   ZX=   -30.3631
   XY=   -77.9018   YY=   -14.5178   ZY=    44.0682
   XZ=   -15.5327   YZ=    38.7701   ZZ=    30.9640
   Eigenvalues:   -66.6247    16.3848   118.8506
     29  C    Isotropic =    63.8901   Anisotropy =   180.8582
   XX=   100.6141   YX=   -62.8952   ZX=   -71.6743
   XY=   -89.4887   YY=    51.0952   ZY=    15.1697
   XZ=   -73.0874   YZ=    -1.6600   ZZ=    39.9611
   Eigenvalues:   -31.4540    38.6621   184.4623
     30  C    Isotropic =    52.0626   Anisotropy =   185.3745
   XX=   116.4837   YX=   -47.9235   ZX=   -51.8548
   XY=   -52.6014   YY=    62.9915   ZY=    58.4285
   XZ=   -54.7594   YZ=    56.4788   ZZ=   -23.2873
   Eigenvalues:   -56.5036    37.0459   175.6457
     31  C    Isotropic =    50.9010   Anisotropy =   189.5817
   XX=    99.9968   YX=   -88.1650   ZX=   -33.6652
   XY=   -86.6860   YY=    13.9258   ZY=    52.2814
   XZ=   -26.4903   YZ=    60.5160   ZZ=    38.7805
   Eigenvalues:   -53.6514    29.0657   177.2888
     32  C    Isotropic =    41.0117   Anisotropy =   185.4135
   XX=    79.1888   YX=   -83.9334   ZX=   -60.0791
   XY=   -78.2973   YY=    46.6414   ZY=    -0.8795
   XZ=   -59.5554   YZ=    30.7072   ZZ=    -2.7951
   Eigenvalues:   -45.7917     4.2062   164.6207
     33  P    Isotropic =   238.4453   Anisotropy =   120.4901
   XX=   299.0953   YX=   -31.7299   ZX=   -13.9297
   XY=   -57.1650   YY=   208.3796   ZY=     4.1765
   XZ=   -23.8212   YZ=   -28.5510   ZZ=   207.8610
   Eigenvalues:   178.2825   218.2814   318.7720
     34  C    Isotropic =    50.8552   Anisotropy =   179.8415
   XX=    17.3817   YX=     5.7140   ZX=    23.8889
   XY=     8.8032   YY=   166.4952   ZY=   -31.9258
   XZ=    29.4862   YZ=   -26.1719   ZZ=   -31.3113
   Eigenvalues:   -47.1705    28.9866   170.7495
     35  C    Isotropic =    43.9530   Anisotropy =   201.3526
   XX=   -16.2414   YX=    -5.7523   ZX=   -48.7620
   XY=   -11.2905   YY=   174.6405   ZY=   -24.1987
   XZ=   -46.7618   YZ=   -29.4890   ZZ=   -26.5401
   Eigenvalues:   -72.1139    25.7849   178.1881
     36  C    Isotropic =    53.5753   Anisotropy =   185.9937
   XX=   -56.3959   YX=     3.0675   ZX=    11.4907
   XY=     3.6808   YY=   175.8410   ZY=   -13.6101
   XZ=    13.1648   YZ=   -16.9492   ZZ=    41.2808
   Eigenvalues:   -58.0459    41.2007   177.5711
     37  C    Isotropic =    48.8585   Anisotropy =   193.0772
   XX=    18.0107   YX=     6.5581   ZX=    33.0688
   XY=     6.6127   YY=   173.3708   ZY=   -32.2675
   XZ=    31.8327   YZ=   -28.6822   ZZ=   -44.8061
   Eigenvalues:   -62.5416    31.5404   177.5766
     38  C    Isotropic =    50.9307   Anisotropy =   189.3272
   XX=    -1.9146   YX=    -3.8302   ZX=   -46.5978
   XY=    -5.0635   YY=   173.8665   ZY=   -25.8980
   XZ=   -47.0423   YZ=   -24.7531   ZZ=   -19.1598
   Eigenvalues:   -60.2852    35.9285   177.1488
     39  C    Isotropic =    38.9488   Anisotropy =   202.3665
   XX=   -71.6014   YX=     3.7747   ZX=     8.7308
   XY=     9.4751   YY=   172.2455   ZY=    -8.7616
   XZ=     6.6098   YZ=   -21.7171   ZZ=    16.2022
   Eigenvalues:   -72.5250    15.5115   173.8598
     40  H    Isotropic =    21.9559   Anisotropy =    11.4981
   XX=    19.2347   YX=    -0.1754   ZX=    -1.9676
   XY=     1.8007   YY=    17.5704   ZY=     2.2746
   XZ=    -1.3913   YZ=     1.6986   ZZ=    29.0627
   Eigenvalues:    16.7338    19.5126    29.6213
     41  H    Isotropic =    23.8835   Anisotropy =     3.6070
   XX=    25.6713   YX=    -0.1259   ZX=     0.9579
   XY=    -0.1842   YY=    21.3970   ZY=     1.9907
   XZ=     0.7922   YZ=     1.4521   ZZ=    24.5823
   Eigenvalues:    20.5956    24.7669    26.2882
     42  H    Isotropic =    23.7469   Anisotropy =     9.7990
   XX=    24.7120   YX=    -0.5883   ZX=    -8.2896
   XY=    -0.0179   YY=    24.6909   ZY=     2.1626
   XZ=    -4.3817   YZ=     2.3880   ZZ=    21.8378
   Eigenvalues:    16.4636    24.4975    30.2796
     43  C    Isotropic =    44.4236   Anisotropy =   182.2887
   XX=    83.4258   YX=    36.5603   ZX=    58.3932
   XY=    34.0856   YY=   -14.7670   ZY=    54.2062
   XZ=    72.2212   YZ=    71.2444   ZZ=    64.6120
   Eigenvalues:   -49.3082    16.6296   165.9494
     44  C    Isotropic =    36.2814   Anisotropy =   201.3331
   XX=    28.4017   YX=    73.4200   ZX=    93.4088
   XY=    70.2398   YY=    -4.3073   ZY=    26.5925
   XZ=    83.4429   YZ=    14.4880   ZZ=    84.7499
   Eigenvalues:   -74.6276    12.9684   170.5035
     45  C    Isotropic =    52.7312   Anisotropy =   184.4805
   XX=    54.0969   YX=    18.5362   ZX=   104.2044
   XY=    20.1777   YY=    53.2106   ZY=    48.3158
   XZ=   105.3009   YZ=    46.9197   ZZ=    50.8859
   Eigenvalues:   -56.4451    38.9204   175.7182
     46  C    Isotropic =    49.3747   Anisotropy =   190.3348
   XX=    91.6907   YX=    37.1957   ZX=    60.4531
   XY=    36.7590   YY=   -20.0093   ZY=    71.9891
   XZ=    61.2679   YZ=    75.6963   ZZ=    76.4427
   Eigenvalues:   -60.0813    31.9408   176.2646
     47  C    Isotropic =    53.5341   Anisotropy =   181.9494
   XX=    50.3887   YX=    76.7298   ZX=    77.7844
   XY=    76.6706   YY=    14.0490   ZY=    13.9960
   XZ=    73.5774   YZ=    14.4591   ZZ=    96.1645
   Eigenvalues:   -56.8239    42.5924   174.8337
     48  C    Isotropic =    47.1542   Anisotropy =   193.2237
   XX=    51.3783   YX=    18.1555   ZX=   110.0534
   XY=    28.2471   YY=    42.2053   ZY=    46.2005
   XZ=   109.2810   YZ=    40.7886   ZZ=    47.8791
   Eigenvalues:   -62.3453    27.8380   175.9701
     49  H    Isotropic =    24.2467   Anisotropy =    14.4091
   XX=    20.0240   YX=    -3.5710   ZX=    -1.4815
   XY=    -3.7878   YY=    31.6458   ZY=    -6.3547
   XZ=    -0.3629   YZ=    -2.0407   ZZ=    21.0702
   Eigenvalues:    17.4100    21.4773    33.8527
     50  H    Isotropic =    23.8036   Anisotropy =     3.5485
   XX=    23.7145   YX=    -1.5999   ZX=    -2.6261
   XY=    -1.1284   YY=    24.6117   ZY=    -1.2123
   XZ=    -2.4791   YZ=    -0.4516   ZZ=    23.0847
   Eigenvalues:    20.2840    24.9575    26.1693
     51  H    Isotropic =    22.2067   Anisotropy =    13.2382
   XX=    19.5451   YX=     1.0571   ZX=     0.0489
   XY=     1.9266   YY=    23.3471   ZY=    -8.5825
   XZ=     0.9037   YZ=    -6.3156   ZZ=    23.7279
   Eigenvalues:    15.5863    20.0016    31.0321
     52  H    Isotropic =    24.8826   Anisotropy =    12.7036
   XX=    23.0781   YX=     4.6346   ZX=     6.5456
   XY=     2.4738   YY=    25.2486   ZY=     0.3378
   XZ=     5.2550   YZ=     5.5863   ZZ=    26.3212
   Eigenvalues:    18.3776    22.9185    33.3517
     53  H    Isotropic =    24.5365   Anisotropy =     4.8162
   XX=    24.4633   YX=     2.7051   ZX=     2.5402
   XY=     2.1021   YY=    25.1773   ZY=    -0.4078
   XZ=     1.8996   YZ=    -0.1236   ZZ=    23.9690
   Eigenvalues:    21.0837    24.7785    27.7473
     54  H    Isotropic =    24.7296   Anisotropy =     6.3229
   XX=    24.4269   YX=     2.1825   ZX=     0.1380
   XY=    -0.0859   YY=    23.6044   ZY=    -4.3919
   XZ=    -0.5788   YZ=    -3.0301   ZZ=    26.1575
   Eigenvalues:    20.8080    24.4359    28.9449
     55  O    Isotropic =   206.6598   Anisotropy =   137.2422
   XX=   217.8884   YX=   -47.8049   ZX=   -29.2898
   XY=   -76.5991   YY=   235.5534   ZY=    -8.4995
   XZ=   -91.2020   YZ=   -14.3357   ZZ=   166.5375
   Eigenvalues:   109.5714   212.2534   298.1546
     56  C    Isotropic =   116.2339   Anisotropy =    71.1126
   XX=   160.0969   YX=     7.9547   ZX=    13.5570
   XY=    10.1977   YY=   101.6105   ZY=    14.4051
   XZ=     7.9842   YZ=    13.0167   ZZ=    86.9945
   Eigenvalues:    78.4912   106.5682   163.6424
     57  H    Isotropic =    27.3612   Anisotropy =     8.2676
   XX=    28.7410   YX=     3.9248   ZX=     0.3451
   XY=     2.7352   YY=    29.6148   ZY=     1.6115
   XZ=     1.0787   YZ=     1.7938   ZZ=    23.7278
   Eigenvalues:    23.2627    25.9480    32.8729
     58  H    Isotropic =    26.7762   Anisotropy =     8.7981
   XX=    28.6086   YX=     2.4153   ZX=     3.2606
   XY=     1.7685   YY=    23.2589   ZY=     4.7016
   XZ=     1.0240   YZ=     3.1250   ZZ=    28.4612
   Eigenvalues:    21.0576    26.6294    32.6416
     59  C    Isotropic =   160.5796   Anisotropy =    21.4352
   XX=   165.7841   YX=    -9.9632   ZX=    -4.0268
   XY=    -6.3187   YY=   152.2038   ZY=    11.4891
   XZ=    -0.9595   YZ=     9.3724   ZZ=   163.7510
   Eigenvalues:   144.3910   162.4781   174.8697
     60  H    Isotropic =    30.1150   Anisotropy =    11.2137
   XX=    35.2107   YX=    -0.3934   ZX=     3.7536
   XY=    -0.9787   YY=    23.6403   ZY=     0.6107
   XZ=     3.8395   YZ=     0.0787   ZZ=    31.4940
   Eigenvalues:    23.5518    29.2024    37.5908
     61  H    Isotropic =    29.2460   Anisotropy =     7.4616
   XX=    32.4872   YX=     2.1806   ZX=    -2.2244
   XY=    -0.5840   YY=    27.5817   ZY=    -2.0230
   XZ=    -3.2517   YZ=    -2.9275   ZZ=    27.6692
   Eigenvalues:    24.8660    28.6516    34.2204
     62  C    Isotropic =   154.8755   Anisotropy =    12.8280
   XX=   159.9504   YX=     6.6969   ZX=    -0.1930
   XY=    -1.1382   YY=   141.4924   ZY=    -5.5631
   XZ=     0.1730   YZ=     1.1951   ZZ=   163.1838
   Eigenvalues:   140.8740   160.3251   163.4275
     63  H    Isotropic =    29.3505   Anisotropy =     9.3939
   XX=    31.2539   YX=    -4.0692   ZX=    -2.5886
   XY=    -3.9102   YY=    28.0682   ZY=     2.5989
   XZ=    -2.2711   YZ=     2.2327   ZZ=    28.7293
   Eigenvalues:    25.1850    27.2534    35.6131
     64  H    Isotropic =    29.9014   Anisotropy =    11.8493
   XX=    35.0977   YX=     5.0346   ZX=    -1.8670
   XY=     5.0031   YY=    26.3237   ZY=    -0.3384
   XZ=    -1.5687   YZ=    -1.8146   ZZ=    28.2829
   Eigenvalues:    24.0264    27.8770    37.8010
     65  C    Isotropic =   111.2155   Anisotropy =    75.2266
   XX=   135.1645   YX=    38.8017   ZX=     0.8638
   XY=    29.8708   YY=   113.9753   ZY=   -16.7524
   XZ=    -0.7186   YZ=   -10.5762   ZZ=    84.5066
   Eigenvalues:    74.8875    97.3924   161.3665
     66  H    Isotropic =    26.8880   Anisotropy =     8.4538
   XX=    29.1910   YX=     2.1778   ZX=    -3.1134
   XY=     3.7235   YY=    21.6553   ZY=    -2.2097
   XZ=    -0.8571   YZ=    -1.3688   ZZ=    29.8176
   Eigenvalues:    20.5119    27.6282    32.5238
     67  O    Isotropic =   218.9058   Anisotropy =   104.7720
   XX=   215.5211   YX=   -27.3518   ZX=    39.0135
   XY=    20.6904   YY=   268.4645   ZY=    19.1993
   XZ=    75.0149   YZ=    61.9490   ZZ=   172.7319
   Eigenvalues:   124.4109   243.5528   288.7539
     68  H    Isotropic =    27.6674   Anisotropy =     6.6653
   XX=    28.5146   YX=     3.6339   ZX=     0.3122
   XY=     4.0042   YY=    28.0198   ZY=    -0.3418
   XZ=     1.2599   YZ=    -2.2120   ZZ=    26.4680
   Eigenvalues:    23.6667    27.2247    32.1109
     69  H    Isotropic =    24.6130   Anisotropy =     6.3211
   XX=    24.9745   YX=    -1.0326   ZX=     2.6110
   XY=     1.1428   YY=    22.8089   ZY=    -3.0561
   XZ=     2.1903   YZ=    -2.5533   ZZ=    26.0557
   Eigenvalues:    20.7604    24.2516    28.8271
     70  H    Isotropic =    24.5267   Anisotropy =     4.8665
   XX=    26.9156   YX=    -1.1605   ZX=    -1.7945
   XY=    -0.6417   YY=    22.5770   ZY=    -2.1456
   XZ=    -1.7533   YZ=    -1.3079   ZZ=    24.0876
   Eigenvalues:    20.9305    24.8786    27.7710
     71  H    Isotropic =    24.8850   Anisotropy =    12.7610
   XX=    26.7840   YX=    -2.5614   ZX=    -5.0985
   XY=    -0.5036   YY=    20.6272   ZY=    -3.9544
   XZ=    -7.6482   YZ=     0.6980   ZZ=    27.2438
   Eigenvalues:    18.3980    22.8646    33.3924
     72  Cl   Isotropic =   847.3839   Anisotropy =   533.0259
   XX=   792.5119   YX=  -107.6608   ZX=   -50.7912
   XY=  -103.8335   YY=   626.0345   ZY=  -171.0752
   XZ=    14.3656   YZ=  -253.2001   ZZ=  1123.6053
   Eigenvalues:   508.5770   830.8402  1202.7345
     73  Cl   Isotropic =   849.3245   Anisotropy =   535.2913
   XX=   634.2493   YX=    89.9067   ZX=   180.2466
   XY=    90.3587   YY=   799.2801   ZY=   -92.9809
   XZ=   182.6698   YZ=  -195.8893   ZZ=  1114.4440
   Eigenvalues:   509.8807   831.9074  1206.1853
     74  H    Isotropic =    24.0975   Anisotropy =     7.0718
   XX=    24.0805   YX=    -2.3456   ZX=     3.8837
   XY=    -2.7799   YY=    25.0592   ZY=    -1.2384
   XZ=     3.0734   YZ=    -0.4103   ZZ=    23.1528
   Eigenvalues:    19.8466    23.6339    28.8121
     75  H    Isotropic =    23.6244   Anisotropy =     7.1686
   XX=    22.7856   YX=    -2.3011   ZX=     2.5532
   XY=    -2.6821   YY=    26.2105   ZY=    -1.5027
   XZ=     2.0733   YZ=    -1.3705   ZZ=    21.8772
   Eigenvalues:    19.9251    22.5446    28.4035
     76  H    Isotropic =    23.8548   Anisotropy =     6.3228
   XX=    22.7865   YX=     2.2976   ZX=     0.0447
   XY=     1.5613   YY=    22.8541   ZY=     3.3217
   XZ=     0.6613   YZ=     2.6093   ZZ=    25.9239
   Eigenvalues:    20.1573    23.3371    28.0700
     77  H    Isotropic =    24.0317   Anisotropy =     6.5332
   XX=    21.5839   YX=    -0.2504   ZX=    -0.7178
   XY=     0.5057   YY=    23.5291   ZY=     2.7683
   XZ=    -0.6281   YZ=     2.3557   ZZ=    26.9821
   Eigenvalues:    21.3248    22.3831    28.3872
     78  H    Isotropic =    23.6164   Anisotropy =     7.1476
   XX=    21.7715   YX=    -1.7949   ZX=    -0.8369
   XY=    -1.4180   YY=    26.9969   ZY=    -2.8932
   XZ=    -0.5800   YZ=    -2.4264   ZZ=    22.0808
   Eigenvalues:    19.9214    22.5463    28.3814
     79  H    Isotropic =    24.0987   Anisotropy =     7.0661
   XX=    21.7548   YX=    -0.6180   ZX=    -1.9501
   XY=    -0.2230   YY=    27.0138   ZY=    -3.6054
   XZ=    -1.9267   YZ=    -2.4254   ZZ=    23.5274
   Eigenvalues:    19.8611    23.6254    28.8094
     80  H    Isotropic =    23.9896   Anisotropy =     6.8050
   XX=    22.4057   YX=    -0.4347   ZX=    -0.9894
   XY=    -1.1009   YY=    22.4291   ZY=     2.8403
   XZ=    -0.7010   YZ=     2.4810   ZZ=    27.1339
   Eigenvalues:    21.1193    22.3232    28.5262
     81  H    Isotropic =    23.8539   Anisotropy =     6.3156
   XX=    24.4842   YX=    -0.5290   ZX=    -2.1380
   XY=     0.2113   YY=    20.9613   ZY=     2.5158
   XZ=    -2.1391   YZ=     1.6573   ZZ=    26.1161
   Eigenvalues:    20.1368    23.3606    28.0643
 End of Minotr F.D. properties file   721 does not exist.
 End of Minotr F.D. properties file   722 does not exist.
 End of Minotr F.D. properties file   788 does not exist.

 **********************************************************************

            Population analysis using the SCF Density.

 **********************************************************************

 Orbital symmetries:
       Occupied  (A) (A) (A) (A) (A) (A) (A) (A) (A) (A) (A) (A)
                 (A) (A) (A) (A) (A) (A) (A) (A) (A) (A) (A) (A)
                 (A) (A) (A) (A) (A) (A) (A) (A) (A) (A) (A) (A)
                 (A) (A) (A) (A) (A) (A) (A) (A) (A) (A) (A) (A)
                 (A) (A) (A) (A) (A) (A) (A) (A) (A) (A) (A) (A)
                 (A) (A) (A) (A) (A) (A) (A) (A) (A) (A) (A) (A)
                 (A) (A) (A) (A) (A) (A) (A) (A) (A) (A) (A) (A)
                 (A) (A) (A) (A) (A) (A) (A) (A) (A) (A) (A) (A)
                 (A) (A) (A) (A) (A) (A) (A) (A) (A) (A) (A) (A)
                 (A) (A) (A) (A) (A) (A) (A) (A) (A) (A) (A) (A)
                 (A) (A) (A) (A) (A) (A) (A) (A) (A) (A) (A) (A)
                 (A) (A) (A) (A) (A) (A) (A) (A) (A) (A) (A) (A)
                 (A) (A) (A) (A) (A) (A) (A) (A) (A) (A) (A) (A)
                 (A) (A) (A) (A) (A) (A) (A) (A) (A) (A) (A) (A)
                 (A) (A) (A) (A) (A) (A) (A) (A) (A) (A) (A) (A)
                 (A) (A) (A) (A) (A) (A)
       Virtual   (A) (A) (A) (A) (A) (A) (A) (A) (A) (A) (A) (A)
                 (A) (A) (A) (A) (A) (A) (A) (A) (A) (A) (A) (A)
                 (A) (A) (A) (A) (A) (A) (A) (A) (A) (A) (A) (A)
                 (A) (A) (A) (A) (A) (A) (A) (A) (A) (A) (A) (A)
                 (A) (A) (A) (A) (A) (A) (A) (A) (A) (A) (A) (A)
                 (A) (A) (A) (A) (A) (A) (A) (A) (A) (A) (A) (A)
                 (A) (A) (A) (A) (A) (A) (A) (A) (A) (A) (A) (A)
                 (A) (A) (A) (A) (A) (A) (A) (A) (A) (A) (A) (A)
                 (A) (A) (A) (A) (A) (A) (A) (A) (A) (A) (A) (A)
                 (A) (A) (A) (A) (A) (A) (A) (A) (A) (A) (A) (A)
                 (A) (A) (A) (A) (A) (A) (A) (A) (A) (A) (A) (A)
                 (A) (A) (A) (A) (A) (A) (A) (A) (A) (A) (A) (A)
                 (A) (A) (A) (A) (A) (A) (A) (A) (A) (A) (A) (A)
                 (A) (A) (A) (A) (A) (A) (A) (A) (A) (A) (A) (A)
                 (A) (A) (A) (A) (A) (A) (A) (A) (A) (A) (A) (A)
                 (A) (A) (A) (A) (A) (A) (A) (A) (A) (A) (A) (A)
                 (A) (A) (A) (A) (A) (A) (A) (A) (A) (A) (A) (A)
                 (A) (A) (A) (A) (A) (A) (A) (A) (A) (A) (A) (A)
                 (A) (A) (A) (A) (A) (A) (A) (A) (A) (A) (A) (A)
                 (A) (A) (A) (A) (A) (A) (A) (A) (A) (A) (A) (A)
                 (A) (A) (A) (A) (A) (A) (A) (A) (A) (A) (A) (A)
                 (A) (A) (A) (A) (A) (A) (A) (A) (A) (A) (A) (A)
                 (A) (A) (A) (A) (A) (A) (A) (A) (A) (A) (A) (A)
                 (A) (A) (A) (A) (A) (A) (A) (A) (A) (A) (A) (A)
                 (A) (A) (A) (A) (A) (A) (A) (A) (A) (A) (A) (A)
                 (A) (A) (A) (A) (A) (A) (A) (A) (A) (A) (A) (A)
                 (A) (A) (A) (A) (A) (A) (A) (A) (A) (A) (A) (A)
                 (A) (A) (A) (A) (A) (A) (A) (A) (A) (A) (A) (A)
                 (A) (A) (A) (A) (A) (A) (A) (A) (A) (A) (A) (A)
                 (A) (A) (A) (A) (A) (A) (A) (A) (A) (A) (A) (A)
                 (A) (A) (A) (A) (A) (A) (A) (A) (A) (A) (A) (A)
                 (A) (A) (A) (A) (A) (A) (A) (A) (A) (A) (A) (A)
                 (A) (A) (A) (A) (A) (A) (A) (A) (A) (A) (A) (A)
                 (A) (A) (A) (A) (A) (A) (A) (A) (A) (A) (A) (A)
                 (A) (A) (A) (A) (A) (A) (A) (A) (A) (A) (A) (A)
                 (A) (A) (A) (A) (A) (A) (A) (A) (A) (A) (A) (A)
                 (A) (A) (A) (A) (A) (A) (A) (A) (A) (A) (A) (A)
                 (A) (A) (A) (A) (A) (A) (A) (A) (A) (A) (A) (A)
                 (A) (A) (A) (A) (A) (A) (A) (A) (A) (A) (A) (A)
                 (A) (A) (A) (A) (A) (A) (A) (A) (A) (A) (A) (A)
                 (A) (A) (A) (A) (A) (A) (A) (A) (A) (A) (A) (A)
                 (A) (A) (A) (A) (A) (A) (A) (A) (A) (A) (A) (A)
                 (A) (A) (A) (A) (A) (A) (A) (A) (A) (A) (A) (A)
                 (A) (A) (A) (A) (A) (A) (A) (A) (A) (A) (A) (A)
                 (A) (A) (A) (A) (A) (A) (A) (A) (A) (A) (A) (A)
                 (A) (A) (A) (A) (A) (A) (A) (A) (A) (A) (A) (A)
                 (A) (A) (A) (A) (A) (A) (A) (A) (A) (A) (A) (A)
                 (A) (A) (A) (A) (A) (A) (A) (A) (A) (A) (A) (A)
                 (A) (A) (A) (A) (A) (A) (A) (A) (A) (A) (A) (A)
                 (A) (A) (A) (A) (A) (A) (A) (A) (A) (A) (A) (A)
                 (A) (A) (A) (A) (A) (A) (A) (A) (A) (A) (A) (A)
                 (A) (A) (A) (A) (A) (A) (A) (A) (A) (A) (A) (A)
                 (A) (A) (A) (A) (A) (A) (A) (A) (A) (A) (A) (A)
                 (A) (A) (A) (A) (A) (A) (A) (A) (A) (A) (A) (A)
                 (A) (A) (A) (A) (A) (A) (A) (A) (A) (A) (A) (A)
                 (A) (A) (A) (A) (A) (A) (A) (A) (A) (A) (A) (A)
                 (A) (A) (A) (A) (A) (A) (A) (A) (A) (A) (A) (A)
                 (A) (A) (A) (A) (A) (A) (A) (A) (A) (A) (A) (A)
                 (A) (A) (A) (A) (A) (A) (A) (A) (A) (A) (A) (A)
                 (A) (A) (A) (A) (A) (A) (A) (A) (A) (A) (A) (A)
                 (A) (A) (A) (A) (A) (A) (A) (A) (A) (A) (A) (A)
                 (A) (A) (A) (A) (A) (A) (A) (A) (A) (A) (A) (A)
                 (A) (A) (A) (A) (A) (A) (A) (A) (A) (A) (A) (A)
                 (A) (A) (A) (A) (A) (A) (A) (A) (A) (A) (A) (A)
                 (A) (A) (A) (A) (A) (A) (A) (A) (A) (A) (A) (A)
                 (A) (A) (A) (A) (A) (A) (A) (A) (A) (A) (A) (A)
                 (A) (A) (A) (A) (A) (A) (A) (A) (A) (A) (A) (A)
                 (A) (A) (A) (A) (A) (A) (A) (A) (A) (A) (A) (A)
                 (A) (A) (A) (A) (A) (A) (A) (A) (A) (A) (A) (A)
                 (A) (A) (A) (A) (A) (A) (A) (A) (A) (A) (A) (A)
                 (A) (A) (A) (A) (A) (A) (A) (A) (A) (A) (A) (A)
                 (A) (A) (A) (A) (A) (A) (A) (A) (A) (A) (A) (A)
                 (A) (A) (A) (A) (A) (A) (A) (A) (A) (A) (A) (A)
                 (A) (A) (A) (A) (A) (A) (A) (A) (A) (A) (A) (A)
                 (A) (A) (A) (A) (A) (A) (A) (A) (A) (A) (A) (A)
                 (A) (A) (A) (A) (A) (A) (A) (A) (A) (A) (A) (A)
                 (A) (A) (A) (A) (A) (A) (A) (A) (A) (A) (A) (A)
                 (A) (A) (A) (A) (A) (A) (A) (A) (A) (A) (A) (A)
                 (A) (A) (A) (A) (A) (A) (A) (A) (A) (A) (A) (A)
                 (A) (A) (A) (A) (A) (A) (A) (A) (A) (A) (A) (A)
                 (A) (A) (A) (A) (A) (A) (A) (A) (A) (A) (A) (A)
                 (A) (A) (A) (A) (A) (A) (A) (A) (A) (A) (A) (A)
                 (A) (A) (A) (A) (A) (A) (A) (A) (A) (A) (A) (A)
                 (A) (A) (A) (A) (A) (A) (A) (A) (A) (A) (A) (A)
                 (A) (A) (A) (A) (A) (A) (A) (A) (A) (A) (A) (A)
                 (A) (A) (A) (A) (A) (A) (A) (A) (A) (A) (A) (A)
                 (A) (A) (A) (A) (A) (A) (A) (A) (A) (A) (A) (A)
                 (A) (A) (A) (A) (A) (A) (A) (A) (A) (A) (A) (A)
                 (A) (A) (A) (A) (A) (A) (A) (A) (A) (A) (A) (A)
                 (A) (A) (A) (A) (A) (A) (A) (A) (A) (A) (A) (A)
                 (A) (A) (A) (A) (A) (A) (A) (A) (A) (A) (A) (A)
                 (A) (A) (A) (A) (A) (A) (A) (A) (A) (A) (A) (A)
                 (A) (A) (A) (A) (A) (A) (A) (A) (A) (A) (A) (A)
                 (A) (A) (A) (A) (A) (A) (A) (A) (A) (A) (A) (A)
                 (A) (A) (A) (A) (A) (A) (A) (A) (A) (A) (A) (A)
                 (A) (A) (A) (A) (A) (A) (A) (A) (A) (A) (A) (A)
                 (A) (A) (A) (A) (A) (A) (A) (A) (A) (A) (A) (A)
                 (A) (A) (A) (A) (A) (A) (A) (A) (A) (A) (A) (A)
                 (A) (A) (A) (A) (A) (A) (A) (A) (A) (A) (A) (A)
                 (A) (A) (A) (A) (A) (A) (A) (A) (A) (A) (A) (A)
                 (A) (A) (A) (A) (A) (A) (A) (A) (A) (A) (A) (A)
                 (A) (A) (A) (A) (A) (A) (A) (A) (A) (A) (A) (A)
                 (A) (A) (A) (A) (A) (A) (A) (A) (A) (A) (A) (A)
                 (A) (A) (A) (A) (A) (A) (A) (A) (A) (A) (A) (A)
                 (A) (A) (A) (A) (A) (A) (A) (A) (A) (A) (A) (A)
                 (A) (A) (A) (A) (A) (A) (A) (A) (A) (A) (A) (A)
                 (A) (A) (A) (A) (A) (A) (A) (A) (A) (A) (A) (A)
                 (A) (A) (A) (A) (A) (A) (A) (A) (A) (A) (A) (A)
                 (A) (A) (A) (A) (A) (A) (A) (A) (A) (A) (A) (A)
                 (A) (A) (A) (A) (A) (A) (A) (A) (A) (A) (A) (A)
                 (A) (A) (A) (A) (A) (A) (A) (A) (A) (A) (A) (A)
                 (A) (A) (A) (A) (A) (A) (A) (A) (A) (A) (A) (A)
                 (A) (A) (A) (A) (A) (A) (A) (A) (A) (A) (A) (A)
                 (A) (A) (A) (A) (A) (A) (A) (A) (A) (A) (A) (A)
                 (A) (A) (A) (A) (A) (A) (A) (A) (A) (A) (A) (A)
                 (A) (A) (A) (A) (A) (A) (A) (A) (A) (A) (A) (A)
                 (A) (A) (A) (A) (A) (A) (A) (A) (A) (A) (A) (A)
                 (A) (A) (A) (A) (A) (A) (A) (A) (A) (A) (A) (A)
                 (A) (A) (A) (A) (A) (A) (A) (A) (A) (A) (A) (A)
                 (A) (A) (A) (A) (A) (A) (A) (A) (A) (A) (A) (A)
                 (A) (A) (A) (A) (A) (A) (A) (A) (A) (A) (A) (A)
                 (A) (A) (A) (A) (A) (A) (A) (A) (A) (A) (A) (A)
                 (A) (A) (A) (A) (A) (A) (A) (A) (A) (A) (A) (A)
                 (A) (A) (A) (A) (A) (A) (A) (A) (A) (A) (A) (A)
                 (A) (A) (A) (A) (A) (A) (A) (A) (A) (A) (A) (A)
                 (A) (A) (A) (A)
 The electronic state is 1-A.
 Alpha  occ. eigenvalues -- -101.60517-101.60506 -77.26231 -77.26227 -19.25139
 Alpha  occ. eigenvalues --  -19.24623 -10.30732 -10.30399 -10.30069 -10.29605
 Alpha  occ. eigenvalues --  -10.26491 -10.26465 -10.26427 -10.26385 -10.25420
 Alpha  occ. eigenvalues --  -10.25374 -10.24958 -10.24957 -10.24923 -10.24883
 Alpha  occ. eigenvalues --  -10.24801 -10.24786 -10.24719 -10.24674 -10.24604
 Alpha  occ. eigenvalues --  -10.24536 -10.24410 -10.24334 -10.24312 -10.24267
 Alpha  occ. eigenvalues --  -10.24204 -10.24114 -10.24066 -10.24002 -10.23994
 Alpha  occ. eigenvalues --  -10.23992 -10.23920 -10.23857 -10.23749 -10.23742
 Alpha  occ. eigenvalues --  -10.23644 -10.23641 -10.23567 -10.23563 -10.23331
 Alpha  occ. eigenvalues --  -10.23328  -9.43029  -9.43017  -7.16213  -7.16202
 Alpha  occ. eigenvalues --   -7.15765  -7.15753  -7.15705  -7.15692  -6.65432
 Alpha  occ. eigenvalues --   -6.65429  -4.79026  -4.79024  -4.78990  -4.78987
 Alpha  occ. eigenvalues --   -4.78785  -4.78782  -3.51599  -2.19284  -2.19208
 Alpha  occ. eigenvalues --   -2.15930  -1.10806  -1.09731  -0.91216  -0.89289
 Alpha  occ. eigenvalues --   -0.88960  -0.88750  -0.88296  -0.88168  -0.84544
 Alpha  occ. eigenvalues --   -0.82315  -0.80868  -0.80344  -0.78845  -0.77819
 Alpha  occ. eigenvalues --   -0.77741  -0.77673  -0.77600  -0.77150  -0.77078
 Alpha  occ. eigenvalues --   -0.77006  -0.76935  -0.74299  -0.73343  -0.72658
 Alpha  occ. eigenvalues --   -0.70244  -0.69396  -0.68513  -0.65801  -0.64431
 Alpha  occ. eigenvalues --   -0.63429  -0.63253  -0.63017  -0.62816  -0.62650
 Alpha  occ. eigenvalues --   -0.62184  -0.62024  -0.61511  -0.60278  -0.58974
 Alpha  occ. eigenvalues --   -0.57867  -0.56237  -0.54627  -0.54154  -0.54018
 Alpha  occ. eigenvalues --   -0.53169  -0.52736  -0.52390  -0.51932  -0.51331
 Alpha  occ. eigenvalues --   -0.50577  -0.49265  -0.48559  -0.48042  -0.47906
 Alpha  occ. eigenvalues --   -0.47695  -0.47602  -0.47242  -0.46999  -0.46931
 Alpha  occ. eigenvalues --   -0.46677  -0.46417  -0.46020  -0.45060  -0.44436
 Alpha  occ. eigenvalues --   -0.44263  -0.44177  -0.44100  -0.43799  -0.43643
 Alpha  occ. eigenvalues --   -0.43599  -0.43018  -0.42985  -0.41555  -0.41464
 Alpha  occ. eigenvalues --   -0.41319  -0.41007  -0.40567  -0.39427  -0.38829
 Alpha  occ. eigenvalues --   -0.38707  -0.38536  -0.38333  -0.38031  -0.37794
 Alpha  occ. eigenvalues --   -0.37309  -0.37084  -0.36854  -0.36697  -0.36449
 Alpha  occ. eigenvalues --   -0.36366  -0.36024  -0.35861  -0.35519  -0.35348
 Alpha  occ. eigenvalues --   -0.34856  -0.34641  -0.33337  -0.32705  -0.32210
 Alpha  occ. eigenvalues --   -0.31356  -0.31235  -0.30134  -0.29783  -0.29312
 Alpha  occ. eigenvalues --   -0.28164  -0.27756  -0.27698  -0.27412  -0.27169
 Alpha  occ. eigenvalues --   -0.27015  -0.26685  -0.26311  -0.25917  -0.25811
 Alpha  occ. eigenvalues --   -0.25640  -0.24685  -0.24294  -0.23142  -0.22609
 Alpha  occ. eigenvalues --   -0.22413
 Alpha virt. eigenvalues --   -0.08083  -0.04544  -0.04325  -0.04008  -0.03391
 Alpha virt. eigenvalues --   -0.02908  -0.02840  -0.01849  -0.01478  -0.01455
 Alpha virt. eigenvalues --   -0.01259  -0.00529  -0.00265   0.01473   0.01529
 Alpha virt. eigenvalues --    0.02485   0.03706   0.03889   0.04704   0.04914
 Alpha virt. eigenvalues --    0.05159   0.05450   0.05778   0.06162   0.06332
 Alpha virt. eigenvalues --    0.07162   0.07284   0.07519   0.07967   0.08099
 Alpha virt. eigenvalues --    0.08176   0.08455   0.08622   0.09019   0.09295
 Alpha virt. eigenvalues --    0.09437   0.09818   0.09855   0.10121   0.10547
 Alpha virt. eigenvalues --    0.10666   0.10823   0.11110   0.11396   0.11527
 Alpha virt. eigenvalues --    0.11589   0.11976   0.12080   0.12346   0.12411
 Alpha virt. eigenvalues --    0.12565   0.12915   0.13157   0.13503   0.13934
 Alpha virt. eigenvalues --    0.14027   0.14205   0.14569   0.14803   0.15334
 Alpha virt. eigenvalues --    0.15434   0.15733   0.16008   0.16216   0.16748
 Alpha virt. eigenvalues --    0.17046   0.17095   0.17531   0.17997   0.18084
 Alpha virt. eigenvalues --    0.18695   0.18970   0.19221   0.19391   0.19574
 Alpha virt. eigenvalues --    0.19978   0.20226   0.20349   0.20425   0.20843
 Alpha virt. eigenvalues --    0.21074   0.21219   0.21337   0.21928   0.22082
 Alpha virt. eigenvalues --    0.22171   0.22324   0.22542   0.22874   0.23087
 Alpha virt. eigenvalues --    0.23126   0.23398   0.23438   0.23680   0.23945
 Alpha virt. eigenvalues --    0.24070   0.24108   0.24256   0.24680   0.24748
 Alpha virt. eigenvalues --    0.24883   0.25266   0.25370   0.25528   0.25720
 Alpha virt. eigenvalues --    0.26004   0.26192   0.26289   0.26660   0.26962
 Alpha virt. eigenvalues --    0.27234   0.27360   0.27413   0.27821   0.27986
 Alpha virt. eigenvalues --    0.28209   0.28279   0.28532   0.28853   0.29295
 Alpha virt. eigenvalues --    0.29333   0.29635   0.29774   0.29848   0.30277
 Alpha virt. eigenvalues --    0.30555   0.31089   0.31328   0.31395   0.31869
 Alpha virt. eigenvalues --    0.31887   0.32198   0.32493   0.32751   0.32926
 Alpha virt. eigenvalues --    0.33133   0.33442   0.33542   0.33695   0.33907
 Alpha virt. eigenvalues --    0.34049   0.34397   0.34785   0.35061   0.35183
 Alpha virt. eigenvalues --    0.35323   0.35546   0.35875   0.36007   0.36209
 Alpha virt. eigenvalues --    0.36457   0.36681   0.37079   0.37300   0.37393
 Alpha virt. eigenvalues --    0.37503   0.37806   0.37914   0.38210   0.38431
 Alpha virt. eigenvalues --    0.38553   0.38682   0.38816   0.38956   0.39220
 Alpha virt. eigenvalues --    0.39445   0.39642   0.39938   0.40172   0.40218
 Alpha virt. eigenvalues --    0.40404   0.40569   0.40752   0.40975   0.41363
 Alpha virt. eigenvalues --    0.41532   0.41570   0.41720   0.41955   0.42117
 Alpha virt. eigenvalues --    0.42391   0.42475   0.42573   0.42712   0.42958
 Alpha virt. eigenvalues --    0.43085   0.43415   0.43496   0.43782   0.43939
 Alpha virt. eigenvalues --    0.44000   0.44062   0.44178   0.44277   0.44539
 Alpha virt. eigenvalues --    0.44727   0.44804   0.44970   0.45122   0.45195
 Alpha virt. eigenvalues --    0.45367   0.45689   0.45702   0.46011   0.46186
 Alpha virt. eigenvalues --    0.46596   0.46847   0.47018   0.47293   0.47388
 Alpha virt. eigenvalues --    0.47406   0.47783   0.47892   0.47910   0.48209
 Alpha virt. eigenvalues --    0.48366   0.48534   0.48806   0.49100   0.49214
 Alpha virt. eigenvalues --    0.49293   0.49568   0.49777   0.49995   0.50122
 Alpha virt. eigenvalues --    0.50520   0.50709   0.50920   0.50993   0.51135
 Alpha virt. eigenvalues --    0.51158   0.51309   0.51516   0.51769   0.52277
 Alpha virt. eigenvalues --    0.52625   0.52780   0.53317   0.53383   0.53604
 Alpha virt. eigenvalues --    0.53686   0.53911   0.54421   0.54485   0.54808
 Alpha virt. eigenvalues --    0.54992   0.55222   0.55551   0.56046   0.56204
 Alpha virt. eigenvalues --    0.56497   0.56775   0.57087   0.57321   0.57647
 Alpha virt. eigenvalues --    0.58215   0.58370   0.58696   0.59222   0.59987
 Alpha virt. eigenvalues --    0.60318   0.60761   0.61016   0.61261   0.61359
 Alpha virt. eigenvalues --    0.61941   0.62196   0.62529   0.62617   0.62762
 Alpha virt. eigenvalues --    0.62995   0.63255   0.63603   0.63821   0.64592
 Alpha virt. eigenvalues --    0.64829   0.64963   0.65234   0.65362   0.65575
 Alpha virt. eigenvalues --    0.66043   0.66095   0.66607   0.66809   0.67000
 Alpha virt. eigenvalues --    0.67453   0.67858   0.68038   0.68287   0.68441
 Alpha virt. eigenvalues --    0.68620   0.68698   0.69060   0.69173   0.69356
 Alpha virt. eigenvalues --    0.69671   0.69793   0.70340   0.70695   0.70872
 Alpha virt. eigenvalues --    0.71050   0.71423   0.71552   0.71850   0.72202
 Alpha virt. eigenvalues --    0.72447   0.72551   0.73075   0.73229   0.73357
 Alpha virt. eigenvalues --    0.73730   0.73830   0.74009   0.74322   0.74928
 Alpha virt. eigenvalues --    0.75122   0.75204   0.75763   0.76051   0.76208
 Alpha virt. eigenvalues --    0.76622   0.76920   0.77044   0.77164   0.77614
 Alpha virt. eigenvalues --    0.77778   0.78217   0.78322   0.78980   0.79008
 Alpha virt. eigenvalues --    0.79049   0.79536   0.79711   0.79882   0.80166
 Alpha virt. eigenvalues --    0.80291   0.80404   0.80866   0.81044   0.81381
 Alpha virt. eigenvalues --    0.81609   0.81751   0.82130   0.82465   0.82568
 Alpha virt. eigenvalues --    0.82895   0.82982   0.83504   0.83964   0.84275
 Alpha virt. eigenvalues --    0.84326   0.84667   0.84788   0.85310   0.85540
 Alpha virt. eigenvalues --    0.85745   0.86066   0.86668   0.86684   0.87016
 Alpha virt. eigenvalues --    0.87225   0.87792   0.88225   0.88582   0.88904
 Alpha virt. eigenvalues --    0.89243   0.89577   0.90243   0.90394   0.90744
 Alpha virt. eigenvalues --    0.91180   0.91330   0.91545   0.91757   0.92369
 Alpha virt. eigenvalues --    0.92601   0.92775   0.92848   0.93462   0.93723
 Alpha virt. eigenvalues --    0.94077   0.94154   0.94418   0.94715   0.95094
 Alpha virt. eigenvalues --    0.95432   0.95553   0.95957   0.96138   0.96661
 Alpha virt. eigenvalues --    0.96822   0.97416   0.97939   0.98285   0.98356
 Alpha virt. eigenvalues --    0.98864   0.99061   0.99742   1.00122   1.00303
 Alpha virt. eigenvalues --    1.00605   1.00826   1.00978   1.01874   1.02186
 Alpha virt. eigenvalues --    1.02264   1.02646   1.03348   1.03856   1.04021
 Alpha virt. eigenvalues --    1.04816   1.05667   1.05721   1.06221   1.06946
 Alpha virt. eigenvalues --    1.07201   1.07344   1.07870   1.08462   1.08889
 Alpha virt. eigenvalues --    1.09175   1.09551   1.09821   1.10265   1.10424
 Alpha virt. eigenvalues --    1.10641   1.11187   1.11257   1.11693   1.12286
 Alpha virt. eigenvalues --    1.12414   1.12780   1.13096   1.13460   1.13655
 Alpha virt. eigenvalues --    1.14038   1.14334   1.14495   1.14865   1.15093
 Alpha virt. eigenvalues --    1.15283   1.15542   1.15812   1.16374   1.16660
 Alpha virt. eigenvalues --    1.17177   1.17526   1.18009   1.18352   1.18626
 Alpha virt. eigenvalues --    1.18914   1.19335   1.19412   1.19518   1.19816
 Alpha virt. eigenvalues --    1.20252   1.20636   1.21039   1.21226   1.21472
 Alpha virt. eigenvalues --    1.21769   1.22293   1.22510   1.22855   1.23002
 Alpha virt. eigenvalues --    1.23540   1.23707   1.23945   1.24395   1.24639
 Alpha virt. eigenvalues --    1.24887   1.25216   1.25512   1.25637   1.25999
 Alpha virt. eigenvalues --    1.26044   1.26883   1.27034   1.27091   1.27408
 Alpha virt. eigenvalues --    1.27584   1.27983   1.28106   1.28244   1.28609
 Alpha virt. eigenvalues --    1.28829   1.28991   1.29378   1.29955   1.30360
 Alpha virt. eigenvalues --    1.30521   1.30616   1.31110   1.31381   1.31445
 Alpha virt. eigenvalues --    1.31850   1.32235   1.32682   1.32765   1.33217
 Alpha virt. eigenvalues --    1.33369   1.33820   1.33892   1.34490   1.35056
 Alpha virt. eigenvalues --    1.35287   1.35744   1.36350   1.36882   1.37506
 Alpha virt. eigenvalues --    1.37785   1.38057   1.38167   1.39000   1.39413
 Alpha virt. eigenvalues --    1.39689   1.40067   1.40303   1.41293   1.41466
 Alpha virt. eigenvalues --    1.41876   1.42188   1.42856   1.43417   1.43543
 Alpha virt. eigenvalues --    1.44272   1.44858   1.44946   1.45264   1.45788
 Alpha virt. eigenvalues --    1.46145   1.46656   1.46969   1.47589   1.48113
 Alpha virt. eigenvalues --    1.48200   1.48742   1.48910   1.49140   1.49423
 Alpha virt. eigenvalues --    1.49694   1.49827   1.50056   1.50622   1.50756
 Alpha virt. eigenvalues --    1.50921   1.51630   1.52107   1.52174   1.52261
 Alpha virt. eigenvalues --    1.52989   1.53540   1.53938   1.54366   1.54706
 Alpha virt. eigenvalues --    1.54913   1.55209   1.55403   1.55707   1.56380
 Alpha virt. eigenvalues --    1.56598   1.56858   1.57172   1.57645   1.57885
 Alpha virt. eigenvalues --    1.58453   1.58574   1.59125   1.59161   1.59752
 Alpha virt. eigenvalues --    1.59941   1.60270   1.60597   1.60727   1.61185
 Alpha virt. eigenvalues --    1.61397   1.61715   1.62015   1.62300   1.62499
 Alpha virt. eigenvalues --    1.63072   1.63552   1.63965   1.64374   1.64586
 Alpha virt. eigenvalues --    1.64842   1.64948   1.65519   1.66162   1.66385
 Alpha virt. eigenvalues --    1.66666   1.66954   1.67525   1.67894   1.67982
 Alpha virt. eigenvalues --    1.68252   1.68455   1.68721   1.68954   1.69329
 Alpha virt. eigenvalues --    1.69786   1.70092   1.70259   1.70767   1.71020
 Alpha virt. eigenvalues --    1.71276   1.71420   1.71581   1.71883   1.72489
 Alpha virt. eigenvalues --    1.72639   1.72859   1.73133   1.73321   1.73718
 Alpha virt. eigenvalues --    1.73832   1.74168   1.74884   1.74972   1.75258
 Alpha virt. eigenvalues --    1.75546   1.75736   1.76032   1.76300   1.76567
 Alpha virt. eigenvalues --    1.76972   1.77255   1.77795   1.77994   1.78333
 Alpha virt. eigenvalues --    1.78504   1.78854   1.79331   1.79769   1.80219
 Alpha virt. eigenvalues --    1.80328   1.80497   1.81011   1.81507   1.81734
 Alpha virt. eigenvalues --    1.82243   1.82411   1.83048   1.83547   1.83784
 Alpha virt. eigenvalues --    1.84199   1.85601   1.85715   1.85960   1.86377
 Alpha virt. eigenvalues --    1.86827   1.86963   1.87340   1.87664   1.88136
 Alpha virt. eigenvalues --    1.88615   1.88810   1.89047   1.89457   1.89861
 Alpha virt. eigenvalues --    1.90297   1.90993   1.91056   1.91681   1.92046
 Alpha virt. eigenvalues --    1.92605   1.93058   1.93465   1.93769   1.94032
 Alpha virt. eigenvalues --    1.94220   1.94676   1.95094   1.95369   1.96015
 Alpha virt. eigenvalues --    1.96599   1.96811   1.97011   1.97217   1.97817
 Alpha virt. eigenvalues --    1.98176   1.98665   1.98909   1.99320   1.99582
 Alpha virt. eigenvalues --    1.99807   2.00043   2.00656   2.00992   2.01691
 Alpha virt. eigenvalues --    2.02184   2.02583   2.02885   2.03231   2.03327
 Alpha virt. eigenvalues --    2.03754   2.04462   2.04712   2.04873   2.05380
 Alpha virt. eigenvalues --    2.05688   2.05842   2.06180   2.06908   2.07324
 Alpha virt. eigenvalues --    2.07949   2.08060   2.08585   2.08848   2.09298
 Alpha virt. eigenvalues --    2.09568   2.09817   2.10317   2.10372   2.10936
 Alpha virt. eigenvalues --    2.11351   2.11497   2.11725   2.12121   2.12498
 Alpha virt. eigenvalues --    2.12754   2.12882   2.13037   2.13334   2.13477
 Alpha virt. eigenvalues --    2.14169   2.14237   2.15031   2.15164   2.15640
 Alpha virt. eigenvalues --    2.16033   2.16240   2.16439   2.17000   2.17588
 Alpha virt. eigenvalues --    2.17685   2.17873   2.18340   2.18484   2.18895
[...]
                                                    951(r),224(g),584(v),817(r)
                                                    1595(r),1225(r),201(g)
                                                    949(r),1592(v),587(v),210(g)
                                                    869(r),921(r),1095(r),369(r)
                                                    1619(r),1078(r),1529(v)
                                                    446(r),1105(r),549(r),195(g)
                                                    196(g),1497(v),1507(v)
                                                    239(v),1121(r),1128(r)
                                                    254(v),269(r),439(r),371(r)
                                                    879(r),543(r),406(r),947(r)
                                                    846(r),441(r),541(r),619(r)
                                                    423(v),1543(v),935(r)
                                                    1227(r),1565(r),717(r)
                                                    908(v),661(r),377(r),1518(v)
                                                    1058(r),1100(r),1151(r)
                                                    267(r),955(r),1550(r),521(r)
                                                    272(r),907(v),1055(r),926(r)
                                                    975(r),870(r)
  1586. BD*(   1)Pd   1 - P  33          0.17586     0.60913  1585(g),842(r),1087(r)
                                                    204(g),893(g),194(g),198(g)
                                                    211(v),206(g),200(g),189(g)
                                                    193(g),205(g),191(g),922(v)
                                                    240(r),1493(v),1522(v)
                                                    202(g),1521(v),901(g),219(v)
                                                    904(g),1494(v),222(v),924(v)
                                                    1588(g),242(r),1496(v)
                                                    207(g),868(v),1524(v)
                                                    1093(v),411(r),188(g),898(g)
                                                    412(r),395(r),216(v),1094(v)
                                                    245(r),582(r),927(v),867(v)
                                                    217(v),197(g),894(g),902(g)
                                                    212(v),576(r),1248(r),203(g)
                                                    895(g),220(v),608(r),905(g)
                                                    899(g),410(r),266(r),581(r)
                                                    900(g),223(v),201(g),544(r)
                                                    923(v),932(v),1525(v),199(g)
                                                    1122(r),897(g),1052(r)
                                                    712(r),241(r),1092(v),738(r)
                                                    218(v),950(r),250(r),196(g)
                                                    925(v),583(r),1495(v),215(v)
                                                    1226(r),1497(v),1096(v)
                                                    372(r),243(r),1095(v),931(v)
                                                    213(v),817(r),906(g),951(r)
                                                    948(r),1667(r),373(r)
                                                    1259(r),567(r),440(r),370(r)
                                                    1663(r),249(r),869(v)
                                                    1224(r),226(v),414(r),438(r)
                                                    1661(r),1651(v),224(v)
                                                    439(r),239(r),371(r),587(r)
                                                    549(r),208(g),870(v),1669(r)
                                                    1507(v),947(r),406(r),413(r)
                                                    1105(v),877(v),195(g)
                                                    1529(v),1078(r),935(v)
                                                    1225(r),846(r),1121(r)
                                                    879(v),1516(v),1119(r)
                                                    921(v),949(r),926(v),369(r)
                                                    908(g),1484(r),1550(r)
                                                    743(r),543(r),1128(r),377(r)
                                                    1055(r),1227(r),441(r)
                                                    661(r),1058(r),423(r)
                                                    1232(r),269(r),446(r),955(r)
                                                    584(r),619(r),1151(r),851(r)
                                                    1490(v),267(r),418(r),254(r)
                                                    521(r),1263(r),1053(r)
                                                    843(r),937(v)
  1587. BD*(   1)Pd   1 -Cl  72          0.18603     0.19381  1588(g),1585(g),211(v)
                                                    198(g),204(g),1591(v),206(g)
                                                    1590(v),893(v),192(g)
                                                    1494(g),193(g),194(g),240(r)
                                                    222(v),922(r),901(v),200(g)
                                                    191(g),1619(r),216(v)
                                                    1596(r),219(v),904(v),195(g)
                                                    189(g),208(g),582(r),1524(v)
                                                    1491(g),242(r),1521(v)
                                                    1489(g),581(r),1522(v)
                                                    411(r),1094(r),1495(g)
                                                    1093(r)
  1588. BD*(   1)Pd   1 -Cl  73          0.18607     0.19389  1587(g),1586(g),893(v)
                                                    198(g),204(g),1647(v),205(g)
                                                    1649(v),206(g),211(v),193(g)
                                                    1522(g),194(g),922(r),904(v)
                                                    200(g),240(r),197(g),219(v)
                                                    210(g),191(g),1669(r),901(v)
                                                    1663(r),898(v),222(v),868(r)
                                                    189(g),195(g),203(g),192(g)
                                                    867(r),1519(g),1496(v)
                                                    1493(v),1517(g),1494(v)
                                                    924(r),1093(r),1524(g)
                                                    412(r),411(r)
  1589. BD*(   1) P   2 - C   3          0.06839     0.21505   
  1590. BD*(   1) P   2 - C  12          0.07035     0.21164   
  1591. BD*(   1) P   2 - C  21          0.07821     0.20129   
  1592. BD*(   1) C   3 - C   4          0.02362     0.51628   
  1593. BD*(   2) C   3 - C   4          0.36058     0.01969  1598(v),1603(v),266(g)
                                                    1636(r),1590(v),1621(r)
                                                    1643(r)
  1594. BD*(   1) C   3 - C   8          0.02743     0.51493   
  1595. BD*(   1) C   4 - C   5          0.01552     0.53968   
  1596. BD*(   1) C   4 - H  11          0.01592     0.42523   
  1597. BD*(   1) C   5 - C   6          0.01441     0.52921   
  1598. BD*(   2) C   5 - C   6          0.32116     0.02010  1593(v),1603(v),293(g)
                                                    319(g)
  1599. BD*(   1) C   5 - H  76          0.01327     0.40060   
  1600. BD*(   1) C   6 - C   7          0.01474     0.52793   
  1601. BD*(   1) C   6 - H  10          0.01298     0.39684   
  1602. BD*(   1) C   7 - C   8          0.01583     0.53424   
  1603. BD*(   2) C   7 - C   8          0.31999     0.02125  1598(v),1593(v),1638(r)
                                                    345(g),1636(r)
  1604. BD*(   1) C   7 - H  77          0.01380     0.39328   
  1605. BD*(   1) C   8 - H   9          0.01526     0.41142   
  1606. BD*(   1) C  12 - C  13          0.02636     0.52439   
  1607. BD*(   2) C  12 - C  13          0.37323     0.02087  1612(v),1617(v),1591(v)
                                                    438(g),437(g),413(g)
  1608. BD*(   1) C  12 - C  17          0.02360     0.51906   
  1609. BD*(   1) C  13 - C  14          0.01509     0.53771   
  1610. BD*(   1) C  13 - H  20          0.01608     0.40665   
  1611. BD*(   1) C  14 - C  15          0.01439     0.53551   
  1612. BD*(   2) C  14 - C  15          0.32324     0.02478  1607(v),1617(v),490(g)
                                                    464(g)
  1613. BD*(   1) C  14 - H  74          0.01334     0.40097   
  1614. BD*(   1) C  15 - C  16          0.01448     0.53528   
  1615. BD*(   1) C  15 - H  19          0.01290     0.40380   
  1616. BD*(   1) C  16 - C  17          0.01624     0.54896   
  1617. BD*(   2) C  16 - C  17          0.29993     0.03271  1612(v),1607(v),516(g)
  1618. BD*(   1) C  16 - H  75          0.01341     0.40519   
  1619. BD*(   1) C  17 - H  18          0.01417     0.43704   
  1620. BD*(   1) C  21 - C  22          0.02153     0.51313   
  1621. BD*(   2) C  21 - C  22          0.37729     0.01312  1626(v),1631(v),608(g)
                                                    1589(v),1636(r),1593(r)
  1622. BD*(   1) C  21 - C  26          0.03218     0.50304   
  1623. BD*(   1) C  22 - C  23          0.01532     0.53613   
  1624. BD*(   1) C  22 - H  71          0.01618     0.40910   
  1625. BD*(   1) C  23 - C  24          0.01282     0.53597   
  1626. BD*(   2) C  23 - C  24          0.33753     0.01408  1621(v),1631(v),635(g)
                                                    661(g)
  1627. BD*(   1) C  23 - H  70          0.01353     0.39312   
  1628. BD*(   1) C  24 - C  25          0.03192     0.50869   
  1629. BD*(   1) C  24 - H  69          0.01347     0.38552   
  1630. BD*(   1) C  25 - C  26          0.04231     0.49439   
  1631. BD*(   2) C  25 - C  26          0.37886     0.01612  1626(v),1621(v),1636(v)
                                                    1652(r),1634(v),1635(v)
                                                    1689(v),661(v),1603(r)
  1632. BD*(   1) C  25 - O  67          0.02695     0.33260   
  1633. BD*(   1) C  26 - C  27          0.02951     0.41900   
  1634. BD*(   1) C  27 - C  28          0.04006     0.48925   
  1635. BD*(   1) C  27 - C  32          0.03202     0.50299   
  1636. BD*(   2) C  27 - C  32          0.41135     0.01335  1638(v),1643(v),1631(v)
                                                    1593(r),1603(r),1648(v)
                                                    1630(v),1622(v),1621(r)
                                                    739(g),842(v),738(g),1652(r)
  1637. BD*(   1) C  28 - C  29          0.03170     0.50790   
  1638. BD*(   2) C  28 - C  29          0.37082     0.01064  1636(v),1643(v),1603(r)
                                                    1678(v),790(g),791(g)
  1639. BD*(   1) C  28 - O  55          0.03090     0.32934   
  1640. BD*(   1) C  29 - C  30          0.01298     0.53705   
  1641. BD*(   1) C  29 - H  54          0.01446     0.39128   
  1642. BD*(   1) C  30 - C  31          0.01542     0.53831   
  1643. BD*(   2) C  30 - C  31          0.32564     0.02047  1636(v),1638(v),817(g)
                                                    842(g),1593(r)
  1644. BD*(   1) C  30 - H  53          0.01355     0.39253   
  1645. BD*(   1) C  31 - C  32          0.02157     0.51495   
  1646. BD*(   1) C  31 - H  52          0.01624     0.41198   
  1647. BD*(   1) C  32 - P  33          0.07770     0.20145   
  1648. BD*(   1) P  33 - C  34          0.06836     0.21532   
  1649. BD*(   1) P  33 - C  43          0.07057     0.21135   
  1650. BD*(   1) C  34 - C  35          0.02741     0.51574   
  1651. BD*(   1) C  34 - C  39          0.02358     0.51663   
  1652. BD*(   2) C  34 - C  39          0.36136     0.02009  1659(v),1654(v),1631(r)
                                                    1052(g),1649(v)
  1653. BD*(   1) C  35 - C  36          0.01583     0.53529   
  1654. BD*(   2) C  35 - C  36          0.31957     0.02219  1659(v),1652(v),975(g)
  1655. BD*(   1) C  35 - H  42          0.01528     0.41223   
  1656. BD*(   1) C  36 - C  37          0.01472     0.52893   
  1657. BD*(   1) C  36 - H  80          0.01376     0.39480   
  1658. BD*(   1) C  37 - C  38          0.01441     0.52983   
  1659. BD*(   2) C  37 - C  38          0.32127     0.02071  1652(v),1654(v),1027(g)
                                                    1001(g)
  1660. BD*(   1) C  37 - H  41          0.01298     0.39764   
  1661. BD*(   1) C  38 - C  39          0.01548     0.54014   
  1662. BD*(   1) C  38 - H  81          0.01326     0.40126   
  1663. BD*(   1) C  39 - H  40          0.01603     0.42530   
  1664. BD*(   1) C  43 - C  44          0.02364     0.51926   
  1665. BD*(   1) C  43 - C  48          0.02634     0.52412   
  1666. BD*(   2) C  43 - C  48          0.37329     0.02082  1673(v),1668(v),1647(v)
                                                    1224(g),1095(g),1223(g)
  1667. BD*(   1) C  44 - C  45          0.01625     0.54871   
  1668. BD*(   2) C  44 - C  45          0.30032     0.03268  1673(v),1666(v),1146(g)
  1669. BD*(   1) C  44 - H  51          0.01420     0.43728   
  1670. BD*(   1) C  45 - C  46          0.01448     0.53524   
  1671. BD*(   1) C  45 - H  78          0.01342     0.40515   
  1672. BD*(   1) C  46 - C  47          0.01440     0.53537   
  1673. BD*(   2) C  46 - C  47          0.32356     0.02469  1666(v),1668(v),1172(g)
                                                    1198(g)
  1674. BD*(   1) C  46 - H  50          0.01290     0.40371   
  1675. BD*(   1) C  47 - C  48          0.01510     0.53779   
  1676. BD*(   1) C  47 - H  79          0.01334     0.40089   
  1677. BD*(   1) C  48 - H  49          0.01607     0.40656   
  1678. BD*(   1) O  55 - C  56          0.02791     0.24473   
  1679. BD*(   1) C  56 - H  57          0.01866     0.32972   
  1680. BD*(   1) C  56 - H  58          0.02641     0.32351   
  1681. BD*(   1) C  56 - C  59          0.02597     0.32081   
  1682. BD*(   1) C  59 - H  60          0.00911     0.33892   
  1683. BD*(   1) C  59 - H  61          0.01548     0.35123   
  1684. BD*(   1) C  59 - C  62          0.01763     0.32775   
  1685. BD*(   1) C  62 - H  63          0.01388     0.33858   
  1686. BD*(   1) C  62 - H  64          0.01126     0.33084   
  1687. BD*(   1) C  62 - C  65          0.01936     0.33568   
  1688. BD*(   1) C  65 - H  66          0.02774     0.32286   
  1689. BD*(   1) C  65 - O  67          0.02754     0.24637   
  1690. BD*(   1) C  65 - H  68          0.02530     0.32571   
       -------------------------------
              Total Lewis  390.35656  ( 97.5891%)
        Valence non-Lewis    8.93336  (  2.2333%)
        Rydberg non-Lewis    0.71007  (  0.1775%)
       -------------------------------
            Total unit  1  400.00000  (100.0000%)
           Charge unit  1    0.00000
 1\1\GINC-NOTCH211\SP\RPBE1PBE\Gen\C40H34Cl2O2P2Pd1\U1010977\01-Nov-202
 1\0\\# PBE1PBE gen pseudo=read int=(grid=ultrafine) empiricaldispersio
 n=GD3BJ pop=nbo guess=read geom=check\\title\\0,1\Pd,0,-2.3082952074,0
 .0103441985,-0.007127331\P,0,-0.7528870539,1.6838009064,-0.0120400664\
 C,0,-0.0522731607,2.1599877643,-1.6323860978\C,0,-0.8548821797,1.96780
 37057,-2.7735069529\C,0,-0.3705586083,2.3466204611,-4.032078732\C,0,0.
 9071361833,2.9123409327,-4.1566621801\C,0,1.7046810123,3.1052572537,-3
 .019031892\C,0,1.2283150918,2.7326934023,-1.7558688637\H,0,1.865242162
 8,2.8519844618,-0.8737696544\H,0,1.2837452367,3.201202874,-5.14355173\
 H,0,-1.8558488657,1.5366739697,-2.6562834953\C,0,-1.3975203415,3.23907
 35152,0.7240523047\C,0,-0.8537667062,4.4874380445,0.373196979\C,0,-1.3
 052717576,5.6506575514,1.0120785517\C,0,-2.2910193594,5.5720509954,2.0
 051032839\C,0,-2.8355401175,4.3270880616,2.35468812\C,0,-2.3992449748,
 3.162853994,1.7119038838\H,0,-2.8476138167,2.1941667158,1.9530618028\H
 ,0,-2.6437071754,6.4827914493,2.5000807047\H,0,-0.0894310248,4.5548311
 703,-0.4067911047\C,0,0.6828832506,1.2863073974,1.0911648976\C,0,0.716
 9415528,1.8770406203,2.3701082604\C,0,1.7516758296,1.581387868,3.26297
 82816\C,0,2.7781691214,0.7116968285,2.8879821586\C,0,2.7521101799,0.11
 77573583,1.6176503353\C,0,1.6988387385,0.3729404664,0.7076536252\C,0,1
 .7232106941,-0.2998638645,-0.6227461736\C,0,2.7960100469,-0.019319171,
 -1.5071330315\C,0,2.8351384698,-0.5822608421,-2.7927606394\C,0,1.81881
 62063,-1.4494980629,-3.1997088994\C,0,0.7775617308,-1.7796956477,-2.32
 81092318\C,0,0.7224877906,-1.2142440047,-1.0388794469\P,0,-0.730252997
 7,-1.6405683147,0.0307994156\C,0,-0.0607795212,-2.1171814823,1.6638644
 871\C,0,1.2322487798,-2.6538581555,1.815958721\C,0,1.6859550343,-3.025
 5850827,3.087595786\C,0,0.8527568832,-2.8692100663,4.2049965643\C,0,-0
 .4377745422,-2.3407625179,4.0516565456\C,0,-0.8992510332,-1.9615344314
 ,2.7846560461\H,0,-1.9090417918,-1.5584563044,2.6453430809\H,0,1.21170
 13546,-3.1566893,5.1988378184\H,0,1.8962748522,-2.7447095103,0.9505831
 515\C,0,-1.3308369494,-3.2028022535,-0.7282000399\C,0,-2.3188086384,-3
 .1424266155,-1.7307484604\C,0,-2.7193453742,-4.3121213841,-2.386990085
 8\C,0,-2.1524182165,-5.5468461699,-2.0369062887\C,0,-1.1799278941,-5.6
 098816558,-1.0297239754\C,0,-0.7644707982,-4.4410799638,-0.3769116916\
 H,0,-0.0105276498,-4.4961680094,0.4141431971\H,0,-2.4773226844,-6.4620
 133921,-2.5426306886\H,0,-2.7850720628,-2.1825188039,-1.9728053006\H,0
 ,0.0078821311,-2.4845889172,-2.648512462\H,0,1.8447224969,-1.882371211
 9,-4.2047408125\H,0,3.6501456071,-0.3361488268,-3.4778911186\O,0,3.751
 9277478,0.8612456417,-1.053430552\C,0,5.1106677144,0.6214480034,-1.479
 7722023\H,0,5.6832113515,1.4424743305,-1.0156269794\H,0,5.1948706806,0
 .7460194846,-2.576030379\C,0,5.6367571592,-0.7550459301,-1.0523380938\
 H,0,6.5166121235,-0.995619394,-1.676759078\H,0,4.8680094229,-1.5047332
 999,-1.3069147661\C,0,6.0327505961,-0.9045807874,0.4309676428\H,0,6.14
 47514306,-1.979680561,0.6593024855\H,0,7.0239065948,-0.4444868116,0.60
 7568119\C,0,5.0787625992,-0.2678694541,1.4372255805\H,0,5.4085085341,-
 0.5089890701,2.4672795396\O,0,3.7400683203,-0.7527278357,1.2127923606\
 H,0,5.0764478875,0.8328222233,1.331448846\H,0,3.5901237877,0.473977376
 ,3.5808098998\H,0,1.7590866009,2.0390557933,4.2572377648\H,0,-0.065727
 3944,2.5784385785,2.666172915\Cl,0,-3.9594342842,1.5906384413,-0.69003
 62744\Cl,0,-3.9527384719,-1.5935296483,0.6362091206\H,0,-0.887292913,6
 .621564427,0.7263620274\H,0,-3.6188354807,4.2616488402,3.1164484914\H,
 0,-0.994598568,2.1963867225,-4.9189117832\H,0,2.7067600809,3.536833184
 5,-3.113168343\H,0,-3.4924982118,-4.2592601912,-3.1600146582\H,0,-0.74
 44861627,-6.5730263812,-0.7437971787\H,0,2.6987677849,-3.4250534035,3.
 204039865\H,0,-1.0895388646,-2.2191382827,4.9227940744\\Version=ES64L-
 G16RevB.01\State=1-A\HF=-3424.5202717\RMSD=7.359e-09\Dipole=5.7765511,
 0.0394353,-0.0621284\Quadrupole=-17.8536698,3.4815975,14.3720722,-0.01
 88296,-1.5262592,6.63226\PG=C01 [X(C40H34Cl2O2P2Pd1)]\\@


 GOD DOES NOT PLAY WITH DICE.
               -- A. EINSTEIN
 Job cpu time:       0 days  2 hours 12 minutes 51.3 seconds.
 Elapsed time:       0 days  0 hours  2 minutes 34.7 seconds.
 File lengths (MBytes):  RWF=   1458 Int=      0 D2E=      0 Chk=    220 Scr=      1
 Normal termination of Gaussian 16 at Mon Nov  1 19:35:14 2021.
