 Entering Gaussian System, Link 0=g09
 Input=R_SegPhos_1_SPE_NoPd.com
 Output=R_SegPhos_1_SPE_NoPd.log
 Initial command:
 /gstore/apps/gaussian/g09.e01-foss-2017a/g09/l1.exe "/local/22791579/Gau-17170.inp" -scrdir="/local/22791579/"
 Entering Link 1 = /gstore/apps/gaussian/g09.e01-foss-2017a/g09/l1.exe PID=     17171.
  
 Copyright (c) 1988,1990,1992,1993,1995,1998,2003,2009,2015,
            Gaussian, Inc.  All Rights Reserved.
  
 This is part of the Gaussian(R) 09 program.  It is based on
 the Gaussian(R) 03 system (copyright 2003, Gaussian, Inc.),
 the Gaussian(R) 98 system (copyright 1998, Gaussian, Inc.),
 the Gaussian(R) 94 system (copyright 1995, Gaussian, Inc.),
 the Gaussian 92(TM) system (copyright 1992, Gaussian, Inc.),
 the Gaussian 90(TM) system (copyright 1990, Gaussian, Inc.),
 the Gaussian 88(TM) system (copyright 1988, Gaussian, Inc.),
 the Gaussian 86(TM) system (copyright 1986, Carnegie Mellon
 University), and the Gaussian 82(TM) system (copyright 1983,
 Carnegie Mellon University). Gaussian is a federally registered
 trademark of Gaussian, Inc.
  
 This software contains proprietary and confidential information,
 including trade secrets, belonging to Gaussian, Inc.
  
 This software is provided under written license and may be
 used, copied, transmitted, or stored only in accord with that
 written license.
  
 The following legend is applicable only to US Government
 contracts under FAR:
  
                    RESTRICTED RIGHTS LEGEND
  
 Use, reproduction and disclosure by the US Government is
 subject to restrictions as set forth in subparagraphs (a)
 and (c) of the Commercial Computer Software - Restricted
 Rights clause in FAR 52.227-19.
  
 Gaussian, Inc.
 340 Quinnipiac St., Bldg. 40, Wallingford CT 06492
  
  
 ---------------------------------------------------------------
 Warning -- This program may not be used in any manner that
 competes with the business of Gaussian, Inc. or will provide
 assistance to any competitor of Gaussian, Inc.  The licensee
 of this program is prohibited from giving any competitor of
 Gaussian, Inc. access to this program.  By using this program,
 the user acknowledges that Gaussian, Inc. is engaged in the
 business of creating and licensing software in the field of
 computational chemistry and represents and warrants to the
 licensee that it is not a competitor of Gaussian, Inc. and that
 it will not use this program in any manner prohibited above.
 ---------------------------------------------------------------
  

 Cite this work as:
 Gaussian 09, Revision E.01,
 M. J. Frisch, G. W. Trucks, H. B. Schlegel, G. E. Scuseria, 
 M. A. Robb, J. R. Cheeseman, G. Scalmani, V. Barone, B. Mennucci, 
 G. A. Petersson, H. Nakatsuji, M. Caricato, X. Li, H. P. Hratchian, 
 A. F. Izmaylov, J. Bloino, G. Zheng, J. L. Sonnenberg, M. Hada, 
 M. Ehara, K. Toyota, R. Fukuda, J. Hasegawa, M. Ishida, T. Nakajima, 
 Y. Honda, O. Kitao, H. Nakai, T. Vreven, J. A. Montgomery, Jr., 
 J. E. Peralta, F. Ogliaro, M. Bearpark, J. J. Heyd, E. Brothers, 
 K. N. Kudin, V. N. Staroverov, T. Keith, R. Kobayashi, J. Normand, 
 K. Raghavachari, A. Rendell, J. C. Burant, S. S. Iyengar, J. Tomasi, 
 M. Cossi, N. Rega, J. M. Millam, M. Klene, J. E. Knox, J. B. Cross, 
 V. Bakken, C. Adamo, J. Jaramillo, R. Gomperts, R. E. Stratmann, 
 O. Yazyev, A. J. Austin, R. Cammi, C. Pomelli, J. W. Ochterski, 
 R. L. Martin, K. Morokuma, V. G. Zakrzewski, G. A. Voth, 
 P. Salvador, J. J. Dannenberg, S. Dapprich, A. D. Daniels, 
 O. Farkas, J. B. Foresman, J. V. Ortiz, J. Cioslowski, 
 and D. J. Fox, Gaussian, Inc., Wallingford CT, 2013.
 
 ******************************************
 Gaussian 09:  ES64L-G09RevE.01 30-Nov-2015
                 6-Dec-2021 
 ******************************************
 %nprocs=14
 Will use up to   14 processors via shared memory.
 %mem=128GB
 %chk=R_SegPhos_1_SPE_NoPd.chk
 ----------------------------------------------------------------------
 # PBE1PBE/def2TZVP int=(grid=ultrafine) empiricaldispersion=GD3BJ nmr=
 giao
 ----------------------------------------------------------------------
 1/38=1/1;
 2/12=2,17=6,18=5,40=1/2;
 3/5=44,7=101,11=2,16=1,25=1,30=1,74=-13,75=-5,124=41/1,2,8,3;
 4//1;
 5/5=2,38=5/2;
 8/6=1,10=90,11=11/1;
 10/13=100,45=16/2;
 6/7=2,8=2,9=2,10=2,28=1/1;
 99/9=1/99;
 -----------------
 R_SegPhos_1 title
 -----------------
 Symbolic Z-matrix:
 Charge =  0 Multiplicity = 1
 P                    -1.63342  -0.76063  -0.01145 
 P                     1.73132  -0.45847   0.04347 
 C                    -1.39588   0.67897   1.11428 
 C                     1.23458   0.97536  -1.00222 
 C                    -0.51392   1.74318   0.73917 
 C                    -0.33403   2.74435   1.68745 
 C                    -0.93126   2.71738   2.95445 
 C                    -1.77602   1.68752   3.33553 
 C                    -1.99938   0.66989   2.38485 
 C                     1.82382   1.14471  -2.26821 
 C                     1.41757   2.15715  -3.16219 
 C                     0.40421   2.99672  -2.72899 
 C                    -0.18216   2.84618  -1.46557 
 C                     0.17835   1.84226  -0.57332 
 C                    -3.11543  -1.58441   0.69435 
 C                    -2.14736  -0.03997  -1.61343 
 C                     3.33321  -0.96361  -0.69936 
 C                     2.116     0.25303   1.6853 
 C                     4.55051  -0.39303  -0.28921 
 C                     5.74196  -0.74617  -0.93847 
 C                     5.72216  -1.65885  -2.00141 
 C                     4.50808  -2.23168  -2.40994 
 C                     3.31717  -1.89561  -1.75663 
 C                     2.69352   1.5309    1.82274 
 C                     2.97922   2.0314    3.09966 
 C                     2.67342   1.27065   4.2389 
 C                     2.09559  -0.00009   4.10078 
 C                     1.82175  -0.51532   2.8271 
 C                    -2.94426   1.11996  -1.68309 
 C                    -3.32144   1.63076  -2.93188 
 C                    -2.89086   1.00047  -4.10979 
 C                    -2.09486  -0.15241  -4.03905 
 C                    -1.72677  -0.67963  -2.79436 
 C                    -4.41719  -1.21887   0.3104 
 C                    -5.52301  -1.81475   0.9332 
 C                    -5.33499  -2.76664   1.94403 
 C                    -4.03601  -3.13489   2.3262 
 C                    -2.92769  -2.55565   1.6984 
 O                    -1.15063   3.80719  -1.28277 
 C                    -1.22465   4.52533  -2.52832 
 O                    -0.16517   4.05991  -3.38657 
 O                    -0.55748   3.82699   3.6728 
 C                     0.39697   4.52138   2.84662 
 O                     0.44629   3.8715    1.56295 
 H                    -2.2471    1.66427   4.32072 
 H                    -2.66599  -0.15289   2.65231 
 H                     2.6255    0.47046  -2.57737 
 H                     1.88051   2.27316  -4.14468 
 H                     4.57471   0.3127    0.54615 
 H                     6.68896  -0.3088   -0.60558 
 H                     6.65473  -1.93428  -2.50457 
 H                     4.48892  -2.96105  -3.22585 
 H                     2.37416  -2.37222  -2.04275 
 H                     2.89229   2.14064   0.93525 
 H                     3.44233   3.01878   3.20476 
 H                     2.88783   1.66914   5.23595 
 H                     1.85861  -0.59521   4.98839 
 H                     1.38811  -1.51355   2.69841 
 H                    -3.24392   1.63481  -0.76436 
 H                    -3.95385   2.52391  -2.9847 
 H                    -3.17821   1.40841  -5.08441 
 H                    -1.76022  -0.64607  -4.95692 
 H                    -1.12135  -1.59002  -2.71872 
 H                    -4.57141  -0.48369  -0.48471 
 H                    -6.53462  -1.536     0.62036 
 H                    -6.20073  -3.23181   2.42654 
 H                    -3.88264  -3.89315   3.10053 
 H                    -1.91323  -2.87108   1.96234 
 H                    -2.19903   4.31928  -3.01079 
 H                    -1.09065   5.60442  -2.33578 
 H                     0.07081   5.56796   2.71337 
 H                     1.39501   4.46693   3.32159 
 
 Stoichiometry    C38H28O4P2
 Framework group  C1[X(C38H28O4P2)]
 Deg. of freedom   210
 Full point group                 C1      NOp   1
 Largest Abelian subgroup         C1      NOp   1
 Largest concise Abelian subgroup C1      NOp   1
                         Standard orientation:                         
 ---------------------------------------------------------------------
 Center     Atomic      Atomic             Coordinates (Angstroms)
 Number     Number       Type             X           Y           Z
 ---------------------------------------------------------------------
      1         15           0        1.685582   -0.117390   -1.324718
      2         15           0       -1.685011    0.117018   -1.325220
      3          6           0        1.377628    0.986821    0.118201
      4          6           0       -1.377606   -0.986855    0.118057
      5          6           0        0.383444    0.637107    1.087945
      6          6           0        0.163452    1.570942    2.094675
      7          6           0        0.827103    2.803188    2.156579
      8          6           0        1.781474    3.160142    1.217855
      9          6           0        2.046067    2.221881    0.198582
     10          6           0       -2.046273   -2.221768    0.198655
     11          6           0       -1.782294   -3.159625    1.218461
     12          6           0       -0.828311   -2.802399    2.157476
     13          6           0       -0.164362   -1.570322    2.095285
     14          6           0       -0.383724   -0.636913    1.088023
     15          6           0        3.272051    0.523719   -1.991956
     16          6           0        2.045695   -1.761318   -0.605256
     17          6           0       -3.271231   -0.524267   -1.992814
     18          6           0       -2.045334    1.761071   -0.606145
     19          6           0       -4.512061   -0.060350   -1.523001
     20          6           0       -5.699056   -0.634418   -1.999739
     21          6           0       -5.652434   -1.675837   -2.935950
     22          6           0       -4.414520   -2.137907   -3.408242
     23          6           0       -3.226284   -1.559376   -2.948439
     24          6           0       -2.729073    1.901266    0.617859
     25          6           0       -2.991076    3.180369    1.125699
     26          6           0       -2.556960    4.317890    0.427322
     27          6           0       -1.873594    4.176825   -0.789582
     28          6           0       -1.621868    2.901949   -1.313063
     29          6           0        2.728443   -1.901329    0.619323
     30          6           0        2.990506   -3.180366    1.127299
     31          6           0        2.557359   -4.318008    0.428515
     32          6           0        1.874915   -4.177125   -0.788926
     33          6           0        1.623171   -2.902311   -1.312553
     34          6           0        4.512728    0.060038   -1.521487
     35          6           0        5.699882    0.633973   -1.997990
     36          6           0        5.653580    1.675006   -2.934646
     37          6           0        4.415832    2.136813   -3.407619
     38          6           0        3.227441    1.558411   -2.948048
     39          8           0        0.720590   -1.463319    3.144242
     40          6           0        0.662411   -2.727029    3.831446
     41          8           0       -0.394196   -3.514474    3.249025
     42          8           0        0.392187    3.515783    3.247462
     43          6           0       -0.664249    2.728217    3.830041
     44          8           0       -0.722104    1.464325    3.143151
     45          1           0        2.304373    4.117988    1.264316
     46          1           0        2.798329    2.470595   -0.553158
     47          1           0       -2.798274   -2.470652   -0.553293
     48          1           0       -2.305432   -4.117329    1.265157
     49          1           0       -4.556235    0.758841   -0.799501
     50          1           0       -6.663030   -0.259569   -1.640343
     51          1           0       -6.581343   -2.120173   -3.307984
     52          1           0       -4.372167   -2.936864   -4.155195
     53          1           0       -2.260204   -1.886421   -3.345959
     54          1           0       -3.029590    1.012548    1.182484
     55          1           0       -3.536232    3.288543    2.069922
     56          1           0       -2.753614    5.315986    0.832288
     57          1           0       -1.536414    5.063221   -1.336208
     58          1           0       -1.106285    2.772113   -2.271383
     59          1           0        3.028190   -1.012530    1.184232
     60          1           0        3.534953   -3.288399    2.071946
     61          1           0        2.754051   -5.316053    0.833587
     62          1           0        1.538500   -5.063613   -1.335874
     63          1           0        1.108346   -2.772610   -2.271300
     64          1           0        4.556671   -0.758868   -0.797657
     65          1           0        6.663733    0.259314   -1.638066
     66          1           0        6.582615    2.119227   -3.306504
     67          1           0        4.373733    2.935456   -4.154922
     68          1           0        2.261503    1.885243   -3.346082
     69          1           0        1.624533   -3.257946    3.700680
     70          1           0        0.440793   -2.551888    4.898999
     71          1           0       -0.442621    2.553389    4.897652
     72          1           0       -1.626493    3.258865    3.699124
 ---------------------------------------------------------------------
 Rotational constants (GHZ):      0.0855157      0.0695661      0.0640120
 Standard basis: def2TZVP (5D, 7F)
 There are  1764 symmetry adapted cartesian basis functions of A   symmetry.
 There are  1544 symmetry adapted basis functions of A   symmetry.
  1544 basis functions,  2504 primitive gaussians,  1764 cartesian basis functions
   159 alpha electrons      159 beta electrons
       nuclear repulsion energy      5839.6220607455 Hartrees.
 NAtoms=   72 NActive=   72 NUniq=   72 SFac= 1.00D+00 NAtFMM=   60 NAOKFM=T Big=T
 Integral buffers will be    131072 words long.
 Raffenetti 2 integral format.
 Two-electron integral symmetry is turned on.
 Nuclear repulsion after empirical dispersion term =     5839.5002080962 Hartrees.
 One-electron integrals computed using PRISM.
   1 Symmetry operations used in ECPInt.
 ECPInt:  NShTT=  180300 NPrTT=  565533 LenC2=  142364 LenP2D=  293044.
 LDataN:  DoStor=T MaxTD1= 6 Len=  172
 NBasis=  1544 RedAO= T EigKep=  4.43D-06  NBF=  1544
 NBsUse=  1544 1.00D-06 EigRej= -1.00D+00 NBFU=  1544
 ExpMin= 9.04D-02 ExpMax= 5.24D+04 ExpMxC= 1.79D+03 IAcc=3 IRadAn=         5 AccDes= 0.00D+00
 Harris functional with IExCor= 1009 and IRadAn=       5 diagonalized for initial guess.
 HarFok:  IExCor= 1009 AccDes= 0.00D+00 IRadAn=         5 IDoV= 1 UseB2=F ITyADJ=14
 ICtDFT=  3500011 ScaDFX=  1.000000  1.000000  1.000000  1.000000
 FoFCou: FMM=F IPFlag=           0 FMFlag=      100000 FMFlg1=        2001
         NFxFlg=           0 DoJE=T BraDBF=F KetDBF=T FulRan=T
         wScrn=  0.000000 ICntrl=     500 IOpCl=  0 I1Cent=   200000004 NGrid=           0
         NMat0=    1 NMatS0=      1 NMatT0=    0 NMatD0=    1 NMtDS0=    0 NMtDT0=    0
 Petite list used in FoFCou.
 Requested convergence on RMS density matrix=1.00D-08 within 128 cycles.
 Requested convergence on MAX density matrix=1.00D-06.
 Requested convergence on             energy=1.00D-06.
 No special actions if energy rises.
 Integral accuracy reduced to 1.0D-05 until final iterations.
 Problem detected with inexpensive integrals.
 Switching to full accuracy and repeating last cycle.
 SCF Done:  E(RPBE1PBE) =  -2446.91193844     A.U. after   15 cycles
            NFock= 15  Conv=0.66D-08     -V/T= 2.0047
 DoSCS=F DFT=T ScalE2(SS,OS)=  1.000000  1.000000
 Range of M.O.s used for correlation:     1  1544
 NBasis=  1544 NAE=   159 NBE=   159 NFC=     0 NFV=     0
 NROrb=   1544 NOA=   159 NOB=   159 NVA=  1385 NVB=  1385

 **** Warning!!: The largest alpha MO coefficient is  0.45622371D+02

          Differentiating once with respect to magnetic field using GIAOs.
          Electric field/nuclear overlap derivatives assumed to be zero.
 FoFCou: FMM=F IPFlag=           0 FMFlag=      100000 FMFlg1=        2001
         NFxFlg=           0 DoJE=F BraDBF=F KetDBF=T FulRan=T
         wScrn=  0.000000 ICntrl=    6100 IOpCl=  0 I1Cent=           7 NGrid=          72
         NMat0=    1 NMatS0=      1 NMatT0=    0 NMatD0=    1 NMtDS0=    0 NMtDT0=    0
 Symmetry not used in FoFCou.
   1 Symmetry operations used in ECPInt.
 ECPInt:  NShTT=  180300 NPrTT=  565533 LenC2=  180301 LenP2D=  565533.
 LDataN:  DoStor=T MaxTD1= 7 Len=  274
 FoFJK:  IHMeth= 1 ICntrl=    6127 DoSepK=F KAlg= 0 I1Cent=   0 FoldK=F
 IRaf=         1 NMat=   1 IRICut=       1 DoRegI=T DoRafI=F ISym2E= 0.
          There are     3 degrees of freedom in the 1st order CPHF.  IDoFFX=0 NUNeed=     3.
      3 vectors produced by pass  0 Test12= 7.34D-12 3.33D-08 XBig12= 1.61D+02 1.88D+00.
 AX will form     3 AO Fock derivatives at one time.
      3 vectors produced by pass  1 Test12= 7.34D-12 3.33D-08 XBig12= 7.11D-01 1.66D-01.
      3 vectors produced by pass  2 Test12= 7.34D-12 3.33D-08 XBig12= 3.15D-03 1.11D-02.
      3 vectors produced by pass  3 Test12= 7.34D-12 3.33D-08 XBig12= 1.13D-05 1.11D-03.
      3 vectors produced by pass  4 Test12= 7.34D-12 3.33D-08 XBig12= 7.44D-08 9.49D-05.
      3 vectors produced by pass  5 Test12= 7.34D-12 3.33D-08 XBig12= 4.09D-10 6.39D-06.
      3 vectors produced by pass  6 Test12= 7.34D-12 3.33D-08 XBig12= 2.20D-12 3.83D-07.
 InvSVY:  IOpt=1 It=  1 EMax= 5.33D-15
 Solved reduced A of dimension    21 with     3 vectors.
 Calculating GIAO nuclear magnetic shielding tensors.
 SCF GIAO Magnetic shielding tensor (ppm):
      1  P    Isotropic =   294.3365   Anisotropy =    53.1343
   XX=   281.9355   YX=    10.3571   ZX=    46.2381
   XY=   -22.4527   YY=   288.6182   ZY=    10.6630
   XZ=     3.8132   YZ=    21.7354   ZZ=   312.4558
   Eigenvalues:   261.0819   292.1682   329.7593
      2  P    Isotropic =   294.3614   Anisotropy =    53.1219
   XX=   281.9785   YX=    10.3571   ZX=   -46.2472
   XY=   -22.4377   YY=   288.6305   ZY=   -10.6423
   XZ=    -3.8072   YZ=   -21.7181   ZZ=   312.4752
   Eigenvalues:   261.1252   292.1831   329.7760
      3  C    Isotropic =    45.8856   Anisotropy =   177.2095
   XX=    79.4229   YX=   -39.8526   ZX=    70.8595
   XY=   -41.4681   YY=    20.6362   ZY=   -53.3594
   XZ=    73.0859   YZ=   -57.1790   ZZ=    37.5978
   Eigenvalues:   -31.5080     5.1396   164.0253
      4  C    Isotropic =    45.8768   Anisotropy =   177.2187
   XX=    79.4486   YX=   -39.9004   ZX=   -70.8349
   XY=   -41.5241   YY=    20.6719   ZY=    53.3652
   XZ=   -73.0550   YZ=    57.1735   ZZ=    37.5100
   Eigenvalues:   -31.5159     5.1238   164.0226
      5  C    Isotropic =    61.6208   Anisotropy =   148.0450
   XX=    83.5456   YX=   -72.4319   ZX=    43.2389
   XY=   -53.4214   YY=    30.6186   ZY=   -35.2465
   XZ=    54.9550   YZ=   -19.1496   ZZ=    70.6981
   Eigenvalues:   -11.5256    36.0704   160.3175
      6  C    Isotropic =    31.6591   Anisotropy =   106.1464
   XX=    32.5406   YX=   -32.2399   ZX=    65.9063
   XY=   -27.6734   YY=    45.4418   ZY=    -4.5738
   XZ=    60.0668   YZ=   -12.5574   ZZ=    16.9950
   Eigenvalues:   -40.9424    33.4963   102.4234
      7  C    Isotropic =    31.6296   Anisotropy =   106.2726
   XX=    64.6723   YX=   -16.1321   ZX=    37.4681
   XY=    -8.3864   YY=    12.4578   ZY=   -52.0833
   XZ=    44.4847   YZ=   -39.1239   ZZ=    17.7588
   Eigenvalues:   -34.9444    27.3552   102.4780
      8  C    Isotropic =    73.5525   Anisotropy =   149.3803
   XX=   103.3462   YX=   -52.5025   ZX=    50.4924
   XY=   -64.1629   YY=    26.5531   ZY=   -26.5185
   XZ=    41.3676   YZ=   -39.5684   ZZ=    90.7581
   Eigenvalues:    -5.6059    53.1240   173.1394
      9  C    Isotropic =    55.6680   Anisotropy =   177.2086
   XX=    64.8370   YX=   -52.7541   ZX=    99.0218
   XY=   -60.4334   YY=    58.5346   ZY=    -8.7673
   XZ=    88.6489   YZ=   -23.9977   ZZ=    43.6324
   Eigenvalues:   -47.3020    40.4989   173.8071
     10  C    Isotropic =    55.6671   Anisotropy =   177.2123
   XX=    64.8802   YX=   -52.8147   ZX=   -99.0059
   XY=   -60.4652   YY=    58.5697   ZY=     8.7637
   XZ=   -88.5989   YZ=    23.9912   ZZ=    43.5515
   Eigenvalues:   -47.3032    40.4959   173.8087
     11  C    Isotropic =    73.5542   Anisotropy =   149.3745
   XX=   103.3600   YX=   -52.5671   ZX=   -50.4559
   XY=   -64.2047   YY=    26.6167   ZY=    26.5303
   XZ=   -41.3140   YZ=    39.5907   ZZ=    90.6860
   Eigenvalues:    -5.6017    53.1271   173.1372
     12  C    Isotropic =    31.6293   Anisotropy =   106.2685
   XX=    64.7186   YX=   -16.1793   ZX=   -37.4126
   XY=    -8.4564   YY=    12.5141   ZY=    52.0840
   XZ=   -44.4480   YZ=    39.1288   ZZ=    17.6554
   Eigenvalues:   -34.9449    27.3580   102.4750
     13  C    Isotropic =    31.6581   Anisotropy =   106.1470
   XX=    32.6097   YX=   -32.2787   ZX=   -65.8683
   XY=   -27.7113   YY=    45.4607   ZY=     4.5421
   XZ=   -60.0521   YZ=    12.5367   ZZ=    16.9040
   Eigenvalues:   -40.9456    33.4973   102.4228
     14  C    Isotropic =    61.6191   Anisotropy =   148.0453
   XX=    83.5783   YX=   -72.4535   ZX=   -43.2037
   XY=   -53.4680   YY=    30.6440   ZY=    35.2464
   XZ=   -54.9311   YZ=    19.1262   ZZ=    70.6350
   Eigenvalues:   -11.5292    36.0705   160.3159
     15  C    Isotropic =    41.0790   Anisotropy =   204.2356
   XX=   -35.1204   YX=   -16.8190   ZX=    16.3670
   XY=   -22.5967   YY=    69.2565   ZY=   106.0295
   XZ=    11.4343   YZ=    88.9981   ZZ=    89.1009
   Eigenvalues:   -52.2922    -1.7068   177.2361
     16  C    Isotropic =    40.9482   Anisotropy =   207.7030
   XX=   132.6928   YX=     2.5395   ZX=   -84.0354
   XY=     0.1161   YY=   -46.9799   ZY=    21.1219
   XZ=   -78.2876   YZ=    17.8559   ZZ=    37.1316
   Eigenvalues:   -54.1724    -2.4000   179.4168
     17  C    Isotropic =    41.0834   Anisotropy =   204.2415
   XX=   -35.1051   YX=   -16.7907   ZX=   -16.4164
   XY=   -22.5541   YY=    69.1798   ZY=  -106.0350
   XZ=   -11.4765   YZ=   -88.9998   ZZ=    89.1754
   Eigenvalues:   -52.2904    -1.7039   177.2444
     18  C    Isotropic =    40.9493   Anisotropy =   207.7002
   XX=   132.5559   YX=     2.4998   ZX=    84.1069
   XY=     0.0908   YY=   -46.9796   ZY=   -21.1408
   XZ=    78.3643   YZ=   -17.8739   ZZ=    37.2717
   Eigenvalues:   -54.1694    -2.3987   179.4161
     19  C    Isotropic =    44.6635   Anisotropy =   195.6475
   XX=    25.5602   YX=     5.8025   ZX=    11.3087
   XY=     8.8446   YY=    47.8984   ZY=  -113.0007
   XZ=    -0.5188   YZ=  -128.4119   ZZ=    60.5319
   Eigenvalues:   -67.5315    26.4269   175.0952
     20  C    Isotropic =    50.5084   Anisotropy =   186.1250
   XX=   -38.2261   YX=    29.4097   ZX=    35.2297
   XY=    26.3600   YY=    90.1578   ZY=   -76.3120
   XZ=    34.1205   YZ=   -82.4676   ZZ=    99.5936
   Eigenvalues:   -63.1354    40.0689   174.5918
     21  C    Isotropic =    51.9301   Anisotropy =   186.5017
   XX=   -30.6273   YX=   -34.9998   ZX=   -23.8439
   XY=   -37.9941   YY=    82.1025   ZY=   -83.8360
   XZ=   -23.0113   YZ=   -80.3650   ZZ=   104.3151
   Eigenvalues:   -57.7999    37.3256   176.2646
     22  C    Isotropic =    52.6765   Anisotropy =   183.2519
   XX=    41.5578   YX=    -1.1530   ZX=     6.6107
   XY=    -0.6314   YY=    49.1469   ZY=  -115.1217
   XZ=     6.7388   YZ=  -116.9296   ZZ=    67.3247
   Eigenvalues:   -58.2960    41.4809   174.8444
     23  C    Isotropic =    43.4531   Anisotropy =   183.9861
   XX=   -44.4467   YX=    22.2317   ZX=    37.0909
   XY=    35.7814   YY=    90.6102   ZY=   -70.0018
   XZ=    36.1629   YZ=   -87.0819   ZZ=    84.1958
   Eigenvalues:   -71.4776    35.7264   166.1105
     24  C    Isotropic =    41.2544   Anisotropy =   199.3457
   XX=   131.3675   YX=   -40.5589   ZX=    77.4842
   XY=   -24.4482   YY=   -35.5758   ZY=    40.0761
   XZ=    79.6655   YZ=    42.0726   ZZ=    27.9714
   Eigenvalues:   -77.8363    27.4479   174.1515
     25  C    Isotropic =    52.4217   Anisotropy =   186.0003
   XX=   118.7517   YX=    -1.6035   ZX=   100.2650
   XY=     1.2569   YY=    39.8970   ZY=    -8.6927
   XZ=   101.8676   YZ=   -10.0819   ZZ=    -1.3836
   Eigenvalues:   -59.5413    40.3846   176.4219
     26  C    Isotropic =    51.1784   Anisotropy =   190.9174
   XX=   140.6508   YX=    17.0105   ZX=    67.5213
   XY=     9.9673   YY=   -44.1620   ZY=   -34.3973
   XZ=    67.7600   YZ=   -32.3113   ZZ=    57.0462
   Eigenvalues:   -60.2590    35.3374   178.4566
     27  C    Isotropic =    51.7924   Anisotropy =   188.1531
   XX=   135.4441   YX=   -27.3939   ZX=    72.7040
   XY=   -30.2326   YY=   -24.8599   ZY=    36.9218
   XZ=    75.4798   YZ=    37.5581   ZZ=    44.7929
   Eigenvalues:   -59.5791    37.7284   177.2278
     28  C    Isotropic =    42.2362   Anisotropy =   188.4369
   XX=   108.5652   YX=   -12.0567   ZX=   106.5410
   XY=    -1.3811   YY=    32.5043   ZY=    -7.9447
   XZ=    98.7366   YZ=   -18.3281   ZZ=   -14.3607
   Eigenvalues:   -73.1594    32.0073   167.8609
     29  C    Isotropic =    41.2574   Anisotropy =   199.3486
   XX=   131.5215   YX=   -40.4931   ZX=   -77.3966
   XY=   -24.3546   YY=   -35.5968   ZY=   -40.1283
   XZ=   -79.5568   YZ=   -42.1273   ZZ=    27.8476
   Eigenvalues:   -77.8397    27.4555   174.1565
     30  C    Isotropic =    52.4195   Anisotropy =   186.0032
   XX=   118.9058   YX=    -1.5864   ZX=  -100.1800
   XY=     1.2847   YY=    39.8931   ZY=     8.6604
   XZ=  -101.7768   YZ=    10.0496   ZZ=    -1.5404
   Eigenvalues:   -59.5445    40.3813   176.4216
     31  C    Isotropic =    51.1787   Anisotropy =   190.9139
   XX=   140.7478   YX=    17.0628   ZX=   -67.4639
   XY=    10.0112   YY=   -44.1554   ZY=    34.3776
   XZ=   -67.7034   YZ=    32.2917   ZZ=    56.9438
   Eigenvalues:   -60.2593    35.3408   178.4547
     32  C    Isotropic =    51.7934   Anisotropy =   188.1476
   XX=   135.5834   YX=   -27.3007   ZX=   -72.6154
   XY=   -30.1405   YY=   -24.8743   ZY=   -36.9759
   XZ=   -75.3930   YZ=   -37.6135   ZZ=    44.6712
   Eigenvalues:   -59.5769    37.7320   177.2252
     33  C    Isotropic =    42.2382   Anisotropy =   188.4326
   XX=   108.7365   YX=   -12.0599   ZX=  -106.4393
   XY=    -1.3590   YY=    32.5024   ZY=     7.9060
   XZ=   -98.6392   YZ=    18.3034   ZZ=   -14.5244
   Eigenvalues:   -73.1544    32.0089   167.8599
     34  C    Isotropic =    44.6602   Anisotropy =   195.6472
   XX=    25.5598   YX=     5.7467   ZX=   -11.3288
   XY=     8.8004   YY=    47.9890   ZY=   113.0074
   XZ=     0.4998   YZ=   128.4189   ZZ=    60.4319
   Eigenvalues:   -67.5336    26.4226   175.0917
     35  C    Isotropic =    50.5079   Anisotropy =   186.1254
   XX=   -38.2023   YX=    29.3596   ZX=   -35.3009
   XY=    26.3126   YY=    90.2245   ZY=    76.3246
   XZ=   -34.1875   YZ=    82.4817   ZZ=    99.5014
   Eigenvalues:   -63.1377    40.0699   174.5915
     36  C    Isotropic =    51.9293   Anisotropy =   186.5045
   XX=   -30.6433   YX=   -35.0272   ZX=    23.8024
   XY=   -38.0222   YY=    82.1673   ZY=    83.8328
   XZ=    22.9705   YZ=    80.3639   ZZ=   104.2638
   Eigenvalues:   -57.8016    37.3238   176.2656
     37  C    Isotropic =    52.6771   Anisotropy =   183.2506
   XX=    41.5648   YX=    -1.2039   ZX=    -6.6248
   XY=    -0.6802   YY=    49.2446   ZY=   115.1276
   XZ=    -6.7534   YZ=   116.9367   ZZ=    67.2218
   Eigenvalues:   -58.2954    41.4825   174.8442
     38  C    Isotropic =    43.4510   Anisotropy =   183.9836
   XX=   -44.4231   YX=    22.1789   ZX=   -37.1571
   XY=    35.7290   YY=    90.6775   ZY=    70.0116
   XZ=   -36.2326   YZ=    87.0822   ZZ=    84.0987
   Eigenvalues:   -71.4805    35.7268   166.1068
     39  O    Isotropic =   195.0899   Anisotropy =   122.9897
   XX=   215.2392   YX=    21.8706   ZX=    32.3419
   XY=    27.6757   YY=   166.4033   ZY=    26.0002
   XZ=    62.5720   YZ=    58.1583   ZZ=   203.6271
   Eigenvalues:   138.4321   169.7546   277.0830
     40  C    Isotropic =    77.6797   Anisotropy =    51.6603
   XX=    71.0528   YX=    22.7805   ZX=    15.8933
   XY=    22.4712   YY=    99.2410   ZY=   -13.5369
   XZ=    10.5856   YZ=    -9.6850   ZZ=    62.7451
   Eigenvalues:    43.1866    77.7326   112.1198
     41  O    Isotropic =   199.0831   Anisotropy =   142.0912
   XX=   156.5926   YX=    -8.1901   ZX=    -1.1449
   XY=   -14.4522   YY=   219.9713   ZY=   -53.5855
   XZ=    -7.1491   YZ=   -93.0038   ZZ=   220.6855
   Eigenvalues:   139.8151   163.6237   293.8106
     42  O    Isotropic =   199.0846   Anisotropy =   142.0981
   XX=   156.5793   YX=    -8.3228   ZX=     1.0724
   XY=   -14.4529   YY=   220.0806   ZY=    53.6175
   XZ=     7.0924   YZ=    92.9522   ZZ=   220.5938
   Eigenvalues:   139.8239   163.6132   293.8166
     43  C    Isotropic =    77.6796   Anisotropy =    51.6675
   XX=    71.0369   YX=    22.7769   ZX=   -15.8803
   XY=    22.4687   YY=    99.2580   ZY=    13.5098
   XZ=   -10.6061   YZ=     9.6799   ZZ=    62.7439
   Eigenvalues:    43.1890    77.7252   112.1246
     44  O    Isotropic =   195.0844   Anisotropy =   122.9893
   XX=   215.3094   YX=    21.9547   ZX=   -32.3732
   XY=    27.6256   YY=   166.3528   ZY=   -25.9741
   XZ=   -62.5315   YZ=   -58.1143   ZZ=   203.5911
   Eigenvalues:   138.4249   169.7512   277.0773
     45  H    Isotropic =    25.2321   Anisotropy =     3.9019
   XX=    25.2872   YX=     1.6815   ZX=    -1.9764
   XY=     0.6282   YY=    24.8267   ZY=     2.2492
   XZ=    -2.1692   YZ=     1.9967   ZZ=    25.5824
   Eigenvalues:    21.6495    26.2134    27.8333
     46  H    Isotropic =    25.3932   Anisotropy =    12.5499
   XX=    22.4740   YX=     0.5310   ZX=    -2.7162
   XY=    -2.7751   YY=    27.5377   ZY=     6.5774
   XZ=    -4.8501   YZ=     5.1027   ZZ=    26.1678
   Eigenvalues:    19.2003    23.2195    33.7598
     47  H    Isotropic =    25.3932   Anisotropy =    12.5505
   XX=    22.4697   YX=     0.5332   ZX=     2.7129
   XY=    -2.7695   YY=    27.5332   ZY=    -6.5789
   XZ=     4.8506   YZ=    -5.1035   ZZ=    26.1766
   Eigenvalues:    19.2005    23.2189    33.7602
     48  H    Isotropic =    25.2322   Anisotropy =     3.9022
   XX=    25.2851   YX=     1.6828   ZX=     1.9754
   XY=     0.6307   YY=    24.8253   ZY=    -2.2491
   XZ=     2.1692   YZ=    -1.9958   ZZ=    25.5861
   Eigenvalues:    21.6494    26.2136    27.8336
     49  H    Isotropic =    23.7725   Anisotropy =    14.4127
   XX=    32.0012   YX=     4.5186   ZX=     2.4122
   XY=     0.9138   YY=    20.3480   ZY=     1.2054
   XZ=     3.2742   YZ=     3.8174   ZZ=    18.9683
   Eigenvalues:    17.0226    20.9140    33.3810
     50  H    Isotropic =    23.8954   Anisotropy =     7.0058
   XX=    25.7980   YX=     2.3073   ZX=     2.0687
   XY=     1.1348   YY=    23.5256   ZY=     2.6543
   XZ=     2.3142   YZ=     3.0442   ZZ=    22.3626
   Eigenvalues:    19.9553    23.1650    28.5659
     51  H    Isotropic =    23.8431   Anisotropy =     3.8847
   XX=    25.1421   YX=    -0.3978   ZX=    -0.3445
   XY=    -1.0150   YY=    23.3204   ZY=     2.4852
   XZ=    -0.5762   YZ=     2.9195   ZZ=    23.0668
   Eigenvalues:    20.4830    24.6134    26.4329
     52  H    Isotropic =    23.6768   Anisotropy =     5.8194
   XX=    27.0866   YX=     1.1121   ZX=     0.9928
   XY=     0.9011   YY=    21.8547   ZY=     1.4652
   XZ=     0.8524   YZ=     1.7803   ZZ=    22.0890
   Eigenvalues:    20.3429    23.1310    27.5564
     53  H    Isotropic =    23.1893   Anisotropy =    10.0537
   XX=    22.2963   YX=     3.1141   ZX=     2.9625
   XY=     3.1635   YY=    22.1191   ZY=     2.9770
   XZ=     2.6535   YZ=     4.4934   ZZ=    25.1526
   Eigenvalues:    18.8920    20.7842    29.8918
     54  H    Isotropic =    23.5304   Anisotropy =    10.3661
   XX=    24.3975   YX=    -4.2151   ZX=     0.1012
   XY=    -3.7598   YY=    22.9649   ZY=     3.9540
   XZ=    -1.3283   YZ=     7.0083   ZZ=    23.2287
   Eigenvalues:    16.7460    23.4040    30.4411
     55  H    Isotropic =    24.0003   Anisotropy =     5.5874
   XX=    23.5948   YX=    -1.5057   ZX=    -0.8359
   XY=    -1.3739   YY=    27.0855   ZY=     0.7286
   XZ=    -0.2850   YZ=     0.7490   ZZ=    21.3207
   Eigenvalues:    21.1590    23.1167    27.7253
     56  H    Isotropic =    23.9274   Anisotropy =     3.3363
   XX=    22.8077   YX=    -0.7363   ZX=    -2.0222
   XY=    -0.4721   YY=    24.8466   ZY=    -1.2288
   XZ=    -1.9563   YZ=    -1.4951   ZZ=    24.1279
   Eigenvalues:    20.9349    24.6957    26.1516
     57  H    Isotropic =    24.0551   Anisotropy =     5.1342
   XX=    22.2201   YX=    -2.4498   ZX=    -1.2488
   XY=    -1.7769   YY=    25.9631   ZY=     0.9813
   XZ=    -1.6679   YZ=     0.7146   ZZ=    23.9822
   Eigenvalues:    20.9183    23.7692    27.4780
     58  H    Isotropic =    23.4896   Anisotropy =     7.5252
   XX=    21.6977   YX=     0.2787   ZX=     1.5607
   XY=     0.2641   YY=    28.0647   ZY=    -2.1406
   XZ=    -0.0617   YZ=    -1.5662   ZZ=    20.7064
   Eigenvalues:    19.9141    22.0483    28.5064
     59  H    Isotropic =    23.5294   Anisotropy =    10.3675
   XX=    24.3957   YX=    -4.2142   ZX=    -0.1008
   XY=    -3.7596   YY=    22.9623   ZY=    -3.9568
   XZ=     1.3278   YZ=    -7.0097   ZZ=    23.2303
   Eigenvalues:    16.7434    23.4038    30.4411
     60  H    Isotropic =    24.0005   Anisotropy =     5.5895
   XX=    23.5925   YX=    -1.5075   ZX=     0.8361
   XY=    -1.3764   YY=    27.0860   ZY=    -0.7286
   XZ=     0.2854   YZ=    -0.7486   ZZ=    21.3229
   Eigenvalues:    21.1611    23.1135    27.7268
     61  H    Isotropic =    23.9276   Anisotropy =     3.3376
   XX=    22.8037   YX=    -0.7372   ZX=     2.0202
   XY=    -0.4728   YY=    24.8470   ZY=     1.2289
   XZ=     1.9550   YZ=     1.4953   ZZ=    24.1320
   Eigenvalues:    20.9352    24.6949    26.1527
     62  H    Isotropic =    24.0550   Anisotropy =     5.1336
   XX=    22.2180   YX=    -2.4487   ZX=     1.2481
   XY=    -1.7757   YY=    25.9626   ZY=    -0.9826
   XZ=     1.6676   YZ=    -0.7164   ZZ=    23.9844
   Eigenvalues:    20.9181    23.7695    27.4774
     63  H    Isotropic =    23.4895   Anisotropy =     7.5293
   XX=    21.6972   YX=     0.2781   ZX=    -1.5576
   XY=     0.2631   YY=    28.0677   ZY=     2.1406
   XZ=     0.0631   YZ=     1.5660   ZZ=    20.7035
   Eigenvalues:    19.9137    22.0457    28.5090
     64  H    Isotropic =    23.7737   Anisotropy =    14.4125
   XX=    32.0047   YX=     4.5206   ZX=    -2.4079
   XY=     0.9139   YY=    20.3493   ZY=    -1.2048
   XZ=    -3.2681   YZ=    -3.8135   ZZ=    18.9673
   Eigenvalues:    17.0249    20.9143    33.3821
     65  H    Isotropic =    23.8955   Anisotropy =     7.0060
   XX=    25.7996   YX=     2.3083   ZX=    -2.0683
   XY=     1.1353   YY=    23.5238   ZY=    -2.6544
   XZ=    -2.3130   YZ=    -3.0436   ZZ=    22.3631
   Eigenvalues:    19.9555    23.1648    28.5662
     66  H    Isotropic =    23.8431   Anisotropy =     3.8846
   XX=    25.1416   YX=    -0.3962   ZX=     0.3457
   XY=    -1.0137   YY=    23.3184   ZY=    -2.4857
   XZ=     0.5778   YZ=    -2.9196   ZZ=    23.0692
   Eigenvalues:    20.4831    24.6133    26.4328
     67  H    Isotropic =    23.6768   Anisotropy =     5.8191
   XX=    27.0870   YX=     1.1128   ZX=    -0.9911
   XY=     0.9014   YY=    21.8537   ZY=    -1.4646
   XZ=    -0.8508   YZ=    -1.7798   ZZ=    22.0896
   Eigenvalues:    20.3432    23.1310    27.5561
     68  H    Isotropic =    23.1890   Anisotropy =    10.0531
   XX=    22.2969   YX=     3.1150   ZX=    -2.9646
   XY=     3.1629   YY=    22.1168   ZY=    -2.9740
   XZ=    -2.6563   YZ=    -4.4904   ZZ=    25.1533
   Eigenvalues:    18.8924    20.7836    29.8911
     69  H    Isotropic =    25.4909   Anisotropy =     5.4683
   XX=    26.5091   YX=    -1.9204   ZX=     0.1951
   XY=    -1.8025   YY=    25.5204   ZY=    -2.7717
   XZ=     1.3660   YZ=    -2.5250   ZZ=    24.4432
   Eigenvalues:    22.1889    25.1474    29.1364
     70  H    Isotropic =    25.5106   Anisotropy =     8.0492
   XX=    21.4307   YX=     1.0289   ZX=     0.2920
   XY=     1.5546   YY=    24.6641   ZY=    -1.4787
   XZ=     1.2985   YZ=    -1.7391   ZZ=    30.4369
   Eigenvalues:    20.8006    24.8544    30.8767
     71  H    Isotropic =    25.5108   Anisotropy =     8.0516
   XX=    21.4283   YX=     1.0287   ZX=    -0.2914
   XY=     1.5542   YY=    24.6656   ZY=     1.4784
   XZ=    -1.3011   YZ=     1.7405   ZZ=    30.4384
   Eigenvalues:    20.7987    24.8551    30.8785
     72  H    Isotropic =    25.4908   Anisotropy =     5.4645
   XX=    26.5067   YX=    -1.9195   ZX=    -0.1934
   XY=    -1.8017   YY=    25.5191   ZY=     2.7676
   XZ=    -1.3680   YZ=     2.5244   ZZ=    24.4466
   Eigenvalues:    22.1925    25.1461    29.1338
 End of Minotr F.D. properties file   721 does not exist.
 End of Minotr F.D. properties file   722 does not exist.
 End of Minotr F.D. properties file   788 does not exist.

 **********************************************************************

            Population analysis using the SCF density.

 **********************************************************************

 Orbital symmetries:
       Occupied  (A) (A) (A) (A) (A) (A) (A) (A) (A) (A) (A) (A)
                 (A) (A) (A) (A) (A) (A) (A) (A) (A) (A) (A) (A)
                 (A) (A) (A) (A) (A) (A) (A) (A) (A) (A) (A) (A)
                 (A) (A) (A) (A) (A) (A) (A) (A) (A) (A) (A) (A)
                 (A) (A) (A) (A) (A) (A) (A) (A) (A) (A) (A) (A)
                 (A) (A) (A) (A) (A) (A) (A) (A) (A) (A) (A) (A)
                 (A) (A) (A) (A) (A) (A) (A) (A) (A) (A) (A) (A)
                 (A) (A) (A) (A) (A) (A) (A) (A) (A) (A) (A) (A)
                 (A) (A) (A) (A) (A) (A) (A) (A) (A) (A) (A) (A)
                 (A) (A) (A) (A) (A) (A) (A) (A) (A) (A) (A) (A)
                 (A) (A) (A) (A) (A) (A) (A) (A) (A) (A) (A) (A)
                 (A) (A) (A) (A) (A) (A) (A) (A) (A) (A) (A) (A)
                 (A) (A) (A) (A) (A) (A) (A) (A) (A) (A) (A) (A)
                 (A) (A) (A)
       Virtual   (A) (A) (A) (A) (A) (A) (A) (A) (A) (A) (A) (A)
                 (A) (A) (A) (A) (A) (A) (A) (A) (A) (A) (A) (A)
                 (A) (A) (A) (A) (A) (A) (A) (A) (A) (A) (A) (A)
                 (A) (A) (A) (A) (A) (A) (A) (A) (A) (A) (A) (A)
                 (A) (A) (A) (A) (A) (A) (A) (A) (A) (A) (A) (A)
                 (A) (A) (A) (A) (A) (A) (A) (A) (A) (A) (A) (A)
                 (A) (A) (A) (A) (A) (A) (A) (A) (A) (A) (A) (A)
                 (A) (A) (A) (A) (A) (A) (A) (A) (A) (A) (A) (A)
                 (A) (A) (A) (A) (A) (A) (A) (A) (A) (A) (A) (A)
                 (A) (A) (A) (A) (A) (A) (A) (A) (A) (A) (A) (A)
                 (A) (A) (A) (A) (A) (A) (A) (A) (A) (A) (A) (A)
                 (A) (A) (A) (A) (A) (A) (A) (A) (A) (A) (A) (A)
                 (A) (A) (A) (A) (A) (A) (A) (A) (A) (A) (A) (A)
                 (A) (A) (A) (A) (A) (A) (A) (A) (A) (A) (A) (A)
                 (A) (A) (A) (A) (A) (A) (A) (A) (A) (A) (A) (A)
                 (A) (A) (A) (A) (A) (A) (A) (A) (A) (A) (A) (A)
                 (A) (A) (A) (A) (A) (A) (A) (A) (A) (A) (A) (A)
                 (A) (A) (A) (A) (A) (A) (A) (A) (A) (A) (A) (A)
                 (A) (A) (A) (A) (A) (A) (A) (A) (A) (A) (A) (A)
                 (A) (A) (A) (A) (A) (A) (A) (A) (A) (A) (A) (A)
                 (A) (A) (A) (A) (A) (A) (A) (A) (A) (A) (A) (A)
                 (A) (A) (A) (A) (A) (A) (A) (A) (A) (A) (A) (A)
                 (A) (A) (A) (A) (A) (A) (A) (A) (A) (A) (A) (A)
                 (A) (A) (A) (A) (A) (A) (A) (A) (A) (A) (A) (A)
                 (A) (A) (A) (A) (A) (A) (A) (A) (A) (A) (A) (A)
                 (A) (A) (A) (A) (A) (A) (A) (A) (A) (A) (A) (A)
                 (A) (A) (A) (A) (A) (A) (A) (A) (A) (A) (A) (A)
                 (A) (A) (A) (A) (A) (A) (A) (A) (A) (A) (A) (A)
                 (A) (A) (A) (A) (A) (A) (A) (A) (A) (A) (A) (A)
                 (A) (A) (A) (A) (A) (A) (A) (A) (A) (A) (A) (A)
                 (A) (A) (A) (A) (A) (A) (A) (A) (A) (A) (A) (A)
                 (A) (A) (A) (A) (A) (A) (A) (A) (A) (A) (A) (A)
                 (A) (A) (A) (A) (A) (A) (A) (A) (A) (A) (A) (A)
                 (A) (A) (A) (A) (A) (A) (A) (A) (A) (A) (A) (A)
                 (A) (A) (A) (A) (A) (A) (A) (A) (A) (A) (A) (A)
                 (A) (A) (A) (A) (A) (A) (A) (A) (A) (A) (A) (A)
                 (A) (A) (A) (A) (A) (A) (A) (A) (A) (A) (A) (A)
                 (A) (A) (A) (A) (A) (A) (A) (A) (A) (A) (A) (A)
                 (A) (A) (A) (A) (A) (A) (A) (A) (A) (A) (A) (A)
                 (A) (A) (A) (A) (A) (A) (A) (A) (A) (A) (A) (A)
                 (A) (A) (A) (A) (A) (A) (A) (A) (A) (A) (A) (A)
                 (A) (A) (A) (A) (A) (A) (A) (A) (A) (A) (A) (A)
                 (A) (A) (A) (A) (A) (A) (A) (A) (A) (A) (A) (A)
                 (A) (A) (A) (A) (A) (A) (A) (A) (A) (A) (A) (A)
                 (A) (A) (A) (A) (A) (A) (A) (A) (A) (A) (A) (A)
                 (A) (A) (A) (A) (A) (A) (A) (A) (A) (A) (A) (A)
                 (A) (A) (A) (A) (A) (A) (A) (A) (A) (A) (A) (A)
                 (A) (A) (A) (A) (A) (A) (A) (A) (A) (A) (A) (A)
                 (A) (A) (A) (A) (A) (A) (A) (A) (A) (A) (A) (A)
                 (A) (A) (A) (A) (A) (A) (A) (A) (A) (A) (A) (A)
                 (A) (A) (A) (A) (A) (A) (A) (A) (A) (A) (A) (A)
                 (A) (A) (A) (A) (A) (A) (A) (A) (A) (A) (A) (A)
                 (A) (A) (A) (A) (A) (A) (A) (A) (A) (A) (A) (A)
                 (A) (A) (A) (A) (A) (A) (A) (A) (A) (A) (A) (A)
                 (A) (A) (A) (A) (A) (A) (A) (A) (A) (A) (A) (A)
                 (A) (A) (A) (A) (A) (A) (A) (A) (A) (A) (A) (A)
                 (A) (A) (A) (A) (A) (A) (A) (A) (A) (A) (A) (A)
                 (A) (A) (A) (A) (A) (A) (A) (A) (A) (A) (A) (A)
                 (A) (A) (A) (A) (A) (A) (A) (A) (A) (A) (A) (A)
                 (A) (A) (A) (A) (A) (A) (A) (A) (A) (A) (A) (A)
                 (A) (A) (A) (A) (A) (A) (A) (A) (A) (A) (A) (A)
                 (A) (A) (A) (A) (A) (A) (A) (A) (A) (A) (A) (A)
                 (A) (A) (A) (A) (A) (A) (A) (A) (A) (A) (A) (A)
                 (A) (A) (A) (A) (A) (A) (A) (A) (A) (A) (A) (A)
                 (A) (A) (A) (A) (A) (A) (A) (A) (A) (A) (A) (A)
                 (A) (A) (A) (A) (A) (A) (A) (A) (A) (A) (A) (A)
                 (A) (A) (A) (A) (A) (A) (A) (A) (A) (A) (A) (A)
                 (A) (A) (A) (A) (A) (A) (A) (A) (A) (A) (A) (A)
                 (A) (A) (A) (A) (A) (A) (A) (A) (A) (A) (A) (A)
                 (A) (A) (A) (A) (A) (A) (A) (A) (A) (A) (A) (A)
                 (A) (A) (A) (A) (A) (A) (A) (A) (A) (A) (A) (A)
                 (A) (A) (A) (A) (A) (A) (A) (A) (A) (A) (A) (A)
                 (A) (A) (A) (A) (A) (A) (A) (A) (A) (A) (A) (A)
                 (A) (A) (A) (A) (A) (A) (A) (A) (A) (A) (A) (A)
                 (A) (A) (A) (A) (A) (A) (A) (A) (A) (A) (A) (A)
                 (A) (A) (A) (A) (A) (A) (A) (A) (A) (A) (A) (A)
                 (A) (A) (A) (A) (A) (A) (A) (A) (A) (A) (A) (A)
                 (A) (A) (A) (A) (A) (A) (A) (A) (A) (A) (A) (A)
                 (A) (A) (A) (A) (A) (A) (A) (A) (A) (A) (A) (A)
                 (A) (A) (A) (A) (A) (A) (A) (A) (A) (A) (A) (A)
                 (A) (A) (A) (A) (A) (A) (A) (A) (A) (A) (A) (A)
                 (A) (A) (A) (A) (A) (A) (A) (A) (A) (A) (A) (A)
                 (A) (A) (A) (A) (A) (A) (A) (A) (A) (A) (A) (A)
                 (A) (A) (A) (A) (A) (A) (A) (A) (A) (A) (A) (A)
                 (A) (A) (A) (A) (A) (A) (A) (A) (A) (A) (A) (A)
                 (A) (A) (A) (A) (A) (A) (A) (A) (A) (A) (A) (A)
                 (A) (A) (A) (A) (A) (A) (A) (A) (A) (A) (A) (A)
                 (A) (A) (A) (A) (A) (A) (A) (A) (A) (A) (A) (A)
                 (A) (A) (A) (A) (A) (A) (A) (A) (A) (A) (A) (A)
                 (A) (A) (A) (A) (A) (A) (A) (A) (A) (A) (A) (A)
                 (A) (A) (A) (A) (A) (A) (A) (A) (A) (A) (A) (A)
                 (A) (A) (A) (A) (A) (A) (A) (A) (A) (A) (A) (A)
                 (A) (A) (A) (A) (A) (A) (A) (A) (A) (A) (A) (A)
                 (A) (A) (A) (A) (A) (A) (A) (A) (A) (A) (A) (A)
                 (A) (A) (A) (A) (A) (A) (A) (A) (A) (A) (A) (A)
                 (A) (A) (A) (A) (A) (A) (A) (A) (A) (A) (A) (A)
                 (A) (A) (A) (A) (A) (A) (A) (A) (A) (A) (A) (A)
                 (A) (A) (A) (A) (A) (A) (A) (A) (A) (A) (A) (A)
                 (A) (A) (A) (A) (A) (A) (A) (A) (A) (A) (A) (A)
                 (A) (A) (A) (A) (A) (A) (A) (A) (A) (A) (A) (A)
                 (A) (A) (A) (A) (A) (A) (A) (A) (A) (A) (A) (A)
                 (A) (A) (A) (A) (A) (A) (A) (A) (A) (A) (A) (A)
                 (A) (A) (A) (A) (A) (A) (A) (A) (A) (A) (A) (A)
                 (A) (A) (A) (A) (A) (A) (A) (A) (A) (A) (A) (A)
                 (A) (A) (A) (A) (A) (A) (A) (A) (A) (A) (A) (A)
                 (A) (A) (A) (A) (A) (A) (A) (A) (A) (A) (A) (A)
                 (A) (A) (A) (A) (A) (A) (A) (A) (A) (A) (A) (A)
                 (A) (A) (A) (A) (A) (A) (A) (A) (A) (A) (A) (A)
                 (A) (A) (A) (A) (A) (A) (A) (A) (A) (A) (A) (A)
                 (A) (A) (A) (A) (A) (A) (A) (A) (A) (A) (A) (A)
                 (A) (A) (A) (A) (A) (A) (A) (A) (A) (A) (A) (A)
                 (A) (A) (A) (A) (A) (A) (A) (A) (A) (A) (A) (A)
                 (A) (A) (A) (A) (A) (A) (A) (A) (A) (A) (A) (A)
                 (A) (A) (A) (A) (A) (A) (A) (A) (A) (A) (A) (A)
                 (A) (A) (A) (A) (A) (A) (A) (A) (A) (A) (A) (A)
                 (A) (A) (A) (A) (A)
 The electronic state is 1-A.
 Alpha  occ. eigenvalues --  -77.19303 -77.19302 -19.25342 -19.25342 -19.25321
 Alpha  occ. eigenvalues --  -19.25321 -10.34277 -10.34277 -10.28656 -10.28656
 Alpha  occ. eigenvalues --  -10.28551 -10.28551 -10.24681 -10.24650 -10.23905
 Alpha  occ. eigenvalues --  -10.23904 -10.23717 -10.23717 -10.23655 -10.23655
 Alpha  occ. eigenvalues --  -10.23454 -10.23454 -10.23301 -10.23301 -10.23300
 Alpha  occ. eigenvalues --  -10.23300 -10.23287 -10.23287 -10.23275 -10.23275
 Alpha  occ. eigenvalues --  -10.23193 -10.23193 -10.23185 -10.23184 -10.23175
 Alpha  occ. eigenvalues --  -10.23175 -10.23109 -10.23109 -10.23084 -10.23084
 Alpha  occ. eigenvalues --  -10.22965 -10.22965 -10.22534 -10.22533  -6.58928
 Alpha  occ. eigenvalues --   -6.58928  -4.72519  -4.72518  -4.72513  -4.72512
 Alpha  occ. eigenvalues --   -4.72059  -4.72059  -1.15213  -1.15122  -1.06355
 Alpha  occ. eigenvalues --   -1.06185  -0.89580  -0.88131  -0.87925  -0.87618
 Alpha  occ. eigenvalues --   -0.87578  -0.87174  -0.80539  -0.79230  -0.79202
 Alpha  occ. eigenvalues --   -0.77223  -0.77167  -0.76852  -0.76851  -0.76703
 Alpha  occ. eigenvalues --   -0.76690  -0.76230  -0.76200  -0.74970  -0.69912
 Alpha  occ. eigenvalues --   -0.69541  -0.66611  -0.65828  -0.65509  -0.63201
 Alpha  occ. eigenvalues --   -0.62909  -0.62484  -0.62369  -0.62004  -0.61964
 Alpha  occ. eigenvalues --   -0.61405  -0.61291  -0.61035  -0.57622  -0.57391
 Alpha  occ. eigenvalues --   -0.54552  -0.53921  -0.53727  -0.53246  -0.53027
 Alpha  occ. eigenvalues --   -0.52809  -0.52671  -0.51746  -0.51720  -0.50677
 Alpha  occ. eigenvalues --   -0.49078  -0.48937  -0.46869  -0.46824  -0.46570
 Alpha  occ. eigenvalues --   -0.46427  -0.46202  -0.46175  -0.45758  -0.45668
 Alpha  occ. eigenvalues --   -0.45543  -0.44586  -0.44554  -0.43545  -0.43442
 Alpha  occ. eigenvalues --   -0.43276  -0.43234  -0.42884  -0.42653  -0.41347
 Alpha  occ. eigenvalues --   -0.41222  -0.40915  -0.40585  -0.40100  -0.39435
 Alpha  occ. eigenvalues --   -0.39349  -0.39171  -0.38856  -0.38648  -0.38615
 Alpha  occ. eigenvalues --   -0.38074  -0.37692  -0.37635  -0.37481  -0.35745
 Alpha  occ. eigenvalues --   -0.35672  -0.35666  -0.35552  -0.35401  -0.34289
 Alpha  occ. eigenvalues --   -0.34272  -0.33290  -0.33209  -0.32822  -0.32675
 Alpha  occ. eigenvalues --   -0.28044  -0.27876  -0.27081  -0.27052  -0.26778
 Alpha  occ. eigenvalues --   -0.26664  -0.26619  -0.26605  -0.25556  -0.25421
 Alpha  occ. eigenvalues --   -0.23090  -0.22828  -0.20746  -0.18519
 Alpha virt. eigenvalues --   -0.03085  -0.03050  -0.02742  -0.02019  -0.01785
 Alpha virt. eigenvalues --   -0.01393  -0.00898  -0.00834  -0.00529   0.00157
 Alpha virt. eigenvalues --    0.01088   0.01110   0.04268   0.04424   0.05247
 Alpha virt. eigenvalues --    0.05563   0.06855   0.07011   0.07105   0.07298
 Alpha virt. eigenvalues --    0.07612   0.07743   0.07751   0.08313   0.08360
 Alpha virt. eigenvalues --    0.08817   0.08950   0.09231   0.09497   0.09708
 Alpha virt. eigenvalues --    0.09909   0.10274   0.10390   0.10977   0.11292
 Alpha virt. eigenvalues --    0.11340   0.11408   0.11716   0.11831   0.12503
 Alpha virt. eigenvalues --    0.12625   0.12818   0.13080   0.13259   0.13620
 Alpha virt. eigenvalues --    0.13722   0.13950   0.14355   0.14497   0.14750
 Alpha virt. eigenvalues --    0.15459   0.15531   0.15776   0.16419   0.16531
 Alpha virt. eigenvalues --    0.16698   0.17117   0.17540   0.17727   0.17878
 Alpha virt. eigenvalues --    0.18428   0.18868   0.19413   0.19709   0.19711
 Alpha virt. eigenvalues --    0.20057   0.20322   0.21415   0.21777   0.21780
 Alpha virt. eigenvalues --    0.22386   0.22398   0.22489   0.22504   0.22810
 Alpha virt. eigenvalues --    0.22999   0.23013   0.23174   0.23564   0.23730
 Alpha virt. eigenvalues --    0.23853   0.23992   0.24171   0.24282   0.24576
 Alpha virt. eigenvalues --    0.24692   0.24820   0.24828   0.25067   0.25656
 Alpha virt. eigenvalues --    0.25695   0.25987   0.26009   0.26057   0.26651
 Alpha virt. eigenvalues --    0.26820   0.27090   0.27119   0.27675   0.27897
 Alpha virt. eigenvalues --    0.28266   0.28700   0.28819   0.28928   0.29402
 Alpha virt. eigenvalues --    0.29693   0.29852   0.30065   0.30306   0.30511
 Alpha virt. eigenvalues --    0.31548   0.31643   0.31686   0.32369   0.32471
 Alpha virt. eigenvalues --    0.32589   0.33074   0.33084   0.33406   0.33497
 Alpha virt. eigenvalues --    0.33973   0.34280   0.34361   0.34438   0.34478
 Alpha virt. eigenvalues --    0.34684   0.34867   0.35138   0.35444   0.36165
 Alpha virt. eigenvalues --    0.36228   0.36336   0.36500   0.36574   0.36778
 Alpha virt. eigenvalues --    0.36853   0.37472   0.37499   0.37622   0.38453
 Alpha virt. eigenvalues --    0.38755   0.38860   0.38909   0.38994   0.39031
 Alpha virt. eigenvalues --    0.39561   0.39955   0.40093   0.40144   0.40805
 Alpha virt. eigenvalues --    0.40907   0.41230   0.41335   0.41763   0.41997
 Alpha virt. eigenvalues --    0.42043   0.42211   0.42480   0.42704   0.42923
 Alpha virt. eigenvalues --    0.42964   0.43064   0.43097   0.43448   0.43735
 Alpha virt. eigenvalues --    0.43752   0.44065   0.44372   0.44424   0.44482
 Alpha virt. eigenvalues --    0.44562   0.44908   0.45252   0.45361   0.45653
 Alpha virt. eigenvalues --    0.45706   0.45753   0.46032   0.46511   0.46883
 Alpha virt. eigenvalues --    0.46904   0.47277   0.47576   0.47837   0.47931
 Alpha virt. eigenvalues --    0.48193   0.48557   0.48674   0.49048   0.49092
 Alpha virt. eigenvalues --    0.49385   0.49463   0.49868   0.49927   0.50045
 Alpha virt. eigenvalues --    0.50209   0.50503   0.50746   0.51192   0.51328
 Alpha virt. eigenvalues --    0.51517   0.51971   0.52220   0.52786   0.52895
 Alpha virt. eigenvalues --    0.53177   0.53197   0.53710   0.54057   0.54088
 Alpha virt. eigenvalues --    0.54433   0.54521   0.54719   0.54854   0.55081
 Alpha virt. eigenvalues --    0.55491   0.55651   0.55869   0.56502   0.56662
 Alpha virt. eigenvalues --    0.56756   0.57306   0.57980   0.58129   0.58595
 Alpha virt. eigenvalues --    0.58780   0.59627   0.59661   0.59968   0.60332
 Alpha virt. eigenvalues --    0.60940   0.61128   0.61313   0.61604   0.62145
 Alpha virt. eigenvalues --    0.62398   0.62800   0.63757   0.63807   0.64144
 Alpha virt. eigenvalues --    0.64384   0.65004   0.65272   0.65946   0.66190
 Alpha virt. eigenvalues --    0.66292   0.66971   0.67017   0.67714   0.67723
 Alpha virt. eigenvalues --    0.68089   0.68117   0.68349   0.68741   0.68817
 Alpha virt. eigenvalues --    0.68979   0.69158   0.69223   0.69541   0.69555
 Alpha virt. eigenvalues --    0.69897   0.70316   0.70335   0.71226   0.71515
 Alpha virt. eigenvalues --    0.71537   0.71907   0.72218   0.72337   0.72864
 Alpha virt. eigenvalues --    0.73011   0.73315   0.73482   0.73806   0.73969
 Alpha virt. eigenvalues --    0.74408   0.74738   0.75046   0.75126   0.75356
 Alpha virt. eigenvalues --    0.75751   0.75861   0.76221   0.76466   0.76935
 Alpha virt. eigenvalues --    0.77105   0.77558   0.77882   0.78055   0.78243
 Alpha virt. eigenvalues --    0.78432   0.78964   0.79264   0.79404   0.79405
 Alpha virt. eigenvalues --    0.79520   0.79823   0.80451   0.81116   0.81227
 Alpha virt. eigenvalues --    0.81492   0.82176   0.82491   0.82675   0.83265
 Alpha virt. eigenvalues --    0.83344   0.83415   0.83662   0.84075   0.84458
 Alpha virt. eigenvalues --    0.84507   0.84577   0.85446   0.85687   0.85867
 Alpha virt. eigenvalues --    0.86426   0.86964   0.87372   0.87672   0.87790
 Alpha virt. eigenvalues --    0.88160   0.88309   0.88970   0.89309   0.89581
 Alpha virt. eigenvalues --    0.90366   0.90541   0.90668   0.91216   0.91555
 Alpha virt. eigenvalues --    0.92149   0.92300   0.92365   0.92627   0.92944
 Alpha virt. eigenvalues --    0.93169   0.93814   0.94146   0.94363   0.94625
 Alpha virt. eigenvalues --    0.95228   0.95505   0.96026   0.96105   0.96323
 Alpha virt. eigenvalues --    0.96784   0.97084   0.97896   0.98314   0.98773
 Alpha virt. eigenvalues --    0.98783   0.99339   0.99611   1.00133   1.00956
 Alpha virt. eigenvalues --    1.01106   1.01373   1.01824   1.02397   1.03293
 Alpha virt. eigenvalues --    1.03617   1.03769   1.04413   1.05086   1.05226
 Alpha virt. eigenvalues --    1.05528   1.06307   1.06421   1.06819   1.07507
 Alpha virt. eigenvalues --    1.07638   1.07807   1.08920   1.09278   1.09575
 Alpha virt. eigenvalues --    1.09948   1.10785   1.10962   1.11419   1.11675
 Alpha virt. eigenvalues --    1.12391   1.12413   1.12488   1.12978   1.13220
 Alpha virt. eigenvalues --    1.13697   1.14054   1.14181   1.15117   1.15298
 Alpha virt. eigenvalues --    1.15525   1.15907   1.16398   1.16674   1.16791
 Alpha virt. eigenvalues --    1.17559   1.17691   1.18012   1.18304   1.18809
 Alpha virt. eigenvalues --    1.18813   1.19224   1.19557   1.20407   1.20459
 Alpha virt. eigenvalues --    1.20787   1.21349   1.21681   1.22865   1.22924
 Alpha virt. eigenvalues --    1.23357   1.23541   1.24006   1.24012   1.24705
 Alpha virt. eigenvalues --    1.24708   1.24776   1.24968   1.25255   1.25345
 Alpha virt. eigenvalues --    1.25932   1.26413   1.26484   1.26886   1.26950
 Alpha virt. eigenvalues --    1.27212   1.27285   1.27298   1.28499   1.28623
 Alpha virt. eigenvalues --    1.28822   1.28983   1.29707   1.29894   1.30282
 Alpha virt. eigenvalues --    1.30964   1.31078   1.31355   1.31415   1.31720
 Alpha virt. eigenvalues --    1.32209   1.32594   1.32783   1.33096   1.34283
 Alpha virt. eigenvalues --    1.34676   1.35010   1.35300   1.35532   1.36528
 Alpha virt. eigenvalues --    1.36777   1.36944   1.37368   1.38129   1.38559
 Alpha virt. eigenvalues --    1.38983   1.39491   1.39861   1.39963   1.41172
 Alpha virt. eigenvalues --    1.41387   1.41903   1.42937   1.43514   1.44140
 Alpha virt. eigenvalues --    1.44521   1.44722   1.45131   1.45393   1.45590
 Alpha virt. eigenvalues --    1.46143   1.46719   1.46839   1.47122   1.47619
 Alpha virt. eigenvalues --    1.48023   1.48098   1.48406   1.48646   1.49428
 Alpha virt. eigenvalues --    1.49593   1.49964   1.50620   1.50673   1.51371
 Alpha virt. eigenvalues --    1.51586   1.51989   1.52042   1.52573   1.52805
 Alpha virt. eigenvalues --    1.52907   1.53824   1.54015   1.54485   1.54538
 Alpha virt. eigenvalues --    1.54559   1.54826   1.55407   1.55454   1.55822
 Alpha virt. eigenvalues --    1.55875   1.57003   1.57148   1.57617   1.58649
 Alpha virt. eigenvalues --    1.58713   1.59031   1.59281   1.59320   1.59674
 Alpha virt. eigenvalues --    1.59867   1.60528   1.60837   1.61449   1.61513
 Alpha virt. eigenvalues --    1.62284   1.62681   1.62858   1.63380   1.63919
 Alpha virt. eigenvalues --    1.64033   1.64344   1.65069   1.65250   1.65500
 Alpha virt. eigenvalues --    1.66232   1.66797   1.66846   1.67070   1.67298
 Alpha virt. eigenvalues --    1.68104   1.68121   1.68803   1.69040   1.69748
 Alpha virt. eigenvalues --    1.69808   1.69947   1.70431   1.70444   1.71046
 Alpha virt. eigenvalues --    1.71115   1.71422   1.71604   1.72006   1.72155
 Alpha virt. eigenvalues --    1.72560   1.72719   1.72900   1.73108   1.73593
 Alpha virt. eigenvalues --    1.73891   1.73991   1.74234   1.74376   1.74985
 Alpha virt. eigenvalues --    1.75276   1.75379   1.75890   1.76070   1.76268
 Alpha virt. eigenvalues --    1.76566   1.77581   1.77688   1.78126   1.78778
 Alpha virt. eigenvalues --    1.79340   1.79492   1.80055   1.80425   1.80576
 Alpha virt. eigenvalues --    1.80886   1.81036   1.82240   1.82800   1.82880
 Alpha virt. eigenvalues --    1.83120   1.83729   1.83811   1.83917   1.84478
 Alpha virt. eigenvalues --    1.85421   1.85647   1.85891   1.86374   1.86892
 Alpha virt. eigenvalues --    1.87260   1.87296   1.88334   1.88902   1.89040
 Alpha virt. eigenvalues --    1.89442   1.90129   1.90453   1.90693   1.90854
 Alpha virt. eigenvalues --    1.91032   1.91850   1.92580   1.92822   1.93813
 Alpha virt. eigenvalues --    1.94482   1.94647   1.94669   1.95566   1.95675
 Alpha virt. eigenvalues --    1.95705   1.96330   1.96602   1.97011   1.97737
 Alpha virt. eigenvalues --    1.97901   1.98255   1.98932   1.99229   1.99369
 Alpha virt. eigenvalues --    1.99616   2.00379   2.01641   2.01664   2.02605
 Alpha virt. eigenvalues --    2.02646   2.03247   2.03720   2.04400   2.04808
 Alpha virt. eigenvalues --    2.05097   2.05458   2.05626   2.06368   2.06503
 Alpha virt. eigenvalues --    2.06913   2.07416   2.07635   2.08048   2.08775
 Alpha virt. eigenvalues --    2.10531   2.10625   2.10980   2.11097   2.11200
 Alpha virt. eigenvalues --    2.11908   2.12022   2.12150   2.12304   2.13012
 Alpha virt. eigenvalues --    2.13877   2.14145   2.14252   2.14549   2.15085
 Alpha virt. eigenvalues --    2.15698   2.15699   2.16777   2.17010   2.17165
 Alpha virt. eigenvalues --    2.17398   2.17695   2.18264   2.18362   2.18611
 Alpha virt. eigenvalues --    2.18703   2.19243   2.19522   2.20558   2.21304
 Alpha virt. eigenvalues --    2.21702   2.21989   2.22177   2.22654   2.22873
 Alpha virt. eigenvalues --    2.23191   2.23917   2.24397   2.24704   2.25122
 Alpha virt. eigenvalues --    2.26077   2.26374   2.26880   2.27407   2.27542
 Alpha virt. eigenvalues --    2.27891   2.28378   2.28927   2.29848   2.30179
 Alpha virt. eigenvalues --    2.31448   2.31601   2.31952   2.32187   2.32484
 Alpha virt. eigenvalues --    2.33248   2.33960   2.34755   2.35040   2.35217
 Alpha virt. eigenvalues --    2.35987   2.36547   2.36754   2.38091   2.39858
 Alpha virt. eigenvalues --    2.39973   2.40723   2.40804   2.41567   2.42124
 Alpha virt. eigenvalues --    2.42137   2.42455   2.42529   2.44354   2.44772
 Alpha virt. eigenvalues --    2.45064   2.45341   2.45594   2.46675   2.47463
 Alpha virt. eigenvalues --    2.47554   2.47947   2.48351   2.48356   2.49339
 Alpha virt. eigenvalues --    2.49842   2.50055   2.50841   2.51000   2.51591
 Alpha virt. eigenvalues --    2.51869   2.52371   2.52921   2.53168   2.53979
 Alpha virt. eigenvalues --    2.54030   2.54720   2.55867   2.55958   2.56381
 Alpha virt. eigenvalues --    2.56696   2.57070   2.57371   2.57944   2.58258
 Alpha virt. eigenvalues --    2.58369   2.59492   2.60060   2.60147   2.60593
 Alpha virt. eigenvalues --    2.61164   2.61383   2.61695   2.61938   2.62253
 Alpha virt. eigenvalues --    2.62719   2.62858   2.63394   2.63590   2.64208
 Alpha virt. eigenvalues --    2.64261   2.64655   2.64989   2.65170   2.65678
 Alpha virt. eigenvalues --    2.66186   2.66310   2.66828   2.66991   2.67211
 Alpha virt. eigenvalues --    2.67277   2.67514   2.67721   2.68177   2.68283
 Alpha virt. eigenvalues --    2.68728   2.68918   2.69960   2.70561   2.70788
 Alpha virt. eigenvalues --    2.70985   2.71061   2.71798   2.71901   2.72017
 Alpha virt. eigenvalues --    2.72580   2.72581   2.73407   2.73493   2.73666
 Alpha virt. eigenvalues --    2.73835   2.74190   2.74587   2.74991   2.75058
 Alpha virt. eigenvalues --    2.75679   2.75809   2.76420   2.76648   2.76882
 Alpha virt. eigenvalues --    2.77012   2.77659   2.77785   2.77991   2.78134
 Alpha virt. eigenvalues --    2.78558   2.78667   2.79015   2.79413   2.80096
 Alpha virt. eigenvalues --    2.80099   2.80112   2.80305   2.80990   2.81081
 Alpha virt. eigenvalues --    2.81330   2.81501   2.81944   2.82275   2.82539
 Alpha virt. eigenvalues --    2.83485   2.83632   2.83742   2.84033   2.84370
 Alpha virt. eigenvalues --    2.84688   2.85211   2.85308   2.85696   2.85863
 Alpha virt. eigenvalues --    2.86279   2.86286   2.86387   2.86733   2.87137
 Alpha virt. eigenvalues --    2.87269   2.87610   2.88099   2.88716   2.89081
 Alpha virt. eigenvalues --    2.89519   2.89967   2.90458   2.90837   2.90943
 Alpha virt. eigenvalues --    2.91829   2.91983   2.91989   2.92546   2.92549
 Alpha virt. eigenvalues --    2.92803   2.93178   2.94396   2.94409   2.94891
 Alpha virt. eigenvalues --    2.94991   2.95101   2.95476   2.96210   2.96484
 Alpha virt. eigenvalues --    2.96526   2.97433   2.97929   2.98562   2.98858
 Alpha virt. eigenvalues --    2.98876   2.99994   3.00720   3.00780   3.02155
 Alpha virt. eigenvalues --    3.02261   3.02831   3.02886   3.03394   3.04068
 Alpha virt. eigenvalues --    3.05006   3.05942   3.06035   3.06153   3.06482
 Alpha virt. eigenvalues --    3.07078   3.07795   3.08775   3.08917   3.09223
 Alpha virt. eigenvalues --    3.09983   3.10488   3.10846   3.10994   3.11408
 Alpha virt. eigenvalues --    3.11473   3.12093   3.12306   3.12526   3.12730
 Alpha virt. eigenvalues --    3.13301   3.13805   3.13894   3.13973   3.14324
 Alpha virt. eigenvalues --    3.14581   3.14820   3.15209   3.15458   3.16598
 Alpha virt. eigenvalues --    3.17006   3.17067   3.17210   3.17220   3.17582
 Alpha virt. eigenvalues --    3.18114   3.18190   3.18367   3.18966   3.18977
 Alpha virt. eigenvalues --    3.19213   3.19744   3.19816   3.20097   3.20218
 Alpha virt. eigenvalues --    3.20900   3.21045   3.21316   3.21628   3.22119
 Alpha virt. eigenvalues --    3.22222   3.22440   3.23079   3.23383   3.23985
 Alpha virt. eigenvalues --    3.24062   3.24472   3.24675   3.24942   3.25662
 Alpha virt. eigenvalues --    3.25793   3.25974   3.26328   3.26776   3.27298
 Alpha virt. eigenvalues --    3.27651   3.27800   3.28146   3.28524   3.29072
 Alpha virt. eigenvalues --    3.29168   3.29290   3.29616   3.30170   3.30222
 Alpha virt. eigenvalues --    3.30462   3.30519   3.30946   3.31295   3.31700
 Alpha virt. eigenvalues --    3.31825   3.32029   3.32399   3.32421   3.33074
 Alpha virt. eigenvalues --    3.33615   3.33950   3.33972   3.34635   3.35074
 Alpha virt. eigenvalues --    3.35219   3.35435   3.35480   3.35631   3.36252
 Alpha virt. eigenvalues --    3.36322   3.37009   3.37019   3.37153   3.37301
 Alpha virt. eigenvalues --    3.37843   3.38088   3.38147   3.38243   3.38684
 Alpha virt. eigenvalues --    3.38806   3.39608   3.39722   3.39915   3.40052
 Alpha virt. eigenvalues --    3.40576   3.41024   3.41209   3.41475   3.41946
 Alpha virt. eigenvalues --    3.41960   3.42183   3.42333   3.42809   3.43046
 Alpha virt. eigenvalues --    3.43425   3.43503   3.43554   3.43863   3.44488
 Alpha virt. eigenvalues --    3.44491   3.44876   3.45131   3.45369   3.45735
 Alpha virt. eigenvalues --    3.46000   3.46272   3.46437   3.46718   3.47457
 Alpha virt. eigenvalues --    3.47916   3.48017   3.48110   3.49039   3.49231
 Alpha virt. eigenvalues --    3.49365   3.49556   3.50097   3.50492   3.51129
 Alpha virt. eigenvalues --    3.51260   3.51804   3.51968   3.52277   3.52748
 Alpha virt. eigenvalues --    3.52904   3.53039   3.53080   3.53432   3.53820
 Alpha virt. eigenvalues --    3.53862   3.54549   3.54720   3.55003   3.55207
 Alpha virt. eigenvalues --    3.55555   3.55611   3.55912   3.56642   3.56760
 Alpha virt. eigenvalues --    3.57102   3.57204   3.57311   3.58173   3.58610
 Alpha virt. eigenvalues --    3.58881   3.59181   3.59244   3.60176   3.60559
 Alpha virt. eigenvalues --    3.60670   3.61504   3.61641   3.62087   3.62493
 Alpha virt. eigenvalues --    3.63589   3.63990   3.64041   3.64497   3.66023
 Alpha virt. eigenvalues --    3.66151   3.67123   3.67713   3.68055   3.68805
 Alpha virt. eigenvalues --    3.69751   3.70098   3.70839   3.71340   3.71583
 Alpha virt. eigenvalues --    3.71755   3.71776   3.72025   3.72453   3.73602
 Alpha virt. eigenvalues --    3.74456   3.74690   3.74969   3.75446   3.76529
 Alpha virt. eigenvalues --    3.77051   3.77090   3.77883   3.78075   3.78109
 Alpha virt. eigenvalues --    3.79904   3.80429   3.81429   3.81435   3.82736
 Alpha virt. eigenvalues --    3.84158   3.86597   3.87197   3.87689   3.88448
 Alpha virt. eigenvalues --    3.89208   3.89361   3.89869   3.90115   3.91003
 Alpha virt. eigenvalues --    3.92585   3.93206   3.93381   3.94011   3.94827
 Alpha virt. eigenvalues --    3.95493   3.96065   3.96263   3.97123   3.97620
 Alpha virt. eigenvalues --    3.99848   4.00171   4.02085   4.02817   4.03090
 Alpha virt. eigenvalues --    4.03374   4.03455   4.04897   4.05322   4.05405
 Alpha virt. eigenvalues --    4.05846   4.06795   4.07613   4.08202   4.08329
 Alpha virt. eigenvalues --    4.09489   4.09663   4.10723   4.11478   4.11827
 Alpha virt. eigenvalues --    4.12326   4.12700   4.12889   4.12934   4.13426
 Alpha virt. eigenvalues --    4.13751   4.14420   4.14732   4.14864   4.15953
 Alpha virt. eigenvalues --    4.16284   4.17633   4.18288   4.19371   4.19526
 Alpha virt. eigenvalues --    4.19923   4.20145   4.20200   4.20355   4.20807
 Alpha virt. eigenvalues --    4.20905   4.21193   4.21317   4.21638   4.22008
 Alpha virt. eigenvalues --    4.22087   4.22128   4.22461   4.22835   4.22995
 Alpha virt. eigenvalues --    4.23220   4.23848   4.24359   4.25011   4.25123
 Alpha virt. eigenvalues --    4.25813   4.25928   4.26628   4.26886   4.27112
 Alpha virt. eigenvalues --    4.27384   4.27507   4.27857   4.27872   4.27884
 Alpha virt. eigenvalues --    4.28711   4.29304   4.30392   4.30807   4.33024
 Alpha virt. eigenvalues --    4.33200   4.33298   4.33909   4.33964   4.34618
 Alpha virt. eigenvalues --    4.34677   4.35132   4.35345   4.36370   4.36447
 Alpha virt. eigenvalues --    4.36839   4.37808   4.39216   4.40103   4.41435
 Alpha virt. eigenvalues --    4.41772   4.43890   4.45742   4.48268   4.48948
 Alpha virt. eigenvalues --    4.50862   4.54420   4.56029   4.60017   4.61130
 Alpha virt. eigenvalues --    4.61235   4.61895   4.62102   4.62321   4.63378
 Alpha virt. eigenvalues --    4.63903   4.64059   4.64510   4.64867   4.66083
 Alpha virt. eigenvalues --    4.66151   4.66632   4.67028   4.67791   4.68036
 Alpha virt. eigenvalues --    4.69809   4.70332   4.71505   4.72504   4.73057
 Alpha virt. eigenvalues --    4.73242   4.73519   4.75392   4.75568   4.76312
 Alpha virt. eigenvalues --    4.77540   4.77542   4.80197   4.81692   4.81786
 Alpha virt. eigenvalues --    4.85597   4.85872   4.86301   4.87189   4.89441
 Alpha virt. eigenvalues --    4.91522   4.92222   4.92679   4.93488   4.94325
 Alpha virt. eigenvalues --    4.95266   4.95639   4.96652   4.97343   4.97469
 Alpha virt. eigenvalues --    4.98114   4.99274   5.04463   5.04851   5.05468
 Alpha virt. eigenvalues --    5.06799   5.11113   5.13279   5.13770   5.13938
 Alpha virt. eigenvalues --    5.14163   5.14224   5.14312   5.14948   5.15101
 Alpha virt. eigenvalues --    5.15396   5.16692   5.19443   5.24578   5.27109
 Alpha virt. eigenvalues --    5.27169   5.27596   5.27896   5.34747   5.34972
 Alpha virt. eigenvalues --    5.35442   5.35635   5.36357   5.38643   5.40760
 Alpha virt. eigenvalues --    5.41095   5.42618   5.42667   5.42911   5.43645
 Alpha virt. eigenvalues --    5.45236   5.48611   5.52486   5.54448   5.55337
 Alpha virt. eigenvalues --    5.58044   5.58079   5.58445   5.60233   5.60964
 Alpha virt. eigenvalues --    5.61310   5.63866   5.64253   5.69653   5.69672
 Alpha virt. eigenvalues --    5.73346   5.73413   5.78357   5.78838   5.80899
 Alpha virt. eigenvalues --    5.85311   5.90117   5.91141   5.93334   5.95011
 Alpha virt. eigenvalues --    6.00731   6.02417   6.13425   6.14478   6.28398
 Alpha virt. eigenvalues --    6.29920   6.34014   6.35354   6.68695   6.70104
 Alpha virt. eigenvalues --    6.70117   6.71018   6.76279   6.77076   6.78361
 Alpha virt. eigenvalues --    6.78768   6.85893   6.86101   6.90687   6.91229
 Alpha virt. eigenvalues --    6.91655   6.93926   7.18878   7.19000   7.21364
 Alpha virt. eigenvalues --    7.25292   7.30268   7.32065   7.48383   7.51606
 Alpha virt. eigenvalues --    7.82563   7.82752   8.07919   8.09194   8.12024
 Alpha virt. eigenvalues --    8.13659  16.07011  16.17594  22.21441  22.22056
 Alpha virt. eigenvalues --   22.28001  22.29575  22.40783  22.42880  22.53708
 Alpha virt. eigenvalues --   22.57005  22.62506  22.62817  22.63663  22.63959
 Alpha virt. eigenvalues --   22.67017  22.67523  22.67769  22.67843  22.72837
 Alpha virt. eigenvalues --   22.73550  22.76811  22.79243  22.80113  22.81340
 Alpha virt. eigenvalues --   22.83111  22.84255  22.87767  22.88984  22.91656
 Alpha virt. eigenvalues --   22.99361  23.09928  23.13175  23.15533  23.17663
 Alpha virt. eigenvalues --   23.18636  23.20320  23.22295  23.24791  23.53271
 Alpha virt. eigenvalues --   23.74692  44.27845  44.29225  44.45248  44.49961
          Condensed to atoms (all electrons):
 Mulliken charges:
               1
     1  P    0.043833
     2  P    0.043865
     3  C   -0.028904
     4  C   -0.029054
     5  C    0.041562
     6  C    0.185661
     7  C    0.106495
     8  C   -0.295906
     9  C   -0.139850
    10  C   -0.139819
    11  C   -0.295882
    12  C    0.106512
    13  C    0.185683
    14  C    0.041502
    15  C    0.064454
    16  C    0.167910
    17  C    0.064443
    18  C    0.167969
    19  C   -0.125446
    20  C   -0.151331
    21  C   -0.105068
    22  C   -0.105084
    23  C   -0.217363
    24  C   -0.184092
    25  C   -0.149722
    26  C   -0.114749
    27  C   -0.110210
    28  C   -0.202848
    29  C   -0.183908
    30  C   -0.149742
    31  C   -0.114740
    32  C   -0.110227
    33  C   -0.202868
    34  C   -0.125470
    35  C   -0.151296
    36  C   -0.105062
    37  C   -0.105096
    38  C   -0.217352
    39  O   -0.273960
    40  C    0.135527
    41  O   -0.255126
    42  O   -0.255137
    43  C    0.135534
    44  O   -0.273963
    45  H    0.115444
    46  H    0.140832
    47  H    0.140829
    48  H    0.115446
    49  H    0.142295
    50  H    0.116383
    51  H    0.118418
    52  H    0.118103
    53  H    0.126003
    54  H    0.155344
    55  H    0.121912
    56  H    0.115891
    57  H    0.115073
    58  H    0.125896
    59  H    0.155298
    60  H    0.121907
    61  H    0.115896
    62  H    0.115078
    63  H    0.125891
    64  H    0.142281
    65  H    0.116385
    66  H    0.118420
    67  H    0.118103
    68  H    0.126014
    69  H    0.085534
    70  H    0.117056
    71  H    0.117026
    72  H    0.085568
 Sum of Mulliken charges =  -0.00000
 Mulliken charges with hydrogens summed into heavy atoms:
               1
     1  P    0.043833
     2  P    0.043865
     3  C   -0.028904
     4  C   -0.029054
     5  C    0.041562
     6  C    0.185661
     7  C    0.106495
     8  C   -0.180462
     9  C    0.000981
    10  C    0.001010
    11  C   -0.180437
    12  C    0.106512
    13  C    0.185683
    14  C    0.041502
    15  C    0.064454
    16  C    0.167910
    17  C    0.064443
    18  C    0.167969
    19  C    0.016849
    20  C   -0.034948
    21  C    0.013351
    22  C    0.013019
    23  C   -0.091359
    24  C   -0.028748
    25  C   -0.027811
    26  C    0.001142
    27  C    0.004862
    28  C   -0.076952
    29  C   -0.028610
    30  C   -0.027835
    31  C    0.001156
    32  C    0.004850
    33  C   -0.076977
    34  C    0.016810
    35  C   -0.034911
    36  C    0.013358
    37  C    0.013007
    38  C   -0.091338
    39  O   -0.273960
    40  C    0.338118
    41  O   -0.255126
    42  O   -0.255137
    43  C    0.338129
    44  O   -0.273963
 Electronic spatial extent (au):  <R**2>=          20797.7321
 Charge=             -0.0000 electrons
 Dipole moment (field-independent basis, Debye):
    X=             -0.0001    Y=              0.0004    Z=              1.9800  Tot=              1.9800
 Quadrupole moment (field-independent basis, Debye-Ang):
   XX=           -250.7838   YY=           -246.8188   ZZ=           -251.3844
   XY=             -1.1833   XZ=             -0.0023   YZ=              0.0020
 Traceless Quadrupole moment (field-independent basis, Debye-Ang):
   XX=             -1.1215   YY=              2.8435   ZZ=             -1.7221
   XY=             -1.1833   XZ=             -0.0023   YZ=              0.0020
 Octapole moment (field-independent basis, Debye-Ang**2):
  XXX=             -0.0293  YYY=             -0.0063  ZZZ=            136.3835  XYY=             -0.0040
  XXY=              0.0306  XXZ=             10.8668  XZZ=              0.0150  YZZ=             -0.0156
  YYZ=              0.7164  XYZ=            -85.4903
 Hexadecapole moment (field-independent basis, Debye-Ang**3):
 XXXX=         -11906.0739 YYYY=          -8450.9231 ZZZZ=          -6616.3559 XXXY=            258.2806
 XXXZ=             -0.0101 YYYX=           -120.1726 YYYZ=              0.0894 ZZZX=             -0.1198
 ZZZY=              0.0018 XXYY=          -3520.0453 XXZZ=          -3235.2983 YYZZ=          -2453.0134
 XXYZ=              0.0427 YYXZ=             -0.0468 ZZXY=             39.1875
 N-N= 5.839500208096D+03 E-N=-1.741168211648D+04  KE= 2.435536820897D+03
 1\1\GINC-NC020\SP\RPBE1PBE\def2TZVP\C38H28O4P2\MACKK4\06-Dec-2021\0\\#
  PBE1PBE/def2TZVP int=(grid=ultrafine) empiricaldispersion=GD3BJ nmr=g
 iao\\R_SegPhos_1 title\\0,1\P,0,-1.6334239353,-0.7606295203,-0.0114528
 897\P,0,1.7313230934,-0.4584692769,0.0434736293\C,0,-1.395879986,0.678
 9660614,1.1142779824\C,0,1.2345765496,0.9753551399,-1.0022200738\C,0,-
 0.5139213864,1.7431780267,0.7391693475\C,0,-0.3340277586,2.7443501271,
 1.6874528168\C,0,-0.9312562925,2.7173806154,2.9544522952\C,0,-1.776015
 9701,1.6875246522,3.3355300321\C,0,-1.9993768858,0.6698907732,2.384850
 6951\C,0,1.8238199443,1.1447117833,-2.2682104919\C,0,1.4175685336,2.15
 71466463,-3.1621900867\C,0,0.4042081124,2.9967172596,-2.7289891536\C,0
 ,-0.1821578908,2.8461822456,-1.4655718631\C,0,0.178350939,1.8422596835
 ,-0.5733154181\C,0,-3.1154316964,-1.584409213,0.6943464603\C,0,-2.1473
 615274,-0.039968137,-1.6134274973\C,0,3.3332116301,-0.9636109772,-0.69
 93635679\C,0,2.1160031929,0.2530337468,1.6853005394\C,0,4.5505125613,-
 0.3930327606,-0.2892132287\C,0,5.7419587049,-0.7461707465,-0.938474632
 \C,0,5.7221559233,-1.6588544655,-2.0014117154\C,0,4.5080808183,-2.2316
 752753,-2.4099405409\C,0,3.3171716061,-1.8956128066,-1.7566267097\C,0,
 2.6935170884,1.530895237,1.8227370434\C,0,2.9792184882,2.03139814,3.09
 9656047\C,0,2.6734174613,1.2706476651,4.2389046405\C,0,2.0955883901,-0
 .0000913941,4.1007766896\C,0,1.8217481064,-0.515322591,2.8270982838\C,
 0,-2.9442591127,1.1199632909,-1.6830914614\C,0,-3.3214431718,1.6307579
 573,-2.9318798949\C,0,-2.8908646141,1.0004670937,-4.1097933751\C,0,-2.
 0948635118,-0.152405873,-4.0390465922\C,0,-1.726766144,-0.6796292851,-
 2.7943570511\C,0,-4.4171942148,-1.218872992,0.3103998054\C,0,-5.523012
 0876,-1.814753939,0.9332036643\C,0,-5.3349853847,-2.7666391027,1.94403
 39223\C,0,-4.0360123987,-3.1348936629,2.3261975969\C,0,-2.9276894769,-
 2.5556539551,1.6984011173\O,0,-1.1506329214,3.8071921971,-1.2827748937
 \C,0,-1.2246509951,4.5253321189,-2.5283244565\O,0,-0.1651730649,4.0599
 087559,-3.3865733047\O,0,-0.5574758289,3.8269899341,3.672801221\C,0,0.
 3969714685,4.5213788981,2.8466230385\O,0,0.4462949027,3.8715025336,1.5
 629500879\H,0,-2.2470951486,1.6642682307,4.3207179885\H,0,-2.665986025
 8,-0.1528893399,2.652311749\H,0,2.6254965568,0.4704624683,-2.577366620
 7\H,0,1.8805090593,2.2731647657,-4.144675658\H,0,4.574711646,0.3127028
 704,0.5461476118\H,0,6.6889566453,-0.3087952817,-0.6055766397\H,0,6.65
 47268334,-1.934277844,-2.5045715631\H,0,4.4889241335,-2.9610534434,-3.
 2258486205\H,0,2.3741605156,-2.3722201734,-2.0427475011\H,0,2.89229016
 28,2.1406354507,0.935246881\H,0,3.4423309005,3.0187848418,3.2047612349
 \H,0,2.8878252046,1.6691379823,5.2359504617\H,0,1.858608511,-0.5952095
 184,4.988393014\H,0,1.3881107515,-1.5135505995,2.698409396\H,0,-3.2439
 235676,1.6348088865,-0.7643590617\H,0,-3.9538477128,2.5239133809,-2.98
 47022806\H,0,-3.1782131273,1.408412615,-5.0844095963\H,0,-1.7602249748
 ,-0.6460718868,-4.9569239441\H,0,-1.1213473349,-1.5900199345,-2.718721
 3966\H,0,-4.5714128101,-0.4836928501,-0.4847080799\H,0,-6.5346182347,-
 1.535997239,0.6203594176\H,0,-6.200734881,-3.2318121553,2.4265361462\H
 ,0,-3.8826388265,-3.8931512047,3.1005278673\H,0,-1.9132283802,-2.87107
 5547,1.9623402626\H,0,-2.1990319806,4.3192807332,-3.0107927759\H,0,-1.
 0906533482,5.6044187539,-2.3357791923\H,0,0.0708090832,5.5679642594,2.
 7133742184\H,0,1.3950112057,4.4669267142,3.321587646\\Version=ES64L-G0
 9RevE.01\State=1-A\HF=-2446.9119384\RMSD=6.582e-09\Dipole=-0.0700785,0
 .7755321,0.0216679\Quadrupole=-0.7317242,-1.2782325,2.0099567,0.022657
 ,1.0347701,0.0036195\PG=C01 [X(C38H28O4P2)]\\@


 POCKETA-POCKETA
 BARON VON RICHTOFEN
 SLAUGHTERED THE ALLIES WITH
 HARDLY A CARE.
 KILLED EIGHTY-ONE WITH HIS
 BLOOD-COLORED TRIPLANE, THEN
 UN-AEROBATICALLY
 PLUNGED FROM THE AIR.
   -- TONY HOFFMAN
 Job cpu time:       1 days  5 hours 14 minutes 14.6 seconds.
 File lengths (MBytes):  RWF=   1387 Int=      0 D2E=      0 Chk=    176 Scr=      1
 Normal termination of Gaussian 09 at Mon Dec  6 08:33:57 2021.
 Initial command:
 /gstore/apps/gaussian/g09.e01-foss-2017a/g09/l1.exe "/local/22791579/Gau-17170.inp" -scrdir="/local/22791579/"
 Entering Link 1 = /gstore/apps/gaussian/g09.e01-foss-2017a/g09/l1.exe PID=       740.
  
 Copyright (c) 1988,1990,1992,1993,1995,1998,2003,2009,2015,
            Gaussian, Inc.  All Rights Reserved.
  
 This is part of the Gaussian(R) 09 program.  It is based on
 the Gaussian(R) 03 system (copyright 2003, Gaussian, Inc.),
 the Gaussian(R) 98 system (copyright 1998, Gaussian, Inc.),
 the Gaussian(R) 94 system (copyright 1995, Gaussian, Inc.),
 the Gaussian 92(TM) system (copyright 1992, Gaussian, Inc.),
 the Gaussian 90(TM) system (copyright 1990, Gaussian, Inc.),
 the Gaussian 88(TM) system (copyright 1988, Gaussian, Inc.),
 the Gaussian 86(TM) system (copyright 1986, Carnegie Mellon
 University), and the Gaussian 82(TM) system (copyright 1983,
[...]
  1334. RY*(   2) H  50                  0.00019     1.84823   
  1335. RY*(   3) H  50                  0.00012     2.51374   
  1336. RY*(   4) H  50                  0.00011     2.35060   
  1337. RY*(   5) H  50                  0.00002     3.08697   
  1338. RY*(   1) H  51                  0.00033     0.89146   
  1339. RY*(   2) H  51                  0.00020     1.83029   
  1340. RY*(   3) H  51                  0.00011     2.15323   
  1341. RY*(   4) H  51                  0.00008     2.75336   
  1342. RY*(   5) H  51                  0.00002     3.09796   
  1343. RY*(   1) H  52                  0.00035     0.89556   
  1344. RY*(   2) H  52                  0.00021     1.89329   
  1345. RY*(   3) H  52                  0.00012     2.66801   
  1346. RY*(   4) H  52                  0.00011     2.15241   
  1347. RY*(   5) H  52                  0.00002     3.10058   
  1348. RY*(   1) H  53                  0.00061     1.38778   
  1349. RY*(   2) H  53                  0.00021     1.66679   
  1350. RY*(   3) H  53                  0.00014     2.18051   
  1351. RY*(   4) H  53                  0.00010     2.75350   
  1352. RY*(   5) H  53                  0.00002     3.11961   
  1353. RY*(   1) H  54                  0.00145     0.71739   
  1354. RY*(   2) H  54                  0.00035     2.34171   
  1355. RY*(   3) H  54                  0.00020     2.29505   
  1356. RY*(   4) H  54                  0.00009     2.77447   
  1357. RY*(   5) H  54                  0.00003     3.20216   
  1358. RY*(   1) H  55                  0.00058     1.21528   
  1359. RY*(   2) H  55                  0.00022     1.70704   
  1360. RY*(   3) H  55                  0.00014     2.08829   
  1361. RY*(   4) H  55                  0.00014     2.73672   
  1362. RY*(   5) H  55                  0.00003     3.09082   
  1363. RY*(   1) H  56                  0.00033     0.89446   
  1364. RY*(   2) H  56                  0.00020     1.83960   
  1365. RY*(   3) H  56                  0.00012     2.15847   
  1366. RY*(   4) H  56                  0.00008     2.74947   
  1367. RY*(   5) H  56                  0.00002     3.08846   
  1368. RY*(   1) H  57                  0.00037     0.96180   
  1369. RY*(   2) H  57                  0.00019     1.86821   
  1370. RY*(   3) H  57                  0.00012     2.33239   
  1371. RY*(   4) H  57                  0.00012     2.55931   
  1372. RY*(   5) H  57                  0.00002     3.08603   
  1373. RY*(   1) H  58                  0.00113     0.76104   
  1374. RY*(   2) H  58                  0.00028     2.29526   
  1375. RY*(   3) H  58                  0.00014     2.19735   
  1376. RY*(   4) H  58                  0.00009     2.78205   
  1377. RY*(   5) H  58                  0.00002     3.12165   
  1378. RY*(   1) H  59                  0.00145     0.71737   
  1379. RY*(   2) H  59                  0.00035     2.34173   
  1380. RY*(   3) H  59                  0.00020     2.29507   
  1381. RY*(   4) H  59                  0.00009     2.77446   
  1382. RY*(   5) H  59                  0.00003     3.20225   
  1383. RY*(   1) H  60                  0.00058     1.21520   
  1384. RY*(   2) H  60                  0.00022     1.70704   
  1385. RY*(   3) H  60                  0.00014     2.08826   
  1386. RY*(   4) H  60                  0.00014     2.73674   
  1387. RY*(   5) H  60                  0.00003     3.09082   
  1388. RY*(   1) H  61                  0.00033     0.89439   
  1389. RY*(   2) H  61                  0.00020     1.83966   
  1390. RY*(   3) H  61                  0.00012     2.15846   
  1391. RY*(   4) H  61                  0.00008     2.74948   
  1392. RY*(   5) H  61                  0.00002     3.08846   
  1393. RY*(   1) H  62                  0.00037     0.96167   
  1394. RY*(   2) H  62                  0.00019     1.86827   
  1395. RY*(   3) H  62                  0.00012     2.33196   
  1396. RY*(   4) H  62                  0.00012     2.55970   
  1397. RY*(   5) H  62                  0.00002     3.08605   
  1398. RY*(   1) H  63                  0.00113     0.76100   
  1399. RY*(   2) H  63                  0.00028     2.29519   
  1400. RY*(   3) H  63                  0.00014     2.19727   
  1401. RY*(   4) H  63                  0.00009     2.78197   
  1402. RY*(   5) H  63                  0.00002     3.12163   
  1403. RY*(   1) H  64                  0.00110     0.81339   
  1404. RY*(   2) H  64                  0.00030     2.38371   
  1405. RY*(   3) H  64                  0.00013     2.34483   
  1406. RY*(   4) H  64                  0.00010     2.61728   
  1407. RY*(   5) H  64                  0.00003     3.20630   
  1408. RY*(   1) H  65                  0.00045     0.98409   
  1409. RY*(   2) H  65                  0.00019     1.84825   
  1410. RY*(   3) H  65                  0.00012     2.51362   
  1411. RY*(   4) H  65                  0.00011     2.35069   
  1412. RY*(   5) H  65                  0.00002     3.08697   
  1413. RY*(   1) H  66                  0.00033     0.89146   
  1414. RY*(   2) H  66                  0.00020     1.83029   
  1415. RY*(   3) H  66                  0.00011     2.15323   
  1416. RY*(   4) H  66                  0.00008     2.75336   
  1417. RY*(   5) H  66                  0.00002     3.09796   
  1418. RY*(   1) H  67                  0.00035     0.89555   
  1419. RY*(   2) H  67                  0.00021     1.89327   
  1420. RY*(   3) H  67                  0.00012     2.66802   
  1421. RY*(   4) H  67                  0.00011     2.15241   
  1422. RY*(   5) H  67                  0.00002     3.10058   
  1423. RY*(   1) H  68                  0.00061     1.38782   
  1424. RY*(   2) H  68                  0.00021     1.66672   
  1425. RY*(   3) H  68                  0.00014     2.18052   
  1426. RY*(   4) H  68                  0.00010     2.75349   
  1427. RY*(   5) H  68                  0.00002     3.11962   
  1428. RY*(   1) H  69                  0.00117     0.86621   
  1429. RY*(   2) H  69                  0.00010     2.03373   
  1430. RY*(   3) H  69                  0.00011     2.33236   
  1431. RY*(   4) H  69                  0.00008     2.25797   
  1432. RY*(   5) H  69                  0.00001     2.93158   
  1433. RY*(   1) H  70                  0.00072     0.77316   
  1434. RY*(   2) H  70                  0.00013     2.11157   
  1435. RY*(   3) H  70                  0.00007     2.34578   
  1436. RY*(   4) H  70                  0.00006     2.18014   
  1437. RY*(   5) H  70                  0.00001     2.84985   
  1438. RY*(   1) H  71                  0.00072     0.77334   
  1439. RY*(   2) H  71                  0.00013     2.11165   
  1440. RY*(   3) H  71                  0.00007     2.34576   
  1441. RY*(   4) H  71                  0.00006     2.17995   
  1442. RY*(   5) H  71                  0.00001     2.84980   
  1443. RY*(   1) H  72                  0.00117     0.86612   
  1444. RY*(   2) H  72                  0.00010     2.03344   
  1445. RY*(   3) H  72                  0.00011     2.33234   
  1446. RY*(   4) H  72                  0.00008     2.25827   
  1447. RY*(   5) H  72                  0.00001     2.93167   
  1448. BD*(   1) P   1 - C   3          0.04395     0.23468   
  1449. BD*(   1) P   1 - C  15          0.04430     0.24082   
  1450. BD*(   1) P   1 - C  16          0.03762     0.24129   
  1451. BD*(   1) P   2 - C   4          0.04395     0.23469   
  1452. BD*(   1) P   2 - C  17          0.04430     0.24083   
  1453. BD*(   1) P   2 - C  18          0.03762     0.24129   
  1454. BD*(   1) C   3 - C   5          0.03110     0.50459   
  1455. BD*(   1) C   3 - C   9          0.02089     0.54064   
  1456. BD*(   2) C   3 - C   9          0.37393     0.03430  1461(v),1466(v),1458(r)
                                                    1479(r),373(g),1486(r)
                                                    1450(v),1516(r)
  1457. BD*(   1) C   4 - C  10          0.02090     0.54065   
  1458. BD*(   2) C   4 - C  10          0.37391     0.03431  1479(v),1474(v),1456(r)
                                                    1461(r),399(g),1492(r)
                                                    1453(v),1505(r)
  1459. BD*(   1) C   4 - C  14          0.03110     0.50460   
  1460. BD*(   1) C   5 - C   6          0.03088     0.53410   
  1461. BD*(   2) C   5 - C   6          0.38457     0.03397  1479(v),1456(v),1466(v)
                                                    1492(r),1458(r),1478(v)
                                                    1459(v),1516(r),298(g)
  1462. BD*(   1) C   5 - C  14          0.03146     0.43756   
  1463. BD*(   1) C   6 - C   7          0.04206     0.50624   
  1464. BD*(   1) C   6 - O  44          0.02676     0.33529   
  1465. BD*(   1) C   7 - C   8          0.01876     0.54136   
  1466. BD*(   2) C   7 - C   8          0.37472     0.02718  1461(v),1456(v),1474(r)
                                                    1510(r),348(g)
  1467. BD*(   1) C   7 - O  42          0.02658     0.34407   
  1468. BD*(   1) C   8 - C   9          0.01303     0.53962   
  1469. BD*(   1) C   8 - H  45          0.01292     0.40378   
  1470. BD*(   1) C   9 - H  46          0.01603     0.42499   
  1471. BD*(   1) C  10 - C  11          0.01303     0.53962   
  1472. BD*(   1) C  10 - H  47          0.01603     0.42499   
  1473. BD*(   1) C  11 - C  12          0.01876     0.54136   
  1474. BD*(   2) C  11 - C  12          0.37471     0.02718  1479(v),1458(v),1466(r)
                                                    1521(r),426(g)
  1475. BD*(   1) C  11 - H  48          0.01292     0.40378   
  1476. BD*(   1) C  12 - C  13          0.04206     0.50624   
  1477. BD*(   1) C  12 - O  41          0.02658     0.34406   
  1478. BD*(   1) C  13 - C  14          0.03088     0.53411   
  1479. BD*(   2) C  13 - C  14          0.38456     0.03397  1461(v),1458(v),1474(v)
                                                    1486(r),1456(r),1460(v)
                                                    1454(v),1505(r),480(g)
  1480. BD*(   1) C  13 - O  39          0.02676     0.33529   
  1481. BD*(   1) C  15 - C  34          0.03029     0.53483   
  1482. BD*(   2) C  15 - C  34          0.36037     0.02993  1534(v),1529(v),1448(v)
                                                    1024(g),1488(r)
  1483. BD*(   1) C  15 - C  38          0.02279     0.52328   
  1484. BD*(   1) C  16 - C  29          0.03248     0.52700   
  1485. BD*(   1) C  16 - C  33          0.02416     0.53041   
  1486. BD*(   2) C  16 - C  33          0.35641     0.03017  1516(v),1521(v),1492(r)
                                                    1479(r),1456(r),998(g)
                                                    1449(v),1448(v)
  1487. BD*(   1) C  17 - C  19          0.03029     0.53484   
  1488. BD*(   2) C  17 - C  19          0.36037     0.02993  1501(v),1496(v),1451(v)
                                                    634(g),1482(r)
  1489. BD*(   1) C  17 - C  23          0.02279     0.52328   
  1490. BD*(   1) C  18 - C  24          0.03248     0.52699   
  1491. BD*(   1) C  18 - C  28          0.02416     0.53041   
  1492. BD*(   2) C  18 - C  28          0.35640     0.03017  1505(v),1510(v),1486(r)
                                                    1461(r),1458(r),868(g)
                                                    1452(v),1451(v)
  1493. BD*(   1) C  19 - C  20          0.01701     0.54486   
  1494. BD*(   1) C  19 - H  49          0.01698     0.41923   
  1495. BD*(   1) C  20 - C  21          0.01457     0.54017   
  1496. BD*(   2) C  20 - C  21          0.32940     0.02840  1501(v),1488(v),686(g)
                                                    660(g)
  1497. BD*(   1) C  20 - H  50          0.01393     0.40593   
  1498. BD*(   1) C  21 - C  22          0.01484     0.53713   
  1499. BD*(   1) C  21 - H  51          0.01304     0.40585   
  1500. BD*(   1) C  22 - C  23          0.01616     0.54473   
  1501. BD*(   2) C  22 - C  23          0.32127     0.02964  1488(v),1496(v),712(g)
                                                    738(g)
  1502. BD*(   1) C  22 - H  52          0.01355     0.40538   
  1503. BD*(   1) C  23 - H  53          0.01574     0.41111   
  1504. BD*(   1) C  24 - C  25          0.01790     0.54457   
  1505. BD*(   2) C  24 - C  25          0.32073     0.03081  1492(v),1510(v),1516(r)
                                                    790(g),1479(r),764(g)
                                                    1458(r)
  1506. BD*(   1) C  24 - H  54          0.01584     0.41979   
  1507. BD*(   1) C  25 - C  26          0.01506     0.53598   
  1508. BD*(   1) C  25 - H  55          0.01470     0.40077   
  1509. BD*(   1) C  26 - C  27          0.01460     0.53738   
  1510. BD*(   2) C  26 - C  27          0.32817     0.02770  1492(v),1505(v),1466(r)
                                                    842(g),816(g)
  1511. BD*(   1) C  26 - H  56          0.01303     0.40472   
  1512. BD*(   1) C  27 - C  28          0.01617     0.54345   
  1513. BD*(   1) C  27 - H  57          0.01346     0.40584   
  1514. BD*(   1) C  28 - H  58          0.01609     0.40583   
  1515. BD*(   1) C  29 - C  30          0.01789     0.54457   
  1516. BD*(   2) C  29 - C  30          0.32072     0.03081  1486(v),1521(v),1505(r)
                                                    920(g),1461(r),894(g)
                                                    1456(r)
  1517. BD*(   1) C  29 - H  59          0.01584     0.41979   
  1518. BD*(   1) C  30 - C  31          0.01506     0.53598   
  1519. BD*(   1) C  30 - H  60          0.01470     0.40077   
  1520. BD*(   1) C  31 - C  32          0.01460     0.53739   
  1521. BD*(   2) C  31 - C  32          0.32817     0.02770  1486(v),1516(v),1474(r)
                                                    972(g),946(g)
  1522. BD*(   1) C  31 - H  61          0.01303     0.40472   
  1523. BD*(   1) C  32 - C  33          0.01617     0.54345   
  1524. BD*(   1) C  32 - H  62          0.01346     0.40584   
  1525. BD*(   1) C  33 - H  63          0.01609     0.40582   
  1526. BD*(   1) C  34 - C  35          0.01701     0.54486   
  1527. BD*(   1) C  34 - H  64          0.01697     0.41922   
  1528. BD*(   1) C  35 - C  36          0.01457     0.54017   
  1529. BD*(   2) C  35 - C  36          0.32940     0.02840  1534(v),1482(v),1076(g)
                                                    1050(g)
  1530. BD*(   1) C  35 - H  65          0.01393     0.40593   
  1531. BD*(   1) C  36 - C  37          0.01484     0.53713   
  1532. BD*(   1) C  36 - H  66          0.01304     0.40585   
  1533. BD*(   1) C  37 - C  38          0.01616     0.54472   
  1534. BD*(   2) C  37 - C  38          0.32128     0.02963  1482(v),1529(v),1102(g)
                                                    1128(g)
  1535. BD*(   1) C  37 - H  67          0.01355     0.40537   
  1536. BD*(   1) C  38 - H  68          0.01574     0.41111   
  1537. BD*(   1) O  39 - C  40          0.03027     0.23692   
  1538. BD*(   1) C  40 - O  41          0.03084     0.23710   
  1539. BD*(   1) C  40 - H  69          0.04040     0.31068   
  1540. BD*(   1) C  40 - H  70          0.03352     0.31208   
  1541. BD*(   1) O  42 - C  43          0.03084     0.23710   
  1542. BD*(   1) C  43 - O  44          0.03027     0.23692   
  1543. BD*(   1) C  43 - H  71          0.03354     0.31207   
  1544. BD*(   1) C  43 - H  72          0.04039     0.31069   
       -------------------------------
              Total Lewis  309.28198  ( 97.2585%)
        Valence non-Lewis    8.09509  (  2.5456%)
        Rydberg non-Lewis    0.62293  (  0.1959%)
       -------------------------------
            Total unit  1  318.00000  (100.0000%)
           Charge unit  1    0.00000
 1\1\GINC-NC020\SP\RPBE1PBE\def2TZVP\C38H28O4P2\MACKK4\06-Dec-2021\0\\#
  PBE1PBE/def2TZVP int=(grid=ultrafine) empiricaldispersion=GD3BJ pop=n
 bo guess=read geom=check\\R_SegPhos_1 title\\0,1\P,0,-1.6334239353,-0.
 7606295203,-0.0114528897\P,0,1.7313230934,-0.4584692769,0.0434736293\C
 ,0,-1.395879986,0.6789660614,1.1142779824\C,0,1.2345765496,0.975355139
 9,-1.0022200738\C,0,-0.5139213864,1.7431780267,0.7391693475\C,0,-0.334
 0277586,2.7443501271,1.6874528168\C,0,-0.9312562925,2.7173806154,2.954
 4522952\C,0,-1.7760159701,1.6875246522,3.3355300321\C,0,-1.9993768858,
 0.6698907732,2.3848506951\C,0,1.8238199443,1.1447117833,-2.2682104919\
 C,0,1.4175685336,2.1571466463,-3.1621900867\C,0,0.4042081124,2.9967172
 596,-2.7289891536\C,0,-0.1821578908,2.8461822456,-1.4655718631\C,0,0.1
 78350939,1.8422596835,-0.5733154181\C,0,-3.1154316964,-1.584409213,0.6
 943464603\C,0,-2.1473615274,-0.039968137,-1.6134274973\C,0,3.333211630
 1,-0.9636109772,-0.6993635679\C,0,2.1160031929,0.2530337468,1.68530053
 94\C,0,4.5505125613,-0.3930327606,-0.2892132287\C,0,5.7419587049,-0.74
 61707465,-0.938474632\C,0,5.7221559233,-1.6588544655,-2.0014117154\C,0
 ,4.5080808183,-2.2316752753,-2.4099405409\C,0,3.3171716061,-1.89561280
 66,-1.7566267097\C,0,2.6935170884,1.530895237,1.8227370434\C,0,2.97921
 84882,2.03139814,3.099656047\C,0,2.6734174613,1.2706476651,4.238904640
 5\C,0,2.0955883901,-0.0000913941,4.1007766896\C,0,1.8217481064,-0.5153
 22591,2.8270982838\C,0,-2.9442591127,1.1199632909,-1.6830914614\C,0,-3
 .3214431718,1.6307579573,-2.9318798949\C,0,-2.8908646141,1.0004670937,
 -4.1097933751\C,0,-2.0948635118,-0.152405873,-4.0390465922\C,0,-1.7267
 66144,-0.6796292851,-2.7943570511\C,0,-4.4171942148,-1.218872992,0.310
 3998054\C,0,-5.5230120876,-1.814753939,0.9332036643\C,0,-5.3349853847,
 -2.7666391027,1.9440339223\C,0,-4.0360123987,-3.1348936629,2.326197596
 9\C,0,-2.9276894769,-2.5556539551,1.6984011173\O,0,-1.1506329214,3.807
 1921971,-1.2827748937\C,0,-1.2246509951,4.5253321189,-2.5283244565\O,0
 ,-0.1651730649,4.0599087559,-3.3865733047\O,0,-0.5574758289,3.82698993
 41,3.672801221\C,0,0.3969714685,4.5213788981,2.8466230385\O,0,0.446294
 9027,3.8715025336,1.5629500879\H,0,-2.2470951486,1.6642682307,4.320717
 9885\H,0,-2.6659860258,-0.1528893399,2.652311749\H,0,2.6254965568,0.47
 04624683,-2.5773666207\H,0,1.8805090593,2.2731647657,-4.144675658\H,0,
 4.574711646,0.3127028704,0.5461476118\H,0,6.6889566453,-0.3087952817,-
 0.6055766397\H,0,6.6547268334,-1.934277844,-2.5045715631\H,0,4.4889241
 335,-2.9610534434,-3.2258486205\H,0,2.3741605156,-2.3722201734,-2.0427
 475011\H,0,2.8922901628,2.1406354507,0.935246881\H,0,3.4423309005,3.01
 87848418,3.2047612349\H,0,2.8878252046,1.6691379823,5.2359504617\H,0,1
 .858608511,-0.5952095184,4.988393014\H,0,1.3881107515,-1.5135505995,2.
 698409396\H,0,-3.2439235676,1.6348088865,-0.7643590617\H,0,-3.95384771
 28,2.5239133809,-2.9847022806\H,0,-3.1782131273,1.408412615,-5.0844095
 963\H,0,-1.7602249748,-0.6460718868,-4.9569239441\H,0,-1.1213473349,-1
 .5900199345,-2.7187213966\H,0,-4.5714128101,-0.4836928501,-0.484708079
 9\H,0,-6.5346182347,-1.535997239,0.6203594176\H,0,-6.200734881,-3.2318
 121553,2.4265361462\H,0,-3.8826388265,-3.8931512047,3.1005278673\H,0,-
 1.9132283802,-2.871075547,1.9623402626\H,0,-2.1990319806,4.3192807332,
 -3.0107927759\H,0,-1.0906533482,5.6044187539,-2.3357791923\H,0,0.07080
 90832,5.5679642594,2.7133742184\H,0,1.3950112057,4.4669267142,3.321587
 646\\Version=ES64L-G09RevE.01\State=1-A\HF=-2446.9119384\RMSD=4.989e-0
 9\Dipole=-0.0700781,0.7755276,0.0216678\Quadrupole=-0.731755,-1.278250
 5,2.0100056,0.0226575,1.0347381,0.0036148\PG=C01 [X(C38H28O4P2)]\\@


 There was a great rattling of the words for the fewness of ideas.
                   -- Charles Baxter in Gryphon
 Job cpu time:       0 days  2 hours 49 minutes 30.5 seconds.
 File lengths (MBytes):  RWF=   1223 Int=      0 D2E=      0 Chk=    176 Scr=      1
 Normal termination of Gaussian 09 at Mon Dec  6 08:46:10 2021.
