 Entering Gaussian System, Link 0=g09
 Input=R_SegPhos_1_SPE.com
 Output=R_SegPhos_1_SPE.log
 Initial command:
 /gstore/apps/gaussian/g09.e01-foss-2017a/g09/l1.exe "/local/22791578/Gau-30019.inp" -scrdir="/local/22791578/"
 Entering Link 1 = /gstore/apps/gaussian/g09.e01-foss-2017a/g09/l1.exe PID=     30020.
  
 Copyright (c) 1988,1990,1992,1993,1995,1998,2003,2009,2015,
            Gaussian, Inc.  All Rights Reserved.
  
 This is part of the Gaussian(R) 09 program.  It is based on
 the Gaussian(R) 03 system (copyright 2003, Gaussian, Inc.),
 the Gaussian(R) 98 system (copyright 1998, Gaussian, Inc.),
 the Gaussian(R) 94 system (copyright 1995, Gaussian, Inc.),
 the Gaussian 92(TM) system (copyright 1992, Gaussian, Inc.),
 the Gaussian 90(TM) system (copyright 1990, Gaussian, Inc.),
 the Gaussian 88(TM) system (copyright 1988, Gaussian, Inc.),
 the Gaussian 86(TM) system (copyright 1986, Carnegie Mellon
 University), and the Gaussian 82(TM) system (copyright 1983,
 Carnegie Mellon University). Gaussian is a federally registered
 trademark of Gaussian, Inc.
  
 This software contains proprietary and confidential information,
 including trade secrets, belonging to Gaussian, Inc.
  
 This software is provided under written license and may be
 used, copied, transmitted, or stored only in accord with that
 written license.
  
 The following legend is applicable only to US Government
 contracts under FAR:
  
                    RESTRICTED RIGHTS LEGEND
  
 Use, reproduction and disclosure by the US Government is
 subject to restrictions as set forth in subparagraphs (a)
 and (c) of the Commercial Computer Software - Restricted
 Rights clause in FAR 52.227-19.
  
 Gaussian, Inc.
 340 Quinnipiac St., Bldg. 40, Wallingford CT 06492
  
  
 ---------------------------------------------------------------
 Warning -- This program may not be used in any manner that
 competes with the business of Gaussian, Inc. or will provide
 assistance to any competitor of Gaussian, Inc.  The licensee
 of this program is prohibited from giving any competitor of
 Gaussian, Inc. access to this program.  By using this program,
 the user acknowledges that Gaussian, Inc. is engaged in the
 business of creating and licensing software in the field of
 computational chemistry and represents and warrants to the
 licensee that it is not a competitor of Gaussian, Inc. and that
 it will not use this program in any manner prohibited above.
 ---------------------------------------------------------------
  

 Cite this work as:
 Gaussian 09, Revision E.01,
 M. J. Frisch, G. W. Trucks, H. B. Schlegel, G. E. Scuseria, 
 M. A. Robb, J. R. Cheeseman, G. Scalmani, V. Barone, B. Mennucci, 
 G. A. Petersson, H. Nakatsuji, M. Caricato, X. Li, H. P. Hratchian, 
 A. F. Izmaylov, J. Bloino, G. Zheng, J. L. Sonnenberg, M. Hada, 
 M. Ehara, K. Toyota, R. Fukuda, J. Hasegawa, M. Ishida, T. Nakajima, 
 Y. Honda, O. Kitao, H. Nakai, T. Vreven, J. A. Montgomery, Jr., 
 J. E. Peralta, F. Ogliaro, M. Bearpark, J. J. Heyd, E. Brothers, 
 K. N. Kudin, V. N. Staroverov, T. Keith, R. Kobayashi, J. Normand, 
 K. Raghavachari, A. Rendell, J. C. Burant, S. S. Iyengar, J. Tomasi, 
 M. Cossi, N. Rega, J. M. Millam, M. Klene, J. E. Knox, J. B. Cross, 
 V. Bakken, C. Adamo, J. Jaramillo, R. Gomperts, R. E. Stratmann, 
 O. Yazyev, A. J. Austin, R. Cammi, C. Pomelli, J. W. Ochterski, 
 R. L. Martin, K. Morokuma, V. G. Zakrzewski, G. A. Voth, 
 P. Salvador, J. J. Dannenberg, S. Dapprich, A. D. Daniels, 
 O. Farkas, J. B. Foresman, J. V. Ortiz, J. Cioslowski, 
 and D. J. Fox, Gaussian, Inc., Wallingford CT, 2013.
 
 ******************************************
 Gaussian 09:  ES64L-G09RevE.01 30-Nov-2015
                 6-Dec-2021 
 ******************************************
 %nprocs=14
 Will use up to   14 processors via shared memory.
 %mem=128GB
 %chk=R_SegPhos_1_SPE.chk
 ----------------------------------------------------------------------
 # PBE1PBE gen pseudo=read int=(grid=ultrafine) empiricaldispersion=GD3
 BJ nmr=giao
 ----------------------------------------------------------------------
 1/38=1/1;
 2/12=2,17=6,18=5,40=1/2;
 3/5=7,11=2,16=1,17=8,25=1,30=1,74=-13,75=-5,124=41/1,2,8,3;
 4//1;
 5/5=2,38=5/2;
 8/6=1,10=90,11=11/1;
 10/13=100,45=16/2;
 6/7=2,8=2,9=2,10=2,28=1/1;
 99/9=1/99;
 -----------------
 R_SegPhos_1 title
 -----------------
 Symbolic Z-matrix:
 Charge =  0 Multiplicity = 1
 P                    -1.63342  -0.76063  -0.01145 
 P                     1.73132  -0.45847   0.04347 
 C                    -1.39588   0.67897   1.11428 
 C                     1.23458   0.97536  -1.00222 
 C                    -0.51392   1.74318   0.73917 
 C                    -0.33403   2.74435   1.68745 
 C                    -0.93126   2.71738   2.95445 
 C                    -1.77602   1.68752   3.33553 
 C                    -1.99938   0.66989   2.38485 
 C                     1.82382   1.14471  -2.26821 
 C                     1.41757   2.15715  -3.16219 
 C                     0.40421   2.99672  -2.72899 
 C                    -0.18216   2.84618  -1.46557 
 C                     0.17835   1.84226  -0.57332 
 C                    -3.11543  -1.58441   0.69435 
 C                    -2.14736  -0.03997  -1.61343 
 C                     3.33321  -0.96361  -0.69936 
 C                     2.116     0.25303   1.6853 
 C                     4.55051  -0.39303  -0.28921 
 C                     5.74196  -0.74617  -0.93847 
 C                     5.72216  -1.65885  -2.00141 
 C                     4.50808  -2.23168  -2.40994 
 C                     3.31717  -1.89561  -1.75663 
 C                     2.69352   1.5309    1.82274 
 C                     2.97922   2.0314    3.09966 
 C                     2.67342   1.27065   4.2389 
 C                     2.09559  -0.00009   4.10078 
 C                     1.82175  -0.51532   2.8271 
 C                    -2.94426   1.11996  -1.68309 
 C                    -3.32144   1.63076  -2.93188 
 C                    -2.89086   1.00047  -4.10979 
 C                    -2.09486  -0.15241  -4.03905 
 C                    -1.72677  -0.67963  -2.79436 
 C                    -4.41719  -1.21887   0.3104 
 C                    -5.52301  -1.81475   0.9332 
 C                    -5.33499  -2.76664   1.94403 
 C                    -4.03601  -3.13489   2.3262 
 C                    -2.92769  -2.55565   1.6984 
 Cl                   -1.24024  -3.89929  -0.77832 
 Cl                    1.90996  -3.65418   0.63406 
 O                    -1.15063   3.80719  -1.28277 
 C                    -1.22465   4.52533  -2.52832 
 O                    -0.16517   4.05991  -3.38657 
 O                    -0.55748   3.82699   3.6728 
 C                     0.39697   4.52138   2.84662 
 O                     0.44629   3.8715    1.56295 
 H                    -2.2471    1.66427   4.32072 
 H                    -2.66599  -0.15289   2.65231 
 H                     2.6255    0.47046  -2.57737 
 H                     1.88051   2.27316  -4.14468 
 H                     4.57471   0.3127    0.54615 
 H                     6.68896  -0.3088   -0.60558 
 H                     6.65473  -1.93428  -2.50457 
 H                     4.48892  -2.96105  -3.22585 
 H                     2.37416  -2.37222  -2.04275 
 H                     2.89229   2.14064   0.93525 
 H                     3.44233   3.01878   3.20476 
 H                     2.88783   1.66914   5.23595 
 H                     1.85861  -0.59521   4.98839 
 H                     1.38811  -1.51355   2.69841 
 H                    -3.24392   1.63481  -0.76436 
 H                    -3.95385   2.52391  -2.9847 
 H                    -3.17821   1.40841  -5.08441 
 H                    -1.76022  -0.64607  -4.95692 
 H                    -1.12135  -1.59002  -2.71872 
 H                    -4.57141  -0.48369  -0.48471 
 H                    -6.53462  -1.536     0.62036 
 H                    -6.20073  -3.23181   2.42654 
 H                    -3.88264  -3.89315   3.10053 
 H                    -1.91323  -2.87108   1.96234 
 H                    -2.19903   4.31928  -3.01079 
 H                    -1.09065   5.60442  -2.33578 
 H                     0.07081   5.56796   2.71337 
 H                     1.39501   4.46693   3.32159 
 Pd                    0.18745  -2.14413  -0.02671 
 
 Stoichiometry    C38H28Cl2O4P2Pd
 Framework group  C1[X(C38H28Cl2O4P2Pd)]
 Deg. of freedom   219
 Full point group                 C1      NOp   1
 Largest Abelian subgroup         C1      NOp   1
 Largest concise Abelian subgroup C1      NOp   1
                         Standard orientation:                         
 ---------------------------------------------------------------------
 Center     Atomic      Atomic             Coordinates (Angstroms)
 Number     Number       Type             X           Y           Z
 ---------------------------------------------------------------------
      1         15           0        1.689567   -0.607728    0.028596
      2         15           0       -1.688682   -0.609717   -0.028596
      3          6           0        1.323449    0.835205   -1.057698
      4          6           0       -1.324407    0.833546    1.057857
      5          6           0        0.348559    1.804452   -0.656133
      6          6           0        0.079415    2.811212   -1.576972
      7          6           0        0.677454    2.873585   -2.842340
      8          6           0        1.612192    1.935341   -3.249040
      9          6           0        1.926113    0.916058   -2.326123
     10          6           0       -1.927378    0.913672    2.326173
     11          6           0       -1.614995    1.933467    3.249048
     12          6           0       -0.681490    2.872961    2.842400
     13          6           0       -0.083089    2.811240    1.577167
     14          6           0       -0.350689    1.804008    0.656394
     15          6           0        3.240499   -1.274163   -0.694997
     16          6           0        2.135141    0.111669    1.651476
     17          6           0       -3.238765   -1.278114    0.694944
     18          6           0       -2.135109    0.109423   -1.651356
     19          6           0       -4.502440   -0.808795    0.296863
     20          6           0       -5.657460   -1.286148    0.932357
     21          6           0       -5.555833   -2.222482    1.969743
     22          6           0       -4.295166   -2.694280    2.366132
     23          6           0       -3.139133   -2.233862    1.726113
     24          6           0       -2.825806    1.333139   -1.755277
     25          6           0       -3.154801    1.841038   -3.018785
     26          6           0       -2.780672    1.143014   -4.177635
     27          6           0       -2.090306   -0.073602   -4.072825
     28          6           0       -1.771788   -0.597146   -2.813001
     29          6           0        2.823754    1.336535    1.755661
     30          6           0        3.152356    1.844452    3.019263
     31          6           0        2.779821    1.145316    4.177957
     32          6           0        2.091463   -0.072413    4.072887
     33          6           0        1.773393   -0.595977    2.812956
     34          6           0        4.503592   -0.803199   -0.296992
     35          6           0        5.659201   -1.279087   -0.932516
     36          6           0        5.558742   -2.215620   -1.969835
     37          6           0        4.298673   -2.689087   -2.366124
     38          6           0        3.142072   -2.230131   -1.726077
     39         17           0        1.581539   -3.789175    0.707256
     40         17           0       -1.577000   -3.790841   -0.707764
     41          8           0        0.794563    3.860610    1.424037
     42          6           0        0.802481    4.547613    2.689170
     43          8           0       -0.211086    3.964607    3.530888
     44          8           0        0.205257    3.964371   -3.530951
     45          6           0       -0.808648    4.546365   -2.688933
     46          8           0       -0.799789    3.859274   -1.423858
     47          1           0        2.084081    1.982170   -4.233001
     48          1           0        2.664619    0.164691   -2.614095
     49          1           0       -2.664949    0.161351    2.614058
     50          1           0       -2.087171    1.979795    4.232895
     51          1           0       -4.589866   -0.085203   -0.518764
     52          1           0       -6.639938   -0.927135    0.608674
     53          1           0       -6.459978   -2.594996    2.462157
     54          1           0       -4.210610   -3.441325    3.161644
     55          1           0       -2.157045   -2.630992    2.001942
     56          1           0       -3.079517    1.897505   -0.851921
     57          1           0       -3.705300    2.785030   -3.098047
     58          1           0       -3.029616    1.548029   -5.163969
     59          1           0       -1.799868   -0.619953   -4.975783
     60          1           0       -1.249678   -1.555252   -2.710557
     61          1           0        3.076192    1.901702    0.852447
     62          1           0        3.701304    2.789330    3.098727
     63          1           0        3.028441    1.550339    5.164369
     64          1           0        1.802278   -0.619635    4.975720
     65          1           0        1.252895   -1.554938    2.710298
     66          1           0        4.590132   -0.079462    0.518597
     67          1           0        6.641227   -0.918781   -0.608899
     68          1           0        6.463348   -2.586998   -2.462261
     69          1           0        4.215049   -3.436299   -3.161578
     70          1           0        2.160489   -2.628555   -2.001829
     71          1           0        1.791198    4.417207    3.168841
     72          1           0        0.571505    5.615090    2.526074
     73          1           0       -0.578623    5.614052   -2.525805
     74          1           0       -1.797357    4.415088   -3.168371
     75         46           0        0.001356   -2.150131   -0.000115
 ---------------------------------------------------------------------
 Rotational constants (GHZ):      0.0651385      0.0623578      0.0546639
 General basis read from cards:  (5D, 7F)
 ======================================================================================================
                                       Pseudopotential Parameters
 ======================================================================================================
  Center     Atomic      Valence      Angular      Power
  Number     Number     Electrons     Momentum     of R      Exponent        Coefficient   SO-Coeffient
 ======================================================================================================
    1         15
                                   No pseudopotential on this center.
    2         15
                                   No pseudopotential on this center.
    3          6
                                   No pseudopotential on this center.
    4          6
                                   No pseudopotential on this center.
    5          6
                                   No pseudopotential on this center.
    6          6
                                   No pseudopotential on this center.
    7          6
                                   No pseudopotential on this center.
    8          6
                                   No pseudopotential on this center.
    9          6
                                   No pseudopotential on this center.
   10          6
                                   No pseudopotential on this center.
   11          6
                                   No pseudopotential on this center.
   12          6
                                   No pseudopotential on this center.
   13          6
                                   No pseudopotential on this center.
   14          6
                                   No pseudopotential on this center.
   15          6
                                   No pseudopotential on this center.
   16          6
                                   No pseudopotential on this center.
   17          6
                                   No pseudopotential on this center.
   18          6
                                   No pseudopotential on this center.
   19          6
                                   No pseudopotential on this center.
   20          6
                                   No pseudopotential on this center.
   21          6
                                   No pseudopotential on this center.
   22          6
                                   No pseudopotential on this center.
   23          6
                                   No pseudopotential on this center.
   24          6
                                   No pseudopotential on this center.
   25          6
                                   No pseudopotential on this center.
   26          6
                                   No pseudopotential on this center.
   27          6
                                   No pseudopotential on this center.
   28          6
                                   No pseudopotential on this center.
   29          6
                                   No pseudopotential on this center.
   30          6
                                   No pseudopotential on this center.
   31          6
                                   No pseudopotential on this center.
   32          6
                                   No pseudopotential on this center.
   33          6
                                   No pseudopotential on this center.
   34          6
                                   No pseudopotential on this center.
   35          6
                                   No pseudopotential on this center.
   36          6
                                   No pseudopotential on this center.
   37          6
                                   No pseudopotential on this center.
   38          6
                                   No pseudopotential on this center.
   39         17
                                   No pseudopotential on this center.
   40         17
                                   No pseudopotential on this center.
   41          8
                                   No pseudopotential on this center.
   42          6
                                   No pseudopotential on this center.
   43          8
                                   No pseudopotential on this center.
   44          8
                                   No pseudopotential on this center.
   45          6
                                   No pseudopotential on this center.
   46          8
                                   No pseudopotential on this center.
   47          1
                                   No pseudopotential on this center.
   48          1
                                   No pseudopotential on this center.
   49          1
                                   No pseudopotential on this center.
   50          1
                                   No pseudopotential on this center.
   51          1
                                   No pseudopotential on this center.
   52          1
                                   No pseudopotential on this center.
   53          1
                                   No pseudopotential on this center.
   54          1
                                   No pseudopotential on this center.
   55          1
                                   No pseudopotential on this center.
   56          1
                                   No pseudopotential on this center.
   57          1
                                   No pseudopotential on this center.
   58          1
                                   No pseudopotential on this center.
   59          1
                                   No pseudopotential on this center.
   60          1
                                   No pseudopotential on this center.
   61          1
                                   No pseudopotential on this center.
   62          1
                                   No pseudopotential on this center.
   63          1
                                   No pseudopotential on this center.
   64          1
                                   No pseudopotential on this center.
   65          1
                                   No pseudopotential on this center.
   66          1
                                   No pseudopotential on this center.
   67          1
                                   No pseudopotential on this center.
   68          1
                                   No pseudopotential on this center.
   69          1
                                   No pseudopotential on this center.
   70          1
                                   No pseudopotential on this center.
   71          1
                                   No pseudopotential on this center.
   72          1
                                   No pseudopotential on this center.
   73          1
                                   No pseudopotential on this center.
   74          1
                                   No pseudopotential on this center.
   75         46           18
                                      G and up 
                                                     2        1.0000000        0.00000000    0.00000000
                                      S - G
                                                     2       12.4300000      240.22904000    0.00000000
                                                     2        6.1707590       35.17194300    0.00000000
                                      P - G
                                                     2       11.0800000      170.41727600    0.00000000
                                                     2        5.8295540       28.47213300    0.00000000
                                      D - G
                                                     2        9.5100000       69.01384500    0.00000000
                                                     2        4.1397810       11.75086200    0.00000000
                                      F - G
                                                     2       13.2700000      -31.92955400    0.00000000
                                                     2        6.6300000       -5.39821700    0.00000000
 ======================================================================================================
 There are  1887 symmetry adapted cartesian basis functions of A   symmetry.
 There are  1654 symmetry adapted basis functions of A   symmetry.
  1654 basis functions,  2707 primitive gaussians,  1887 cartesian basis functions
   185 alpha electrons      185 beta electrons
       nuclear repulsion energy      7716.1730107845 Hartrees.
 NAtoms=   75 NActive=   75 NUniq=   75 SFac= 1.00D+00 NAtFMM=   60 NAOKFM=T Big=T
 Integral buffers will be    131072 words long.
 Raffenetti 2 integral format.
 Two-electron integral symmetry is turned on.
 Nuclear repulsion after empirical dispersion term =     7716.0256024267 Hartrees.
 One-electron integrals computed using PRISM.
   1 Symmetry operations used in ECPInt.
 ECPInt:  NShTT=  205120 NPrTT=  648116 LenC2=  164015 LenP2D=  339975.
 LDataN:  DoStor=T MaxTD1= 7 Len=  274
 NBasis=  1654 RedAO= T EigKep=  4.09D-06  NBF=  1654
 NBsUse=  1654 1.00D-06 EigRej= -1.00D+00 NBFU=  1654
 Defaulting to unpruned grid for atomic number  46.
 ExpMin= 1.60D-02 ExpMax= 6.95D+04 ExpMxC= 2.37D+03 IAcc=3 IRadAn=         5 AccDes= 0.00D+00
 Harris functional with IExCor= 1009 and IRadAn=       5 diagonalized for initial guess.
 HarFok:  IExCor= 1009 AccDes= 0.00D+00 IRadAn=         5 IDoV= 1 UseB2=F ITyADJ=14
 ICtDFT=  3500011 ScaDFX=  1.000000  1.000000  1.000000  1.000000
 Defaulting to unpruned grid for atomic number  46.
 Defaulting to unpruned grid for atomic number  46.
 Defaulting to unpruned grid for atomic number  46.
 Defaulting to unpruned grid for atomic number  46.
 Defaulting to unpruned grid for atomic number  46.
 Defaulting to unpruned grid for atomic number  46.
 Defaulting to unpruned grid for atomic number  46.
 Defaulting to unpruned grid for atomic number  46.
 Defaulting to unpruned grid for atomic number  46.
 Defaulting to unpruned grid for atomic number  46.
 Defaulting to unpruned grid for atomic number  46.
 Defaulting to unpruned grid for atomic number  46.
 Defaulting to unpruned grid for atomic number  46.
 Defaulting to unpruned grid for atomic number  46.
 FoFCou: FMM=F IPFlag=           0 FMFlag=      100000 FMFlg1=        2001
         NFxFlg=           0 DoJE=T BraDBF=F KetDBF=T FulRan=T
         wScrn=  0.000000 ICntrl=     500 IOpCl=  0 I1Cent=   200000004 NGrid=           0
         NMat0=    1 NMatS0=      1 NMatT0=    0 NMatD0=    1 NMtDS0=    0 NMtDT0=    0
 Petite list used in FoFCou.
 Requested convergence on RMS density matrix=1.00D-08 within 128 cycles.
 Requested convergence on MAX density matrix=1.00D-06.
 Requested convergence on             energy=1.00D-06.
 No special actions if energy rises.
 Defaulting to unpruned grid for atomic number  46.
 Defaulting to unpruned grid for atomic number  46.
 Defaulting to unpruned grid for atomic number  46.
 Defaulting to unpruned grid for atomic number  46.
 Defaulting to unpruned grid for atomic number  46.
 Defaulting to unpruned grid for atomic number  46.
 Defaulting to unpruned grid for atomic number  46.
 Defaulting to unpruned grid for atomic number  46.
 Defaulting to unpruned grid for atomic number  46.
 Defaulting to unpruned grid for atomic number  46.
 Defaulting to unpruned grid for atomic number  46.
 Defaulting to unpruned grid for atomic number  46.
 Defaulting to unpruned grid for atomic number  46.
 Defaulting to unpruned grid for atomic number  46.
 EnCoef did   100 forward-backward iterations
 EnCoef did     4 forward-backward iterations
 SCF Done:  E(RPBE1PBE) =  -3495.10331977     A.U. after   19 cycles
            NFock= 19  Conv=0.88D-08     -V/T= 2.0273
 DoSCS=F DFT=T ScalE2(SS,OS)=  1.000000  1.000000
 Range of M.O.s used for correlation:     1  1654
 NBasis=  1654 NAE=   185 NBE=   185 NFC=     0 NFV=     0
 NROrb=   1654 NOA=   185 NOB=   185 NVA=  1469 NVB=  1469

 **** Warning!!: The largest alpha MO coefficient is  0.49166371D+02

          Differentiating once with respect to magnetic field using GIAOs.
          Electric field/nuclear overlap derivatives assumed to be zero.
 Defaulting to unpruned grid for atomic number  46.
 FoFCou: FMM=F IPFlag=           0 FMFlag=      100000 FMFlg1=        2001
         NFxFlg=           0 DoJE=F BraDBF=F KetDBF=T FulRan=T
         wScrn=  0.000000 ICntrl=    6100 IOpCl=  0 I1Cent=           7 NGrid=          75
         NMat0=    1 NMatS0=      1 NMatT0=    0 NMatD0=    1 NMtDS0=    0 NMtDT0=    0
 Symmetry not used in FoFCou.
   1 Symmetry operations used in ECPInt.
 ECPInt:  NShTT=  205120 NPrTT=  648116 LenC2=  205121 LenP2D=  648116.
 LDataN:  DoStor=T MaxTD1= 8 Len=  415
 FoFJK:  IHMeth= 1 ICntrl=    6127 DoSepK=F KAlg= 0 I1Cent=   0 FoldK=F
 IRaf=         1 NMat=   1 IRICut=       1 DoRegI=T DoRafI=F ISym2E= 0.
 Defaulting to unpruned grid for atomic number  46.
 Defaulting to unpruned grid for atomic number  46.
 Defaulting to unpruned grid for atomic number  46.
 Defaulting to unpruned grid for atomic number  46.
 Defaulting to unpruned grid for atomic number  46.
 Defaulting to unpruned grid for atomic number  46.
 Defaulting to unpruned grid for atomic number  46.
 Defaulting to unpruned grid for atomic number  46.
 Defaulting to unpruned grid for atomic number  46.
 Defaulting to unpruned grid for atomic number  46.
 Defaulting to unpruned grid for atomic number  46.
 Defaulting to unpruned grid for atomic number  46.
 Defaulting to unpruned grid for atomic number  46.
 Defaulting to unpruned grid for atomic number  46.
          There are     3 degrees of freedom in the 1st order CPHF.  IDoFFX=0 NUNeed=     3.
      3 vectors produced by pass  0 Test12= 9.06D-12 3.33D-08 XBig12= 1.85D+02 2.07D+00.
 AX will form     3 AO Fock derivatives at one time.
      3 vectors produced by pass  1 Test12= 9.06D-12 3.33D-08 XBig12= 1.02D+00 2.40D-01.
      3 vectors produced by pass  2 Test12= 9.06D-12 3.33D-08 XBig12= 1.01D-02 3.44D-02.
      3 vectors produced by pass  3 Test12= 9.06D-12 3.33D-08 XBig12= 2.42D-04 7.43D-03.
      3 vectors produced by pass  4 Test12= 9.06D-12 3.33D-08 XBig12= 1.47D-06 3.85D-04.
      3 vectors produced by pass  5 Test12= 9.06D-12 3.33D-08 XBig12= 1.13D-08 4.74D-05.
      3 vectors produced by pass  6 Test12= 9.06D-12 3.33D-08 XBig12= 2.50D-10 7.47D-06.
      3 vectors produced by pass  7 Test12= 9.06D-12 3.33D-08 XBig12= 2.52D-12 3.34D-07.
 InvSVY:  IOpt=1 It=  1 EMax= 5.33D-15
 Solved reduced A of dimension    24 with     3 vectors.
 Calculating GIAO nuclear magnetic shielding tensors.
 SCF GIAO Magnetic shielding tensor (ppm):
      1  P    Isotropic =   239.1642   Anisotropy =   129.7042
   XX=   255.4249   YX=    83.3159   ZX=     7.8983
   XY=    55.7015   YY=   253.2523   ZY=    13.2128
   XZ=   -15.4890   YZ=    35.0857   ZZ=   208.8153
   Eigenvalues:   173.2737   218.5852   325.6337
      2  P    Isotropic =   239.1618   Anisotropy =   129.7297
   XX=   255.5952   YX=   -83.3310   ZX=     7.9000
   XY=   -55.7263   YY=   253.0709   ZY=   -13.2009
   XZ=   -15.4668   YZ=   -35.1142   ZZ=   208.8193
   Eigenvalues:   173.2405   218.5966   325.6483
      3  C    Isotropic =    51.3236   Anisotropy =   169.4868
   XX=    98.4354   YX=    67.2737   ZX=    27.0295
   XY=    69.6546   YY=    37.2955   ZY=    49.9919
   XZ=    42.1382   YZ=    47.2036   ZZ=    18.2399
   Eigenvalues:   -25.7945    15.4504   164.3148
      4  C    Isotropic =    51.3165   Anisotropy =   169.4914
   XX=    98.5865   YX=   -67.1979   ZX=    27.0967
   XY=   -69.5729   YY=    37.1202   ZY=   -49.9610
   XZ=    42.2124   YZ=   -47.1711   ZZ=    18.2428
   Eigenvalues:   -25.8039    15.4426   164.3108
      5  C    Isotropic =    61.4082   Anisotropy =   147.3526
   XX=    91.1516   YX=    41.8191   ZX=    68.8832
   XY=    57.0027   YY=    69.1603   ZY=    21.2434
   XZ=    56.3362   YZ=    19.6404   ZZ=    23.9129
   Eigenvalues:   -14.4865    39.0680   159.6433
      6  C    Isotropic =    31.2361   Anisotropy =   107.2714
   XX=    37.3526   YX=    64.5647   ZX=    32.2835
   XY=    58.8933   YY=    19.4924   ZY=    10.0381
   XZ=    33.9205   YZ=    -2.4452   ZZ=    36.8632
   Eigenvalues:   -38.9943    29.9521   102.7503
      7  C    Isotropic =    27.8874   Anisotropy =   111.6850
   XX=    61.4086   YX=    45.4919   ZX=    13.3902
   XY=    46.4126   YY=    17.2674   ZY=    37.6451
   XZ=     3.3675   YZ=    56.7401   ZZ=     4.9863
   Eigenvalues:   -42.9796    24.2977   102.3441
      8  C    Isotropic =    73.3250   Anisotropy =   150.9054
   XX=   109.0432   YX=    53.5872   ZX=    47.2421
   XY=    46.4256   YY=    88.9876   ZY=    37.4616
   XZ=    56.3047   YZ=    26.0599   ZZ=    21.9441
   Eigenvalues:    -3.0461    49.0924   173.9286
      9  C    Isotropic =    49.4417   Anisotropy =   186.7153
   XX=    69.7596   YX=    95.9789   ZX=    57.3344
   XY=    94.1971   YY=    35.7840   ZY=    23.2909
   XZ=    63.0719   YZ=     7.4286   ZZ=    42.7814
   Eigenvalues:   -52.8350    27.2415   173.9186
     10  C    Isotropic =    49.4410   Anisotropy =   186.7174
   XX=    69.9765   YX=   -95.9402   ZX=    57.3855
   XY=   -94.1296   YY=    35.5427   ZY=   -23.2402
   XZ=    63.0857   YZ=    -7.3739   ZZ=    42.8039
   Eigenvalues:   -52.8305    27.2343   173.9193
     11  C    Isotropic =    73.3249   Anisotropy =   150.8933
   XX=   109.1512   YX=   -53.5470   ZX=    47.3219
   XY=   -46.3734   YY=    88.8437   ZY=   -37.4185
   XZ=    56.3561   YZ=   -26.0010   ZZ=    21.9798
   Eigenvalues:    -3.0411    49.0952   173.9204
     12  C    Isotropic =    27.8868   Anisotropy =   111.6753
   XX=    61.5429   YX=   -45.4009   ZX=    13.4584
   XY=   -46.3391   YY=    17.1098   ZY=   -37.6355
   XZ=     3.4764   YZ=   -56.7416   ZZ=     5.0078
   Eigenvalues:   -42.9767    24.3002   102.3370
     13  C    Isotropic =    31.2327   Anisotropy =   107.2735
   XX=    37.5302   YX=   -64.5232   ZX=    32.3071
   XY=   -58.8717   YY=    19.2945   ZY=    -9.9979
   XZ=    33.9310   YZ=     2.4981   ZZ=    36.8733
   Eigenvalues:   -39.0018    29.9515   102.7483
     14  C    Isotropic =    61.4021   Anisotropy =   147.3569
   XX=    91.2701   YX=   -41.7899   ZX=    68.9127
   XY=   -56.9729   YY=    69.0233   ZY=   -21.1447
   XZ=    56.3709   YZ=   -19.5834   ZZ=    23.9129
   Eigenvalues:   -14.4938    39.0601   159.6400
     15  C    Isotropic =    44.7290   Anisotropy =   182.4026
   XX=   -25.3176   YX=    16.1376   ZX=    23.9763
   XY=    14.0112   YY=    95.9978   ZY=   -74.4267
   XZ=    34.2994   YZ=   -95.1257   ZZ=    63.5066
   Eigenvalues:   -49.4909    17.3471   166.3307
     16  C    Isotropic =    48.7895   Anisotropy =   182.7950
   XX=   129.5783   YX=   -72.8741   ZX=   -18.0989
   XY=   -67.2236   YY=    50.7373   ZY=   -19.6761
   XZ=   -19.5026   YZ=   -25.5854   ZZ=   -33.9470
   Eigenvalues:   -48.5074    24.2230   170.6529
     17  C    Isotropic =    44.7302   Anisotropy =   182.4151
   XX=   -25.2807   YX=   -16.2979   ZX=    23.8775
   XY=   -14.1673   YY=    95.9736   ZY=    74.4642
   XZ=    34.1720   YZ=    95.1730   ZZ=    63.4978
   Eigenvalues:   -49.4923    17.3426   166.3403
     18  C    Isotropic =    48.7899   Anisotropy =   182.7937
   XX=   129.3398   YX=    73.0177   ZX=   -18.0476
   XY=    67.3591   YY=    50.9709   ZY=    19.6993
   XZ=   -19.4764   YZ=    25.5972   ZZ=   -33.9410
   Eigenvalues:   -48.5040    24.2213   170.6523
     19  C    Isotropic =    47.9931   Anisotropy =   192.5053
   XX=    28.1018   YX=    14.7521   ZX=    -3.6981
   XY=     7.7024   YY=    69.8371   ZY=   118.4517
   XZ=    -7.5108   YZ=   116.8477   ZZ=    46.0403
   Eigenvalues:   -61.8312    29.4804   176.3300
     20  C    Isotropic =    53.3341   Anisotropy =   182.1109
   XX=   -37.4450   YX=    35.2069   ZX=   -21.1265
   XY=    35.0984   YY=   103.1013   ZY=    76.9131
   XZ=   -19.3477   YZ=    73.5183   ZZ=    94.3460
   Eigenvalues:   -56.8433    42.1043   174.7414
     21  C    Isotropic =    49.3445   Anisotropy =   190.4168
   XX=   -30.2670   YX=   -18.5702   ZX=    39.2555
   XY=   -19.0477   YY=   101.5510   ZY=    84.6127
   XZ=    41.8081   YZ=    86.3306   ZZ=    76.7496
   Eigenvalues:   -60.2047    31.9492   176.2890
     22  C    Isotropic =    52.5114   Anisotropy =   184.9116
   XX=    38.4493   YX=    12.1601   ZX=     0.7237
   XY=    10.7525   YY=    69.0245   ZY=   115.7159
   XZ=    -0.5872   YZ=   114.9454   ZZ=    50.0602
   Eigenvalues:   -56.8038    38.5521   175.7858
     23  C    Isotropic =    36.8436   Anisotropy =   200.9524
   XX=   -51.4336   YX=    33.1860   ZX=   -14.9199
   XY=    37.4882   YY=    77.4097   ZY=    96.6217
   XZ=   -22.2289   YZ=    81.7459   ZZ=    84.5547
   Eigenvalues:   -74.2342    13.9532   170.8119
     24  C    Isotropic =    44.4991   Anisotropy =   199.1377
   XX=   138.4874   YX=    72.0091   ZX=    22.7105
   XY=    78.8098   YY=    30.1602   ZY=   -44.1647
   XZ=    13.0258   YZ=   -43.9334   ZZ=   -35.1503
   Eigenvalues:   -71.0664    27.3061   177.2575
     25  C    Isotropic =    53.8038   Anisotropy =   184.8567
   XX=   119.8209   YX=    99.8680   ZX=    -3.1532
   XY=   100.9218   YY=     0.8635   ZY=     5.2996
   XZ=    -4.8079   YZ=     4.3889   ZZ=    40.7272
   Eigenvalues:   -56.7409    41.1107   177.0417
     26  C    Isotropic =    48.7874   Anisotropy =   194.3440
   XX=   137.3277   YX=    71.6048   ZX=   -24.9086
   XY=    70.7245   YY=    54.5055   ZY=    28.1198
   XZ=   -18.8751   YZ=    29.6512   ZZ=   -45.4710
   Eigenvalues:   -62.5400    30.5522   178.3501
     27  C    Isotropic =    50.4019   Anisotropy =   190.8407
   XX=   137.2075   YX=    72.5713   ZX=    18.3681
   XY=    74.6673   YY=    43.4480   ZY=   -40.7234
   XZ=    21.3082   YZ=   -40.3644   ZZ=   -29.4500
   Eigenvalues:   -61.1393    34.7159   177.6290
     28  C    Isotropic =    37.6610   Anisotropy =   201.5905
   XX=   112.1007   YX=   108.2856   ZX=     6.5432
   XY=   103.1730   YY=   -14.7268   ZY=     7.1200
   XZ=    -2.6821   YZ=     0.3741   ZZ=    15.6092
   Eigenvalues:   -74.6604    15.5888   172.0547
     29  C    Isotropic =    44.5027   Anisotropy =   199.1398
   XX=   138.7611   YX=   -71.8218   ZX=    22.5636
   XY=   -78.6121   YY=    29.8733   ZY=    44.2505
   XZ=    12.8631   YZ=    44.0087   ZZ=   -35.1264
   Eigenvalues:   -71.0669    27.3124   177.2625
     30  C    Isotropic =    53.8016   Anisotropy =   184.8555
   XX=   120.1481   YX=   -99.6720   ZX=    -3.2058
   XY=  -100.7209   YY=     0.5330   ZY=    -5.2902
   XZ=    -4.8705   YZ=    -4.3801   ZZ=    40.7237
   Eigenvalues:   -56.7425    41.1087   177.0386
     31  C    Isotropic =    48.7844   Anisotropy =   194.3400
   XX=   137.5462   YX=   -71.4626   ZX=   -24.9596
   XY=   -70.5858   YY=    54.2895   ZY=   -28.0950
   XZ=   -18.9217   YZ=   -29.6191   ZZ=   -45.4825
   Eigenvalues:   -62.5447    30.5535   178.3444
     32  C    Isotropic =    50.4024   Anisotropy =   190.8367
   XX=   137.4692   YX=   -72.4022   ZX=    18.2087
   XY=   -74.5022   YY=    43.1665   ZY=    40.8120
   XZ=    21.1490   YZ=    40.4564   ZZ=   -29.4286
   Eigenvalues:   -61.1375    34.7178   177.6268
     33  C    Isotropic =    37.6628   Anisotropy =   201.6034
   XX=   112.4709   YX=  -108.0717   ZX=     6.4883
   XY=  -102.9619   YY=   -15.0779   ZY=    -7.0986
   XZ=    -2.7561   YZ=    -0.3529   ZZ=    15.5954
   Eigenvalues:   -74.6558    15.5792   172.0650
     34  C    Isotropic =    47.9923   Anisotropy =   192.5067
   XX=    28.1278   YX=   -14.8116   ZX=    -3.5439
   XY=    -7.7559   YY=    69.7960   ZY=  -118.4596
   XZ=    -7.3610   YZ=  -116.8557   ZZ=    46.0531
   Eigenvalues:   -61.8310    29.4778   176.3301
     35  C    Isotropic =    53.3349   Anisotropy =   182.1127
   XX=   -37.3549   YX=   -35.3958   ZX=   -21.0207
   XY=   -35.2853   YY=   103.0016   ZY=   -76.9408
   XZ=   -19.2465   YZ=   -73.5433   ZZ=    94.3580
   Eigenvalues:   -56.8447    42.1061   174.7434
     36  C    Isotropic =    49.3439   Anisotropy =   190.4201
   XX=   -30.3119   YX=    18.3984   ZX=    39.3695
   XY=    18.8739   YY=   101.5874   ZY=   -84.5656
   XZ=    41.9258   YZ=   -86.2821   ZZ=    76.7563
   Eigenvalues:   -60.2065    31.9476   176.2907
     37  C    Isotropic =    52.5122   Anisotropy =   184.9099
   XX=    38.4812   YX=   -12.2032   ZX=     0.8781
   XY=   -10.7962   YY=    68.9781   ZY=  -115.7149
   XZ=    -0.4367   YZ=  -114.9466   ZZ=    50.0773
   Eigenvalues:   -56.8026    38.5538   175.7855
     38  C    Isotropic =    36.8380   Anisotropy =   200.9513
   XX=   -51.3481   YX=   -33.3572   ZX=   -14.7880
   XY=   -37.6582   YY=    77.2983   ZY=   -96.6367
   XZ=   -22.1134   YZ=   -81.7744   ZZ=    84.5638
   Eigenvalues:   -74.2384    13.9469   170.8056
     39  Cl   Isotropic =   840.4729   Anisotropy =   551.5971
   XX=   698.4737   YX=  -142.0168   ZX=  -138.1845
   XY=  -124.6459   YY=   701.3506   ZY=  -126.8192
   XZ=  -262.9628   YZ=   -98.5705   ZZ=  1121.5945
   Eigenvalues:   487.6058   825.6087  1208.2043
     40  Cl   Isotropic =   840.4324   Anisotropy =   551.5575
   XX=   698.1330   YX=   142.0587   ZX=  -138.2161
   XY=   124.6930   YY=   701.5890   ZY=   126.6216
   XZ=  -263.0700   YZ=    98.2744   ZZ=  1121.5751
   Eigenvalues:   487.5532   825.6065  1208.1374
     41  O    Isotropic =   190.6719   Anisotropy =   121.9102
   XX=   209.2287   YX=    29.8180   ZX=   -19.5418
   XY=    58.7629   YY=   201.0394   ZY=   -63.4317
   XZ=   -27.4966   YZ=   -30.1160   ZZ=   161.7475
   Eigenvalues:   130.2164   169.8539   271.9454
     42  C    Isotropic =    77.3588   Anisotropy =    51.3680
   XX=    68.0320   YX=    16.2592   ZX=   -20.9172
   XY=    10.9940   YY=    62.8376   ZY=     9.1769
   XZ=   -20.7553   YZ=    12.6405   ZZ=   101.2067
   Eigenvalues:    43.1317    77.3406   111.6042
     43  O    Isotropic =   191.8104   Anisotropy =   140.6157
   XX=   146.2494   YX=    -6.6515   ZX=    19.9299
   XY=    -6.9242   YY=   212.8897   ZY=    91.5344
   XZ=    15.8747   YZ=    49.4019   ZZ=   216.2920
   Eigenvalues:   127.5851   162.2919   285.5542
     44  O    Isotropic =   191.8096   Anisotropy =   140.6222
   XX=   146.2260   YX=     6.5144   ZX=    20.1478
   XY=     6.8056   YY=   212.8609   ZY=   -91.4606
   XZ=    15.9219   YZ=   -49.4150   ZZ=   216.3419
   Eigenvalues:   127.5867   162.2844   285.5578
     45  C    Isotropic =    77.3569   Anisotropy =    51.3787
   XX=    68.0350   YX=   -16.2299   ZX=   -20.9128
   XY=   -11.0066   YY=    62.8207   ZY=    -9.2034
   XZ=   -20.7459   YZ=   -12.6440   ZZ=   101.2151
   Eigenvalues:    43.1301    77.3312   111.6094
     46  O    Isotropic =   190.6685   Anisotropy =   121.9063
   XX=   209.3785   YX=   -29.8359   ZX=   -19.6944
   XY=   -58.7058   YY=   200.8959   ZY=    63.3839
   XZ=   -27.5000   YZ=    30.0810   ZZ=   161.7313
   Eigenvalues:   130.2099   169.8564   271.9394
     47  H    Isotropic =    25.1403   Anisotropy =     3.9334
   XX=    24.8586   YX=    -1.8684   ZX=    -2.0704
   XY=    -2.1206   YY=    25.5576   ZY=    -2.3155
   XZ=    -0.8394   YZ=    -2.2864   ZZ=    25.0048
   Eigenvalues:    21.3057    26.3526    27.7626
     48  H    Isotropic =    25.0146   Anisotropy =    12.7810
   XX=    22.3985   YX=    -2.0138   ZX=    -1.6827
   XY=    -4.3504   YY=    25.8233   ZY=    -6.0618
   XZ=     2.9454   YZ=    -7.0571   ZZ=    26.8221
   Eigenvalues:    18.6373    22.8713    33.5353
     49  H    Isotropic =    25.0148   Anisotropy =    12.7820
   XX=    22.3889   YX=     2.0078   ZX=    -1.6900
   XY=     4.3470   YY=    25.8335   ZY=     6.0602
   XZ=     2.9346   YZ=     7.0610   ZZ=    26.8219
   Eigenvalues:    18.6375    22.8706    33.5361
     50  H    Isotropic =    25.1406   Anisotropy =     3.9338
   XX=    24.8531   YX=     1.8670   ZX=    -2.0728
   XY=     2.1201   YY=    25.5635   ZY=     2.3125
   XZ=    -0.8431   YZ=     2.2856   ZZ=    25.0051
   Eigenvalues:    21.3060    26.3527    27.7631
     51  H    Isotropic =    24.0154   Anisotropy =    14.1972
   XX=    32.2484   YX=     1.6678   ZX=    -4.8733
   XY=     1.9270   YY=    19.3591   ZY=    -4.2871
   XZ=    -1.4711   YZ=    -1.4235   ZZ=    20.4386
   Eigenvalues:    16.9616    21.6043    33.4801
     52  H    Isotropic =    24.0057   Anisotropy =     6.8653
   XX=    26.3603   YX=     1.7054   ZX=    -2.3835
   XY=     1.4515   YY=    22.2053   ZY=    -3.2629
   XZ=    -1.3429   YZ=    -2.7524   ZZ=    23.4516
   Eigenvalues:    19.7565    23.6781    28.5825
     53  H    Isotropic =    23.7544   Anisotropy =     3.6649
   XX=    25.4409   YX=    -0.4222   ZX=     0.0781
   XY=    -0.8384   YY=    22.6835   ZY=    -2.8743
   XZ=     0.6042   YZ=    -2.4511   ZZ=    23.1388
   Eigenvalues:    20.2281    24.8375    26.1977
     54  H    Isotropic =    23.5931   Anisotropy =     7.1687
   XX=    27.3782   YX=     1.0298   ZX=    -2.1849
   XY=     0.7948   YY=    21.2930   ZY=    -1.9010
   XZ=    -1.9103   YZ=    -1.4881   ZZ=    22.1082
   Eigenvalues:    19.9083    22.4989    28.3723
     55  H    Isotropic =    22.3034   Anisotropy =    13.1256
   XX=    21.8692   YX=     2.8493   ZX=    -7.6793
   XY=     2.1860   YY=    21.2663   ZY=    -3.5672
   XZ=    -5.8808   YZ=    -1.8127   ZZ=    23.7746
   Eigenvalues:    15.9710    19.8854    31.0538
     56  H    Isotropic =    23.7341   Anisotropy =    10.6459
   XX=    24.9456   YX=    -0.8804   ZX=     4.1737
   XY=    -2.4658   YY=    24.0847   ZY=    -6.9416
   XZ=     3.1422   YZ=    -3.6352   ZZ=    22.1718
   Eigenvalues:    17.2898    23.0810    30.8313
     57  H    Isotropic =    23.9713   Anisotropy =     5.5774
   XX=    23.6240   YX=    -1.2028   ZX=     1.9714
   XY=    -0.7863   YY=    21.5958   ZY=    -1.0340
   XZ=     1.4461   YZ=    -0.6775   ZZ=    26.6940
   Eigenvalues:    21.1845    23.0398    27.6896
     58  H    Isotropic =    23.7430   Anisotropy =     3.1163
   XX=    22.5648   YX=    -2.0288   ZX=     0.9482
   XY=    -2.0187   YY=    24.0356   ZY=     1.3027
   XZ=     0.7070   YZ=     1.1646   ZZ=    24.6286
   Eigenvalues:    20.6562    24.7522    25.8205
     59  H    Isotropic =    23.8166   Anisotropy =     6.3564
   XX=    21.8235   YX=    -1.4610   ZX=     2.8682
   XY=    -1.8904   YY=    23.6585   ZY=    -1.2015
   XZ=     2.2361   YZ=    -1.4785   ZZ=    25.9680
   Eigenvalues:    20.2970    23.0987    28.0542
     60  H    Isotropic =    22.1475   Anisotropy =    11.0444
   XX=    17.8829   YX=     1.2911   ZX=     1.9352
   XY=    -0.6116   YY=    19.4747   ZY=    -1.7595
   XZ=     1.2485   YZ=    -1.2189   ZZ=    29.0849
   Eigenvalues:    17.4982    19.4338    29.5105
     61  H    Isotropic =    23.7331   Anisotropy =    10.6468
   XX=    24.9400   YX=     0.8800   ZX=     4.1666
   XY=     2.4643   YY=    24.0868   ZY=     6.9473
   XZ=     3.1397   YZ=     3.6407   ZZ=    22.1726
   Eigenvalues:    17.2873    23.0811    30.8310
     62  H    Isotropic =    23.9715   Anisotropy =     5.5793
   XX=    23.6198   YX=     1.2042   ZX=     1.9726
   XY=     0.7881   YY=    21.5998   ZY=     1.0338
   XZ=     1.4482   YZ=     0.6767   ZZ=    26.6950
   Eigenvalues:    21.1864    23.0371    27.6911
     63  H    Isotropic =    23.7430   Anisotropy =     3.1174
   XX=    22.5571   YX=     2.0249   ZX=     0.9510
   XY=     2.0158   YY=    24.0441   ZY=    -1.3022
   XZ=     0.7096   YZ=    -1.1642   ZZ=    24.6278
   Eigenvalues:    20.6563    24.7514    25.8213
     64  H    Isotropic =    23.8165   Anisotropy =     6.3562
   XX=    21.8187   YX=     1.4577   ZX=     2.8666
   XY=     1.8876   YY=    23.6628   ZY=     1.2052
   XZ=     2.2343   YZ=     1.4813   ZZ=    25.9682
   Eigenvalues:    20.2970    23.0986    28.0540
     65  H    Isotropic =    22.1462   Anisotropy =    11.0482
   XX=    17.8814   YX=    -1.2904   ZX=     1.9356
   XY=     0.6114   YY=    19.4710   ZY=     1.7591
   XZ=     1.2501   YZ=     1.2182   ZZ=    29.0861
   Eigenvalues:    17.4965    19.4304    29.5117
     66  H    Isotropic =    24.0168   Anisotropy =    14.1970
   XX=    32.2543   YX=    -1.6507   ZX=    -4.8798
   XY=    -1.9092   YY=    19.3542   ZY=     4.2782
   XZ=    -1.4733   YZ=     1.4210   ZZ=    20.4418
   Eigenvalues:    16.9644    21.6045    33.4815
     67  H    Isotropic =    24.0059   Anisotropy =     6.8655
   XX=    26.3642   YX=    -1.7003   ZX=    -2.3882
   XY=    -1.4460   YY=    22.2016   ZY=     3.2596
   XZ=    -1.3466   YZ=     2.7508   ZZ=    23.4520
   Eigenvalues:    19.7569    23.6779    28.5829
     68  H    Isotropic =    23.7544   Anisotropy =     3.6648
   XX=    25.4391   YX=     0.4258   ZX=     0.0741
   XY=     0.8424   YY=    22.6854   ZY=     2.8742
   XZ=     0.6009   YZ=     2.4519   ZZ=    23.1387
   Eigenvalues:    20.2282    24.8373    26.1976
     69  H    Isotropic =    23.5931   Anisotropy =     7.1686
   XX=    27.3803   YX=    -1.0219   ZX=    -2.1876
   XY=    -0.7870   YY=    21.2909   ZY=     1.8983
   XZ=    -1.9123   YZ=     1.4856   ZZ=    22.1080
   Eigenvalues:    19.9083    22.4988    28.3721
     70  H    Isotropic =    22.3027   Anisotropy =    13.1257
   XX=    21.8743   YX=    -2.8486   ZX=    -7.6852
   XY=    -2.1859   YY=    21.2595   ZY=     3.5561
   XZ=    -5.8834   YZ=     1.8033   ZZ=    23.7743
   Eigenvalues:    15.9691    19.8858    31.0532
     71  H    Isotropic =    25.4794   Anisotropy =     5.6020
   XX=    26.4255   YX=     0.3543   ZX=     1.9174
   XY=     1.5578   YY=    24.7471   ZY=     2.6411
   XZ=     1.7730   YZ=     2.8137   ZZ=    25.2656
   Eigenvalues:    22.1855    25.0386    29.2141
     72  H    Isotropic =    25.4758   Anisotropy =     8.4288
   XX=    21.1174   YX=     0.3087   ZX=    -0.7718
   XY=     1.4036   YY=    30.6306   ZY=     1.8353
   XZ=    -1.2912   YZ=     1.4828   ZZ=    24.6795
   Eigenvalues:    20.6741    24.6584    31.0950
     73  H    Isotropic =    25.4762   Anisotropy =     8.4310
   XX=    21.1169   YX=    -0.3163   ZX=    -0.7697
   XY=    -1.4143   YY=    30.6315   ZY=    -1.8353
   XZ=    -1.2897   YZ=    -1.4818   ZZ=    24.6800
   Eigenvalues:    20.6724    24.6592    31.0968
     74  H    Isotropic =    25.4794   Anisotropy =     5.5985
   XX=    26.4248   YX=    -0.3516   ZX=     1.9186
   XY=    -1.5590   YY=    24.7503   ZY=    -2.6389
   XZ=     1.7743   YZ=    -2.8083   ZZ=    25.2630
   Eigenvalues:    22.1890    25.0374    29.2117
     75  Pd   Isotropic =  -164.6237   Anisotropy =   277.7969
   XX=   -14.6135   YX=    -0.0122   ZX=    58.0649
   XY=    -0.0191   YY=    20.5743   ZY=     0.0684
   XZ=   114.9083   YZ=     0.0990   ZZ=  -499.8317
   Eigenvalues:  -514.7864     0.3411    20.5743
 End of Minotr F.D. properties file   721 does not exist.
 End of Minotr F.D. properties file   722 does not exist.
 End of Minotr F.D. properties file   788 does not exist.

 **********************************************************************

            Population analysis using the SCF density.

 **********************************************************************

 Orbital symmetries:
       Occupied  (A) (A) (A) (A) (A) (A) (A) (A) (A) (A) (A) (A)
                 (A) (A) (A) (A) (A) (A) (A) (A) (A) (A) (A) (A)
                 (A) (A) (A) (A) (A) (A) (A) (A) (A) (A) (A) (A)
                 (A) (A) (A) (A) (A) (A) (A) (A) (A) (A) (A) (A)
                 (A) (A) (A) (A) (A) (A) (A) (A) (A) (A) (A) (A)
                 (A) (A) (A) (A) (A) (A) (A) (A) (A) (A) (A) (A)
                 (A) (A) (A) (A) (A) (A) (A) (A) (A) (A) (A) (A)
                 (A) (A) (A) (A) (A) (A) (A) (A) (A) (A) (A) (A)
                 (A) (A) (A) (A) (A) (A) (A) (A) (A) (A) (A) (A)
                 (A) (A) (A) (A) (A) (A) (A) (A) (A) (A) (A) (A)
                 (A) (A) (A) (A) (A) (A) (A) (A) (A) (A) (A) (A)
                 (A) (A) (A) (A) (A) (A) (A) (A) (A) (A) (A) (A)
                 (A) (A) (A) (A) (A) (A) (A) (A) (A) (A) (A) (A)
                 (A) (A) (A) (A) (A) (A) (A) (A) (A) (A) (A) (A)
                 (A) (A) (A) (A) (A) (A) (A) (A) (A) (A) (A) (A)
                 (A) (A) (A) (A) (A)
       Virtual   (A) (A) (A) (A) (A) (A) (A) (A) (A) (A) (A) (A)
                 (A) (A) (A) (A) (A) (A) (A) (A) (A) (A) (A) (A)
                 (A) (A) (A) (A) (A) (A) (A) (A) (A) (A) (A) (A)
                 (A) (A) (A) (A) (A) (A) (A) (A) (A) (A) (A) (A)
                 (A) (A) (A) (A) (A) (A) (A) (A) (A) (A) (A) (A)
                 (A) (A) (A) (A) (A) (A) (A) (A) (A) (A) (A) (A)
                 (A) (A) (A) (A) (A) (A) (A) (A) (A) (A) (A) (A)
                 (A) (A) (A) (A) (A) (A) (A) (A) (A) (A) (A) (A)
                 (A) (A) (A) (A) (A) (A) (A) (A) (A) (A) (A) (A)
                 (A) (A) (A) (A) (A) (A) (A) (A) (A) (A) (A) (A)
                 (A) (A) (A) (A) (A) (A) (A) (A) (A) (A) (A) (A)
                 (A) (A) (A) (A) (A) (A) (A) (A) (A) (A) (A) (A)
                 (A) (A) (A) (A) (A) (A) (A) (A) (A) (A) (A) (A)
                 (A) (A) (A) (A) (A) (A) (A) (A) (A) (A) (A) (A)
                 (A) (A) (A) (A) (A) (A) (A) (A) (A) (A) (A) (A)
                 (A) (A) (A) (A) (A) (A) (A) (A) (A) (A) (A) (A)
                 (A) (A) (A) (A) (A) (A) (A) (A) (A) (A) (A) (A)
                 (A) (A) (A) (A) (A) (A) (A) (A) (A) (A) (A) (A)
                 (A) (A) (A) (A) (A) (A) (A) (A) (A) (A) (A) (A)
                 (A) (A) (A) (A) (A) (A) (A) (A) (A) (A) (A) (A)
                 (A) (A) (A) (A) (A) (A) (A) (A) (A) (A) (A) (A)
                 (A) (A) (A) (A) (A) (A) (A) (A) (A) (A) (A) (A)
                 (A) (A) (A) (A) (A) (A) (A) (A) (A) (A) (A) (A)
                 (A) (A) (A) (A) (A) (A) (A) (A) (A) (A) (A) (A)
                 (A) (A) (A) (A) (A) (A) (A) (A) (A) (A) (A) (A)
                 (A) (A) (A) (A) (A) (A) (A) (A) (A) (A) (A) (A)
                 (A) (A) (A) (A) (A) (A) (A) (A) (A) (A) (A) (A)
                 (A) (A) (A) (A) (A) (A) (A) (A) (A) (A) (A) (A)
                 (A) (A) (A) (A) (A) (A) (A) (A) (A) (A) (A) (A)
                 (A) (A) (A) (A) (A) (A) (A) (A) (A) (A) (A) (A)
                 (A) (A) (A) (A) (A) (A) (A) (A) (A) (A) (A) (A)
                 (A) (A) (A) (A) (A) (A) (A) (A) (A) (A) (A) (A)
                 (A) (A) (A) (A) (A) (A) (A) (A) (A) (A) (A) (A)
                 (A) (A) (A) (A) (A) (A) (A) (A) (A) (A) (A) (A)
                 (A) (A) (A) (A) (A) (A) (A) (A) (A) (A) (A) (A)
                 (A) (A) (A) (A) (A) (A) (A) (A) (A) (A) (A) (A)
                 (A) (A) (A) (A) (A) (A) (A) (A) (A) (A) (A) (A)
                 (A) (A) (A) (A) (A) (A) (A) (A) (A) (A) (A) (A)
                 (A) (A) (A) (A) (A) (A) (A) (A) (A) (A) (A) (A)
                 (A) (A) (A) (A) (A) (A) (A) (A) (A) (A) (A) (A)
                 (A) (A) (A) (A) (A) (A) (A) (A) (A) (A) (A) (A)
                 (A) (A) (A) (A) (A) (A) (A) (A) (A) (A) (A) (A)
                 (A) (A) (A) (A) (A) (A) (A) (A) (A) (A) (A) (A)
                 (A) (A) (A) (A) (A) (A) (A) (A) (A) (A) (A) (A)
                 (A) (A) (A) (A) (A) (A) (A) (A) (A) (A) (A) (A)
                 (A) (A) (A) (A) (A) (A) (A) (A) (A) (A) (A) (A)
                 (A) (A) (A) (A) (A) (A) (A) (A) (A) (A) (A) (A)
                 (A) (A) (A) (A) (A) (A) (A) (A) (A) (A) (A) (A)
                 (A) (A) (A) (A) (A) (A) (A) (A) (A) (A) (A) (A)
                 (A) (A) (A) (A) (A) (A) (A) (A) (A) (A) (A) (A)
                 (A) (A) (A) (A) (A) (A) (A) (A) (A) (A) (A) (A)
                 (A) (A) (A) (A) (A) (A) (A) (A) (A) (A) (A) (A)
                 (A) (A) (A) (A) (A) (A) (A) (A) (A) (A) (A) (A)
                 (A) (A) (A) (A) (A) (A) (A) (A) (A) (A) (A) (A)
                 (A) (A) (A) (A) (A) (A) (A) (A) (A) (A) (A) (A)
                 (A) (A) (A) (A) (A) (A) (A) (A) (A) (A) (A) (A)
                 (A) (A) (A) (A) (A) (A) (A) (A) (A) (A) (A) (A)
                 (A) (A) (A) (A) (A) (A) (A) (A) (A) (A) (A) (A)
                 (A) (A) (A) (A) (A) (A) (A) (A) (A) (A) (A) (A)
                 (A) (A) (A) (A) (A) (A) (A) (A) (A) (A) (A) (A)
                 (A) (A) (A) (A) (A) (A) (A) (A) (A) (A) (A) (A)
                 (A) (A) (A) (A) (A) (A) (A) (A) (A) (A) (A) (A)
                 (A) (A) (A) (A) (A) (A) (A) (A) (A) (A) (A) (A)
                 (A) (A) (A) (A) (A) (A) (A) (A) (A) (A) (A) (A)
                 (A) (A) (A) (A) (A) (A) (A) (A) (A) (A) (A) (A)
                 (A) (A) (A) (A) (A) (A) (A) (A) (A) (A) (A) (A)
                 (A) (A) (A) (A) (A) (A) (A) (A) (A) (A) (A) (A)
                 (A) (A) (A) (A) (A) (A) (A) (A) (A) (A) (A) (A)
                 (A) (A) (A) (A) (A) (A) (A) (A) (A) (A) (A) (A)
                 (A) (A) (A) (A) (A) (A) (A) (A) (A) (A) (A) (A)
                 (A) (A) (A) (A) (A) (A) (A) (A) (A) (A) (A) (A)
                 (A) (A) (A) (A) (A) (A) (A) (A) (A) (A) (A) (A)
                 (A) (A) (A) (A) (A) (A) (A) (A) (A) (A) (A) (A)
                 (A) (A) (A) (A) (A) (A) (A) (A) (A) (A) (A) (A)
                 (A) (A) (A) (A) (A) (A) (A) (A) (A) (A) (A) (A)
                 (A) (A) (A) (A) (A) (A) (A) (A) (A) (A) (A) (A)
                 (A) (A) (A) (A) (A) (A) (A) (A) (A) (A) (A) (A)
                 (A) (A) (A) (A) (A) (A) (A) (A) (A) (A) (A) (A)
                 (A) (A) (A) (A) (A) (A) (A) (A) (A) (A) (A) (A)
                 (A) (A) (A) (A) (A) (A) (A) (A) (A) (A) (A) (A)
                 (A) (A) (A) (A) (A) (A) (A) (A) (A) (A) (A) (A)
                 (A) (A) (A) (A) (A) (A) (A) (A) (A) (A) (A) (A)
                 (A) (A) (A) (A) (A) (A) (A) (A) (A) (A) (A) (A)
                 (A) (A) (A) (A) (A) (A) (A) (A) (A) (A) (A) (A)
                 (A) (A) (A) (A) (A) (A) (A) (A) (A) (A) (A) (A)
                 (A) (A) (A) (A) (A) (A) (A) (A) (A) (A) (A) (A)
                 (A) (A) (A) (A) (A) (A) (A) (A) (A) (A) (A) (A)
                 (A) (A) (A) (A) (A) (A) (A) (A) (A) (A) (A) (A)
                 (A) (A) (A) (A) (A) (A) (A) (A) (A) (A) (A) (A)
                 (A) (A) (A) (A) (A) (A) (A) (A) (A) (A) (A) (A)
                 (A) (A) (A) (A) (A) (A) (A) (A) (A) (A) (A) (A)
                 (A) (A) (A) (A) (A) (A) (A) (A) (A) (A) (A) (A)
                 (A) (A) (A) (A) (A) (A) (A) (A) (A) (A) (A) (A)
                 (A) (A) (A) (A) (A) (A) (A) (A) (A) (A) (A) (A)
                 (A) (A) (A) (A) (A) (A) (A) (A) (A) (A) (A) (A)
                 (A) (A) (A) (A) (A) (A) (A) (A) (A) (A) (A) (A)
                 (A) (A) (A) (A) (A) (A) (A) (A) (A) (A) (A) (A)
                 (A) (A) (A) (A) (A) (A) (A) (A) (A) (A) (A) (A)
                 (A) (A) (A) (A) (A) (A) (A) (A) (A) (A) (A) (A)
                 (A) (A) (A) (A) (A) (A) (A) (A) (A) (A) (A) (A)
                 (A) (A) (A) (A) (A) (A) (A) (A) (A) (A) (A) (A)
                 (A) (A) (A) (A) (A) (A) (A) (A) (A) (A) (A) (A)
                 (A) (A) (A) (A) (A) (A) (A) (A) (A) (A) (A) (A)
                 (A) (A) (A) (A) (A) (A) (A) (A) (A) (A) (A) (A)
                 (A) (A) (A) (A) (A) (A) (A) (A) (A) (A) (A) (A)
                 (A) (A) (A) (A) (A) (A) (A) (A) (A) (A) (A) (A)
                 (A) (A) (A) (A) (A) (A) (A) (A) (A) (A) (A) (A)
                 (A) (A) (A) (A) (A) (A) (A) (A) (A) (A) (A) (A)
                 (A) (A) (A) (A) (A) (A) (A) (A) (A) (A) (A) (A)
                 (A) (A) (A) (A) (A) (A) (A) (A) (A) (A) (A) (A)
                 (A) (A) (A) (A) (A) (A) (A) (A) (A) (A) (A) (A)
                 (A) (A) (A) (A) (A) (A) (A) (A) (A) (A) (A) (A)
                 (A) (A) (A) (A) (A) (A) (A) (A) (A) (A) (A) (A)
                 (A) (A) (A) (A) (A) (A) (A) (A) (A) (A) (A) (A)
                 (A) (A) (A) (A) (A) (A) (A) (A) (A) (A) (A) (A)
                 (A) (A) (A) (A) (A) (A) (A) (A) (A) (A) (A) (A)
                 (A) (A) (A) (A) (A) (A) (A) (A) (A) (A) (A) (A)
                 (A) (A) (A) (A) (A) (A) (A) (A) (A) (A) (A) (A)
                 (A) (A) (A) (A) (A) (A) (A) (A) (A) (A) (A) (A)
                 (A) (A) (A) (A) (A) (A) (A) (A) (A) (A) (A) (A)
                 (A) (A) (A) (A) (A) (A) (A) (A) (A) (A) (A) (A)
                 (A) (A) (A) (A) (A) (A) (A) (A) (A) (A) (A) (A)
                 (A) (A) (A) (A) (A)
 The electronic state is 1-A.
 Alpha  occ. eigenvalues -- -101.60682-101.60682 -77.26432 -77.26432 -19.27593
 Alpha  occ. eigenvalues --  -19.27592 -19.27544 -19.27543 -10.36216 -10.36216
 Alpha  occ. eigenvalues --  -10.31221 -10.31221 -10.31113 -10.31113 -10.27384
 Alpha  occ. eigenvalues --  -10.27353 -10.26509 -10.26509 -10.25888 -10.25888
 Alpha  occ. eigenvalues --  -10.25422 -10.25422 -10.25286 -10.25286 -10.25232
 Alpha  occ. eigenvalues --  -10.25232 -10.25230 -10.25230 -10.25050 -10.25049
 Alpha  occ. eigenvalues --  -10.24944 -10.24944 -10.24674 -10.24673 -10.24508
 Alpha  occ. eigenvalues --  -10.24508 -10.24222 -10.24222 -10.23931 -10.23931
 Alpha  occ. eigenvalues --  -10.23912 -10.23912 -10.23772 -10.23772 -10.23553
 Alpha  occ. eigenvalues --  -10.23552  -9.43190  -9.43189  -7.16377  -7.16377
 Alpha  occ. eigenvalues --   -7.15924  -7.15923  -7.15866  -7.15865  -6.65628
 Alpha  occ. eigenvalues --   -6.65627  -4.79221  -4.79221  -4.79192  -4.79191
 Alpha  occ. eigenvalues --   -4.78977  -4.78976  -3.51767  -2.19474  -2.19335
 Alpha  occ. eigenvalues --   -2.16114  -1.17427  -1.17336  -1.08567  -1.08394
 Alpha  occ. eigenvalues --   -0.92163  -0.89990  -0.89590  -0.89569  -0.88581
 Alpha  occ. eigenvalues --   -0.88528  -0.83084  -0.81603  -0.81596  -0.79256
 Alpha  occ. eigenvalues --   -0.79253  -0.78381  -0.78380  -0.77731  -0.77669
 Alpha  occ. eigenvalues --   -0.77350  -0.77315  -0.77298  -0.73491  -0.72815
 Alpha  occ. eigenvalues --   -0.72307  -0.71865  -0.69216  -0.68476  -0.68013
 Alpha  occ. eigenvalues --   -0.65399  -0.65059  -0.63959  -0.63898  -0.63762
 Alpha  occ. eigenvalues --   -0.63107  -0.62913  -0.62464  -0.62449  -0.59742
 Alpha  occ. eigenvalues --   -0.59450  -0.56888  -0.56044  -0.55702  -0.55276
 Alpha  occ. eigenvalues --   -0.54971  -0.54507  -0.54395  -0.53549  -0.53292
 Alpha  occ. eigenvalues --   -0.52697  -0.51332  -0.51124  -0.48521  -0.48412
 Alpha  occ. eigenvalues --   -0.48244  -0.48041  -0.48022  -0.47360  -0.47249
 Alpha  occ. eigenvalues --   -0.46949  -0.46882  -0.46727  -0.46697  -0.45310
 Alpha  occ. eigenvalues --   -0.45084  -0.44949  -0.44730  -0.43945  -0.43923
 Alpha  occ. eigenvalues --   -0.43553  -0.43221  -0.42838  -0.42837  -0.42330
 Alpha  occ. eigenvalues --   -0.41931  -0.41624  -0.41386  -0.41126  -0.40777
 Alpha  occ. eigenvalues --   -0.40634  -0.39503  -0.39383  -0.39115  -0.38828
 Alpha  occ. eigenvalues --   -0.38669  -0.38004  -0.37499  -0.37279  -0.37048
 Alpha  occ. eigenvalues --   -0.36931  -0.36831  -0.36100  -0.36007  -0.35298
 Alpha  occ. eigenvalues --   -0.35229  -0.34782  -0.34635  -0.32911  -0.31563
 Alpha  occ. eigenvalues --   -0.31364  -0.30037  -0.29564  -0.29249  -0.28581
 Alpha  occ. eigenvalues --   -0.28325  -0.28209  -0.27511  -0.27368  -0.27247
 Alpha  occ. eigenvalues --   -0.27124  -0.26411  -0.26224  -0.25999  -0.24813
 Alpha  occ. eigenvalues --   -0.23993  -0.23893  -0.23276  -0.22761  -0.22368
 Alpha virt. eigenvalues --   -0.08049  -0.04743  -0.04641  -0.04401  -0.03430
 Alpha virt. eigenvalues --   -0.03072  -0.02825  -0.02140  -0.02140  -0.01897
 Alpha virt. eigenvalues --   -0.01520  -0.00826  -0.00660   0.00991   0.01532
 Alpha virt. eigenvalues --    0.03435   0.03597   0.04285   0.04959   0.05370
 Alpha virt. eigenvalues --    0.05438   0.05649   0.05769   0.05952   0.06355
 Alpha virt. eigenvalues --    0.06733   0.07042   0.07271   0.07903   0.07915
 Alpha virt. eigenvalues --    0.08291   0.08417   0.08470   0.09026   0.09098
 Alpha virt. eigenvalues --    0.09316   0.09349   0.09859   0.10072   0.10489
 Alpha virt. eigenvalues --    0.10571   0.11114   0.11246   0.11353   0.11810
 Alpha virt. eigenvalues --    0.12063   0.12334   0.12371   0.12482   0.12532
 Alpha virt. eigenvalues --    0.13199   0.13575   0.13767   0.14111   0.14143
 Alpha virt. eigenvalues --    0.14369   0.14409   0.14632   0.15043   0.15302
 Alpha virt. eigenvalues --    0.15753   0.16197   0.16642   0.16801   0.17017
 Alpha virt. eigenvalues --    0.17615   0.18076   0.18132   0.18474   0.18548
 Alpha virt. eigenvalues --    0.18850   0.19604   0.20014   0.20232   0.20450
 Alpha virt. eigenvalues --    0.20865   0.20886   0.20909   0.21397   0.21681
 Alpha virt. eigenvalues --    0.21896   0.21920   0.22010   0.22285   0.22302
 Alpha virt. eigenvalues --    0.22774   0.22803   0.22917   0.23509   0.23545
 Alpha virt. eigenvalues --    0.23575   0.23689   0.23843   0.24105   0.24385
 Alpha virt. eigenvalues --    0.24581   0.24726   0.24812   0.25166   0.25345
 Alpha virt. eigenvalues --    0.25578   0.25661   0.26021   0.26077   0.26681
 Alpha virt. eigenvalues --    0.26829   0.26921   0.26947   0.27314   0.27416
 Alpha virt. eigenvalues --    0.28057   0.28084   0.28437   0.28675   0.28767
 Alpha virt. eigenvalues --    0.29166   0.29269   0.29959   0.30358   0.30365
 Alpha virt. eigenvalues --    0.30433   0.30626   0.31174   0.31590   0.31648
 Alpha virt. eigenvalues --    0.32049   0.32113   0.32230   0.32248   0.32665
 Alpha virt. eigenvalues --    0.33097   0.33108   0.33398   0.33721   0.33987
 Alpha virt. eigenvalues --    0.34117   0.34327   0.34562   0.34572   0.34790
 Alpha virt. eigenvalues --    0.34901   0.35120   0.35173   0.35515   0.35850
 Alpha virt. eigenvalues --    0.36294   0.36416   0.36821   0.36864   0.37212
 Alpha virt. eigenvalues --    0.37519   0.37568   0.37631   0.37878   0.38149
 Alpha virt. eigenvalues --    0.38296   0.38771   0.38856   0.39157   0.39567
 Alpha virt. eigenvalues --    0.39676   0.39784   0.40213   0.40323   0.40419
 Alpha virt. eigenvalues --    0.40729   0.40796   0.40979   0.40986   0.41207
 Alpha virt. eigenvalues --    0.41399   0.41610   0.41667   0.42017   0.42355
 Alpha virt. eigenvalues --    0.42403   0.42695   0.42870   0.43012   0.43188
 Alpha virt. eigenvalues --    0.43351   0.43593   0.43916   0.44090   0.44137
 Alpha virt. eigenvalues --    0.44294   0.44472   0.44583   0.44762   0.45315
 Alpha virt. eigenvalues --    0.45361   0.45467   0.45528   0.45665   0.45769
 Alpha virt. eigenvalues --    0.46171   0.46513   0.46636   0.46910   0.47249
 Alpha virt. eigenvalues --    0.47467   0.47565   0.47811   0.47978   0.48178
 Alpha virt. eigenvalues --    0.48421   0.48442   0.48825   0.49048   0.49162
 Alpha virt. eigenvalues --    0.49397   0.49772   0.49816   0.50193   0.50294
 Alpha virt. eigenvalues --    0.50399   0.50716   0.50882   0.51145   0.51412
 Alpha virt. eigenvalues --    0.51438   0.51837   0.52050   0.52212   0.52322
 Alpha virt. eigenvalues --    0.52649   0.52739   0.52758   0.53445   0.53480
 Alpha virt. eigenvalues --    0.53670   0.53827   0.53950   0.54472   0.54960
 Alpha virt. eigenvalues --    0.55279   0.55584   0.56348   0.56402   0.56772
 Alpha virt. eigenvalues --    0.57239   0.57695   0.57744   0.57753   0.58085
 Alpha virt. eigenvalues --    0.58690   0.58716   0.59794   0.60130   0.60400
 Alpha virt. eigenvalues --    0.60853   0.60894   0.61127   0.61136   0.61516
 Alpha virt. eigenvalues --    0.61926   0.62530   0.62882   0.63594   0.63761
 Alpha virt. eigenvalues --    0.64046   0.64053   0.64488   0.64812   0.64852
 Alpha virt. eigenvalues --    0.65219   0.65513   0.66079   0.66092   0.66432
 Alpha virt. eigenvalues --    0.66785   0.66820   0.67563   0.67586   0.67667
 Alpha virt. eigenvalues --    0.67776   0.67847   0.68226   0.68334   0.68434
 Alpha virt. eigenvalues --    0.68707   0.68854   0.69375   0.69539   0.70437
 Alpha virt. eigenvalues --    0.70462   0.70585   0.70713   0.71159   0.71372
 Alpha virt. eigenvalues --    0.71663   0.72042   0.72150   0.72242   0.72428
 Alpha virt. eigenvalues --    0.72751   0.73035   0.73151   0.73481   0.73597
 Alpha virt. eigenvalues --    0.73838   0.74156   0.74268   0.74622   0.74852
 Alpha virt. eigenvalues --    0.75124   0.75186   0.75809   0.76001   0.76082
 Alpha virt. eigenvalues --    0.76582   0.76712   0.76908   0.77363   0.77872
 Alpha virt. eigenvalues --    0.77961   0.78279   0.78500   0.78898   0.79321
 Alpha virt. eigenvalues --    0.79420   0.79581   0.79611   0.80053   0.80542
 Alpha virt. eigenvalues --    0.80873   0.81055   0.81233   0.81831   0.81873
 Alpha virt. eigenvalues --    0.82170   0.82411   0.82524   0.82712   0.83154
 Alpha virt. eigenvalues --    0.83177   0.83661   0.84195   0.84286   0.84441
 Alpha virt. eigenvalues --    0.84644   0.84968   0.85355   0.85951   0.86443
 Alpha virt. eigenvalues --    0.86481   0.86812   0.87089   0.87311   0.87795
 Alpha virt. eigenvalues --    0.88122   0.88487   0.88655   0.89172   0.89451
 Alpha virt. eigenvalues --    0.89835   0.89890   0.90666   0.91107   0.91174
 Alpha virt. eigenvalues --    0.91550   0.91735   0.92078   0.92708   0.92827
 Alpha virt. eigenvalues --    0.92832   0.93181   0.93677   0.93821   0.94226
 Alpha virt. eigenvalues --    0.94296   0.94573   0.94763   0.94853   0.95583
 Alpha virt. eigenvalues --    0.96428   0.96611   0.96709   0.96759   0.97704
 Alpha virt. eigenvalues --    0.97923   0.98090   0.98210   0.99069   0.99102
 Alpha virt. eigenvalues --    0.99732   1.00219   1.00250   1.00636   1.00895
 Alpha virt. eigenvalues --    1.01313   1.02047   1.02423   1.03592   1.03881
 Alpha virt. eigenvalues --    1.04040   1.04250   1.04423   1.05305   1.05425
 Alpha virt. eigenvalues --    1.05940   1.05987   1.06576   1.07328   1.07369
 Alpha virt. eigenvalues --    1.08281   1.08601   1.08732   1.09413   1.10053
 Alpha virt. eigenvalues --    1.10081   1.10406   1.10831   1.11186   1.11321
 Alpha virt. eigenvalues --    1.12033   1.12761   1.12776   1.12997   1.13155
 Alpha virt. eigenvalues --    1.13411   1.13454   1.14166   1.14465   1.14695
 Alpha virt. eigenvalues --    1.15435   1.15718   1.16329   1.16640   1.16668
 Alpha virt. eigenvalues --    1.17011   1.17168   1.17688   1.18347   1.18513
 Alpha virt. eigenvalues --    1.18673   1.18954   1.19273   1.19416   1.19814
 Alpha virt. eigenvalues --    1.20231   1.20815   1.20942   1.21396   1.21675
 Alpha virt. eigenvalues --    1.21886   1.21918   1.22940   1.23410   1.23765
 Alpha virt. eigenvalues --    1.23807   1.24291   1.24401   1.24927   1.25060
 Alpha virt. eigenvalues --    1.25314   1.25429   1.25830   1.25868   1.26354
 Alpha virt. eigenvalues --    1.27222   1.27560   1.27572   1.28047   1.28051
 Alpha virt. eigenvalues --    1.28715   1.28822   1.28864   1.29144   1.29338
 Alpha virt. eigenvalues --    1.30053   1.30377   1.30381   1.30841   1.30927
 Alpha virt. eigenvalues --    1.31304   1.31451   1.32005   1.32121   1.33152
 Alpha virt. eigenvalues --    1.33365   1.33790   1.34210   1.34736   1.35021
 Alpha virt. eigenvalues --    1.35283   1.35581   1.36125   1.36559   1.36831
 Alpha virt. eigenvalues --    1.37218   1.37502   1.38085   1.38314   1.38812
 Alpha virt. eigenvalues --    1.39450   1.39930   1.40085   1.40763   1.41355
 Alpha virt. eigenvalues --    1.41659   1.42156   1.42874   1.43420   1.44090
 Alpha virt. eigenvalues --    1.44122   1.44310   1.45134   1.45217   1.45706
 Alpha virt. eigenvalues --    1.46116   1.46201   1.46374   1.46722   1.47412
 Alpha virt. eigenvalues --    1.47655   1.47853   1.48419   1.49225   1.49412
 Alpha virt. eigenvalues --    1.49604   1.49758   1.50628   1.51041   1.51124
 Alpha virt. eigenvalues --    1.51308   1.51848   1.52092   1.52614   1.52648
 Alpha virt. eigenvalues --    1.52816   1.53054   1.53268   1.53558   1.54346
 Alpha virt. eigenvalues --    1.54813   1.54829   1.55101   1.55290   1.55826
 Alpha virt. eigenvalues --    1.56129   1.56447   1.56843   1.57540   1.57779
 Alpha virt. eigenvalues --    1.58259   1.58427   1.58862   1.59402   1.59459
 Alpha virt. eigenvalues --    1.60130   1.60396   1.61159   1.61166   1.61488
 Alpha virt. eigenvalues --    1.61867   1.62163   1.63240   1.63304   1.63577
 Alpha virt. eigenvalues --    1.64194   1.64290   1.64661   1.64663   1.65342
 Alpha virt. eigenvalues --    1.65394   1.65876   1.66191   1.66445   1.66890
 Alpha virt. eigenvalues --    1.67248   1.68074   1.68142   1.68570   1.68882
 Alpha virt. eigenvalues --    1.69350   1.69870   1.69955   1.70173   1.70295
 Alpha virt. eigenvalues --    1.70769   1.70863   1.71485   1.71568   1.72238
 Alpha virt. eigenvalues --    1.72441   1.72495   1.72628   1.73275   1.73451
 Alpha virt. eigenvalues --    1.73487   1.74005   1.74074   1.74550   1.74742
 Alpha virt. eigenvalues --    1.75040   1.75259   1.75492   1.75617   1.76598
 Alpha virt. eigenvalues --    1.76791   1.77409   1.77990   1.78057   1.78389
 Alpha virt. eigenvalues --    1.78834   1.79261   1.79486   1.79749   1.79796
 Alpha virt. eigenvalues --    1.80064   1.80213   1.81709   1.81831   1.81987
 Alpha virt. eigenvalues --    1.82174   1.82482   1.82553   1.83622   1.84106
 Alpha virt. eigenvalues --    1.84350   1.84767   1.85255   1.85438   1.86335
 Alpha virt. eigenvalues --    1.86514   1.86863   1.87683   1.87929   1.88443
 Alpha virt. eigenvalues --    1.88779   1.89046   1.89238   1.89565   1.89730
 Alpha virt. eigenvalues --    1.90580   1.91277   1.92069   1.92587   1.92953
 Alpha virt. eigenvalues --    1.93638   1.93799   1.94104   1.94197   1.94330
 Alpha virt. eigenvalues --    1.94860   1.95062   1.95226   1.95881   1.96333
 Alpha virt. eigenvalues --    1.96862   1.97273   1.97372   1.97466   1.97835
 Alpha virt. eigenvalues --    1.97953   1.98222   1.98740   1.99064   1.99672
 Alpha virt. eigenvalues --    1.99805   2.00368   2.00716   2.00810   2.01140
 Alpha virt. eigenvalues --    2.02213   2.02274   2.03147   2.03486   2.03746
 Alpha virt. eigenvalues --    2.04276   2.04293   2.04627   2.04929   2.05121
 Alpha virt. eigenvalues --    2.05615   2.05796   2.07425   2.07691   2.07715
 Alpha virt. eigenvalues --    2.08519   2.08609   2.09143   2.09278   2.09829
 Alpha virt. eigenvalues --    2.09887   2.10096   2.10363   2.10555   2.10825
 Alpha virt. eigenvalues --    2.10954   2.12088   2.12370   2.12769   2.13019
 Alpha virt. eigenvalues --    2.13491   2.13544   2.13924   2.14392   2.14740
 Alpha virt. eigenvalues --    2.15074   2.15379   2.15710   2.15986   2.16352
 Alpha virt. eigenvalues --    2.16446   2.16695   2.17254   2.17561   2.17773
 Alpha virt. eigenvalues --    2.18458   2.18674   2.18725   2.19027   2.19075
 Alpha virt. eigenvalues --    2.19669   2.20057   2.20406   2.20429   2.21001
 Alpha virt. eigenvalues --    2.21454   2.21913   2.22109   2.22458   2.22620
 Alpha virt. eigenvalues --    2.23056   2.23414   2.23523   2.23820   2.24524
 Alpha virt. eigenvalues --    2.24870   2.25163   2.25929   2.26056   2.26083
 Alpha virt. eigenvalues --    2.26253   2.26730   2.27657   2.28512   2.28743
 Alpha virt. eigenvalues --    2.29696   2.29901   2.29997   2.30356   2.31311
 Alpha virt. eigenvalues --    2.31404   2.31646   2.32184   2.32973   2.33221
 Alpha virt. eigenvalues --    2.33408   2.33606   2.34130   2.34251   2.34843
 Alpha virt. eigenvalues --    2.35016   2.36736   2.37120   2.37272   2.37862
 Alpha virt. eigenvalues --    2.38614   2.39865   2.40003   2.40816   2.41525
 Alpha virt. eigenvalues --    2.41752   2.41761   2.41988   2.42649   2.42839
 Alpha virt. eigenvalues --    2.43157   2.43335   2.43885   2.44058   2.44157
 Alpha virt. eigenvalues --    2.44610   2.45741   2.45806   2.46606   2.46811
 Alpha virt. eigenvalues --    2.47558   2.48045   2.48194   2.48511   2.48663
 Alpha virt. eigenvalues --    2.48768   2.49839   2.49985   2.50436   2.50582
 Alpha virt. eigenvalues --    2.51488   2.51706   2.51901   2.52241   2.52312
 Alpha virt. eigenvalues --    2.52638   2.52899   2.53361   2.53529   2.54584
 Alpha virt. eigenvalues --    2.54753   2.55416   2.56007   2.56454   2.56795
 Alpha virt. eigenvalues --    2.57015   2.57311   2.57447   2.58249   2.58470
 Alpha virt. eigenvalues --    2.59387   2.59440   2.59474   2.60099   2.60379
 Alpha virt. eigenvalues --    2.60810   2.60961   2.61241   2.62137   2.62465
 Alpha virt. eigenvalues --    2.62573   2.62873   2.63083   2.63847   2.64093
 Alpha virt. eigenvalues --    2.64165   2.64593   2.64772   2.65214   2.65879
 Alpha virt. eigenvalues --    2.66257   2.66291   2.66465   2.66548   2.66756
 Alpha virt. eigenvalues --    2.67222   2.67529   2.67835   2.68015   2.68331
 Alpha virt. eigenvalues --    2.69164   2.69392   2.69553   2.69897   2.70440
 Alpha virt. eigenvalues --    2.70604   2.71141   2.71503   2.71875   2.72024
 Alpha virt. eigenvalues --    2.72401   2.72522   2.72801   2.73040   2.73205
 Alpha virt. eigenvalues --    2.73572   2.73590   2.73696   2.73994   2.74119
 Alpha virt. eigenvalues --    2.75323   2.75469   2.75787   2.76150   2.76273
 Alpha virt. eigenvalues --    2.76391   2.76493   2.76797   2.76902   2.77479
 Alpha virt. eigenvalues --    2.78013   2.78094   2.78444   2.79040   2.79219
 Alpha virt. eigenvalues --    2.79593   2.79647   2.80002   2.80306   2.80470
 Alpha virt. eigenvalues --    2.80620   2.80881   2.81316   2.81333   2.82177
 Alpha virt. eigenvalues --    2.82631   2.82721   2.82959   2.83070   2.83691
 Alpha virt. eigenvalues --    2.83853   2.84100   2.84780   2.84924   2.85487
 Alpha virt. eigenvalues --    2.85692   2.85868   2.86066   2.86693   2.87161
 Alpha virt. eigenvalues --    2.87245   2.87722   2.87789   2.88158   2.88171
 Alpha virt. eigenvalues --    2.88634   2.88739   2.89039   2.89680   2.90296
 Alpha virt. eigenvalues --    2.90697   2.91064   2.91249   2.91790   2.92014
 Alpha virt. eigenvalues --    2.92240   2.92552   2.93471   2.93543   2.93839
 Alpha virt. eigenvalues --    2.94181   2.94650   2.94704   2.95343   2.95700
 Alpha virt. eigenvalues --    2.95857   2.96944   2.97263   2.97482   2.97934
 Alpha virt. eigenvalues --    2.98077   2.98550   2.99468   3.00896   3.01068
 Alpha virt. eigenvalues --    3.01539   3.02104   3.02191   3.02390   3.03002
 Alpha virt. eigenvalues --    3.03095   3.04800   3.04886   3.05398   3.05502
 Alpha virt. eigenvalues --    3.05923   3.06860   3.07448   3.07900   3.07963
 Alpha virt. eigenvalues --    3.09131   3.09289   3.09515   3.10014   3.10181
 Alpha virt. eigenvalues --    3.10321   3.10968   3.10995   3.11815   3.12395
 Alpha virt. eigenvalues --    3.12919   3.13159   3.13247   3.13455   3.13462
 Alpha virt. eigenvalues --    3.13932   3.14096   3.14154   3.14367   3.15713
 Alpha virt. eigenvalues --    3.16195   3.16281   3.16622   3.16943   3.16982
 Alpha virt. eigenvalues --    3.17131   3.17368   3.18252   3.18323   3.18544
 Alpha virt. eigenvalues --    3.18676   3.18809   3.18985   3.19434   3.19892
 Alpha virt. eigenvalues --    3.20044   3.20382   3.20500   3.20729   3.20897
 Alpha virt. eigenvalues --    3.21415   3.21533   3.22310   3.22757   3.23008
 Alpha virt. eigenvalues --    3.23107   3.23215   3.23783   3.24201   3.24473
 Alpha virt. eigenvalues --    3.24964   3.25081   3.25644   3.26068   3.26412
 Alpha virt. eigenvalues --    3.26707   3.26815   3.27109   3.27559   3.27638
 Alpha virt. eigenvalues --    3.27917   3.28008   3.28614   3.28964   3.29426
 Alpha virt. eigenvalues --    3.29578   3.29915   3.30191   3.30818   3.31067
 Alpha virt. eigenvalues --    3.31169   3.31839   3.31842   3.31992   3.32438
 Alpha virt. eigenvalues --    3.32482   3.32895   3.33148   3.33160   3.33375
 Alpha virt. eigenvalues --    3.34022   3.34217   3.34355   3.34530   3.34897
 Alpha virt. eigenvalues --    3.35143   3.35364   3.35900   3.36198   3.36370
 Alpha virt. eigenvalues --    3.36799   3.36861   3.36913   3.37583   3.37669
 Alpha virt. eigenvalues --    3.37763   3.38420   3.38939   3.39153   3.39245
 Alpha virt. eigenvalues --    3.39519   3.40056   3.40256   3.40301   3.40396
 Alpha virt. eigenvalues --    3.41012   3.41248   3.41521   3.41780   3.42041
 Alpha virt. eigenvalues --    3.42155   3.42605   3.42714   3.42930   3.43198
 Alpha virt. eigenvalues --    3.43362   3.43555   3.43801   3.44068   3.44618
 Alpha virt. eigenvalues --    3.44876   3.45136   3.45141   3.45505   3.45694
 Alpha virt. eigenvalues --    3.46369   3.46825   3.47207   3.47776   3.47889
 Alpha virt. eigenvalues --    3.48443   3.48690   3.48798   3.49032   3.49178
 Alpha virt. eigenvalues --    3.49918   3.50234   3.50698   3.50840   3.51274
 Alpha virt. eigenvalues --    3.51545   3.51785   3.52057   3.52075   3.52443
 Alpha virt. eigenvalues --    3.52892   3.53227   3.53244   3.53655   3.53803
 Alpha virt. eigenvalues --    3.54486   3.54800   3.55155   3.55341   3.56044
 Alpha virt. eigenvalues --    3.56141   3.56303   3.56921   3.57057   3.57165
 Alpha virt. eigenvalues --    3.57657   3.58071   3.58230   3.58905   3.58923
 Alpha virt. eigenvalues --    3.59377   3.59855   3.60186   3.61053   3.61896
 Alpha virt. eigenvalues --    3.62365   3.62595   3.63009   3.63488   3.63650
 Alpha virt. eigenvalues --    3.64111   3.64522   3.65823   3.66138   3.66585
 Alpha virt. eigenvalues --    3.66887   3.67366   3.68448   3.69180   3.69680
 Alpha virt. eigenvalues --    3.70620   3.70995   3.71141   3.71543   3.71895
 Alpha virt. eigenvalues --    3.71979   3.72237   3.73077   3.73963   3.74260
 Alpha virt. eigenvalues --    3.74688   3.75444   3.75932   3.76265   3.76590
 Alpha virt. eigenvalues --    3.76898   3.77532   3.78871   3.79365   3.79841
 Alpha virt. eigenvalues --    3.80093   3.81452   3.82757   3.85454   3.85864
 Alpha virt. eigenvalues --    3.86604   3.87426   3.88162   3.89358   3.90362
[...]
                                                    637(r),190(g),1401(r),297(r)
                                                    249(v),272(r),1024(r),581(v)
                                                    919(r),591(v),275(r),1179(v)
                                                    1641(r),1053(r),792(r)
                                                    410(r),922(r),789(r),1189(v)
                                                    298(r),1027(r),426(r)
                                                    1051(r),1593(v),1396(r)
                                                    895(r),228(v),662(r),200(g)
                                                    643(r),1631(r),532(r),661(r)
                                                    1025(r),663(r),1217(v)
                                                    1644(r),400(r),436(r),558(v)
                                                    401(r),257(v),897(r),1507(r)
                                                    283(r),927(r),797(r),596(v)
                                                    295(r),1052(r),1432(r)
                                                    1553(g),218(v),1038(r)
                                                    1181(v),427(r),817(r)
                                                    1551(g),1426(r),947(r)
                                                    1234(v),1154(r),772(r)
                                                    375(r),610(r),1213(v),648(r)
                                                    194(g),1054(r),1156(r)
                                                    301(r)
  1558. BD*(   1) P   2 - C   4          0.07740     0.20477   
  1559. BD*(   1) P   2 - C  17          0.06938     0.20978   
  1560. BD*(   1) P   2 - C  18          0.07077     0.21105   
  1561. BD*(   1) P   2 -Pd  75          0.17650     0.60827  1557(g),1531(g),1540(g)
                                                    1548(g),215(g),1544(g)
                                                    1549(g),1538(g),187(v)
                                                    1550(g),1535(g),634(v)
                                                    1533(g),582(r),226(g)
                                                    1212(v),1543(g),223(g)
                                                    198(v),195(v),1184(v)
                                                    1537(g),1183(v),1646(g)
                                                    188(v),1211(v),220(g),636(v)
                                                    216(g),608(v),556(r),584(r)
                                                    192(v),1542(g),1187(v)
                                                    1461(r),193(v),1436(r)
                                                    557(r),1546(g),1215(v)
                                                    269(v),609(v),271(v),1486(r)
                                                    1411(r),221(g),245(r),243(r)
                                                    639(v),217(g),587(r),270(v)
                                                    227(g),199(v),224(g),635(v)
                                                    555(r),1179(v),196(v)
                                                    1532(g),244(r),1024(r)
                                                    583(r),793(r),644(v),189(v)
                                                    1157(r),272(v),923(r),219(g)
                                                    790(r),607(v),191(v),592(r)
                                                    920(r),530(r),1539(g)
                                                    1536(g),1180(v),767(r)
                                                    1181(v),296(r),637(v),297(r)
                                                    1622(r),581(r),218(g),585(r)
                                                    1396(r),531(r),275(v),246(r)
                                                    894(r),633(v),789(r),643(v)
                                                    249(r),1207(v),1608(r)
                                                    663(r),922(r),436(r),792(r)
                                                    919(r),1217(v),532(r),400(r)
                                                    897(r),661(r),1599(v)
                                                    1401(r),1025(r),200(v)
                                                    1052(r),228(g),591(r)
                                                    1620(r),298(r),1051(r)
                                                    895(r),1053(r),1189(v)
                                                    1611(r),426(r),410(r),610(v)
                                                    427(r),283(v),1027(r)
                                                    1432(r),257(r),797(r),927(r)
                                                    529(r),662(r),1507(r)
                                                    1553(g),908(r),648(v),190(v)
                                                    1209(v),401(r),947(r)
                                                    1551(g),1206(v),1501(r)
                                                    817(r),596(r),764(r),453(r)
                                                    1162(r),558(r),1185(v)
                                                    222(g),664(r),766(r),535(r)
  1562. BD*(   1) C   3 - C   5          0.03186     0.47861   
  1563. BD*(   1) C   3 - C   9          0.02051     0.51181   
  1564. BD*(   2) C   3 - C   9          0.36475     0.00900  1569(v),1574(v),1566(r)
                                                    1587(r),400(g),1594(r)
                                                    1556(v),1624(r)
  1565. BD*(   1) C   4 - C  10          0.02051     0.51182   
  1566. BD*(   2) C   4 - C  10          0.36474     0.00900  1587(v),1582(v),1564(r)
                                                    1569(r),426(g),1600(r)
                                                    1560(v),1613(r)
  1567. BD*(   1) C   4 - C  14          0.03186     0.47861   
  1568. BD*(   1) C   5 - C   6          0.03085     0.50843   
  1569. BD*(   2) C   5 - C   6          0.37406     0.00940  1587(v),1564(v),1574(v)
                                                    1566(r),1600(r),1586(v)
                                                    1567(v),1624(r),325(g)
  1570. BD*(   1) C   5 - C  14          0.03046     0.41167   
  1571. BD*(   1) C   6 - C   7          0.04204     0.48153   
  1572. BD*(   1) C   6 - O  46          0.02646     0.31181   
  1573. BD*(   1) C   7 - C   8          0.01870     0.51793   
  1574. BD*(   2) C   7 - C   8          0.36090     0.00447  1582(r),1564(v),1569(v)
                                                    375(g)
  1575. BD*(   1) C   7 - O  44          0.02660     0.32058   
  1576. BD*(   1) C   8 - C   9          0.01209     0.51569   
  1577. BD*(   1) C   8 - H  47          0.01258     0.38315   
  1578. BD*(   1) C   9 - H  48          0.01515     0.40587   
  1579. BD*(   1) C  10 - C  11          0.01209     0.51569   
  1580. BD*(   1) C  10 - H  49          0.01515     0.40586   
  1581. BD*(   1) C  11 - C  12          0.01870     0.51793   
  1582. BD*(   2) C  11 - C  12          0.36090     0.00447  1574(r),1566(v),1587(v)
                                                    453(g)
  1583. BD*(   1) C  11 - H  50          0.01258     0.38315   
  1584. BD*(   1) C  12 - C  13          0.04204     0.48152   
  1585. BD*(   1) C  12 - O  43          0.02660     0.32057   
  1586. BD*(   1) C  13 - C  14          0.03085     0.50843   
  1587. BD*(   2) C  13 - C  14          0.37405     0.00940  1569(v),1566(v),1582(v)
                                                    1564(r),1594(r),1568(v)
                                                    1562(v),1613(r),507(g)
  1588. BD*(   1) C  13 - O  41          0.02646     0.31180   
  1589. BD*(   1) C  15 - C  34          0.02635     0.52324   
  1590. BD*(   2) C  15 - C  34          0.37237     0.01886  1637(v),1642(v),1554(v)
                                                    1051(g),1050(g),558(g)
  1591. BD*(   1) C  15 - C  38          0.02337     0.51535   
  1592. BD*(   1) C  16 - C  29          0.02743     0.50748   
  1593. BD*(   1) C  16 - C  33          0.02376     0.51325   
  1594. BD*(   2) C  16 - C  33          0.35567     0.01511  1629(v),1624(v),1600(r)
                                                    1587(r),1555(v),1024(g)
                                                    1564(r),1554(v)
  1595. BD*(   1) C  17 - C  19          0.02635     0.52325   
  1596. BD*(   2) C  17 - C  19          0.37236     0.01886  1604(v),1609(v),1558(v)
                                                    661(g),660(g),610(g)
  1597. BD*(   1) C  17 - C  23          0.02337     0.51534   
  1598. BD*(   1) C  18 - C  24          0.02743     0.50748   
  1599. BD*(   1) C  18 - C  28          0.02376     0.51325   
  1600. BD*(   2) C  18 - C  28          0.35567     0.01511  1618(v),1613(v),1594(r)
                                                    1569(r),1559(v),894(g)
                                                    1566(r),1558(v)
  1601. BD*(   1) C  19 - C  20          0.01510     0.53527   
  1602. BD*(   1) C  19 - H  51          0.01617     0.40443   
  1603. BD*(   1) C  20 - C  21          0.01434     0.53385   
  1604. BD*(   2) C  20 - C  21          0.32163     0.02299  1596(v),1609(v),713(g)
                                                    687(g)
  1605. BD*(   1) C  20 - H  52          0.01328     0.39917   
  1606. BD*(   1) C  21 - C  22          0.01447     0.53307   
  1607. BD*(   1) C  21 - H  53          0.01287     0.40210   
  1608. BD*(   1) C  22 - C  23          0.01623     0.54701   
  1609. BD*(   2) C  22 - C  23          0.29989     0.03022  1604(v),1596(v),739(g)
                                                    1642(r)
  1610. BD*(   1) C  22 - H  54          0.01338     0.40305   
  1611. BD*(   1) C  23 - H  55          0.01412     0.43310   
  1612. BD*(   1) C  24 - C  25          0.01609     0.52689   
  1613. BD*(   2) C  24 - C  25          0.32440     0.01309  1618(v),1600(v),1624(r)
                                                    817(g),1587(r)
  1614. BD*(   1) C  24 - H  56          0.01522     0.40274   
  1615. BD*(   1) C  25 - C  26          0.01494     0.51987   
  1616. BD*(   1) C  25 - H  57          0.01414     0.38531   
  1617. BD*(   1) C  26 - C  27          0.01439     0.52345   
  1618. BD*(   2) C  26 - C  27          0.31769     0.01474  1600(v),1613(v),869(g)
                                                    843(g)
  1619. BD*(   1) C  26 - H  58          0.01291     0.39216   
  1620. BD*(   1) C  27 - C  28          0.01559     0.53425   
  1621. BD*(   1) C  27 - H  59          0.01325     0.39565   
  1622. BD*(   1) C  28 - H  60          0.01514     0.42137   
  1623. BD*(   1) C  29 - C  30          0.01609     0.52689   
  1624. BD*(   2) C  29 - C  30          0.32439     0.01309  1629(v),1594(v),1613(r)
                                                    947(g),1569(r)
  1625. BD*(   1) C  29 - H  61          0.01522     0.40274   
  1626. BD*(   1) C  30 - C  31          0.01494     0.51987   
  1627. BD*(   1) C  30 - H  62          0.01414     0.38531   
  1628. BD*(   1) C  31 - C  32          0.01439     0.52346   
  1629. BD*(   2) C  31 - C  32          0.31768     0.01474  1594(v),1624(v),999(g)
                                                    973(g)
  1630. BD*(   1) C  31 - H  63          0.01291     0.39217   
  1631. BD*(   1) C  32 - C  33          0.01559     0.53424   
  1632. BD*(   1) C  32 - H  64          0.01325     0.39566   
  1633. BD*(   1) C  33 - H  65          0.01515     0.42137   
  1634. BD*(   1) C  34 - C  35          0.01510     0.53526   
  1635. BD*(   1) C  34 - H  66          0.01617     0.40443   
  1636. BD*(   1) C  35 - C  36          0.01434     0.53385   
  1637. BD*(   2) C  35 - C  36          0.32164     0.02299  1590(v),1642(v),1103(g)
                                                    1077(g)
  1638. BD*(   1) C  35 - H  67          0.01328     0.39917   
  1639. BD*(   1) C  36 - C  37          0.01447     0.53307   
  1640. BD*(   1) C  36 - H  68          0.01287     0.40210   
  1641. BD*(   1) C  37 - C  38          0.01623     0.54701   
  1642. BD*(   2) C  37 - C  38          0.29989     0.03022  1637(v),1590(v),1129(g)
                                                    1609(r)
  1643. BD*(   1) C  37 - H  69          0.01338     0.40305   
  1644. BD*(   1) C  38 - H  70          0.01412     0.43311   
  1645. BD*(   1)Cl  39 -Pd  75          0.18649     0.18886  1646(g),1557(g),187(v)
                                                    1544(g),1548(g),1549(g)
                                                    1542(g),215(v),1550(g)
                                                    1555(v),1184(g),1538(g)
                                                    1535(g),198(v),1543(g)
                                                    1554(v),1539(g),582(r)
                                                    1531(g),634(r),192(v),223(v)
                                                    226(v),195(v),1633(r)
                                                    1212(v),243(r),1644(r)
                                                    1537(g),1533(g),1540(g)
                                                    188(v),1181(g),1551(g)
                                                    1211(v),1183(g),189(v)
                                                    556(r),220(v),608(r),1179(g)
                                                    609(r),584(r)
  1646. BD*(   1)Cl  40 -Pd  75          0.18650     0.18885  1645(g),1561(g),215(v)
                                                    1544(g),1548(g),1549(g)
                                                    1542(g),187(v),1550(g)
                                                    1559(v),1212(g),1538(g)
                                                    1535(g),226(v),1543(g)
                                                    1558(v),1539(g),634(r)
                                                    1531(g),582(r),220(v),195(v)
                                                    198(v),223(v),1622(r)
                                                    1184(v),269(r),1611(r)
                                                    1537(g),1533(g),1540(g)
                                                    216(v),1209(g),1551(g)
                                                    1183(v),1211(g),217(v)
                                                    608(r),192(v),556(r),1207(g)
                                                    557(r),636(r)
  1647. BD*(   1) O  41 - C  42          0.03003     0.21676   
  1648. BD*(   1) C  42 - O  43          0.03065     0.21675   
  1649. BD*(   1) C  42 - H  71          0.03958     0.29286   
  1650. BD*(   1) C  42 - H  72          0.03283     0.29450   
  1651. BD*(   1) O  44 - C  45          0.03065     0.21674   
  1652. BD*(   1) C  45 - O  46          0.03002     0.21677   
  1653. BD*(   1) C  45 - H  73          0.03285     0.29449   
  1654. BD*(   1) C  45 - H  74          0.03957     0.29287   
       -------------------------------
              Total Lewis  388.35221  ( 97.5759%)
        Valence non-Lewis    8.94520  (  2.2475%)
        Rydberg non-Lewis    0.70259  (  0.1765%)
       -------------------------------
            Total unit  1  398.00000  (100.0000%)
           Charge unit  1    0.00000
 1\1\GINC-NC042\SP\RPBE1PBE\Gen\C38H28Cl2O4P2Pd1\MACKK4\06-Dec-2021\0\\
 # PBE1PBE gen pseudo=read int=(grid=ultrafine) empiricaldispersion=GD3
 BJ pop=nbo guess=read geom=check\\R_SegPhos_1 title\\0,1\P,0,-1.633423
 9353,-0.7606295203,-0.0114528897\P,0,1.7313230934,-0.4584692769,0.0434
 736293\C,0,-1.395879986,0.6789660614,1.1142779824\C,0,1.2345765496,0.9
 753551399,-1.0022200738\C,0,-0.5139213864,1.7431780267,0.7391693475\C,
 0,-0.3340277586,2.7443501271,1.6874528168\C,0,-0.9312562925,2.71738061
 54,2.9544522952\C,0,-1.7760159701,1.6875246522,3.3355300321\C,0,-1.999
 3768858,0.6698907732,2.3848506951\C,0,1.8238199443,1.1447117833,-2.268
 2104919\C,0,1.4175685336,2.1571466463,-3.1621900867\C,0,0.4042081124,2
 .9967172596,-2.7289891536\C,0,-0.1821578908,2.8461822456,-1.4655718631
 \C,0,0.178350939,1.8422596835,-0.5733154181\C,0,-3.1154316964,-1.58440
 9213,0.6943464603\C,0,-2.1473615274,-0.039968137,-1.6134274973\C,0,3.3
 332116301,-0.9636109772,-0.6993635679\C,0,2.1160031929,0.2530337468,1.
 6853005394\C,0,4.5505125613,-0.3930327606,-0.2892132287\C,0,5.74195870
 49,-0.7461707465,-0.938474632\C,0,5.7221559233,-1.6588544655,-2.001411
 7154\C,0,4.5080808183,-2.2316752753,-2.4099405409\C,0,3.3171716061,-1.
 8956128066,-1.7566267097\C,0,2.6935170884,1.530895237,1.8227370434\C,0
 ,2.9792184882,2.03139814,3.099656047\C,0,2.6734174613,1.2706476651,4.2
 389046405\C,0,2.0955883901,-0.0000913941,4.1007766896\C,0,1.8217481064
 ,-0.515322591,2.8270982838\C,0,-2.9442591127,1.1199632909,-1.683091461
 4\C,0,-3.3214431718,1.6307579573,-2.9318798949\C,0,-2.8908646141,1.000
 4670937,-4.1097933751\C,0,-2.0948635118,-0.152405873,-4.0390465922\C,0
 ,-1.726766144,-0.6796292851,-2.7943570511\C,0,-4.4171942148,-1.2188729
 92,0.3103998054\C,0,-5.5230120876,-1.814753939,0.9332036643\C,0,-5.334
 9853847,-2.7666391027,1.9440339223\C,0,-4.0360123987,-3.1348936629,2.3
 261975969\C,0,-2.9276894769,-2.5556539551,1.6984011173\Cl,0,-1.2402427
 883,-3.8992871883,-0.7783224817\Cl,0,1.9099564971,-3.6541834559,0.6340
 587689\O,0,-1.1506329214,3.8071921971,-1.2827748937\C,0,-1.2246509951,
 4.5253321189,-2.5283244565\O,0,-0.1651730649,4.0599087559,-3.386573304
 7\O,0,-0.5574758289,3.8269899341,3.672801221\C,0,0.3969714685,4.521378
 8981,2.8466230385\O,0,0.4462949027,3.8715025336,1.5629500879\H,0,-2.24
 70951486,1.6642682307,4.3207179885\H,0,-2.6659860258,-0.1528893399,2.6
 52311749\H,0,2.6254965568,0.4704624683,-2.5773666207\H,0,1.8805090593,
 2.2731647657,-4.144675658\H,0,4.574711646,0.3127028704,0.5461476118\H,
 0,6.6889566453,-0.3087952817,-0.6055766397\H,0,6.6547268334,-1.9342778
 44,-2.5045715631\H,0,4.4889241335,-2.9610534434,-3.2258486205\H,0,2.37
 41605156,-2.3722201734,-2.0427475011\H,0,2.8922901628,2.1406354507,0.9
 35246881\H,0,3.4423309005,3.0187848418,3.2047612349\H,0,2.8878252046,1
 .6691379823,5.2359504617\H,0,1.858608511,-0.5952095184,4.988393014\H,0
 ,1.3881107515,-1.5135505995,2.698409396\H,0,-3.2439235676,1.6348088865
 ,-0.7643590617\H,0,-3.9538477128,2.5239133809,-2.9847022806\H,0,-3.178
 2131273,1.408412615,-5.0844095963\H,0,-1.7602249748,-0.6460718868,-4.9
 569239441\H,0,-1.1213473349,-1.5900199345,-2.7187213966\H,0,-4.5714128
 101,-0.4836928501,-0.4847080799\H,0,-6.5346182347,-1.535997239,0.62035
 94176\H,0,-6.200734881,-3.2318121553,2.4265361462\H,0,-3.8826388265,-3
 .8931512047,3.1005278673\H,0,-1.9132283802,-2.871075547,1.9623402626\H
 ,0,-2.1990319806,4.3192807332,-3.0107927759\H,0,-1.0906533482,5.604418
 7539,-2.3357791923\H,0,0.0708090832,5.5679642594,2.7133742184\H,0,1.39
 50112057,4.4669267142,3.321587646\Pd,0,0.1874501771,-2.1441289002,-0.0
 267053093\\Version=ES64L-G09RevE.01\State=1-A\HF=-3495.1033198\RMSD=8.
 515e-09\Dipole=-0.4514554,5.0013556,0.1392419\Quadrupole=10.0903056,-2
 3.7414949,13.6511893,3.1586499,-2.6532328,-1.2871379\PG=C01 [X(C38H28C
 l2O4P2Pd1)]\\@


 ASKING FOR EFFICIENCY AND ADAPTABILITY IN THE SAME PROGRAM IS LIKE
 ASKING FOR A BEAUTIFUL AND MODEST WIFE ...
 WE'LL PROBABLY HAVE TO SETTLE FOR ONE OR THE OTHER.

             -- THE PSYCHOLOGY OF COMPUTER PROGRAMMING
                GERALD M. WEINBERG
 Job cpu time:       0 days  2 hours 47 minutes 40.6 seconds.
 File lengths (MBytes):  RWF=   1403 Int=      0 D2E=      0 Chk=    200 Scr=      1
 Normal termination of Gaussian 09 at Mon Dec  6 09:55:07 2021.
