 Entering Gaussian System, Link 0=g09
 Input=R_SegPhos_1.com
 Output=R_SegPhos_1.log
 Initial command:
 /gstore/apps/gaussian/g09.e01-foss-2017a/g09/l1.exe "/local/21251523/Gau-8341.inp" -scrdir="/local/21251523/"
 Entering Link 1 = /gstore/apps/gaussian/g09.e01-foss-2017a/g09/l1.exe PID=      8342.
  
 Copyright (c) 1988,1990,1992,1993,1995,1998,2003,2009,2015,
            Gaussian, Inc.  All Rights Reserved.
  
 This is part of the Gaussian(R) 09 program.  It is based on
 the Gaussian(R) 03 system (copyright 2003, Gaussian, Inc.),
 the Gaussian(R) 98 system (copyright 1998, Gaussian, Inc.),
 the Gaussian(R) 94 system (copyright 1995, Gaussian, Inc.),
 the Gaussian 92(TM) system (copyright 1992, Gaussian, Inc.),
 the Gaussian 90(TM) system (copyright 1990, Gaussian, Inc.),
 the Gaussian 88(TM) system (copyright 1988, Gaussian, Inc.),
 the Gaussian 86(TM) system (copyright 1986, Carnegie Mellon
 University), and the Gaussian 82(TM) system (copyright 1983,
 Carnegie Mellon University). Gaussian is a federally registered
 trademark of Gaussian, Inc.
  
 This software contains proprietary and confidential information,
 including trade secrets, belonging to Gaussian, Inc.
  
 This software is provided under written license and may be
 used, copied, transmitted, or stored only in accord with that
 written license.
  
 The following legend is applicable only to US Government
 contracts under FAR:
  
                    RESTRICTED RIGHTS LEGEND
  
 Use, reproduction and disclosure by the US Government is
 subject to restrictions as set forth in subparagraphs (a)
 and (c) of the Commercial Computer Software - Restricted
 Rights clause in FAR 52.227-19.
  
 Gaussian, Inc.
 340 Quinnipiac St., Bldg. 40, Wallingford CT 06492
  
  
 ---------------------------------------------------------------
 Warning -- This program may not be used in any manner that
 competes with the business of Gaussian, Inc. or will provide
 assistance to any competitor of Gaussian, Inc.  The licensee
 of this program is prohibited from giving any competitor of
 Gaussian, Inc. access to this program.  By using this program,
 the user acknowledges that Gaussian, Inc. is engaged in the
 business of creating and licensing software in the field of
 computational chemistry and represents and warrants to the
 licensee that it is not a competitor of Gaussian, Inc. and that
 it will not use this program in any manner prohibited above.
 ---------------------------------------------------------------
  

 Cite this work as:
 Gaussian 09, Revision E.01,
 M. J. Frisch, G. W. Trucks, H. B. Schlegel, G. E. Scuseria, 
 M. A. Robb, J. R. Cheeseman, G. Scalmani, V. Barone, B. Mennucci, 
 G. A. Petersson, H. Nakatsuji, M. Caricato, X. Li, H. P. Hratchian, 
 A. F. Izmaylov, J. Bloino, G. Zheng, J. L. Sonnenberg, M. Hada, 
 M. Ehara, K. Toyota, R. Fukuda, J. Hasegawa, M. Ishida, T. Nakajima, 
 Y. Honda, O. Kitao, H. Nakai, T. Vreven, J. A. Montgomery, Jr., 
 J. E. Peralta, F. Ogliaro, M. Bearpark, J. J. Heyd, E. Brothers, 
 K. N. Kudin, V. N. Staroverov, T. Keith, R. Kobayashi, J. Normand, 
 K. Raghavachari, A. Rendell, J. C. Burant, S. S. Iyengar, J. Tomasi, 
 M. Cossi, N. Rega, J. M. Millam, M. Klene, J. E. Knox, J. B. Cross, 
 V. Bakken, C. Adamo, J. Jaramillo, R. Gomperts, R. E. Stratmann, 
 O. Yazyev, A. J. Austin, R. Cammi, C. Pomelli, J. W. Ochterski, 
 R. L. Martin, K. Morokuma, V. G. Zakrzewski, G. A. Voth, 
 P. Salvador, J. J. Dannenberg, S. Dapprich, A. D. Daniels, 
 O. Farkas, J. B. Foresman, J. V. Ortiz, J. Cioslowski, 
 and D. J. Fox, Gaussian, Inc., Wallingford CT, 2013.
 
 ******************************************
 Gaussian 09:  ES64L-G09RevE.01 30-Nov-2015
                17-Nov-2021 
 ******************************************
 %nprocs=14
 Will use up to   14 processors via shared memory.
 %mem=128GB
 %chk=R_SegPhos_1.chk
 ----------------------------------------------------------------------
 # PBEPBE gen 6D pseudo=read scf=maxcycles=500 denfit int=(grid=ultrafi
 ne) empiricaldispersion=GD3BJ opt freq=noraman
 ----------------------------------------------------------------------
 1/14=-1,18=20,19=15,26=4,38=1/1,3;
 2/9=110,12=2,17=6,18=5,40=1/2;
 3/5=7,8=2,11=2,16=1,17=8,25=1,30=1,71=1,74=1009,75=-5,82=47,124=41/1,2,3;
 4//1;
 5/5=2,7=500,38=5/2;
 6/7=2,8=2,9=2,10=2,28=1/1;
 7//1,2,3,16;
 1/14=-1,18=20,19=15,26=4/3(2);
 2/9=110/2;
 99//99;
 2/9=110/2;
 3/5=7,6=1,8=2,11=2,16=1,17=8,25=1,30=1,71=1,74=1009,75=-5,82=7,124=41/1,2,3;
 4/5=5,16=3,69=1/1;
 5/5=2,7=500,38=5/2;
 7//1,2,3,16;
 1/14=-1,18=20,19=15,26=4/3(-5);
 2/9=110/2;
 6/7=2,8=2,9=2,10=2,19=2,28=1/1;
 99/9=1/99;
 ---------
 R_SegPhos
 ---------
 Symbolic Z-matrix:
 Charge =  0 Multiplicity = 1
 P                    -1.6595   -0.8136    0.0664 
 P                     1.7661   -0.5016   -0.0377 
 C                    -1.3344    0.6919    1.1579 
 C                     1.1721    0.9797   -1.0458 
 C                    -0.4969    1.7717    0.7432 
 C                    -0.3102    2.8313    1.6561 
 C                    -0.8887    2.848     2.9056 
 C                    -1.7107    1.8055    3.341 
 C                    -1.9248    0.7313    2.4529 
 C                     1.7401    1.1958   -2.3334 
 C                     1.3332    2.2619   -3.1619 
 C                     0.3398    3.1146   -2.6741 
 C                    -0.2212    2.9252   -1.4308 
 C                     0.1564    1.8672   -0.5769 
 C                    -3.2356   -1.5624    0.7765 
 C                    -2.1902   -0.1621   -1.6039 
 C                     3.4477   -0.9159   -0.7793 
 C                     2.1791    0.1406    1.6691 
 C                     4.6543   -0.4333   -0.2243 
 C                     5.8963   -0.7548   -0.8056 
 C                     5.949    -1.5668   -1.953 
 C                     4.7568   -2.0566   -2.5159 
 C                     3.5178   -1.7316   -1.931 
 C                     2.6577    1.4537    1.8672 
 C                     2.9497    1.9227    3.1623 
 C                     2.7669    1.0786    4.2733 
 C                     2.2978   -0.235     4.0852 
 C                     2.0079   -0.7008    2.788 
 C                    -2.8967    1.0534   -1.731 
 C                    -3.2752    1.5336   -2.9993 
 C                    -2.9511    0.7984   -4.1546 
 C                    -2.254    -0.4188   -4.0376 
 C                    -1.8781   -0.8962   -2.767 
 C                    -4.5122   -1.2728    0.2443 
 C                    -5.6734   -1.843     0.8015 
 C                    -5.5735   -2.7142    1.9014 
 C                    -4.3097   -3.0138    2.4409 
 C                    -3.1521   -2.4406    1.8804 
 Cl                   -1.256    -4.1454   -0.1546 
 Cl                    1.9659   -3.8591   -0.0058 
 O                    -1.1591    3.8866   -1.2174 
 C                    -1.1619    4.6915   -2.3658 
 O                    -0.2173    4.1953   -3.2759 
 O                    -0.5303    3.9757    3.569 
 C                     0.3053    4.6825    2.6921 
 O                     0.4399    3.955     1.5008 
 H                    -2.1616    1.8253    4.322 
 H                    -2.56     -0.0695    2.7938 
 H                     2.5069    0.5418   -2.7145 
 H                     1.769     2.4166   -4.1376 
 H                     4.6452    0.1878    0.6577 
 H                     6.8096   -0.3793   -0.3672 
 H                     6.9017   -1.8163   -2.3976 
 H                     4.7923   -2.6849   -3.3942 
 H                     2.6108   -2.1167   -2.3732 
 H                     2.7893    2.112     1.0199 
 H                     3.3079    2.932     3.3016 
 H                     2.9871    1.4379    5.2682 
 H                     2.1617   -0.8861    4.9367 
 H                     1.6554   -1.713     2.6551 
 H                    -3.1387    1.6299   -0.8491 
 H                    -3.8085    2.4689   -3.084 
 H                    -3.2377    1.1669   -5.129 
 H                    -2.0088   -0.9871   -4.9232 
 H                    -1.3499   -1.8351   -2.6888 
 H                    -4.6194   -0.6117   -0.6013 
 H                    -6.6417   -1.6127    0.381 
 H                    -6.4637   -3.1544    2.3272 
 H                    -4.2273   -3.6865    3.2824 
 H                    -2.1883   -2.6815    2.3041 
 H                    -2.1525    4.674    -2.8211 
 H                    -0.9057    5.7158   -2.0934 
 H                    -0.1316    5.658     2.4759 
 H                     1.2856    4.8173    3.15 
 Pd                    0.2044   -2.3328   -0.033 
 

 GradGradGradGradGradGradGradGradGradGradGradGradGradGradGradGradGradGrad
 Berny optimization.
 Initialization pass.
                           ----------------------------
                           !    Initial Parameters    !
                           ! (Angstroms and Degrees)  !
 --------------------------                            --------------------------
 ! Name  Definition              Value          Derivative Info.                !
 --------------------------------------------------------------------------------
 ! R1    R(1,3)                  1.8877         estimate D2E/DX2                !
 ! R2    R(1,15)                 1.8839         estimate D2E/DX2                !
 ! R3    R(1,16)                 1.8698         estimate D2E/DX2                !
 ! R4    R(1,75)                 2.4067         estimate D2E/DX2                !
 ! R5    R(2,4)                  1.8877         estimate D2E/DX2                !
 ! R6    R(2,17)                 1.884          estimate D2E/DX2                !
 ! R7    R(2,18)                 1.8698         estimate D2E/DX2                !
 ! R8    R(2,75)                 2.4067         estimate D2E/DX2                !
 ! R9    R(3,5)                  1.4281         estimate D2E/DX2                !
 ! R10   R(3,9)                  1.4238         estimate D2E/DX2                !
 ! R11   R(4,10)                 1.4238         estimate D2E/DX2                !
 ! R12   R(4,14)                 1.428          estimate D2E/DX2                !
 ! R13   R(5,6)                  1.411          estimate D2E/DX2                !
 ! R14   R(5,14)                 1.476          estimate D2E/DX2                !
 ! R15   R(6,7)                  1.377          estimate D2E/DX2                !
 ! R16   R(6,46)                 1.36           estimate D2E/DX2                !
 ! R17   R(7,8)                  1.3972         estimate D2E/DX2                !
 ! R18   R(7,44)                 1.3566         estimate D2E/DX2                !
 ! R19   R(8,9)                  1.4101         estimate D2E/DX2                !
 ! R20   R(8,47)                 1.0798         estimate D2E/DX2                !
 ! R21   R(9,48)                 1.0775         estimate D2E/DX2                !
 ! R22   R(10,11)                1.4102         estimate D2E/DX2                !
 ! R23   R(10,49)                1.0775         estimate D2E/DX2                !
 ! R24   R(11,12)                1.3971         estimate D2E/DX2                !
 ! R25   R(11,50)                1.0797         estimate D2E/DX2                !
 ! R26   R(12,13)                1.3771         estimate D2E/DX2                !
 ! R27   R(12,43)                1.3566         estimate D2E/DX2                !
 ! R28   R(13,14)                1.4111         estimate D2E/DX2                !
 ! R29   R(13,41)                1.36           estimate D2E/DX2                !
 ! R30   R(15,34)                1.4131         estimate D2E/DX2                !
 ! R31   R(15,38)                1.4131         estimate D2E/DX2                !
 ! R32   R(16,29)                1.4116         estimate D2E/DX2                !
 ! R33   R(16,33)                1.4104         estimate D2E/DX2                !
 ! R34   R(17,19)                1.4131         estimate D2E/DX2                !
 ! R35   R(17,23)                1.413          estimate D2E/DX2                !
 ! R36   R(18,24)                1.4116         estimate D2E/DX2                !
 ! R37   R(18,28)                1.4104         estimate D2E/DX2                !
 ! R38   R(19,20)                1.4085         estimate D2E/DX2                !
 ! R39   R(19,51)                1.0788         estimate D2E/DX2                !
 ! R40   R(20,21)                1.4066         estimate D2E/DX2                !
 ! R41   R(20,52)                1.0804         estimate D2E/DX2                !
 ! R42   R(21,22)                1.4064         estimate D2E/DX2                !
 ! R43   R(21,53)                1.0805         estimate D2E/DX2                !
 ! R44   R(22,23)                1.4081         estimate D2E/DX2                !
 ! R45   R(22,54)                1.0805         estimate D2E/DX2                !
 ! R46   R(23,55)                1.08           estimate D2E/DX2                !
 ! R47   R(24,25)                1.408          estimate D2E/DX2                !
 ! R48   R(24,56)                1.081          estimate D2E/DX2                !
 ! R49   R(25,26)                1.4072         estimate D2E/DX2                !
 ! R50   R(25,57)                1.08           estimate D2E/DX2                !
 ! R51   R(26,27)                1.4075         estimate D2E/DX2                !
 ! R52   R(26,58)                1.0805         estimate D2E/DX2                !
 ! R53   R(27,28)                1.4085         estimate D2E/DX2                !
 ! R54   R(27,59)                1.0805         estimate D2E/DX2                !
 ! R55   R(28,60)                1.08           estimate D2E/DX2                !
 ! R56   R(29,30)                1.408          estimate D2E/DX2                !
 ! R57   R(29,61)                1.081          estimate D2E/DX2                !
 ! R58   R(30,31)                1.4072         estimate D2E/DX2                !
 ! R59   R(30,62)                1.08           estimate D2E/DX2                !
 ! R60   R(31,32)                1.4076         estimate D2E/DX2                !
 ! R61   R(31,63)                1.0805         estimate D2E/DX2                !
 ! R62   R(32,33)                1.4084         estimate D2E/DX2                !
 ! R63   R(32,64)                1.0805         estimate D2E/DX2                !
 ! R64   R(33,65)                1.0801         estimate D2E/DX2                !
 ! R65   R(34,35)                1.4085         estimate D2E/DX2                !
 ! R66   R(34,66)                1.0787         estimate D2E/DX2                !
 ! R67   R(35,36)                1.4067         estimate D2E/DX2                !
 ! R68   R(35,67)                1.0805         estimate D2E/DX2                !
 ! R69   R(36,37)                1.4064         estimate D2E/DX2                !
 ! R70   R(36,68)                1.0805         estimate D2E/DX2                !
 ! R71   R(37,38)                1.4081         estimate D2E/DX2                !
 ! R72   R(37,69)                1.0805         estimate D2E/DX2                !
 ! R73   R(38,70)                1.08           estimate D2E/DX2                !
 ! R74   R(39,75)                2.3309         estimate D2E/DX2                !
 ! R75   R(40,75)                2.3309         estimate D2E/DX2                !
 ! R76   R(41,42)                1.4024         estimate D2E/DX2                !
 ! R77   R(42,43)                1.4024         estimate D2E/DX2                !
 ! R78   R(42,71)                1.0904         estimate D2E/DX2                !
 ! R79   R(42,72)                1.0904         estimate D2E/DX2                !
 ! R80   R(44,45)                1.4024         estimate D2E/DX2                !
 ! R81   R(45,46)                1.4023         estimate D2E/DX2                !
 ! R82   R(45,73)                1.0905         estimate D2E/DX2                !
 ! R83   R(45,74)                1.0903         estimate D2E/DX2                !
 ! A1    A(3,1,15)             104.0712         estimate D2E/DX2                !
 ! A2    A(3,1,16)             106.7094         estimate D2E/DX2                !
 ! A3    A(3,1,75)             113.1994         estimate D2E/DX2                !
 ! A4    A(15,1,16)            103.7543         estimate D2E/DX2                !
 ! A5    A(15,1,75)            114.3687         estimate D2E/DX2                !
 ! A6    A(16,1,75)            113.7583         estimate D2E/DX2                !
 ! A7    A(4,2,17)             104.0764         estimate D2E/DX2                !
 ! A8    A(4,2,18)             106.7066         estimate D2E/DX2                !
 ! A9    A(4,2,75)             113.199          estimate D2E/DX2                !
 ! A10   A(17,2,18)            103.7506         estimate D2E/DX2                !
 ! A11   A(17,2,75)            114.3706         estimate D2E/DX2                !
 ! A12   A(18,2,75)            113.758          estimate D2E/DX2                !
 ! A13   A(1,3,5)              122.4195         estimate D2E/DX2                !
 ! A14   A(1,3,9)              118.461          estimate D2E/DX2                !
 ! A15   A(5,3,9)              119.1037         estimate D2E/DX2                !
 ! A16   A(2,4,10)             118.4584         estimate D2E/DX2                !
 ! A17   A(2,4,14)             122.4228         estimate D2E/DX2                !
 ! A18   A(10,4,14)            119.1023         estimate D2E/DX2                !
 ! A19   A(3,5,6)              117.2279         estimate D2E/DX2                !
 ! A20   A(3,5,14)             124.6262         estimate D2E/DX2                !
 ! A21   A(6,5,14)             118.1309         estimate D2E/DX2                !
 ! A22   A(5,6,7)              122.7232         estimate D2E/DX2                !
 ! A23   A(5,6,46)             128.286          estimate D2E/DX2                !
 ! A24   A(7,6,46)             108.9847         estimate D2E/DX2                !
 ! A25   A(6,7,8)              121.3918         estimate D2E/DX2                !
 ! A26   A(6,7,44)             110.0495         estimate D2E/DX2                !
 ! A27   A(8,7,44)             128.5585         estimate D2E/DX2                !
 ! A28   A(7,8,9)              117.4815         estimate D2E/DX2                !
 ! A29   A(7,8,47)             121.0035         estimate D2E/DX2                !
 ! A30   A(9,8,47)             121.5149         estimate D2E/DX2                !
 ! A31   A(3,9,8)              122.0701         estimate D2E/DX2                !
 ! A32   A(3,9,48)             120.7744         estimate D2E/DX2                !
 ! A33   A(8,9,48)             117.1555         estimate D2E/DX2                !
 ! A34   A(4,10,11)            122.0697         estimate D2E/DX2                !
 ! A35   A(4,10,49)            120.7734         estimate D2E/DX2                !
 ! A36   A(11,10,49)           117.1569         estimate D2E/DX2                !
 ! A37   A(10,11,12)           117.4813         estimate D2E/DX2                !
 ! A38   A(10,11,50)           121.5179         estimate D2E/DX2                !
 ! A39   A(12,11,50)           121.0008         estimate D2E/DX2                !
 ! A40   A(11,12,13)           121.3961         estimate D2E/DX2                !
 ! A41   A(11,12,43)           128.5579         estimate D2E/DX2                !
 ! A42   A(13,12,43)           110.0459         estimate D2E/DX2                !
 ! A43   A(12,13,14)           122.7151         estimate D2E/DX2                !
 ! A44   A(12,13,41)           108.9894         estimate D2E/DX2                !
 ! A45   A(14,13,41)           128.2903         estimate D2E/DX2                !
 ! A46   A(4,14,5)             124.6309         estimate D2E/DX2                !
 ! A47   A(4,14,13)            117.234          estimate D2E/DX2                !
 ! A48   A(5,14,13)            118.1186         estimate D2E/DX2                !
 ! A49   A(1,15,34)            122.1673         estimate D2E/DX2                !
 ! A50   A(1,15,38)            119.4752         estimate D2E/DX2                !
 ! A51   A(34,15,38)           118.3572         estimate D2E/DX2                !
 ! A52   A(1,16,29)            121.5009         estimate D2E/DX2                !
 ! A53   A(1,16,33)            119.5073         estimate D2E/DX2                !
 ! A54   A(29,16,33)           118.9917         estimate D2E/DX2                !
 ! A55   A(2,17,19)            122.1708         estimate D2E/DX2                !
 ! A56   A(2,17,23)            119.4758         estimate D2E/DX2                !
 ! A57   A(19,17,23)           118.3532         estimate D2E/DX2                !
 ! A58   A(2,18,24)            121.4998         estimate D2E/DX2                !
 ! A59   A(2,18,28)            119.5023         estimate D2E/DX2                !
 ! A60   A(24,18,28)           118.9978         estimate D2E/DX2                !
 ! A61   A(17,19,20)           120.8568         estimate D2E/DX2                !
 ! A62   A(17,19,51)           120.6998         estimate D2E/DX2                !
 ! A63   A(20,19,51)           118.4431         estimate D2E/DX2                !
 ! A64   A(19,20,21)           120.096          estimate D2E/DX2                !
 ! A65   A(19,20,52)           119.9076         estimate D2E/DX2                !
 ! A66   A(21,20,52)           119.9961         estimate D2E/DX2                !
 ! A67   A(20,21,22)           119.7186         estimate D2E/DX2                !
 ! A68   A(20,21,53)           120.1294         estimate D2E/DX2                !
 ! A69   A(22,21,53)           120.1516         estimate D2E/DX2                !
 ! A70   A(21,22,23)           119.949          estimate D2E/DX2                !
 ! A71   A(21,22,54)           119.9998         estimate D2E/DX2                !
 ! A72   A(23,22,54)           120.0508         estimate D2E/DX2                !
 ! A73   A(17,23,22)           121.0263         estimate D2E/DX2                !
 ! A74   A(17,23,55)           119.8594         estimate D2E/DX2                !
 ! A75   A(22,23,55)           119.1142         estimate D2E/DX2                !
 ! A76   A(18,24,25)           120.6143         estimate D2E/DX2                !
 ! A77   A(18,24,56)           119.8519         estimate D2E/DX2                !
 ! A78   A(25,24,56)           119.5284         estimate D2E/DX2                !
 ! A79   A(24,25,26)           119.9635         estimate D2E/DX2                !
 ! A80   A(24,25,57)           119.9146         estimate D2E/DX2                !
 ! A81   A(26,25,57)           120.1208         estimate D2E/DX2                !
 ! A82   A(25,26,27)           119.8423         estimate D2E/DX2                !
 ! A83   A(25,26,58)           120.0685         estimate D2E/DX2                !
 ! A84   A(27,26,58)           120.0891         estimate D2E/DX2                !
 ! A85   A(26,27,28)           120.023          estimate D2E/DX2                !
 ! A86   A(26,27,59)           119.9376         estimate D2E/DX2                !
 ! A87   A(28,27,59)           120.0393         estimate D2E/DX2                !
 ! A88   A(18,28,27)           120.556          estimate D2E/DX2                !
 ! A89   A(18,28,60)           120.0729         estimate D2E/DX2                !
 ! A90   A(27,28,60)           119.3706         estimate D2E/DX2                !
 ! A91   A(16,29,30)           120.6179         estimate D2E/DX2                !
 ! A92   A(16,29,61)           119.8524         estimate D2E/DX2                !
 ! A93   A(30,29,61)           119.5243         estimate D2E/DX2                !
 ! A94   A(29,30,31)           119.9624         estimate D2E/DX2                !
 ! A95   A(29,30,62)           119.9176         estimate D2E/DX2                !
 ! A96   A(31,30,62)           120.1189         estimate D2E/DX2                !
 ! A97   A(30,31,32)           119.8422         estimate D2E/DX2                !
 ! A98   A(30,31,63)           120.0737         estimate D2E/DX2                !
 ! A99   A(32,31,63)           120.084          estimate D2E/DX2                !
 ! A100  A(31,32,33)           120.0193         estimate D2E/DX2                !
 ! A101  A(31,32,64)           119.9413         estimate D2E/DX2                !
 ! A102  A(33,32,64)           120.0393         estimate D2E/DX2                !
 ! A103  A(16,33,32)           120.5635         estimate D2E/DX2                !
 ! A104  A(16,33,65)           120.0639         estimate D2E/DX2                !
 ! A105  A(32,33,65)           119.3721         estimate D2E/DX2                !
 ! A106  A(15,34,35)           120.852          estimate D2E/DX2                !
 ! A107  A(15,34,66)           120.7052         estimate D2E/DX2                !
 ! A108  A(35,34,66)           118.4425         estimate D2E/DX2                !
 ! A109  A(34,35,36)           120.0981         estimate D2E/DX2                !
 ! A110  A(34,35,67)           119.9049         estimate D2E/DX2                !
 ! A111  A(36,35,67)           119.9967         estimate D2E/DX2                !
 ! A112  A(35,36,37)           119.7152         estimate D2E/DX2                !
 ! A113  A(35,36,68)           120.1277         estimate D2E/DX2                !
 ! A114  A(37,36,68)           120.1567         estimate D2E/DX2                !
 ! A115  A(36,37,38)           119.9554         estimate D2E/DX2                !
 ! A116  A(36,37,69)           119.9941         estimate D2E/DX2                !
 ! A117  A(38,37,69)           120.0501         estimate D2E/DX2                !
 ! A118  A(15,38,37)           121.022          estimate D2E/DX2                !
 ! A119  A(15,38,70)           119.8558         estimate D2E/DX2                !
 ! A120  A(37,38,70)           119.122          estimate D2E/DX2                !
 ! A121  A(13,41,42)           106.1781         estimate D2E/DX2                !
 ! A122  A(41,42,43)           109.0868         estimate D2E/DX2                !
 ! A123  A(41,42,71)           109.5448         estimate D2E/DX2                !
 ! A124  A(41,42,72)           109.5183         estimate D2E/DX2                !
 ! A125  A(43,42,71)           109.5887         estimate D2E/DX2                !
 ! A126  A(43,42,72)           109.6469         estimate D2E/DX2                !
 ! A127  A(71,42,72)           109.4416         estimate D2E/DX2                !
 ! A128  A(12,43,42)           105.6984         estimate D2E/DX2                !
 ! A129  A(7,44,45)            105.6999         estimate D2E/DX2                !
 ! A130  A(44,45,46)           109.0815         estimate D2E/DX2                !
 ! A131  A(44,45,73)           109.6387         estimate D2E/DX2                !
 ! A132  A(44,45,74)           109.5978         estimate D2E/DX2                !
 ! A133  A(46,45,73)           109.5175         estimate D2E/DX2                !
 ! A134  A(46,45,74)           109.5483         estimate D2E/DX2                !
 ! A135  A(73,45,74)           109.4432         estimate D2E/DX2                !
 ! A136  A(6,46,45)            106.1828         estimate D2E/DX2                !
 ! A137  A(1,75,2)              91.2798         estimate D2E/DX2                !
 ! A138  A(1,75,39)             90.4469         estimate D2E/DX2                !
 ! A139  A(2,75,40)             90.451          estimate D2E/DX2                !
 ! A140  A(39,75,40)            87.9878         estimate D2E/DX2                !
 ! A141  L(1,75,40,39,-1)      178.4347         estimate D2E/DX2                !
 ! A142  L(2,75,39,40,-1)      178.4388         estimate D2E/DX2                !
 ! A143  L(1,75,40,39,-2)      183.1222         estimate D2E/DX2                !
 ! A144  L(2,75,39,40,-2)      183.1226         estimate D2E/DX2                !
 ! D1    D(15,1,3,5)          -160.1785         estimate D2E/DX2                !
 ! D2    D(15,1,3,9)            21.2785         estimate D2E/DX2                !
 ! D3    D(16,1,3,5)           -50.8392         estimate D2E/DX2                !
 ! D4    D(16,1,3,9)           130.6178         estimate D2E/DX2                !
 ! D5    D(75,1,3,5)            75.0561         estimate D2E/DX2                !
 ! D6    D(75,1,3,9)          -103.4868         estimate D2E/DX2                !
 ! D7    D(3,1,15,34)           95.6237         estimate D2E/DX2                !
 ! D8    D(3,1,15,38)          -84.1642         estimate D2E/DX2                !
 ! D9    D(16,1,15,34)         -15.8771         estimate D2E/DX2                !
 ! D10   D(16,1,15,38)         164.335          estimate D2E/DX2                !
 ! D11   D(75,1,15,34)        -140.3639         estimate D2E/DX2                !
 ! D12   D(75,1,15,38)          39.8482         estimate D2E/DX2                !
 ! D13   D(3,1,16,29)          -31.1778         estimate D2E/DX2                !
 ! D14   D(3,1,16,33)          148.6989         estimate D2E/DX2                !
 ! D15   D(15,1,16,29)          78.3838         estimate D2E/DX2                !
 ! D16   D(15,1,16,33)        -101.7395         estimate D2E/DX2                !
 ! D17   D(75,1,16,29)        -156.7356         estimate D2E/DX2                !
 ! D18   D(75,1,16,33)          23.1411         estimate D2E/DX2                !
 ! D19   D(3,1,75,2)           -37.7854         estimate D2E/DX2                !
 ! D20   D(3,1,75,39)          145.2483         estimate D2E/DX2                !
 ! D21   D(15,1,75,2)         -156.7664         estimate D2E/DX2                !
 ! D22   D(15,1,75,39)          26.2672         estimate D2E/DX2                !
 ! D23   D(16,1,75,2)           84.2494         estimate D2E/DX2                !
 ! D24   D(16,1,75,39)         -92.7169         estimate D2E/DX2                !
 ! D25   D(17,2,4,10)           21.2889         estimate D2E/DX2                !
 ! D26   D(17,2,4,14)         -160.2061         estimate D2E/DX2                !
 ! D27   D(18,2,4,10)          130.6252         estimate D2E/DX2                !
 ! D28   D(18,2,4,14)          -50.8698         estimate D2E/DX2                !
 ! D29   D(75,2,4,10)         -103.4822         estimate D2E/DX2                !
 ! D30   D(75,2,4,14)           75.0227         estimate D2E/DX2                !
 ! D31   D(4,2,17,19)           95.6576         estimate D2E/DX2                !
 ! D32   D(4,2,17,23)          -84.1311         estimate D2E/DX2                !
 ! D33   D(18,2,17,19)         -15.8408         estimate D2E/DX2                !
 ! D34   D(18,2,17,23)         164.3705         estimate D2E/DX2                !
 ! D35   D(75,2,17,19)        -140.3256         estimate D2E/DX2                !
 ! D36   D(75,2,17,23)          39.8857         estimate D2E/DX2                !
 ! D37   D(4,2,18,24)          -31.1992         estimate D2E/DX2                !
 ! D38   D(4,2,18,28)          148.6696         estimate D2E/DX2                !
 ! D39   D(17,2,18,24)          78.3657         estimate D2E/DX2                !
 ! D40   D(17,2,18,28)        -101.7654         estimate D2E/DX2                !
 ! D41   D(75,2,18,24)        -156.7541         estimate D2E/DX2                !
 ! D42   D(75,2,18,28)          23.1147         estimate D2E/DX2                !
 ! D43   D(4,2,75,1)           -37.8288         estimate D2E/DX2                !
 ! D44   D(4,2,75,40)          145.2042         estimate D2E/DX2                !
 ! D45   D(17,2,75,1)         -156.8179         estimate D2E/DX2                !
 ! D46   D(17,2,75,40)          26.215          estimate D2E/DX2                !
 ! D47   D(18,2,75,1)           84.2017         estimate D2E/DX2                !
 ! D48   D(18,2,75,40)         -92.7653         estimate D2E/DX2                !
 ! D49   D(1,3,5,6)           -178.882          estimate D2E/DX2                !
 ! D50   D(1,3,5,14)             2.5581         estimate D2E/DX2                !
 ! D51   D(9,3,5,6)             -0.3481         estimate D2E/DX2                !
 ! D52   D(9,3,5,14)          -178.9079         estimate D2E/DX2                !
 ! D53   D(1,3,9,8)            178.6913         estimate D2E/DX2                !
 ! D54   D(1,3,9,48)            -1.3232         estimate D2E/DX2                !
 ! D55   D(5,3,9,8)              0.099          estimate D2E/DX2                !
 ! D56   D(5,3,9,48)          -179.9156         estimate D2E/DX2                !
 ! D57   D(2,4,10,11)          178.6802         estimate D2E/DX2                !
 ! D58   D(2,4,10,49)           -1.3421         estimate D2E/DX2                !
 ! D59   D(14,4,10,11)           0.1245         estimate D2E/DX2                !
 ! D60   D(14,4,10,49)        -179.8978         estimate D2E/DX2                !
 ! D61   D(2,4,14,5)             2.6462         estimate D2E/DX2                !
 ! D62   D(2,4,14,13)         -178.862          estimate D2E/DX2                !
 ! D63   D(10,4,14,5)         -178.858          estimate D2E/DX2                !
 ! D64   D(10,4,14,13)          -0.3663         estimate D2E/DX2                !
 ! D65   D(3,5,6,7)              0.5081         estimate D2E/DX2                !
 ! D66   D(3,5,6,46)           179.5094         estimate D2E/DX2                !
 ! D67   D(14,5,6,7)           179.1643         estimate D2E/DX2                !
 ! D68   D(14,5,6,46)           -1.8344         estimate D2E/DX2                !
 ! D69   D(3,5,14,4)           -65.5395         estimate D2E/DX2                !
 ! D70   D(3,5,14,13)          115.981          estimate D2E/DX2                !
 ! D71   D(6,5,14,4)           115.9126         estimate D2E/DX2                !
 ! D72   D(6,5,14,13)          -62.5669         estimate D2E/DX2                !
 ! D73   D(5,6,7,8)             -0.4047         estimate D2E/DX2                !
 ! D74   D(5,6,7,44)           179.4735         estimate D2E/DX2                !
 ! D75   D(46,6,7,8)          -179.5756         estimate D2E/DX2                !
 ! D76   D(46,6,7,44)            0.3026         estimate D2E/DX2                !
 ! D77   D(5,6,46,45)         -179.5075         estimate D2E/DX2                !
 ! D78   D(7,6,46,45)           -0.3961         estimate D2E/DX2                !
 ! D79   D(6,7,8,9)              0.1253         estimate D2E/DX2                !
 ! D80   D(6,7,8,47)          -179.9669         estimate D2E/DX2                !
 ! D81   D(44,7,8,9)          -179.7284         estimate D2E/DX2                !
 ! D82   D(44,7,8,47)            0.1794         estimate D2E/DX2                !
 ! D83   D(6,7,44,45)           -0.0741         estimate D2E/DX2                !
 ! D84   D(8,7,44,45)          179.7929         estimate D2E/DX2                !
 ! D85   D(7,8,9,3)              0.0205         estimate D2E/DX2                !
 ! D86   D(7,8,9,48)          -179.9654         estimate D2E/DX2                !
 ! D87   D(47,8,9,3)          -179.8867         estimate D2E/DX2                !
 ! D88   D(47,8,9,48)            0.1273         estimate D2E/DX2                !
 ! D89   D(4,10,11,12)           0.0137         estimate D2E/DX2                !
 ! D90   D(4,10,11,50)        -179.9059         estimate D2E/DX2                !
 ! D91   D(49,10,11,12)       -179.9648         estimate D2E/DX2                !
 ! D92   D(49,10,11,50)          0.1156         estimate D2E/DX2                !
 ! D93   D(10,11,12,13)          0.1062         estimate D2E/DX2                !
 ! D94   D(10,11,12,43)       -179.7567         estimate D2E/DX2                !
 ! D95   D(50,11,12,13)       -179.9737         estimate D2E/DX2                !
 ! D96   D(50,11,12,43)          0.1634         estimate D2E/DX2                !
 ! D97   D(11,12,13,14)         -0.378          estimate D2E/DX2                !
 ! D98   D(11,12,13,41)       -179.6089         estimate D2E/DX2                !
 ! D99   D(43,12,13,14)        179.5079         estimate D2E/DX2                !
 ! D100  D(43,12,13,41)          0.277          estimate D2E/DX2                !
 ! D101  D(11,12,43,42)        179.8145         estimate D2E/DX2                !
 ! D102  D(13,12,43,42)         -0.061          estimate D2E/DX2                !
 ! D103  D(12,13,14,4)           0.501          estimate D2E/DX2                !
 ! D104  D(12,13,14,5)         179.0939         estimate D2E/DX2                !
 ! D105  D(41,13,14,4)         179.5744         estimate D2E/DX2                !
 ! D106  D(41,13,14,5)          -1.8327         estimate D2E/DX2                !
 ! D107  D(12,13,41,42)         -0.3695         estimate D2E/DX2                !
 ! D108  D(14,13,41,42)       -179.5451         estimate D2E/DX2                !
 ! D109  D(1,15,34,35)        -179.669          estimate D2E/DX2                !
 ! D110  D(1,15,34,66)           0.5424         estimate D2E/DX2                !
 ! D111  D(38,15,34,35)          0.1212         estimate D2E/DX2                !
 ! D112  D(38,15,34,66)       -179.6674         estimate D2E/DX2                !
 ! D113  D(1,15,38,37)         179.7017         estimate D2E/DX2                !
 ! D114  D(1,15,38,70)          -0.4252         estimate D2E/DX2                !
 ! D115  D(34,15,38,37)         -0.0943         estimate D2E/DX2                !
 ! D116  D(34,15,38,70)        179.7788         estimate D2E/DX2                !
 ! D117  D(1,16,29,30)         179.3375         estimate D2E/DX2                !
 ! D118  D(1,16,29,61)           0.195          estimate D2E/DX2                !
 ! D119  D(33,16,29,30)         -0.5398         estimate D2E/DX2                !
 ! D120  D(33,16,29,61)       -179.6823         estimate D2E/DX2                !
 ! D121  D(1,16,33,32)        -179.2909         estimate D2E/DX2                !
 ! D122  D(1,16,33,65)           0.9521         estimate D2E/DX2                !
 ! D123  D(29,16,33,32)          0.5889         estimate D2E/DX2                !
 ! D124  D(29,16,33,65)       -179.1682         estimate D2E/DX2                !
 ! D125  D(2,17,19,20)        -179.6704         estimate D2E/DX2                !
 ! D126  D(2,17,19,51)           0.5506         estimate D2E/DX2                !
 ! D127  D(23,17,19,20)          0.1206         estimate D2E/DX2                !
 ! D128  D(23,17,19,51)       -179.6585         estimate D2E/DX2                !
 ! D129  D(2,17,23,22)         179.7036         estimate D2E/DX2                !
 ! D130  D(2,17,23,55)          -0.4275         estimate D2E/DX2                !
 ! D131  D(19,17,23,22)         -0.0931         estimate D2E/DX2                !
 ! D132  D(19,17,23,55)        179.7758         estimate D2E/DX2                !
 ! D133  D(2,18,24,25)         179.3329         estimate D2E/DX2                !
 ! D134  D(2,18,24,56)           0.1796         estimate D2E/DX2                !
 ! D135  D(28,18,24,25)         -0.5366         estimate D2E/DX2                !
 ! D136  D(28,18,24,56)       -179.6899         estimate D2E/DX2                !
 ! D137  D(2,18,28,27)        -179.2822         estimate D2E/DX2                !
 ! D138  D(2,18,28,60)           0.95           estimate D2E/DX2                !
 ! D139  D(24,18,28,27)          0.59           estimate D2E/DX2                !
 ! D140  D(24,18,28,60)       -179.1779         estimate D2E/DX2                !
 ! D141  D(17,19,20,21)         -0.0494         estimate D2E/DX2                !
 ! D142  D(17,19,20,52)       -179.8612         estimate D2E/DX2                !
 ! D143  D(51,19,20,21)        179.7345         estimate D2E/DX2                !
 ! D144  D(51,19,20,52)         -0.0772         estimate D2E/DX2                !
 ! D145  D(19,20,21,22)         -0.0519         estimate D2E/DX2                !
 ! D146  D(19,20,21,53)       -179.81           estimate D2E/DX2                !
 ! D147  D(52,20,21,22)        179.7596         estimate D2E/DX2                !
 ! D148  D(52,20,21,53)          0.0016         estimate D2E/DX2                !
 ! D149  D(20,21,22,23)          0.0792         estimate D2E/DX2                !
 ! D150  D(20,21,22,54)       -179.6825         estimate D2E/DX2                !
 ! D151  D(53,21,22,23)        179.8372         estimate D2E/DX2                !
 ! D152  D(53,21,22,54)          0.0755         estimate D2E/DX2                !
 ! D153  D(21,22,23,17)         -0.0058         estimate D2E/DX2                !
 ! D154  D(21,22,23,55)       -179.8756         estimate D2E/DX2                !
 ! D155  D(54,22,23,17)        179.7557         estimate D2E/DX2                !
 ! D156  D(54,22,23,55)         -0.1141         estimate D2E/DX2                !
 ! D157  D(18,24,25,26)          0.1067         estimate D2E/DX2                !
 ! D158  D(18,24,25,57)       -179.5174         estimate D2E/DX2                !
 ! D159  D(56,24,25,26)        179.2628         estimate D2E/DX2                !
 ! D160  D(56,24,25,57)         -0.3614         estimate D2E/DX2                !
 ! D161  D(24,25,26,27)          0.2768         estimate D2E/DX2                !
 ! D162  D(24,25,26,58)       -179.7826         estimate D2E/DX2                !
 ! D163  D(57,25,26,27)        179.9002         estimate D2E/DX2                !
 ! D164  D(57,25,26,58)         -0.1593         estimate D2E/DX2                !
 ! D165  D(25,26,27,28)         -0.2236         estimate D2E/DX2                !
 ! D166  D(25,26,27,59)        179.687          estimate D2E/DX2                !
 ! D167  D(58,26,27,28)        179.8358         estimate D2E/DX2                !
 ! D168  D(58,26,27,59)         -0.2535         estimate D2E/DX2                !
 ! D169  D(26,27,28,18)         -0.2142         estimate D2E/DX2                !
 ! D170  D(26,27,28,60)        179.5552         estimate D2E/DX2                !
 ! D171  D(59,27,28,18)        179.8752         estimate D2E/DX2                !
 ! D172  D(59,27,28,60)         -0.3553         estimate D2E/DX2                !
 ! D173  D(16,29,30,31)          0.1095         estimate D2E/DX2                !
 ! D174  D(16,29,30,62)       -179.509          estimate D2E/DX2                !
 ! D175  D(61,29,30,31)        179.2548         estimate D2E/DX2                !
 ! D176  D(61,29,30,62)         -0.3637         estimate D2E/DX2                !
 ! D177  D(29,30,31,32)          0.2788         estimate D2E/DX2                !
 ! D178  D(29,30,31,63)       -179.7903         estimate D2E/DX2                !
 ! D179  D(62,30,31,32)        179.8965         estimate D2E/DX2                !
 ! D180  D(62,30,31,63)         -0.1726         estimate D2E/DX2                !
 ! D181  D(30,31,32,33)         -0.2299         estimate D2E/DX2                !
 ! D182  D(30,31,32,64)        179.6857         estimate D2E/DX2                !
 ! D183  D(63,31,32,33)        179.8392         estimate D2E/DX2                !
 ! D184  D(63,31,32,64)         -0.2452         estimate D2E/DX2                !
 ! D185  D(31,32,33,16)         -0.2084         estimate D2E/DX2                !
 ! D186  D(31,32,33,65)        179.5503         estimate D2E/DX2                !
 ! D187  D(64,32,33,16)        179.876          estimate D2E/DX2                !
 ! D188  D(64,32,33,65)         -0.3653         estimate D2E/DX2                !
 ! D189  D(15,34,35,36)         -0.049          estimate D2E/DX2                !
 ! D190  D(15,34,35,67)       -179.8652         estimate D2E/DX2                !
 ! D191  D(66,34,35,36)        179.7443         estimate D2E/DX2                !
 ! D192  D(66,34,35,67)         -0.0719         estimate D2E/DX2                !
 ! D193  D(34,35,36,37)         -0.053          estimate D2E/DX2                !
 ! D194  D(34,35,36,68)       -179.8015         estimate D2E/DX2                !
 ! D195  D(67,35,36,37)        179.7631         estimate D2E/DX2                !
 ! D196  D(67,35,36,68)          0.0146         estimate D2E/DX2                !
 ! D197  D(35,36,37,38)          0.0797         estimate D2E/DX2                !
 ! D198  D(35,36,37,69)       -179.6763         estimate D2E/DX2                !
 ! D199  D(68,36,37,38)        179.8281         estimate D2E/DX2                !
 ! D200  D(68,36,37,69)          0.0722         estimate D2E/DX2                !
 ! D201  D(36,37,38,15)         -0.0052         estimate D2E/DX2                !
 ! D202  D(36,37,38,70)       -179.8792         estimate D2E/DX2                !
 ! D203  D(69,37,38,15)        179.7506         estimate D2E/DX2                !
 ! D204  D(69,37,38,70)         -0.1234         estimate D2E/DX2                !
 ! D205  D(13,41,42,43)          0.3349         estimate D2E/DX2                !
 ! D206  D(13,41,42,71)        120.2885         estimate D2E/DX2                !
 ! D207  D(13,41,42,72)       -119.6738         estimate D2E/DX2                !
 ! D208  D(41,42,43,12)         -0.1699         estimate D2E/DX2                !
 ! D209  D(71,42,43,12)       -120.0964         estimate D2E/DX2                !
 ! D210  D(72,42,43,12)        119.7595         estimate D2E/DX2                !
 ! D211  D(7,44,45,46)          -0.1733         estimate D2E/DX2                !
 ! D212  D(7,44,45,73)         119.7468         estimate D2E/DX2                !
 ! D213  D(7,44,45,74)        -120.1065         estimate D2E/DX2                !
 ! D214  D(44,45,46,6)           0.3535         estimate D2E/DX2                !
 ! D215  D(73,45,46,6)        -119.6415         estimate D2E/DX2                !
 ! D216  D(74,45,46,6)         120.3172         estimate D2E/DX2                !
 --------------------------------------------------------------------------------
 Trust Radius=3.00D-01 FncErr=1.00D-07 GrdErr=1.00D-06
 Number of steps in this run=    450 maximum allowed number of steps=    450.
 GradGradGradGradGradGradGradGradGradGradGradGradGradGradGradGradGradGrad

 Stoichiometry    C38H28Cl2O4P2Pd
 Framework group  C1[X(C38H28Cl2O4P2Pd)]
 Deg. of freedom   219
 Full point group                 C1      NOp   1
 Largest Abelian subgroup         C1      NOp   1
 Largest concise Abelian subgroup C1      NOp   1
                         Standard orientation:                         
 ---------------------------------------------------------------------
 Center     Atomic      Atomic             Coordinates (Angstroms)
 Number     Number       Type             X           Y           Z
 ---------------------------------------------------------------------
      1         15           0       -1.720819   -0.620564   -0.005344
      2         15           0        1.720519   -0.621236    0.005241
      3          6           0       -1.296713    0.879253    1.059680
      4          6           0        1.297597    0.878986   -1.059570
      5          6           0       -0.351144    1.867349    0.648686
      6          6           0       -0.099385    2.930754    1.541313
      7          6           0       -0.715277    3.034124    2.768579
      8          6           0       -1.642717    2.082341    3.199889
      9          6           0       -1.923901    1.007556    2.331421
     10          6           0        1.925476    1.007269   -2.331005
     11          6           0        1.645036    2.082276   -3.199487
     12          6           0        0.717591    3.034150   -2.768589
     13          6           0        0.100582    2.930589   -1.541819
     14          6           0        0.351751    1.866988   -0.649206
     15          6           0       -3.381259   -1.204442    0.666264
     16          6           0       -2.134132    0.029480   -1.709049
     17          6           0        3.381249   -1.205657   -0.665446
     18          6           0        2.133109    0.028276    1.709371
     19          6           0        4.607571   -0.818433   -0.079780
     20          6           0        5.833865   -1.266443   -0.608292
     21          6           0        5.850708   -2.111408   -1.732747
     22          6           0        4.638327   -2.507315   -2.325615
     23          6           0        3.415217   -2.055990   -1.793486
     24          6           0        2.722263    1.297945    1.892049
     25          6           0        3.012388    1.774500    3.184810
     26          6           0        2.716676    0.981431    4.309016
     27          6           0        2.136599   -0.289313    4.136680
     28          6           0        1.848924   -0.762929    2.841817
     29          6           0       -2.722548    1.299653   -1.891162
     30          6           0       -3.013346    1.776608   -3.183597
     31          6           0       -2.719132    0.983449   -4.308149
     32          6           0       -2.139890   -0.287850   -4.136420
     33          6           0       -1.851501   -0.761719   -2.841849
     34          6           0       -4.607793   -0.815965    0.081873
     35          6           0       -5.833949   -1.263632    0.611138
     36          6           0       -5.850385   -2.109439    1.735011
     37          6           0       -4.637744   -2.506516    2.326484
     38          6           0       -3.414788   -2.055630    1.793721
     39         17           0       -1.614822   -3.980003   -0.129733
     40         17           0        1.613010   -3.980907    0.126876
     41          8           0       -0.752596    3.978070   -1.385757
     42          6           0       -0.643930    4.747784   -2.552987
     43          8           0        0.281431    4.143503   -3.416305
     44          8           0       -0.278119    4.142947    3.416393
     45          6           0        0.647040    4.747050    2.552746
     46          8           0        0.754545    3.977619    1.385275
     47          1           0       -2.122381    2.169861    4.163386
     48          1           0       -2.640292    0.276959    2.669038
     49          1           0        2.641899    0.276573   -2.668282
     50          1           0        2.125362    2.169987   -4.162523
     51          1           0        4.625606   -0.174808    0.785779
     52          1           0        6.762411   -0.962673   -0.146949
     53          1           0        6.791055   -2.457901   -2.136785
     54          1           0        4.645790   -3.160382   -3.186358
     55          1           0        2.492195   -2.369990   -2.258164
     56          1           0        2.941335    1.917964    1.034040
     57          1           0        3.456042    2.750928    3.311923
     58          1           0        2.935366    1.346910    5.301997
     59          1           0        1.913562   -0.901643    4.998546
     60          1           0        1.410467   -1.742580    2.721372
     61          1           0       -2.940370    1.919841   -1.032917
     62          1           0       -3.456268    2.753410   -3.310271
     63          1           0       -2.938412    1.349081   -5.300931
     64          1           0       -1.918014   -0.900265   -4.998449
     65          1           0       -1.413766   -1.741827   -2.721762
     66          1           0       -4.626201   -0.171613   -0.783029
     67          1           0       -6.762746   -0.958849    0.150805
     68          1           0       -6.790616   -2.455727    2.139472
     69          1           0       -4.644938   -3.160298    3.186690
     70          1           0       -2.491540   -2.370473    2.257351
     71          1           0       -1.616296    4.806912   -3.042784
     72          1           0       -0.304867    5.752020   -2.296909
     73          1           0        0.308102    5.751547    2.297146
     74          1           0        1.619734    4.805700    3.041886
     75         46           0       -0.000513   -2.303567   -0.000734
 ---------------------------------------------------------------------
 Rotational constants (GHZ):      0.0630850      0.0605786      0.0514017
 General basis read from cards:  (6D, 7F)
 ======================================================================================================
                                       Pseudopotential Parameters
 ======================================================================================================
  Center     Atomic      Valence      Angular      Power
  Number     Number     Electrons     Momentum     of R      Exponent        Coefficient   SO-Coeffient
 ======================================================================================================
    1         15
                                   No pseudopotential on this center.
    2         15
                                   No pseudopotential on this center.
    3          6
                                   No pseudopotential on this center.
    4          6
                                   No pseudopotential on this center.
    5          6
                                   No pseudopotential on this center.
    6          6
                                   No pseudopotential on this center.
    7          6
                                   No pseudopotential on this center.
    8          6
                                   No pseudopotential on this center.
    9          6
                                   No pseudopotential on this center.
   10          6
                                   No pseudopotential on this center.
   11          6
                                   No pseudopotential on this center.
   12          6
                                   No pseudopotential on this center.
   13          6
                                   No pseudopotential on this center.
   14          6
                                   No pseudopotential on this center.
   15          6
                                   No pseudopotential on this center.
   16          6
                                   No pseudopotential on this center.
   17          6
                                   No pseudopotential on this center.
   18          6
                                   No pseudopotential on this center.
   19          6
                                   No pseudopotential on this center.
   20          6
                                   No pseudopotential on this center.
   21          6
                                   No pseudopotential on this center.
   22          6
                                   No pseudopotential on this center.
   23          6
                                   No pseudopotential on this center.
   24          6
                                   No pseudopotential on this center.
   25          6
                                   No pseudopotential on this center.
   26          6
                                   No pseudopotential on this center.
   27          6
                                   No pseudopotential on this center.
   28          6
                                   No pseudopotential on this center.
   29          6
                                   No pseudopotential on this center.
   30          6
                                   No pseudopotential on this center.
   31          6
                                   No pseudopotential on this center.
   32          6
                                   No pseudopotential on this center.
   33          6
                                   No pseudopotential on this center.
   34          6
                                   No pseudopotential on this center.
   35          6
                                   No pseudopotential on this center.
   36          6
                                   No pseudopotential on this center.
   37          6
                                   No pseudopotential on this center.
   38          6
                                   No pseudopotential on this center.
   39         17
                                   No pseudopotential on this center.
   40         17
                                   No pseudopotential on this center.
   41          8
                                   No pseudopotential on this center.
   42          6
                                   No pseudopotential on this center.
   43          8
                                   No pseudopotential on this center.
   44          8
                                   No pseudopotential on this center.
   45          6
                                   No pseudopotential on this center.
   46          8
                                   No pseudopotential on this center.
   47          1
                                   No pseudopotential on this center.
   48          1
                                   No pseudopotential on this center.
   49          1
                                   No pseudopotential on this center.
   50          1
                                   No pseudopotential on this center.
   51          1
                                   No pseudopotential on this center.
   52          1
                                   No pseudopotential on this center.
   53          1
                                   No pseudopotential on this center.
   54          1
                                   No pseudopotential on this center.
   55          1
                                   No pseudopotential on this center.
   56          1
                                   No pseudopotential on this center.
   57          1
                                   No pseudopotential on this center.
   58          1
                                   No pseudopotential on this center.
   59          1
                                   No pseudopotential on this center.
   60          1
                                   No pseudopotential on this center.
   61          1
                                   No pseudopotential on this center.
   62          1
                                   No pseudopotential on this center.
   63          1
                                   No pseudopotential on this center.
   64          1
                                   No pseudopotential on this center.
   65          1
                                   No pseudopotential on this center.
   66          1
                                   No pseudopotential on this center.
   67          1
                                   No pseudopotential on this center.
   68          1
                                   No pseudopotential on this center.
   69          1
                                   No pseudopotential on this center.
   70          1
                                   No pseudopotential on this center.
   71          1
                                   No pseudopotential on this center.
   72          1
                                   No pseudopotential on this center.
   73          1
                                   No pseudopotential on this center.
   74          1
                                   No pseudopotential on this center.
   75         46           18
                                      F and up 
                                                     0      598.3336444       -0.05631770    0.00000000
                                                     1      162.4298290      -20.12880360    0.00000000
                                                     2       51.5714771     -105.81979230    0.00000000
                                                     2       16.4888260      -42.57333450    0.00000000
                                                     2        5.8287656       -3.61650860    0.00000000
                                      S - F
                                                     0       73.3806304        3.00036510    0.00000000
                                                     1       14.7550438       32.43500930    0.00000000
                                                     2       17.8350204      459.08303830    0.00000000
                                                     2       12.7111477     -868.06290290    0.00000000
                                                     2        9.3292063      514.47260980    0.00000000
                                      P - F
                                                     0       55.6689877        4.95930990    0.00000000
                                                     1       64.2337771       21.17110290    0.00000000
                                                     2       17.6254952      605.05600920    0.00000000
                                                     2       11.9058155     -726.96418460    0.00000000
                                                     2        8.5100832      396.32748830    0.00000000
                                      D - F
                                                     0       49.9994728        3.05087450    0.00000000
                                                     1       39.7477547       22.25065800    0.00000000
                                                     2       11.4321366      674.83576980    0.00000000
                                                     2        9.1790080    -1040.85540480    0.00000000
                                                     2        7.5624429      505.93751470    0.00000000
 ======================================================================================================
 There are   786 symmetry adapted cartesian basis functions of A   symmetry.
 There are   786 symmetry adapted basis functions of A   symmetry.
   786 basis functions,  1545 primitive gaussians,   786 cartesian basis functions
   185 alpha electrons      185 beta electrons
       nuclear repulsion energy      7600.4139484887 Hartrees.
 NAtoms=   75 NActive=   75 NUniq=   75 SFac= 1.00D+00 NAtFMM=   60 NAOKFM=T Big=T
 Integral buffers will be    131072 words long.
 Raffenetti 2 integral format.
 Two-electron integral symmetry is turned on.
 Nuclear repulsion after empirical dispersion term =     7600.2621804852 Hartrees.
 Standard density basis: Auto (5D, 7F)
  3450 Density fitting functions
 There are  3450 symmetry adapted density basis functions of A   symmetry.
 One-electron integrals computed using PRISM.
   1 Symmetry operations used in ECPInt.
 ECPInt:  NShTT=   31878 NPrTT=  218455 LenC2=   24527 LenP2D=   83040.
 LDataN:  DoStor=T MaxTD1= 5 Len=  102
 NBasis=   786 RedAO= T EigKep=  3.26D-04  NBF=   786
 NBsUse=   786 1.00D-06 EigRej= -1.00D+00 NBFU=   786
 NBasis=      786 NBas6D=      786 NTT=      309291   NTT6D=   309291
 NDBShl=      666 NDBF=       3450 NDBF6D=     4072  NNucDB=        0
 IDenFi=        2 ISolve=        0 FullAP=F BlkAPC=T NucTyp=        0
 TolInv= 1.00D-06 TolIt=  1.00D-10 IR12=0.
 FoFCou: FMM=F IPFlag=           0 FMFlag=           0 FMFlg1=           0
         NFxFlg=           0 DoJE=F BraDBF=T KetDBF=T FulRan=T
         wScrn=  0.000000 ICntrl=     600 IOpCl=  3 I1Cent=           6 NGrid=           0
         NMat0=    1 NMatS0=   4072 NMatT0=    0 NMatD0=    1 NMtDS0=    0 NMtDT0=    0
 Petite list used in FoFCou.
 DBF EigKep=  1.10D-06 EigRej= -1.00D+00
 NDBF=   3450  NBFD=  3450
 NRank=  3450 NBFDU=  3450
 S*AI*S=  12.5828494043    
 Defaulting to unpruned grid for atomic number  46.
 ExpMin= 2.62D-02 ExpMax= 2.52D+04 ExpMxC= 3.78D+03 IAcc=3 IRadAn=         5 AccDes= 0.00D+00
 Harris functional with IExCor= 1009 and IRadAn=       5 diagonalized for initial guess.
 HarFok:  IExCor= 1009 AccDes= 0.00D+00 IRadAn=         5 IDoV= 1 UseB2=F ITyADJ=14
 ICtDFT=  3500011 ScaDFX=  1.000000  1.000000  1.000000  1.000000
 Defaulting to unpruned grid for atomic number  46.
 Defaulting to unpruned grid for atomic number  46.
 Defaulting to unpruned grid for atomic number  46.
 Defaulting to unpruned grid for atomic number  46.
 Defaulting to unpruned grid for atomic number  46.
 Defaulting to unpruned grid for atomic number  46.
 Defaulting to unpruned grid for atomic number  46.
 Defaulting to unpruned grid for atomic number  46.
 Defaulting to unpruned grid for atomic number  46.
 Defaulting to unpruned grid for atomic number  46.
 Defaulting to unpruned grid for atomic number  46.
 Defaulting to unpruned grid for atomic number  46.
 Defaulting to unpruned grid for atomic number  46.
 Defaulting to unpruned grid for atomic number  46.
 FoFCou: FMM=F IPFlag=           0 FMFlag=      100000 FMFlg1=        2001
         NFxFlg=           0 DoJE=T BraDBF=F KetDBF=T FulRan=T
         wScrn=  0.000000 ICntrl=     500 IOpCl=  0 I1Cent=   200000004 NGrid=           0
         NMat0=    1 NMatS0=      1 NMatT0=    0 NMatD0=    1 NMtDS0=    0 NMtDT0=    0
 Petite list used in FoFCou.
 Requested convergence on RMS density matrix=1.00D-08 within 500 cycles.
 Requested convergence on MAX density matrix=1.00D-06.
 Requested convergence on             energy=1.00D-06.
 No special actions if energy rises.
 FoFCou: FMM=F IPFlag=           0 FMFlag=      100000 FMFlg1=        2001
         NFxFlg=           0 DoJE=T BraDBF=T KetDBF=F FulRan=T
         wScrn=  0.000000 ICntrl=     500 IOpCl=  0 I1Cent=           5 NGrid=           0
         NMat0=    1 NMatS0=      1 NMatT0=    0 NMatD0=    1 NMtDS0=    0 NMtDT0=    0
 Symmetry not used in FoFCou.
 Defaulting to unpruned grid for atomic number  46.
 Defaulting to unpruned grid for atomic number  46.
 Defaulting to unpruned grid for atomic number  46.
 Defaulting to unpruned grid for atomic number  46.
 Defaulting to unpruned grid for atomic number  46.
 Defaulting to unpruned grid for atomic number  46.
 Defaulting to unpruned grid for atomic number  46.
 Defaulting to unpruned grid for atomic number  46.
 Defaulting to unpruned grid for atomic number  46.
 Defaulting to unpruned grid for atomic number  46.
 Defaulting to unpruned grid for atomic number  46.
 Defaulting to unpruned grid for atomic number  46.
 Defaulting to unpruned grid for atomic number  46.
 Defaulting to unpruned grid for atomic number  46.
 EnCoef did     9 forward-backward iterations
 EnCoef did   100 forward-backward iterations
 Problem detected with inexpensive integrals.
 Switching to full accuracy and repeating last cycle.
 EnCoef did     2 forward-backward iterations
 EnCoef did   100 forward-backward iterations
 EnCoef did   100 forward-backward iterations
 EnCoef did   100 forward-backward iterations
 EnCoef did   100 forward-backward iterations
 EnCoef did     4 forward-backward iterations
 EnCoef did     4 forward-backward iterations
 EnCoef did     3 forward-backward iterations
 EnCoef did     3 forward-backward iterations
 Restarting incremental Fock formation.
 SCF Done:  E(RPBE-PBE) =  -3492.97524731     A.U. after   31 cycles
            NFock= 31  Conv=0.47D-08     -V/T= 2.0306

 **********************************************************************

            Population analysis using the SCF density.

 **********************************************************************

 Orbital symmetries:
       Occupied  (A) (A) (A) (A) (A) (A) (A) (A) (A) (A) (A) (A)
                 (A) (A) (A) (A) (A) (A) (A) (A) (A) (A) (A) (A)
                 (A) (A) (A) (A) (A) (A) (A) (A) (A) (A) (A) (A)
                 (A) (A) (A) (A) (A) (A) (A) (A) (A) (A) (A) (A)
                 (A) (A) (A) (A) (A) (A) (A) (A) (A) (A) (A) (A)
                 (A) (A) (A) (A) (A) (A) (A) (A) (A) (A) (A) (A)
                 (A) (A) (A) (A) (A) (A) (A) (A) (A) (A) (A) (A)
                 (A) (A) (A) (A) (A) (A) (A) (A) (A) (A) (A) (A)
                 (A) (A) (A) (A) (A) (A) (A) (A) (A) (A) (A) (A)
                 (A) (A) (A) (A) (A) (A) (A) (A) (A) (A) (A) (A)
                 (A) (A) (A) (A) (A) (A) (A) (A) (A) (A) (A) (A)
                 (A) (A) (A) (A) (A) (A) (A) (A) (A) (A) (A) (A)
                 (A) (A) (A) (A) (A) (A) (A) (A) (A) (A) (A) (A)
                 (A) (A) (A) (A) (A) (A) (A) (A) (A) (A) (A) (A)
                 (A) (A) (A) (A) (A) (A) (A) (A) (A) (A) (A) (A)
                 (A) (A) (A) (A) (A)
       Virtual   (A) (A) (A) (A) (A) (A) (A) (A) (A) (A) (A) (A)
                 (A) (A) (A) (A) (A) (A) (A) (A) (A) (A) (A) (A)
                 (A) (A) (A) (A) (A) (A) (A) (A) (A) (A) (A) (A)
                 (A) (A) (A) (A) (A) (A) (A) (A) (A) (A) (A) (A)
                 (A) (A) (A) (A) (A) (A) (A) (A) (A) (A) (A) (A)
                 (A) (A) (A) (A) (A) (A) (A) (A) (A) (A) (A) (A)
                 (A) (A) (A) (A) (A) (A) (A) (A) (A) (A) (A) (A)
                 (A) (A) (A) (A) (A) (A) (A) (A) (A) (A) (A) (A)
                 (A) (A) (A) (A) (A) (A) (A) (A) (A) (A) (A) (A)
                 (A) (A) (A) (A) (A) (A) (A) (A) (A) (A) (A) (A)
                 (A) (A) (A) (A) (A) (A) (A) (A) (A) (A) (A) (A)
                 (A) (A) (A) (A) (A) (A) (A) (A) (A) (A) (A) (A)
                 (A) (A) (A) (A) (A) (A) (A) (A) (A) (A) (A) (A)
                 (A) (A) (A) (A) (A) (A) (A) (A) (A) (A) (A) (A)
                 (A) (A) (A) (A) (A) (A) (A) (A) (A) (A) (A) (A)
                 (A) (A) (A) (A) (A) (A) (A) (A) (A) (A) (A) (A)
                 (A) (A) (A) (A) (A) (A) (A) (A) (A) (A) (A) (A)
                 (A) (A) (A) (A) (A) (A) (A) (A) (A) (A) (A) (A)
                 (A) (A) (A) (A) (A) (A) (A) (A) (A) (A) (A) (A)
                 (A) (A) (A) (A) (A) (A) (A) (A) (A) (A) (A) (A)
                 (A) (A) (A) (A) (A) (A) (A) (A) (A) (A) (A) (A)
                 (A) (A) (A) (A) (A) (A) (A) (A) (A) (A) (A) (A)
                 (A) (A) (A) (A) (A) (A) (A) (A) (A) (A) (A) (A)
                 (A) (A) (A) (A) (A) (A) (A) (A) (A) (A) (A) (A)
                 (A) (A) (A) (A) (A) (A) (A) (A) (A) (A) (A) (A)
                 (A) (A) (A) (A) (A) (A) (A) (A) (A) (A) (A) (A)
                 (A) (A) (A) (A) (A) (A) (A) (A) (A) (A) (A) (A)
                 (A) (A) (A) (A) (A) (A) (A) (A) (A) (A) (A) (A)
                 (A) (A) (A) (A) (A) (A) (A) (A) (A) (A) (A) (A)
                 (A) (A) (A) (A) (A) (A) (A) (A) (A) (A) (A) (A)
                 (A) (A) (A) (A) (A) (A) (A) (A) (A) (A) (A) (A)
                 (A) (A) (A) (A) (A) (A) (A) (A) (A) (A) (A) (A)
                 (A) (A) (A) (A) (A) (A) (A) (A) (A) (A) (A) (A)
                 (A) (A) (A) (A) (A) (A) (A) (A) (A) (A) (A) (A)
                 (A) (A) (A) (A) (A) (A) (A) (A) (A) (A) (A) (A)
                 (A) (A) (A) (A) (A) (A) (A) (A) (A) (A) (A) (A)
                 (A) (A) (A) (A) (A) (A) (A) (A) (A) (A) (A) (A)
                 (A) (A) (A) (A) (A) (A) (A) (A) (A) (A) (A) (A)
                 (A) (A) (A) (A) (A) (A) (A) (A) (A) (A) (A) (A)
                 (A) (A) (A) (A) (A) (A) (A) (A) (A) (A) (A) (A)
                 (A) (A) (A) (A) (A) (A) (A) (A) (A) (A) (A) (A)
                 (A) (A) (A) (A) (A) (A) (A) (A) (A) (A) (A) (A)
                 (A) (A) (A) (A) (A) (A) (A) (A) (A) (A) (A) (A)
                 (A) (A) (A) (A) (A) (A) (A) (A) (A) (A) (A) (A)
                 (A) (A) (A) (A) (A) (A) (A) (A) (A) (A) (A) (A)
                 (A) (A) (A) (A) (A) (A) (A) (A) (A) (A) (A) (A)
                 (A) (A) (A) (A) (A) (A) (A) (A) (A) (A) (A) (A)
                 (A) (A) (A) (A) (A) (A) (A) (A) (A) (A) (A) (A)
                 (A) (A) (A) (A) (A) (A) (A) (A) (A) (A) (A) (A)
                 (A) (A) (A) (A) (A) (A) (A) (A) (A) (A) (A) (A)
                 (A)
 The electronic state is 1-A.
 Alpha  occ. eigenvalues -- -100.58548-100.58546 -76.37772 -76.37772 -18.83777
 Alpha  occ. eigenvalues --  -18.83776 -18.83769 -18.83768 -10.02325 -10.02324
 Alpha  occ. eigenvalues --   -9.97366  -9.97365  -9.97266  -9.97266  -9.93727
 Alpha  occ. eigenvalues --   -9.93708  -9.93414  -9.93414  -9.92727  -9.92727
 Alpha  occ. eigenvalues --   -9.92057  -9.92057  -9.91924  -9.91923  -9.91752
 Alpha  occ. eigenvalues --   -9.91752  -9.91674  -9.91674  -9.91501  -9.91501
 Alpha  occ. eigenvalues --   -9.91452  -9.91452  -9.91210  -9.91208  -9.91113
 Alpha  occ. eigenvalues --   -9.91112  -9.90568  -9.90568  -9.90346  -9.90345
 Alpha  occ. eigenvalues --   -9.90270  -9.90270  -9.90186  -9.90185  -9.90025
 Alpha  occ. eigenvalues --   -9.90025  -9.08075  -9.08073  -6.90427  -6.90425
 Alpha  occ. eigenvalues --   -6.89686  -6.89685  -6.89587  -6.89585  -6.35444
 Alpha  occ. eigenvalues --   -6.35444  -4.57273  -4.57272  -4.57248  -4.57248
 Alpha  occ. eigenvalues --   -4.56960  -4.56960  -3.19571  -1.96416  -1.96282
 Alpha  occ. eigenvalues --   -1.92520  -1.07039  -1.06951  -0.97632  -0.97455
 Alpha  occ. eigenvalues --   -0.80751  -0.78704  -0.78025  -0.77994  -0.76804
 Alpha  occ. eigenvalues --   -0.76787  -0.72577  -0.71314  -0.71285  -0.69209
 Alpha  occ. eigenvalues --   -0.69142  -0.67878  -0.67874  -0.67257  -0.67137
 Alpha  occ. eigenvalues --   -0.66915  -0.66702  -0.66699  -0.63922  -0.63157
 Alpha  occ. eigenvalues --   -0.63006  -0.62757  -0.60149  -0.59390  -0.59311
 Alpha  occ. eigenvalues --   -0.57165  -0.57070  -0.55136  -0.55070  -0.55006
 Alpha  occ. eigenvalues --   -0.54132  -0.54005  -0.53574  -0.53566  -0.51650
 Alpha  occ. eigenvalues --   -0.51332  -0.49230  -0.48924  -0.48536  -0.48495
 Alpha  occ. eigenvalues --   -0.47766  -0.47071  -0.46654  -0.46131  -0.45755
 Alpha  occ. eigenvalues --   -0.45052  -0.44183  -0.43886  -0.41353  -0.41127
 Alpha  occ. eigenvalues --   -0.40614  -0.40539  -0.40433  -0.40040  -0.39993
 Alpha  occ. eigenvalues --   -0.39813  -0.39697  -0.39267  -0.39156  -0.38047
 Alpha  occ. eigenvalues --   -0.38013  -0.37808  -0.37622  -0.36688  -0.36687
 Alpha  occ. eigenvalues --   -0.36390  -0.36209  -0.36092  -0.35988  -0.35393
 Alpha  occ. eigenvalues --   -0.34733  -0.34558  -0.34415  -0.33997  -0.33864
 Alpha  occ. eigenvalues --   -0.33512  -0.32633  -0.32607  -0.32349  -0.32278
 Alpha  occ. eigenvalues --   -0.31844  -0.31327  -0.30890  -0.30704  -0.30574
 Alpha  occ. eigenvalues --   -0.30419  -0.30073  -0.29533  -0.29496  -0.29017
 Alpha  occ. eigenvalues --   -0.28819  -0.28556  -0.28188  -0.26479  -0.24622
 Alpha  occ. eigenvalues --   -0.24393  -0.24149  -0.23740  -0.23525  -0.23193
 Alpha  occ. eigenvalues --   -0.23094  -0.23030  -0.22483  -0.21882  -0.21829
 Alpha  occ. eigenvalues --   -0.21772  -0.21412  -0.20872  -0.18960  -0.18955
 Alpha  occ. eigenvalues --   -0.18251  -0.17899  -0.17227  -0.16709  -0.16578
 Alpha virt. eigenvalues --   -0.09426  -0.06187  -0.06072  -0.05941  -0.04810
 Alpha virt. eigenvalues --   -0.04453  -0.04308  -0.03969  -0.03650  -0.03101
 Alpha virt. eigenvalues --   -0.02980  -0.02621  -0.02547  -0.00598   0.01427
 Alpha virt. eigenvalues --    0.03550   0.03862   0.04803   0.04846   0.05064
 Alpha virt. eigenvalues --    0.05393   0.05688   0.05794   0.06333   0.06648
 Alpha virt. eigenvalues --    0.07590   0.07780   0.08515   0.08608   0.09041
 Alpha virt. eigenvalues --    0.09119   0.09579   0.09689   0.09838   0.10267
 Alpha virt. eigenvalues --    0.10568   0.10582   0.11155   0.11342   0.11568
 Alpha virt. eigenvalues --    0.11609   0.11914   0.12556   0.12934   0.13225
 Alpha virt. eigenvalues --    0.13499   0.13574   0.13717   0.14051   0.14170
 Alpha virt. eigenvalues --    0.14640   0.15058   0.15305   0.15824   0.16168
 Alpha virt. eigenvalues --    0.16371   0.16550   0.16979   0.17149   0.17247
 Alpha virt. eigenvalues --    0.17323   0.18433   0.18714   0.20819   0.21092
 Alpha virt. eigenvalues --    0.21537   0.21885   0.22002   0.23148   0.24352
 Alpha virt. eigenvalues --    0.24652   0.24751   0.25270   0.25350   0.25569
 Alpha virt. eigenvalues --    0.25622   0.26153   0.26234   0.26855   0.27119
 Alpha virt. eigenvalues --    0.27305   0.27516   0.28086   0.28521   0.28579
 Alpha virt. eigenvalues --    0.29065   0.29190   0.29647   0.30535   0.30690
 Alpha virt. eigenvalues --    0.32212   0.32382   0.33631   0.33855   0.34443
 Alpha virt. eigenvalues --    0.34845   0.34931   0.36045   0.36634   0.37034
 Alpha virt. eigenvalues --    0.38800   0.39786   0.40042   0.40410   0.41113
 Alpha virt. eigenvalues --    0.42527   0.43189   0.43645   0.43682   0.44369
 Alpha virt. eigenvalues --    0.44945   0.44954   0.45498   0.45964   0.46452
 Alpha virt. eigenvalues --    0.46984   0.47572   0.47837   0.48006   0.48045
 Alpha virt. eigenvalues --    0.48306   0.48749   0.49381   0.49617   0.49720
 Alpha virt. eigenvalues --    0.49778   0.50059   0.50224   0.50462   0.50949
 Alpha virt. eigenvalues --    0.51021   0.51286   0.51433   0.51586   0.52057
 Alpha virt. eigenvalues --    0.52305   0.52539   0.52601   0.52903   0.53027
 Alpha virt. eigenvalues --    0.53602   0.53784   0.54284   0.54458   0.54677
 Alpha virt. eigenvalues --    0.54877   0.55130   0.55595   0.55670   0.56150
 Alpha virt. eigenvalues --    0.56313   0.56423   0.56465   0.56851   0.57093
 Alpha virt. eigenvalues --    0.57177   0.57253   0.57298   0.57540   0.57824
 Alpha virt. eigenvalues --    0.58290   0.58607   0.58749   0.59036   0.59347
 Alpha virt. eigenvalues --    0.60257   0.60714   0.60822   0.60929   0.61198
 Alpha virt. eigenvalues --    0.61709   0.61932   0.61986   0.63021   0.63097
 Alpha virt. eigenvalues --    0.63286   0.64110   0.64499   0.65542   0.66180
 Alpha virt. eigenvalues --    0.66311   0.66883   0.67379   0.67424   0.68539
 Alpha virt. eigenvalues --    0.68595   0.69489   0.69997   0.70899   0.71304
 Alpha virt. eigenvalues --    0.71915   0.73112   0.73525   0.73655   0.73856
 Alpha virt. eigenvalues --    0.73977   0.74293   0.75272   0.75771   0.76129
 Alpha virt. eigenvalues --    0.76662   0.76818   0.77305   0.77437   0.78131
 Alpha virt. eigenvalues --    0.78329   0.78473   0.78788   0.79120   0.79320
 Alpha virt. eigenvalues --    0.79350   0.79624   0.79995   0.80224   0.80523
 Alpha virt. eigenvalues --    0.80797   0.80844   0.81286   0.81560   0.81750
 Alpha virt. eigenvalues --    0.82168   0.82272   0.82574   0.82617   0.83073
 Alpha virt. eigenvalues --    0.84014   0.84802   0.84940   0.85813   0.85838
 Alpha virt. eigenvalues --    0.85995   0.86264   0.86747   0.86758   0.87053
 Alpha virt. eigenvalues --    0.87631   0.87989   0.88166   0.88596   0.89190
 Alpha virt. eigenvalues --    0.89469   0.90037   0.90159   0.90623   0.90876
 Alpha virt. eigenvalues --    0.91345   0.91767   0.92132   0.92181   0.92712
 Alpha virt. eigenvalues --    0.92769   0.92988   0.93446   0.94034   0.94234
 Alpha virt. eigenvalues --    0.94274   0.94745   0.95599   0.95943   0.96571
 Alpha virt. eigenvalues --    0.96689   0.97672   0.97732   0.98038   0.98210
 Alpha virt. eigenvalues --    0.98324   0.99268   0.99465   0.99724   0.99804
 Alpha virt. eigenvalues --    1.00318   1.01236   1.01277   1.02544   1.02920
 Alpha virt. eigenvalues --    1.03926   1.04516   1.04817   1.04957   1.05917
 Alpha virt. eigenvalues --    1.06457   1.07355   1.07918   1.08463   1.09069
 Alpha virt. eigenvalues --    1.09323   1.09499   1.10135   1.10198   1.10418
 Alpha virt. eigenvalues --    1.11297   1.11493   1.12122   1.12735   1.13348
 Alpha virt. eigenvalues --    1.13749   1.14143   1.14497   1.14936   1.16258
 Alpha virt. eigenvalues --    1.16808   1.16944   1.17525   1.18862   1.19096
 Alpha virt. eigenvalues --    1.19625   1.20310   1.20694   1.21066   1.21416
 Alpha virt. eigenvalues --    1.21697   1.23076   1.24174   1.24450   1.25007
 Alpha virt. eigenvalues --    1.25176   1.25910   1.26902   1.26998   1.27962
 Alpha virt. eigenvalues --    1.29058   1.29407   1.31097   1.31519   1.32548
 Alpha virt. eigenvalues --    1.33093   1.33181   1.35895   1.36817   1.37033
 Alpha virt. eigenvalues --    1.37141   1.37315   1.37688   1.39353   1.39630
 Alpha virt. eigenvalues --    1.39652   1.40076   1.40095   1.40278   1.40367
 Alpha virt. eigenvalues --    1.40473   1.40571   1.41085   1.41317   1.41428
 Alpha virt. eigenvalues --    1.41583   1.41596   1.42035   1.42145   1.42508
 Alpha virt. eigenvalues --    1.42736   1.43126   1.43253   1.43463   1.44446
 Alpha virt. eigenvalues --    1.44651   1.45123   1.45450   1.46564   1.46826
 Alpha virt. eigenvalues --    1.48879   1.48912   1.49238   1.50722   1.51396
 Alpha virt. eigenvalues --    1.54293   1.56450   1.57383   1.58775   1.60558
 Alpha virt. eigenvalues --    1.62201   1.63483   1.66329   1.66768   1.67317
 Alpha virt. eigenvalues --    1.68496   1.68707   1.70604   1.70655   1.70976
[...]
 0149,-0.00000807,0.00000747,-0.00000513,-0.00007979,0.00015041,0.00003
 423,0.00002177,-0.00010121,-0.00001812,-0.00003684,0.00007714,-0.00003
 262,0.00609982,0.02135591,0.00068639,-0.01684157,0.03625036,-0.0515235
 3,0.00344652,-0.03682412,-0.00544321,-0.00014335,0.00000851,-0.0000178
 3,0.00006166,0.00001815,0.00009446,0.00000349,0.00000445,-0.00001372,0
 .00000114,-0.00000136,0.00000012,0.00000726,-0.00000144,-0.00000175,0.
 00000051,-0.00000050,-0.00000069,-0.00000079,0.00000053,0.00000113,-0.
 00000049,0.00000124,0.00000051,0.00000168,0.00000045,-0.00000053,-0.00
 004669,-0.00001098,0.00002870,0.00016885,0.00007374,0.00000699,0.00001
 376,-0.00001310,0.00001897,0.00000920,0.00000799,0.00000092,-0.0000022
 1,-0.00000059,-0.00000027,0.00000160,-0.00000117,-0.00000106,-0.000002
 13,0.00000012,-0.00000059,-0.00000006,-0.00000057,-0.00000015,-0.00000
 118,-0.00000011,-0.00000022,-0.00000118,0.00000094,-0.00000352,-0.0000
 0078,-0.00000099,-0.00000161,-0.00000062,-0.00000010,-0.00000025,0.000
 00004,-0.00000117,-0.00000082,-0.00000149,-0.00000034,0.00000186,-0.00
 000269,-0.00000428,-0.00000347,-0.00000334,0.00001585,-0.00000484,-0.0
 0000582,0.00003075,-0.00001810,0.01050227,-0.03185607,0.05984489,0.000
 05688,0.00053717,0.00036324,-0.00029551,-0.00008445,-0.00032265,-0.000
 70599,-0.00085522,0.00003051,0.00003767,0.00008440,-0.00000225,0.00049
 030,0.00120341,0.00030039,0.00015737,-0.00146437,-0.00008980,-0.001777
 56,0.00484982,0.00300133,-0.00052527,-0.00025714,-0.00061945,0.0003335
 9,-0.00031069,-0.00013629,0.00005234,-0.00001900,-0.00004110,0.0000255
 8,-0.00002389,-0.00000338,-0.00001948,-0.00001352,0.00007415,0.0000391
 8,-0.00002824,-0.00004192,0.00003563,-0.00007575,0.00010853,0.00001316
 ,-0.00007057,-0.00002472,0.00000530,-0.00011343,-0.00008601,0.00004685
 ,0.00005180,0.00009090,0.00012013,0.00003369,0.00007093,0.00000474,-0.
 00003326,-0.00005029,0.00001099,0.00000966,0.00001153,0.00000082,-0.00
 000010,0.00000015,0.00000561,0.00001409,0.00000822,-0.00001411,-0.0000
 0983,0.00001466,-0.00021721,-0.00006939,0.00003514,-0.00051471,0.00061
 649,0.00018169,-0.00013483,0.00011867,-0.00001517,-0.00010158,-0.00010
 698,-0.00002075,0.00009310,0.00001385,0.00003695,-0.00000024,0.0000055
 2,0.00001713,0.00000902,-0.00001995,-0.00000721,-0.00000046,0.00000296
 ,-0.00000505,0.00001107,-0.00000286,-0.00000720,-0.00002995,0.00004022
 ,-0.00002475,0.00001953,-0.00002191,-0.00000004,0.00000924,-0.00000250
 ,0.00000584,0.00000316,-0.00000066,0.00000156,-0.00000172,0.00000601,-
 0.00000729,-0.00003027,0.00000577,-0.00001897,0.00002476,0.00001133,-0
 .00000429,0.00010266,-0.00006711,0.00006479,-0.00000846,0.00004139,-0.
 00005478,0.00000286,-0.00007985,0.00008377,0.00000830,0.00004418,-0.00
 006826,-0.02280877,-0.01288902,0.00352108,-0.24558499,0.02255346,-0.09
 682417,0.00962656,-0.00034131,-0.00342283,-0.00002243,0.00008138,-0.00
 004420,0.00007400,-0.00008064,-0.00000270,0.00000011,0.00000498,-0.000
 02022,-0.00000064,-0.00000576,-0.00000499,0.00001542,-0.00000292,-0.00
 000304,0.00001037,-0.00000116,-0.00000317,0.00000290,0.00000015,0.0000
 0018,-0.00000185,0.00000159,0.00000001,-0.00000508,0.00000789,0.000011
 50,-0.00008192,-0.00001363,-0.00000877,-0.00016740,0.00037299,0.000012
 72,0.00009435,-0.00007118,0.00007414,-0.00001093,0.00001388,-0.0000062
 6,0.00001340,0.00000768,-0.00001289,0.00002750,-0.00001673,0.00002101,
 -0.00000258,0.00000588,0.00000014,-0.00000055,0.00000208,-0.00000754,-
 0.00000027,0.00000022,-0.00001077,0.00000027,-0.00000073,0.00000472,0.
 00000651,0.00000396,0.00000614,-0.00000473,0.00000305,0.00000086,-0.00
 000533,-0.00000234,0.00000293,-0.00000231,-0.00000235,0.00000667,-0.00
 000545,0.00000717,-0.00000240,-0.00000554,0.00000480,-0.00000796,-0.00
 000355,0.00001358,0.00000029,-0.00597984,0.00179425,-0.00571653,0.2675
 7004,-0.00001787,0.00029136,0.00032230,-0.00029557,-0.00008485,-0.0004
 0118,-0.00018337,-0.00049249,-0.00007308,0.00003299,0.00011873,0.00001
 699,-0.00016698,-0.00023276,0.00011677,0.00079218,0.00074912,-0.001846
 11,-0.00074310,0.00114595,0.00212347,-0.00009870,-0.00041955,-0.000341
 00,-0.00001187,-0.00034891,-0.00004589,0.00005818,-0.00002172,-0.00005
 368,0.00002529,-0.00003790,-0.00000744,-0.00003978,-0.00000553,0.00010
 406,0.00009644,-0.00004740,-0.00003181,-0.00010080,0.00001044,0.000188
 74,-0.00000139,-0.00004881,-0.00004214,0.00002266,-0.00006372,-0.00004
 700,0.00005342,0.00003957,0.00010114,0.00018693,0.00021713,-0.00001366
 ,-0.00001229,-0.00003129,-0.00003572,0.00001878,0.00001510,0.00001414,
 -0.00000334,0.00000107,0.00000436,-0.00000008,0.00001406,0.00000796,-0
 .00002952,-0.00001398,0.00001094,-0.00006660,-0.00008718,-0.00039841,-
 0.00023045,0.00002754,-0.00007340,-0.00015441,-0.00007060,0.00043265,0
 .00002321,-0.00000943,0.00007578,0.00008657,0.00015529,0.00007697,-0.0
 0000161,0.00000386,0.00000979,0.00000943,-0.00001615,-0.00000052,0.000
 00043,0.00000119,-0.00000580,0.00000549,-0.00000071,-0.00000702,-0.000
 02127,0.00002341,-0.00001161,0.00001829,-0.00001948,0.00000073,0.00000
 040,-0.00000178,0.00000983,-0.00000242,0.00000310,-0.00000278,0.000008
 02,0.00000240,-0.00000337,-0.00002726,0.00000734,-0.00001418,0.0000355
 6,0.00002822,-0.00000465,0.00008180,-0.00004326,0.00006833,-0.00003838
 ,0.00008331,-0.00001881,0.00003503,-0.00010998,0.00002119,-0.00002596,
 0.00005529,-0.00004175,-0.02449868,0.00026763,-0.00310352,0.03049821,-
 0.05796487,0.01415056,-0.01648360,0.00120571,-0.01600315,-0.00002996,0
 .00004367,-0.00001502,0.00005224,-0.00006260,-0.00000385,0.00000255,0.
 00000861,-0.00002034,0.00000241,-0.00000421,0.00000138,0.00002921,0.00
 000569,-0.00000651,0.00000170,-0.00000019,-0.00000346,-0.00000110,0.00
 000231,0.00000360,-0.00000380,0.00000388,0.00000232,-0.00000163,0.0000
 0300,0.00000677,0.00000441,-0.00002357,-0.00000089,0.00068163,-0.00001
 350,-0.00001907,0.00002501,-0.00001777,0.00001502,0.00001732,0.0000368
 0,-0.00001012,-0.00002216,-0.00000010,-0.00001970,0.00001966,-0.000015
 18,0.00001285,-0.00000351,0.00000260,-0.00000218,0.00000014,0.00000015
 ,-0.00000390,-0.00000075,0.00000139,-0.00000528,-0.00000109,0.00000097
 ,0.00000018,0.00000358,-0.00000004,0.00000134,-0.00000295,0.00000136,0
 .00000186,-0.00000204,-0.00000166,0.00000097,-0.00000260,-0.00000151,0
 .00000340,-0.00000449,0.00000392,0.00000031,-0.00000673,0.00000789,-0.
 00001115,0.00000427,0.00002494,-0.00001457,0.02583195,-0.00026470,0.01
 213499,-0.01537745,0.05599332,-0.00000806,-0.00004720,0.00016286,-0.00
 024533,0.00008213,-0.00026197,0.00048954,-0.00005844,0.00053635,0.0000
 1434,0.00008080,-0.00000647,-0.00121896,-0.00113228,-0.00043027,0.0014
 3201,0.00776246,-0.00391864,0.00152514,-0.00596262,-0.00236868,0.00097
 561,0.00181819,0.00078340,-0.00055772,-0.00065029,-0.00096773,0.000071
 42,-0.00004135,-0.00007801,0.00004499,-0.00003740,-0.00000962,-0.00004
 502,0.00001454,0.00010503,0.00003231,0.00009166,-0.00001587,-0.0002475
 9,0.00009499,0.00031193,-0.00001283,-0.00002410,-0.00003727,0.00001908
 ,0.00000721,0.00001070,0.00002379,0.00000476,0.00006873,0.00004886,-0.
 00004536,0.00004700,-0.00000479,-0.00002673,-0.00003338,0.00000663,0.0
 0001156,0.00000744,-0.00000042,-0.00000065,-0.00000020,0.00000221,0.00
 000938,0.00000599,-0.00000614,-0.00000452,0.00001356,-0.00000866,0.000
 07944,-0.00003551,-0.00051643,-0.00014635,-0.00012729,-0.00006008,0.00
 005439,0.00022987,0.00010115,0.00009925,0.00001173,0.00006312,0.000073
 84,-0.00010248,-0.00001348,0.00000556,0.00002165,-0.00000021,-0.000014
 15,0.00000039,0.00000152,-0.00000219,0.00000484,-0.00000255,0.00000235
 ,0.00000164,-0.00000271,-0.00000110,0.00000410,0.00000782,-0.00002073,
 0.00000554,-0.00000085,-0.00000428,0.00000555,-0.00000403,0.00000454,-
 0.00000330,0.00000623,0.00000694,-0.00000277,-0.00001469,0.00000414,-0
 .00000927,0.00001683,0.00000682,-0.00000598,0.00003719,-0.00001818,0.0
 0002864,0.00001800,-0.00001304,-0.00011283,0.00002014,-0.00010973,0.00
 012648,0.00001198,0.00004003,-0.00008789,0.02297581,0.00939803,0.00956
 666,-0.09659325,0.01071509,-0.08755176,-0.02308780,-0.01571395,-0.0241
 5082,0.00006729,-0.00014391,0.00009791,-0.00004760,0.00011212,0.000023
 68,-0.00000053,0.00000522,-0.00002764,0.00000315,-0.00000638,-0.000003
 88,0.00001370,-0.00000256,0.00000059,0.00000692,-0.00000176,-0.0000024
 6,0.00000072,0.00000057,0.00000154,-0.00000116,0.00000251,0.00000037,-
 0.00000020,0.00000513,0.00000451,-0.00006705,-0.00004876,-0.00006118,0
 .00041568,0.00015513,0.00018224,-0.00004201,0.00000917,-0.00003893,0.0
 0001553,0.00002742,0.00000292,-0.00000579,0.00000791,-0.00001918,0.000
 01645,0.00000483,-0.00000411,0.00000483,0.00000092,0.00000270,0.000000
 59,0.00000098,-0.00000217,0.00000156,-0.00000052,-0.00000117,-0.000001
 50,0.00000369,-0.00000267,0.00000303,-0.00000022,0.00000079,-0.0000030
 0,0.00000224,0.00000251,-0.00000247,-0.00000166,0.00000101,-0.00000122
 ,-0.00000299,0.00000175,-0.00000324,0.00000610,0.00000069,-0.00001028,
 0.00001107,-0.00002007,-0.00000261,0.00001388,-0.00000495,-0.00531948,
 0.00070730,0.00364078,0.09964454,-0.00725045,0.10446929,-0.05793851,0.
 02945722,0.00294512,-0.04669072,-0.02854600,0.00154242,0.00344094,-0.0
 0082843,-0.00095880,0.00408619,0.00214550,-0.00113646,0.00044941,0.000
 68806,-0.00018966,0.00013734,-0.00000458,-0.00042138,0.00046165,0.0007
 4417,0.00022411,-0.00068783,-0.00055965,-0.00037506,-0.00030391,-0.000
 48840,0.00084374,-0.00039196,0.00051028,0.00102713,-0.00087350,0.00048
 255,-0.00046558,0.00070031,-0.00070897,0.00010459,0.00009371,-0.000071
 27,-0.00036121,0.00059133,-0.00047713,-0.00027943,-0.00576924,0.005173
 48,-0.00082609,0.00051840,0.00102279,-0.00000967,-0.00512808,-0.007024
 90,-0.00137218,0.00089070,-0.00096581,0.00002958,-0.00157163,0.0009672
 5,0.00217639,-0.00045781,-0.00024321,-0.00089005,-0.00000018,0.0000930
 9,0.00028738,-0.00051331,0.00032071,-0.00015675,-0.00175977,-0.0004939
 5,0.00006159,0.00011590,-0.00018669,-0.00047596,-0.00024876,-0.0000479
 7,0.00039201,0.00014348,0.00018133,-0.00008088,-0.00021039,0.00006680,
 -0.00021727,-0.00077623,-0.00047576,-0.00025645,0.00006408,0.00017883,
 -0.00039202,-0.00024932,-0.00002286,0.00040038,0.00016998,-0.00014970,
 -0.00008500,-0.00016442,-0.00007421,-0.00022785,-0.00084641,0.00034794
 ,-0.00031040,-0.00121844,-0.00108981,0.00185554,-0.00041445,0.00019348
 ,-0.00078082,0.00001150,-0.00010221,0.00025355,-0.00036295,-0.00038369
 ,-0.00013825,-0.00182452,0.00015036,0.00016442,-0.03007909,-0.02671274
 ,-0.01074066,-0.04015343,0.02975008,-0.01126225,-0.00020599,0.00004235
 ,0.00010519,0.00040973,-0.00013110,-0.00030189,-0.00059502,0.00081494,
 -0.00019929,-0.00041630,-0.00083145,-0.00024527,0.00035274,0.00019584,
 -0.00028348,-0.00018289,-0.00008003,0.00011796,-0.00006757,-0.00002442
 ,-0.00006142,0.00016397,-0.00017466,0.00002426,0.00017760,0.00023464,0
 .00003596,-0.00008964,0.00001689,-0.00008009,0.00004315,-0.00017248,0.
 00005213,-0.00028332,0.00014661,0.00009863,-0.00000886,-0.00003379,0.0
 0005949,-0.00003525,0.00001369,0.00008965,0.00055785,-0.00034914,0.000
 55302,0.00004504,-0.00005687,-0.00002370,-0.00002605,0.00002640,-0.000
 05439,0.00006266,-0.00001412,0.00001359,-0.00001221,-0.00004139,-0.000
 05059,0.00036430,-0.00052067,-0.00016559,0.00003856,0.00008043,-0.0000
 1894,-0.00001051,-0.00002339,-0.00005587,0.00005839,0.00002227,0.00001
 886,-0.00001911,0.00004059,-0.00004293,0.00016214,0.00051625,-0.000188
 40,0.00000884,0.00014170,0.00005338,-0.00021739,-0.00018184,0.00007107
 ,-0.00000264,0.00002913,0.00005104,-0.00002521,-0.00001409,0.00007937,
 0.00041154,0.00029979,0.00061555,-0.00010282,0.00003558,0.00002044,-0.
 00005775,0.00003177,0.00004273,-0.00004740,-0.00004443,0.00003985,-0.0
 0008977,-0.00004985,0.00002006,0.18639912,0.03335521,-0.05250560,0.000
 49587,-0.03225337,-0.06347593,-0.00216119,0.00555471,-0.00267568,-0.00
 162794,-0.00447041,-0.00363895,0.00124153,0.00026514,-0.00049293,-0.00
 033359,-0.00031755,0.00062010,0.00033813,0.00060315,0.00045123,-0.0004
 1891,-0.00053346,-0.00030285,-0.00070284,0.00005565,-0.00080336,0.0009
 0769,0.00001914,-0.00070622,-0.00081797,0.00047067,-0.00014813,0.00062
 462,-0.00057270,0.00021922,0.00044613,0.00022863,0.00068333,-0.0003433
 8,-0.00013123,-0.00064345,0.00029185,-0.00361038,0.00546787,-0.0011404
 8,0.00126289,0.00042870,0.00046347,0.00155006,0.00463598,0.00111980,-0
 .00087974,0.00037514,-0.00057952,0.00089541,-0.00110951,-0.00128441,0.
 00040144,0.00009987,0.00046036,-0.00003139,-0.00001922,-0.00013654,0.0
 0044338,0.00002127,0.00019864,-0.00023602,-0.00000191,0.00048076,-0.00
 010509,0.00021646,0.00044120,-0.00001562,0.00003860,0.00008118,-0.0000
 0284,0.00002757,0.00001973,0.00017535,-0.00005769,-0.00006254,-0.00001
 205,-0.00000437,-0.00043946,0.00009122,0.00030919,-0.00037367,-0.00003
 178,0.00000018,-0.00000450,0.00003768,-0.00001107,-0.00003588,-0.00018
 964,-0.00010184,0.00000995,-0.00005711,-0.00003108,0.00042224,-0.00092
 170,-0.00158344,0.00162558,-0.00051386,0.00009333,-0.00061524,0.000035
 54,-0.00003638,0.00017808,-0.00050393,-0.00011385,-0.00022864,-0.00018
 222,0.00011871,-0.00045939,-0.02572824,-0.05280472,-0.01374585,0.02865
 488,-0.04394234,0.00969540,0.00005743,-0.00001875,0.00009564,-0.000131
 38,0.00009190,0.00003749,0.00016161,-0.00027684,-0.00002191,-0.0001655
 9,-0.00041013,-0.00002786,0.00016729,0.00013810,-0.00006579,-0.0000744
 5,-0.00002221,-0.00008276,-0.00010601,-0.00002190,-0.00011446,0.000304
 68,-0.00015790,-0.00000561,-0.00025438,-0.00018009,-0.00000835,0.00009
 617,-0.00000839,0.00010531,-0.00004858,0.00016247,-0.00003249,0.000179
 80,-0.00004654,-0.00009388,0.00006412,0.00000784,-0.00005131,0.0000439
 1,-0.00004793,-0.00004552,-0.00048540,0.00048423,0.00032168,0.00004843
 ,-0.00008453,0.00000103,0.00005939,-0.00000585,0.00000090,-0.00000237,
 0.00000862,0.00002616,0.00000162,-0.00000186,0.00002684,-0.00060960,0.
 00025571,-0.00029773,-0.00001649,-0.00007700,-0.00001011,-0.00006017,-
 0.00003032,0.00000151,0.00000943,0.00001239,-0.00002119,-0.00000519,0.
 00000789,-0.00003298,0.00057097,0.00043024,0.00026938,0.00001520,0.000
 19387,0.00005117,-0.00021589,-0.00011995,0.00010804,-0.00006663,-0.000
 00240,0.00006168,-0.00003862,-0.00006027,0.00005928,0.00048104,0.00066
 108,-0.00016465,0.00002379,-0.00001871,0.00001199,0.00001432,0.0000076
 6,-0.00000219,-0.00002352,0.00000055,0.00000721,-0.00003357,-0.0000299
 5,-0.00001044,-0.00276114,0.21056270,-0.00067840,0.00274117,-0.0206921
 8,-0.00182945,-0.00503813,-0.02097944,0.00372608,-0.00415996,0.0001873
 2,0.00265783,0.00453526,0.00050845,0.00114833,0.00026772,-0.00059378,-
 0.00016319,0.00002732,-0.00050587,0.00022479,0.00058891,0.00038268,-0.
 00070910,0.00004034,-0.00019949,0.00004833,-0.00073893,0.00067073,-0.0
 0007875,0.00065707,0.00066159,-0.00066211,-0.00016606,-0.00016869,0.00
 029333,-0.00054495,0.00037502,-0.00014607,0.00001010,-0.00052518,0.001
 16599,-0.00005823,-0.00058556,0.00279482,-0.00191896,0.00185493,-0.006
 25754,0.00464192,0.00267063,0.00253056,0.00257766,0.00204388,-0.005374
 40,-0.00580965,0.00235110,0.00037006,-0.00067848,-0.00099293,0.0002876
 2,0.00013879,0.00018853,0.00002700,0.00006177,0.00010309,-0.00018415,0
 .00003833,0.00002373,0.00139825,0.00067853,0.00007991,-0.00034919,0.00
 038142,-0.00234453,0.00003767,-0.00074047,-0.00008784,-0.00011735,-0.0
 0025778,0.00002141,-0.00009515,0.00005770,0.00014881,-0.00121960,-0.00
 141595,-0.00067295,-0.00028364,-0.00029307,-0.00238490,-0.00009554,0.0
 0074030,-0.00004976,-0.00016070,0.00023198,0.00003359,-0.00009200,-0.0
 0008770,0.00014697,-0.00145633,0.00120770,-0.00057512,0.00019321,0.000
 70696,-0.00087271,0.00028299,-0.00009133,0.00015207,0.00004011,-0.0000
 6319,0.00010841,-0.00020055,-0.00007646,0.00000867,0.00149848,-0.00041
 578,0.00002304,-0.00886697,-0.01218407,-0.01210381,-0.00919570,0.00848
 875,-0.01088194,-0.00028355,0.00023544,0.00012052,0.00024215,-0.000213
 73,-0.00033559,-0.00052539,0.00078154,-0.00014958,-0.00038594,-0.00087
 311,-0.00019595,0.00020603,0.00027900,-0.00032484,-0.00023988,-0.00028
 985,0.00010093,-0.00002980,-0.00004438,-0.00008386,0.00022802,-0.00014
 335,0.00017063,0.00018498,0.00016140,0.00017916,-0.00003195,0.00004244
 ,-0.00007532,0.00010106,0.00000392,0.00001464,0.00010848,-0.00002436,-
 0.00006349,0.00002017,-0.00001397,-0.00000564,-0.00001737,0.00000976,-
 0.00002849,-0.00024482,0.00027007,-0.00034066,-0.00017046,-0.00000878,
 0.00001174,0.00002936,-0.00015431,-0.00024440,0.00004009,-0.00003048,-
 0.00002650,0.00000218,0.00002221,-0.00003669,0.00041088,-0.00014071,0.
 00023227,-0.00017073,-0.00002729,0.00001091,-0.00000312,0.00016894,-0.
 00023535,0.00003419,0.00003916,-0.00002590,0.00000568,-0.00001924,-0.0
 0003948,0.00041016,0.00022226,0.00025634,0.00010113,0.00002337,0.00001
 749,0.00009136,0.00004117,-0.00005601,0.00001368,0.00001739,-0.0000016
 1,-0.00001754,-0.00001438,-0.00002621,-0.00017081,-0.00025527,-0.00036
 850,-0.00006051,0.00001459,0.00001483,-0.00002555,0.00005980,0.0000501
 4,-0.00001524,-0.00006598,0.00004697,-0.00005831,-0.00002748,0.0000130
 1,0.01971182,0.00587364,0.06389662\\0.00001441,0.00000144,-0.00000217,
 -0.00001133,0.00000733,0.00000002,0.00000133,0.00000036,0.00000556,0.0
 0000648,0.00000063,-0.00000478,-0.00000831,-0.00000194,-0.00000091,0.0
 0000436,0.00000007,-0.00000330,0.00000304,0.00000259,0.00000282,0.0000
 0168,0.00000411,-0.00000050,-0.00000590,0.00000114,0.00000150,0.000002
 54,-0.00000046,0.00000344,-0.00000435,0.00000040,-0.00000049,-0.000003
 92,0.00000337,-0.00000372,-0.00000666,-0.00000146,0.00000238,0.0000030
 9,-0.00001008,-0.00000123,-0.00000688,-0.00000135,-0.00000108,-0.00000
 310,-0.00000165,-0.00000653,0.00000388,-0.00000087,0.00000066,0.000001
 13,0.00000087,0.00000677,-0.00000636,0.00000008,0.00000011,0.00000214,
 -0.00000358,-0.00000541,0.00000255,0.00000358,0.00000310,-0.00000766,-
 0.00000111,-0.00000007,0.00000189,0.00000093,-0.00000574,-0.00000102,-
 0.00000257,-0.00000601,-0.00000043,-0.00000145,0.00000319,0.00000263,0
 .00000331,-0.00000213,0.00000251,0.00000020,-0.00000134,-0.00000242,0.
 00000017,-0.00000457,0.00000840,0.00000372,0.00000418,-0.00000370,-0.0
 0000407,-0.00000269,-0.00000188,0.00000131,0.00000117,-0.00000145,0.00
 000098,0.00000039,0.00000285,0.00000209,0.00000554,0.00000397,-0.00000
 088,-0.00000070,-0.00000180,-0.00000429,0.00000734,-0.00000344,0.00000
 396,-0.00000293,0.00000705,0.00000065,0.00000045,-0.00000392,-0.000004
 62,0.00000152,-0.00000436,0.00000204,0.00000005,0.00000580,0.00000037,
 0.00000265,0.00000441,0.00000064,0.00000064,-0.00000588,0.00000515,0.0
 0000280,0.00000833,-0.00000461,-0.00000023,-0.00000532,-0.00000671,-0.
 00000007,0.00000652,0.00000345,-0.00000278,-0.00000112,-0.00000281,0.0
 0000065,0.00000008,0.00000049,0.00000055,0.00000351,0.00000098,0.00000
 160,-0.00000160,-0.00000225,-0.00000002,0.00000064,0.00000108,-0.00000
 005,-0.00000156,0.00000361,-0.00000005,-0.00000034,0.00000062,-0.00000
 056,-0.00000051,-0.00000059,-0.00000182,0.00000087,-0.00000024,-0.0000
 0121,-0.00000062,0.00000141,-0.00000180,0.00000364,-0.00000140,-0.0000
 0021,-0.00000079,0.00000123,-0.00000090,0.00000109,0.00000022,0.,0.000
 00147,-0.00000075,-0.00000035,0.00000015,-0.00000085,0.00000140,-0.000
 00137,-0.00000073,0.00000021,-0.00000059,-0.00000012,0.00000092,-0.000
 00070,0.00000026,0.00000014,-0.00000209,-0.00000128,0.00000016,-0.0000
 0025,-0.00000045,-0.00000138,-0.00000106,-0.00000169,0.00000243,-0.000
 00006,0.00000042,0.00000083,0.00000068,-0.00000106,0.00000138,-0.00000
 112,-0.00000025,0.00000143,0.00000042,0.00000090,0.00000110,0.00000046
 ,0.00000013,-0.00000017,-0.00000059,-0.00000006,-0.00000064,0.00000041
 ,-0.00000004,0.00000017,0.00000217,0.00000077,0.00000106,-0.00000213,-
 0.00000077,-0.00000178\\\@


 ASKING DUMB QUESTIONS IS EASIER THAN CORECTING DUMB MISTAKES.
 Job cpu time:       0 days 10 hours  6 minutes  4.8 seconds.
 File lengths (MBytes):  RWF=   5539 Int=      0 D2E=      0 Chk=    152 Scr=      1
 Normal termination of Gaussian 09 at Wed Nov 17 03:49:29 2021.
