 Entering Gaussian System, Link 0=g09
 Input=RR_DIOP_1_SPE_NoPd.com
 Output=RR_DIOP_1_SPE_NoPd.log
 Initial command:
 /gstore/apps/gaussian/g09.e01-foss-2017a/g09/l1.exe "/local/22791310/Gau-7043.inp" -scrdir="/local/22791310/"
 Entering Link 1 = /gstore/apps/gaussian/g09.e01-foss-2017a/g09/l1.exe PID=      7044.
  
 Copyright (c) 1988,1990,1992,1993,1995,1998,2003,2009,2015,
            Gaussian, Inc.  All Rights Reserved.
  
 This is part of the Gaussian(R) 09 program.  It is based on
 the Gaussian(R) 03 system (copyright 2003, Gaussian, Inc.),
 the Gaussian(R) 98 system (copyright 1998, Gaussian, Inc.),
 the Gaussian(R) 94 system (copyright 1995, Gaussian, Inc.),
 the Gaussian 92(TM) system (copyright 1992, Gaussian, Inc.),
 the Gaussian 90(TM) system (copyright 1990, Gaussian, Inc.),
 the Gaussian 88(TM) system (copyright 1988, Gaussian, Inc.),
 the Gaussian 86(TM) system (copyright 1986, Carnegie Mellon
 University), and the Gaussian 82(TM) system (copyright 1983,
 Carnegie Mellon University). Gaussian is a federally registered
 trademark of Gaussian, Inc.
  
 This software contains proprietary and confidential information,
 including trade secrets, belonging to Gaussian, Inc.
  
 This software is provided under written license and may be
 used, copied, transmitted, or stored only in accord with that
 written license.
  
 The following legend is applicable only to US Government
 contracts under FAR:
  
                    RESTRICTED RIGHTS LEGEND
  
 Use, reproduction and disclosure by the US Government is
 subject to restrictions as set forth in subparagraphs (a)
 and (c) of the Commercial Computer Software - Restricted
 Rights clause in FAR 52.227-19.
  
 Gaussian, Inc.
 340 Quinnipiac St., Bldg. 40, Wallingford CT 06492
  
  
 ---------------------------------------------------------------
 Warning -- This program may not be used in any manner that
 competes with the business of Gaussian, Inc. or will provide
 assistance to any competitor of Gaussian, Inc.  The licensee
 of this program is prohibited from giving any competitor of
 Gaussian, Inc. access to this program.  By using this program,
 the user acknowledges that Gaussian, Inc. is engaged in the
 business of creating and licensing software in the field of
 computational chemistry and represents and warrants to the
 licensee that it is not a competitor of Gaussian, Inc. and that
 it will not use this program in any manner prohibited above.
 ---------------------------------------------------------------
  

 Cite this work as:
 Gaussian 09, Revision E.01,
 M. J. Frisch, G. W. Trucks, H. B. Schlegel, G. E. Scuseria, 
 M. A. Robb, J. R. Cheeseman, G. Scalmani, V. Barone, B. Mennucci, 
 G. A. Petersson, H. Nakatsuji, M. Caricato, X. Li, H. P. Hratchian, 
 A. F. Izmaylov, J. Bloino, G. Zheng, J. L. Sonnenberg, M. Hada, 
 M. Ehara, K. Toyota, R. Fukuda, J. Hasegawa, M. Ishida, T. Nakajima, 
 Y. Honda, O. Kitao, H. Nakai, T. Vreven, J. A. Montgomery, Jr., 
 J. E. Peralta, F. Ogliaro, M. Bearpark, J. J. Heyd, E. Brothers, 
 K. N. Kudin, V. N. Staroverov, T. Keith, R. Kobayashi, J. Normand, 
 K. Raghavachari, A. Rendell, J. C. Burant, S. S. Iyengar, J. Tomasi, 
 M. Cossi, N. Rega, J. M. Millam, M. Klene, J. E. Knox, J. B. Cross, 
 V. Bakken, C. Adamo, J. Jaramillo, R. Gomperts, R. E. Stratmann, 
 O. Yazyev, A. J. Austin, R. Cammi, C. Pomelli, J. W. Ochterski, 
 R. L. Martin, K. Morokuma, V. G. Zakrzewski, G. A. Voth, 
 P. Salvador, J. J. Dannenberg, S. Dapprich, A. D. Daniels, 
 O. Farkas, J. B. Foresman, J. V. Ortiz, J. Cioslowski, 
 and D. J. Fox, Gaussian, Inc., Wallingford CT, 2013.
 
 ******************************************
 Gaussian 09:  ES64L-G09RevE.01 30-Nov-2015
                 4-Dec-2021 
 ******************************************
 %nprocs=14
 Will use up to   14 processors via shared memory.
 %mem=128GB
 %chk=RR_DIOP_1_SPE_NoPd.chk
 ----------------------------------------------------------------------
 # PBE1PBE/def2TZVP int=(grid=ultrafine) empiricaldispersion=GD3BJ nmr=
 giao
 ----------------------------------------------------------------------
 1/38=1/1;
 2/12=2,17=6,18=5,40=1/2;
 3/5=44,7=101,11=2,16=1,25=1,30=1,74=-13,75=-5,124=41/1,2,8,3;
 4//1;
 5/5=2,38=5/2;
 8/6=1,10=90,11=11/1;
 10/13=100,45=16/2;
 6/7=2,8=2,9=2,10=2,28=1/1;
 99/9=1/99;
 ---------------
 RR_DIOP_1 title
 ---------------
 Symbolic Z-matrix:
 Charge =  0 Multiplicity = 1
 P                     1.27761   4.5977   -0.06968 
 P                    -0.40512   3.04841  -2.66949 
 O                    -0.62521   1.28593   1.42087 
 O                    -0.40974   0.13763  -0.57824 
 C                     0.71935   3.23995   1.07778 
 C                    -0.1637    2.19431   0.41773 
 C                     0.50344   1.2369   -0.58059 
 C                     0.72212   1.70687  -2.02124 
 C                    -0.99946   0.0664    0.74114 
 C                    -0.40261  -1.10044   1.52559 
 C                    -2.5145   -0.01641   0.5752 
 C                     1.83059   5.85128   1.15118 
 C                     0.86628   6.44364   1.99206 
 C                     1.26252   7.35604   2.97467 
 C                     2.61592   7.70046   3.11374 
 C                     3.57263   7.12917   2.26575 
 C                     3.18431   6.20553   1.28437 
 C                     2.83496   4.02951  -0.86322 
 C                     3.15725   4.59826  -2.11297 
 C                     4.33282   4.22269  -2.77728 
 C                     5.18891   3.2691   -2.20643 
 C                     4.87732   2.70535  -0.96012 
 C                     3.71059   3.08956  -0.28454 
 C                    -2.07899   2.29797  -2.58217 
 C                    -3.13413   2.98972  -1.95973 
 C                    -4.40383   2.4009   -1.87601 
 C                    -4.62741   1.12767  -2.41891 
 C                    -3.57759   0.4379   -3.04438 
 C                    -2.3057    1.01704  -3.12302 
 C                     0.04383   3.02669  -4.44915 
 C                    -0.95951   3.12984  -5.43258 
 C                    -0.61173   3.13806  -6.78865 
 C                     0.73303   3.05303  -7.17649 
 C                     1.73467   2.95909  -6.2005 
 C                     1.39462   2.94659  -4.84166 
 H                     1.58427   2.76909   1.57712 
 H                     0.13853   3.74872   1.86638 
 H                    -1.02286   2.70071  -0.07076 
 H                     1.48569   0.92038  -0.15962 
 H                     0.64431   0.83142  -2.68802 
 H                     1.74724   2.09596  -2.12126 
 H                     0.69539  -1.01206   1.55316 
 H                    -0.78151  -1.09743   2.56072 
 H                    -0.67406  -2.05705   1.05078 
 H                    -2.99966  -0.11093   1.56038 
 H                    -2.89092   0.88731   0.07133 
 H                    -2.7824   -0.89066  -0.0401 
 H                    -0.19533   6.21716   1.85459 
 H                     0.50791   7.81609   3.6203 
 H                     2.92141   8.42259   3.87773 
 H                     4.62862   7.40118   2.3631 
 H                     3.93739   5.76435   0.6255 
 H                     2.4671    5.32246  -2.56292 
 H                     4.57162   4.66966  -3.7477 
 H                     6.10044   2.96563  -2.73107 
 H                     5.54581   1.96467  -0.50951 
 H                     3.48915   2.65203   0.69378 
 H                    -2.95897   3.99895  -1.57437 
 H                    -5.2213    2.94731  -1.39511 
 H                    -5.62123   0.67218  -2.35842 
 H                    -3.74847  -0.5557   -3.47124 
 H                    -1.49312   0.47321  -3.61487 
 H                    -2.00648   3.21416  -5.13213 
 H                    -1.39806   3.22095  -7.5457 
 H                     1.00046   3.06486  -8.23802 
 H                     2.78761   2.8965   -6.49493 
 H                     2.19115   2.88743  -4.09422 
 
 Stoichiometry    C31H32O2P2
 Framework group  C1[X(C31H32O2P2)]
 Deg. of freedom   195
 Full point group                 C1      NOp   1
 Largest Abelian subgroup         C1      NOp   1
 Largest concise Abelian subgroup C1      NOp   1
                         Standard orientation:                         
 ---------------------------------------------------------------------
 Center     Atomic      Atomic             Coordinates (Angstroms)
 Number     Number       Type             X           Y           Z
 ---------------------------------------------------------------------
      1         15           0       -2.031850   -0.126021   -0.642552
      2         15           0        1.338064    0.669892   -0.674977
      3          8           0        0.038343   -3.220667    1.074330
      4          8           0        1.674125   -1.803395    1.897152
      5          6           0       -1.631201   -1.710887    0.251584
      6          6           0       -0.147571   -1.924079    0.500992
      7          6           0        0.527473   -1.025448    1.547480
      8          6           0        0.978093    0.378475    1.135024
      9          6           0        1.311345   -3.197245    1.758650
     10          6           0        1.107351   -3.830430    3.133630
     11          6           0        2.387680   -3.882284    0.920828
     12          6           0       -3.747120   -0.482922   -1.188646
     13          6           0       -3.953398   -1.509036   -2.133330
     14          6           0       -5.252492   -1.847953   -2.523824
     15          6           0       -6.352301   -1.155807   -1.993712
     16          6           0       -6.148395   -0.122285   -1.071213
     17          6           0       -4.848937    0.216777   -0.666918
     18          6           0       -2.232301    1.180231    0.634711
     19          6           0       -2.008846    2.511193    0.225019
     20          6           0       -2.150617    3.564272    1.138943
     21          6           0       -2.504191    3.297141    2.470001
     22          6           0       -2.734921    1.975933    2.881550
     23          6           0       -2.609733    0.920742    1.967123
     24          6           0        2.720240   -0.482718   -1.040638
     25          6           0        2.643970   -1.353575   -2.142929
     26          6           0        3.692670   -2.247260   -2.402589
     27          6           0        4.821740   -2.269468   -1.571601
     28          6           0        4.902008   -1.398424   -0.474355
     29          6           0        3.854147   -0.510297   -0.205057
     30          6           0        2.104070    2.336096   -0.596049
     31          6           0        3.239477    2.629789   -1.376484
     32          6           0        3.806485    3.909063   -1.332916
     33          6           0        3.245583    4.906225   -0.522316
     34          6           0        2.110658    4.620124    0.248890
     35          6           0        1.539534    3.341529    0.213587
     36          1           0       -2.205118   -1.785735    1.191870
     37          1           0       -1.999728   -2.515662   -0.407669
     38          1           0        0.397624   -1.845391   -0.463266
     39          1           0       -0.155464   -0.933823    2.423500
     40          1           0        1.877678    0.639941    1.717635
     41          1           0        0.196033    1.102940    1.410353
     42          1           0        0.365973   -3.251531    3.707575
     43          1           0        0.739682   -4.864087    3.026611
     44          1           0        2.058375   -3.847533    3.689936
     45          1           0        2.166433   -4.957761    0.824409
     46          1           0        2.432511   -3.430404   -0.082207
     47          1           0        3.374242   -3.761995    1.397165
     48          1           0       -3.097447   -2.017291   -2.587446
     49          1           0       -5.404873   -2.641861   -3.261660
     50          1           0       -7.367520   -1.417259   -2.309066
     51          1           0       -7.001786    0.427645   -0.661485
     52          1           0       -4.697964    1.025653    0.053373
     53          1           0       -1.706100    2.706276   -0.811082
     54          1           0       -1.972869    4.593157    0.809835
     55          1           0       -2.602078    4.118089    3.187423
     56          1           0       -3.015923    1.764489    3.918296
     57          1           0       -2.807809   -0.102860    2.299688
     58          1           0        1.776357   -1.300769   -2.807894
     59          1           0        3.628779   -2.918064   -3.265154
     60          1           0        5.642629   -2.963454   -1.779741
     61          1           0        5.782741   -1.411291    0.175881
     62          1           0        3.926033    0.167463    0.651341
     63          1           0        3.667413    1.859537   -2.022312
     64          1           0        4.687301    4.128753   -1.944653
     65          1           0        3.689547    5.906565   -0.495353
     66          1           0        1.664000    5.394506    0.881428
     67          1           0        0.645390    3.141339    0.811137
 ---------------------------------------------------------------------
 Rotational constants (GHZ):      0.1282868      0.0862403      0.0670979
 Standard basis: def2TZVP (5D, 7F)
 There are  1464 symmetry adapted cartesian basis functions of A   symmetry.
 There are  1289 symmetry adapted basis functions of A   symmetry.
  1289 basis functions,  2077 primitive gaussians,  1464 cartesian basis functions
   132 alpha electrons      132 beta electrons
       nuclear repulsion energy      4121.3454244127 Hartrees.
 NAtoms=   67 NActive=   67 NUniq=   67 SFac= 1.00D+00 NAtFMM=   60 NAOKFM=T Big=T
 Integral buffers will be    131072 words long.
 Raffenetti 2 integral format.
 Two-electron integral symmetry is turned on.
 Nuclear repulsion after empirical dispersion term =     4121.2469911213 Hartrees.
 One-electron integrals computed using PRISM.
   1 Symmetry operations used in ECPInt.
 ECPInt:  NShTT=  133903 NPrTT=  411765 LenC2=  106495 LenP2D=  218914.
 LDataN:  DoStor=T MaxTD1= 6 Len=  172
 NBasis=  1289 RedAO= T EigKep=  6.86D-06  NBF=  1289
 NBsUse=  1289 1.00D-06 EigRej= -1.00D+00 NBFU=  1289
 ExpMin= 9.04D-02 ExpMax= 5.24D+04 ExpMxC= 1.79D+03 IAcc=3 IRadAn=         5 AccDes= 0.00D+00
 Harris functional with IExCor= 1009 and IRadAn=       5 diagonalized for initial guess.
 HarFok:  IExCor= 1009 AccDes= 0.00D+00 IRadAn=         5 IDoV= 1 UseB2=F ITyADJ=14
 ICtDFT=  3500011 ScaDFX=  1.000000  1.000000  1.000000  1.000000
 FoFCou: FMM=F IPFlag=           0 FMFlag=      100000 FMFlg1=        2001
         NFxFlg=           0 DoJE=T BraDBF=F KetDBF=T FulRan=T
         wScrn=  0.000000 ICntrl=     500 IOpCl=  0 I1Cent=   200000004 NGrid=           0
         NMat0=    1 NMatS0=      1 NMatT0=    0 NMatD0=    1 NMtDS0=    0 NMtDT0=    0
 Petite list used in FoFCou.
 Requested convergence on RMS density matrix=1.00D-08 within 128 cycles.
 Requested convergence on MAX density matrix=1.00D-06.
 Requested convergence on             energy=1.00D-06.
 No special actions if energy rises.
 Integral accuracy reduced to 1.0D-05 until final iterations.
 Problem detected with inexpensive integrals.
 Switching to full accuracy and repeating last cycle.
 SCF Done:  E(RPBE1PBE) =  -2032.44729214     A.U. after   14 cycles
            NFock= 14  Conv=0.72D-08     -V/T= 2.0046
 DoSCS=F DFT=T ScalE2(SS,OS)=  1.000000  1.000000
 Range of M.O.s used for correlation:     1  1289
 NBasis=  1289 NAE=   132 NBE=   132 NFC=     0 NFV=     0
 NROrb=   1289 NOA=   132 NOB=   132 NVA=  1157 NVB=  1157

 **** Warning!!: The largest alpha MO coefficient is  0.40039382D+02

          Differentiating once with respect to magnetic field using GIAOs.
          Electric field/nuclear overlap derivatives assumed to be zero.
 FoFCou: FMM=F IPFlag=           0 FMFlag=      100000 FMFlg1=        2001
         NFxFlg=           0 DoJE=F BraDBF=F KetDBF=T FulRan=T
         wScrn=  0.000000 ICntrl=    6100 IOpCl=  0 I1Cent=           7 NGrid=          67
         NMat0=    1 NMatS0=      1 NMatT0=    0 NMatD0=    1 NMtDS0=    0 NMtDT0=    0
 Symmetry not used in FoFCou.
   1 Symmetry operations used in ECPInt.
 ECPInt:  NShTT=  133903 NPrTT=  411765 LenC2=  133904 LenP2D=  411765.
 LDataN:  DoStor=T MaxTD1= 7 Len=  274
 FoFJK:  IHMeth= 1 ICntrl=    6127 DoSepK=F KAlg= 0 I1Cent=   0 FoldK=F
 IRaf=         1 NMat=   1 IRICut=       1 DoRegI=T DoRafI=F ISym2E= 0.
          There are     3 degrees of freedom in the 1st order CPHF.  IDoFFX=0 NUNeed=     3.
      3 vectors produced by pass  0 Test12= 5.09D-12 3.33D-08 XBig12= 1.11D+02 1.71D+00.
 AX will form     3 AO Fock derivatives at one time.
      3 vectors produced by pass  1 Test12= 5.09D-12 3.33D-08 XBig12= 4.67D-01 1.58D-01.
      3 vectors produced by pass  2 Test12= 5.09D-12 3.33D-08 XBig12= 1.70D-03 5.66D-03.
      3 vectors produced by pass  3 Test12= 5.09D-12 3.33D-08 XBig12= 5.29D-06 4.63D-04.
      3 vectors produced by pass  4 Test12= 5.09D-12 3.33D-08 XBig12= 2.97D-08 5.47D-05.
      3 vectors produced by pass  5 Test12= 5.09D-12 3.33D-08 XBig12= 1.63D-10 4.21D-06.
      3 vectors produced by pass  6 Test12= 5.09D-12 3.33D-08 XBig12= 8.90D-13 3.04D-07.
 InvSVY:  IOpt=1 It=  1 EMax= 3.55D-15
 Solved reduced A of dimension    21 with     3 vectors.
 Calculating GIAO nuclear magnetic shielding tensors.
 SCF GIAO Magnetic shielding tensor (ppm):
      1  P    Isotropic =   314.8549   Anisotropy =    80.8406
   XX=   307.1293   YX=    48.4918   ZX=    10.2850
   XY=    33.1652   YY=   306.7832   ZY=    39.2236
   XZ=   -16.7518   YZ=    37.8385   ZZ=   330.6521
   Eigenvalues:   253.6902   322.1257   368.7486
      2  P    Isotropic =   312.1456   Anisotropy =    51.6072
   XX=   319.3999   YX=    12.1466   ZX=    21.9063
   XY=   -22.2247   YY=   342.8951   ZY=     8.6299
   XZ=    18.6177   YZ=    23.8574   ZZ=   274.1419
   Eigenvalues:   262.7990   327.0874   346.5505
      3  O    Isotropic =   183.6054   Anisotropy =   108.3807
   XX=   217.4511   YX=     5.2420   ZX=    68.3622
   XY=   -14.3279   YY=   209.1527   ZY=   -16.7876
   XZ=    65.9712   YZ=   -18.5116   ZZ=   124.2125
   Eigenvalues:    87.5543   207.4027   255.8592
      4  O    Isotropic =   189.0394   Anisotropy =   118.0900
   XX=   200.8506   YX=    10.9577   ZX=    65.7637
   XY=    33.1386   YY=   255.9349   ZY=     2.8494
   XZ=    51.5936   YZ=     2.4800   ZZ=   110.3329
   Eigenvalues:    81.1735   218.1787   267.7661
      5  C    Isotropic =   149.5508   Anisotropy =    46.3136
   XX=   162.7456   YX=    -3.6663   ZX=    16.5364
   XY=    -8.4073   YY=   147.5671   ZY=    -7.7496
   XZ=    30.9422   YZ=   -11.5109   ZZ=   138.3396
   Eigenvalues:   122.7278   145.4980   180.4265
      6  C    Isotropic =   104.1905   Anisotropy =    54.6723
   XX=    89.8651   YX=   -10.7876   ZX=     7.7718
   XY=     0.9756   YY=   134.8861   ZY=   -12.7658
   XZ=    16.6541   YZ=   -17.3271   ZZ=    87.8204
   Eigenvalues:    75.4320    96.5009   140.6388
      7  C    Isotropic =   103.2239   Anisotropy =    51.8256
   XX=   122.8375   YX=   -16.4435   ZX=    17.4968
   XY=   -12.4836   YY=    99.4275   ZY=    -7.1093
   XZ=    25.0890   YZ=     4.2021   ZZ=    87.4067
   Eigenvalues:    76.2511    95.6462   137.7743
      8  C    Isotropic =   155.5909   Anisotropy =    25.2453
   XX=   143.3669   YX=     0.9887   ZX=    -2.5560
   XY=     8.8731   YY=   167.8144   ZY=    -7.8378
   XZ=    -5.4093   YZ=    -6.4803   ZZ=   155.5915
   Eigenvalues:   141.8460   152.5057   172.4211
      9  C    Isotropic =    71.0756   Anisotropy =    41.8981
   XX=    73.7590   YX=    12.1246   ZX=    18.8199
   XY=    13.4203   YY=    78.4652   ZY=     9.2574
   XZ=    17.7252   YZ=     9.6161   ZZ=    61.0026
   Eigenvalues:    48.0233    66.1958    99.0077
     10  C    Isotropic =   159.1193   Anisotropy =    42.3868
   XX=   146.2374   YX=     0.8170   ZX=    -4.3260
   XY=     2.4543   YY=   149.4441   ZY=   -15.1305
   XZ=    -3.4982   YZ=   -12.9688   ZZ=   181.6765
   Eigenvalues:   144.1645   145.8163   187.3772
     11  C    Isotropic =   160.1168   Anisotropy =    39.5772
   XX=   162.9651   YX=   -11.6487   ZX=   -18.4471
   XY=   -10.8003   YY=   156.8695   ZY=    10.3148
   XZ=   -16.5132   YZ=     8.5497   ZZ=   160.5158
   Eigenvalues:   144.1314   149.7174   186.5016
     12  C    Isotropic =    33.2555   Anisotropy =   205.5666
   XX=   -45.9135   YX=    12.6313   ZX=   -19.0357
   XY=    -0.5393   YY=    66.9536   ZY=  -100.5882
   XZ=   -17.8093   YZ=   -91.1129   ZZ=    78.7266
   Eigenvalues:   -49.8557   -20.6776   170.3000
     13  C    Isotropic =    50.2978   Anisotropy =   182.1338
   XX=   -17.1067   YX=    36.6536   ZX=    25.0798
   XY=    55.1671   YY=    79.6495   ZY=   -79.2550
   XZ=    23.2720   YZ=   -93.6828   ZZ=    88.3505
   Eigenvalues:   -60.7917    39.9647   171.7203
     14  C    Isotropic =    51.8856   Anisotropy =   184.5222
   XX=    40.0703   YX=    -5.3156   ZX=   -13.3684
   XY=    -4.8458   YY=    48.5593   ZY=  -114.0216
   XZ=   -13.4831   YZ=  -118.8481   ZZ=    67.0273
   Eigenvalues:   -60.6475    41.4040   174.9004
     15  C    Isotropic =    54.2548   Anisotropy =   182.3106
   XX=   -41.0825   YX=   -14.2143   ZX=   -29.9290
   XY=   -16.5948   YY=    93.0932   ZY=   -74.2784
   XZ=   -31.2235   YZ=   -70.8644   ZZ=   110.7536
   Eigenvalues:   -53.9985    40.9676   175.7952
     16  C    Isotropic =    51.6922   Anisotropy =   183.7003
   XX=   -20.7669   YX=    44.4618   ZX=    25.6652
   XY=    44.0371   YY=    75.3053   ZY=   -82.9276
   XZ=    23.4565   YZ=   -86.5061   ZZ=   100.5381
   Eigenvalues:   -60.3989    41.3164   174.1590
     17  C    Isotropic =    48.2633   Anisotropy =   187.5961
   XX=    35.8970   YX=     4.5649   ZX=    -8.0949
   XY=     1.2051   YY=    45.7461   ZY=  -110.5014
   XZ=   -14.3281   YZ=  -125.1098   ZZ=    63.1467
   Eigenvalues:   -63.9860    35.4485   173.3273
     18  C    Isotropic =    40.6773   Anisotropy =   212.0492
   XX=   169.6572   YX=   -12.8137   ZX=    43.7063
   XY=   -15.5551   YY=   -32.2375   ZY=   -29.5476
   XZ=    46.4787   YZ=   -29.5184   ZZ=   -15.3877
   Eigenvalues:   -55.8180    -4.1934   182.0435
     19  C    Isotropic =    39.5140   Anisotropy =   189.9770
   XX=   148.1930   YX=   -32.3764   ZX=    56.6555
   XY=   -17.0152   YY=    26.5251   ZY=    21.5030
   XZ=    58.5164   YZ=    10.2858   ZZ=   -56.1763
   Eigenvalues:   -75.9314    28.3080   166.1653
     20  C    Isotropic =    49.8705   Anisotropy =   189.8171
   XX=   165.0848   YX=   -27.5465   ZX=    35.6035
   XY=   -28.0633   YY=   -48.3992   ZY=    25.6190
   XZ=    37.1929   YZ=    24.0410   ZZ=    32.9260
   Eigenvalues:   -61.5006    34.6970   176.4153
     21  C    Isotropic =    49.6872   Anisotropy =   190.5415
   XX=   166.6058   YX=    -0.5487   ZX=    41.5220
   XY=    -7.1287   YY=   -19.4254   ZY=   -49.5571
   XZ=    37.4066   YZ=   -47.6556   ZZ=     1.8813
   Eigenvalues:   -60.7166    33.0634   176.7149
     22  C    Isotropic =    50.1892   Anisotropy =   188.5168
   XX=   158.7915   YX=   -21.2355   ZX=    60.2006
   XY=   -17.9412   YY=    34.7974   ZY=    15.5667
   XZ=    55.9373   YZ=    16.8729   ZZ=   -43.0212
   Eigenvalues:   -62.9723    37.6729   175.8671
     23  C    Isotropic =    47.0688   Anisotropy =   201.4077
   XX=   168.4089   YX=   -43.3214   ZX=    32.7276
   XY=   -30.8395   YY=   -55.5488   ZY=    25.7502
   XZ=    41.1432   YZ=    28.5663   ZZ=    28.3464
   Eigenvalues:   -72.5765    32.4424   181.3406
     24  C    Isotropic =    39.8434   Anisotropy =   207.8886
   XX=    12.1325   YX=    79.5087   ZX=   -36.5863
   XY=    79.6401   YY=    58.2072   ZY=   -82.3393
   XZ=   -41.3392   YZ=   -79.0494   ZZ=    49.1904
   Eigenvalues:   -52.9500    -5.9557   178.4358
     25  C    Isotropic =    40.9713   Anisotropy =   185.6707
   XX=    -6.7932   YX=    43.5603   ZX=   -86.2192
   XY=    44.2252   YY=    92.8694   ZY=   -49.3241
   XZ=   -88.4850   YZ=   -48.2476   ZZ=    36.8376
   Eigenvalues:   -75.1573    33.3194   164.7517
     26  C    Isotropic =    52.2254   Anisotropy =   185.3940
   XX=    66.5501   YX=    39.3536   ZX=   -38.5503
   XY=    39.2819   YY=    67.1597   ZY=   -98.3225
   XZ=   -39.5270   YZ=  -102.7459   ZZ=    22.9665
   Eigenvalues:   -58.1751    39.0300   175.8214
     27  C    Isotropic =    49.5740   Anisotropy =   191.5127
   XX=     8.7391   YX=    89.6626   ZX=   -22.4302
   XY=    87.1645   YY=    63.3153   ZY=   -68.3548
   XZ=   -22.4239   YZ=   -70.4959   ZZ=    76.6677
   Eigenvalues:   -61.2666    32.7395   177.2492
     28  C    Isotropic =    50.1384   Anisotropy =   188.7559
   XX=     1.7803   YX=    40.8047   ZX=   -84.6531
   XY=    41.4552   YY=   102.7986   ZY=   -55.0752
   XZ=   -82.6325   YZ=   -56.5614   ZZ=    45.8364
   Eigenvalues:   -62.7028    37.1424   175.9757
     29  C    Isotropic =    38.6965   Anisotropy =   205.1148
   XX=    50.0863   YX=    38.1545   ZX=   -47.8093
   XY=    46.9081   YY=    55.2797   ZY=  -107.9391
   XZ=   -43.8830   YZ=  -111.0909   ZZ=    10.7235
   Eigenvalues:   -79.4133    20.0631   175.4397
     30  C    Isotropic =    31.7373   Anisotropy =   203.3071
   XX=    44.5257   YX=   -40.1752   ZX=    84.4321
   XY=   -37.9290   YY=   -32.3339   ZY=   -33.7783
   XZ=    89.3805   YZ=   -41.3691   ZZ=    83.0199
   Eigenvalues:   -48.7169   -23.3466   167.2753
     31  C    Isotropic =    49.4672   Anisotropy =   187.4246
   XX=    60.6539   YX=     8.5774   ZX=    91.3358
   XY=     1.5046   YY=     4.7092   ZY=   -68.9573
   XZ=    79.7643   YZ=   -74.0295   ZZ=    83.0386
   Eigenvalues:   -61.7306    35.7153   174.4169
     32  C    Isotropic =    52.4592   Anisotropy =   183.9934
   XX=    23.6369   YX=   -37.7783   ZX=   103.1404
   XY=   -40.0435   YY=    48.2675   ZY=   -18.5565
   XZ=   105.7040   YZ=   -18.6745   ZZ=    85.4732
   Eigenvalues:   -58.3611    40.6172   175.1214
     33  C    Isotropic =    55.1677   Anisotropy =   180.6520
   XX=    74.8291   YX=   -55.1526   ZX=    57.7806
   XY=   -58.3473   YY=   -26.9825   ZY=   -30.2927
   XZ=    60.0451   YZ=   -30.0126   ZZ=   117.6565
   Eigenvalues:   -52.4005    42.3013   175.6024
     34  C    Isotropic =    52.8973   Anisotropy =   183.6423
   XX=    71.6067   YX=     9.2387   ZX=    83.1394
   XY=     7.6980   YY=     1.2545   ZY=   -71.9532
   XZ=    82.3359   YZ=   -69.2036   ZZ=    85.8309
   Eigenvalues:   -60.3538    43.7203   175.3256
     35  C    Isotropic =    50.7937   Anisotropy =   185.8160
   XX=    24.6170   YX=   -37.7322   ZX=   101.7448
   XY=   -31.8966   YY=    45.0282   ZY=   -24.8628
   XZ=   109.0760   YZ=   -19.4838   ZZ=    82.7357
   Eigenvalues:   -57.7844    35.4944   174.6710
     36  H    Isotropic =    28.6817   Anisotropy =     3.2749
   XX=    29.3253   YX=    -1.1623   ZX=    -2.5839
   XY=    -1.4870   YY=    27.7170   ZY=    -2.4698
   XZ=    -0.7368   YZ=    -1.1463   ZZ=    29.0027
   Eigenvalues:    25.3698    29.8103    30.8649
     37  H    Isotropic =    29.3339   Anisotropy =     8.4902
   XX=    30.4129   YX=     2.1147   ZX=     4.7842
   XY=    -0.5149   YY=    30.4630   ZY=     2.5306
   XZ=     4.9494   YZ=     2.6541   ZZ=    27.1259
   Eigenvalues:    23.2366    29.7710    34.9941
     38  H    Isotropic =    26.5570   Anisotropy =     7.4708
   XX=    27.5440   YX=    -1.1663   ZX=    -2.9930
   XY=     3.4563   YY=    26.0463   ZY=    -2.5876
   XZ=    -4.4182   YZ=    -1.7439   ZZ=    26.0805
   Eigenvalues:    22.7030    25.4304    31.5375
     39  H    Isotropic =    27.8150   Anisotropy =     8.1052
   XX=    29.2294   YX=    -6.4828   ZX=    -2.4473
   XY=    -3.0407   YY=    26.9167   ZY=    -0.8508
   XZ=    -1.7880   YZ=    -0.7628   ZZ=    27.2989
   Eigenvalues:    22.3841    27.8424    33.2184
     40  H    Isotropic =    29.3344   Anisotropy =     4.1107
   XX=    30.2193   YX=    -1.3535   ZX=     2.2007
   XY=     3.1469   YY=    28.9990   ZY=     0.4665
   XZ=     2.3722   YZ=    -0.4415   ZZ=    28.7847
   Eigenvalues:    26.9650    28.9633    32.0748
     41  H    Isotropic =    30.3722   Anisotropy =    14.8606
   XX=    36.5502   YX=    -6.4425   ZX=    -3.7939
   XY=    -4.0180   YY=    30.8124   ZY=     2.3664
   XZ=    -1.6809   YZ=     1.0782   ZZ=    23.7539
   Eigenvalues:    23.1198    27.7174    40.2792
     42  H    Isotropic =    30.3786   Anisotropy =     7.4226
   XX=    28.7195   YX=    -2.8162   ZX=    -2.5230
   XY=    -1.2508   YY=    28.7029   ZY=    -2.2278
   XZ=    -3.9207   YZ=    -0.7661   ZZ=    33.7134
   Eigenvalues:    25.3098    30.4991    35.3270
     43  H    Isotropic =    30.4011   Anisotropy =     9.5051
   XX=    27.2628   YX=     1.7625   ZX=    -0.7850
   XY=     1.9409   YY=    34.7367   ZY=    -2.7566
   XZ=    -0.9856   YZ=    -3.8872   ZZ=    29.2037
   Eigenvalues:    26.8179    27.6475    36.7378
     44  H    Isotropic =    30.5436   Anisotropy =     9.3970
   XX=    30.5930   YX=    -1.4169   ZX=     2.4941
   XY=    -1.4349   YY=    27.6746   ZY=    -3.2791
   XZ=     4.2917   YZ=    -2.6545   ZZ=    33.3633
   Eigenvalues:    26.4088    28.4138    36.8083
     45  H    Isotropic =    30.9299   Anisotropy =     9.2561
   XX=    27.7342   YX=    -1.5107   ZX=    -2.0568
   XY=    -0.4607   YY=    36.9204   ZY=     0.5320
   XZ=    -1.4263   YZ=     0.7268   ZZ=    28.1350
   Eigenvalues:    26.1719    29.5171    37.1006
     46  H    Isotropic =    32.0205   Anisotropy =    12.7642
   XX=    29.8073   YX=     1.5087   ZX=    -5.8709
   XY=     0.9545   YY=    32.4239   ZY=    -3.3474
   XZ=    -5.1376   YZ=    -6.4980   ZZ=    33.8303
   Eigenvalues:    25.3355    30.1960    40.5300
     47  H    Isotropic =    31.1446   Anisotropy =     5.6955
   XX=    34.5724   YX=    -0.6242   ZX=    -0.2559
   XY=    -1.8601   YY=    29.6106   ZY=    -3.0229
   XZ=     0.1294   YZ=    -2.5189   ZZ=    29.2507
   Eigenvalues:    26.5523    31.9398    34.9415
     48  H    Isotropic =    23.6266   Anisotropy =    11.0398
   XX=    24.6870   YX=     3.2146   ZX=     4.8564
   XY=     2.6114   YY=    21.2549   ZY=     2.3411
   XZ=     3.6199   YZ=     4.0944   ZZ=    24.9379
   Eigenvalues:    19.3062    20.5872    30.9865
     49  H    Isotropic =    23.8214   Anisotropy =     5.9207
   XX=    27.6641   YX=     0.0774   ZX=     0.9485
   XY=    -0.1722   YY=    21.9037   ZY=     1.5608
   XZ=     0.5832   YZ=     1.5884   ZZ=    21.8965
   Eigenvalues:    20.2801    23.4156    27.7686
     50  H    Isotropic =    24.0858   Anisotropy =     4.1028
   XX=    25.0265   YX=    -0.4909   ZX=     0.0044
   XY=    -0.8265   YY=    23.8887   ZY=     2.9238
   XZ=    -0.3181   YZ=     3.0679   ZZ=    23.3421
   Eigenvalues:    20.5826    24.8537    26.8210
     51  H    Isotropic =    24.1664   Anisotropy =     7.1824
   XX=    26.8006   YX=     1.8307   ZX=     2.3325
   XY=     1.1050   YY=    23.0048   ZY=     2.5043
   XZ=     2.5547   YZ=     2.4767   ZZ=    22.6939
   Eigenvalues:    20.2358    23.3087    28.9547
     52  H    Isotropic =    24.7665   Anisotropy =    15.3761
   XX=    33.9752   YX=     2.5038   ZX=     4.5624
   XY=    -0.8670   YY=    19.6813   ZY=     0.7525
   XZ=     2.8656   YZ=     1.5902   ZZ=    20.6431
   Eigenvalues:    18.7148    20.5675    35.0172
     53  H    Isotropic =    23.1137   Anisotropy =     7.6751
   XX=    22.7073   YX=     1.1191   ZX=    -0.4959
   XY=     0.0054   YY=    27.9018   ZY=     1.5887
   XZ=     0.8153   YZ=     1.5889   ZZ=    18.7319
   Eigenvalues:    18.4635    22.6472    28.2304
     54  H    Isotropic =    23.4475   Anisotropy =     5.0495
   XX=    21.9826   YX=    -0.9995   ZX=    -2.0553
   XY=    -0.9832   YY=    24.1447   ZY=     2.1609
   XZ=    -1.2507   YZ=     1.6387   ZZ=    24.2152
   Eigenvalues:    21.1041    22.4245    26.8138
     55  H    Isotropic =    23.4646   Anisotropy =     3.7749
   XX=    21.1976   YX=     0.6437   ZX=    -1.6710
   XY=     0.3130   YY=    24.8104   ZY=    -0.9007
   XZ=    -1.8854   YZ=    -0.7924   ZZ=    24.3860
   Eigenvalues:    20.4016    24.0111    25.9813
     56  H    Isotropic =    23.4666   Anisotropy =     5.7626
   XX=    20.8954   YX=    -0.3786   ZX=    -1.1499
   XY=    -0.2417   YY=    26.2100   ZY=     1.7633
   XZ=    -1.3980   YZ=     2.1504   ZZ=    23.2945
   Eigenvalues:    20.2956    22.7959    27.3084
     57  H    Isotropic =    23.1890   Anisotropy =     9.8674
   XX=    21.5147   YX=    -1.8146   ZX=    -2.1745
   XY=    -2.6103   YY=    21.0188   ZY=     3.3327
   XZ=    -2.2018   YZ=     3.8756   ZZ=    27.0337
   Eigenvalues:    18.7317    21.0681    29.7673
     58  H    Isotropic =    23.0010   Anisotropy =     8.2367
   XX=    21.8798   YX=    -2.0408   ZX=    -3.0553
   XY=    -1.8944   YY=    23.1646   ZY=     3.1241
   XZ=    -2.3031   YZ=     3.3685   ZZ=    23.9585
   Eigenvalues:    19.9830    20.5279    28.4921
     59  H    Isotropic =    23.6689   Anisotropy =     4.9819
   XX=    25.7208   YX=    -2.5386   ZX=    -0.0037
   XY=    -2.3094   YY=    22.1750   ZY=     1.1922
   XZ=     0.2538   YZ=     0.9832   ZZ=    23.1108
   Eigenvalues:    20.5325    23.4840    26.9902
     60  H    Isotropic =    23.7467   Anisotropy =     3.3732
   XX=    24.6713   YX=    -0.4674   ZX=     0.8494
   XY=    -0.3494   YY=    22.1276   ZY=     2.1818
   XZ=     1.2314   YZ=     1.7809   ZZ=    24.4412
   Eigenvalues:    20.7889    24.4558    25.9955
     61  H    Isotropic =    23.8464   Anisotropy =     5.5959
   XX=    25.2425   YX=    -2.2226   ZX=    -1.0086
   XY=    -1.9477   YY=    24.0298   ZY=     2.4230
   XZ=    -0.7828   YZ=     1.7622   ZZ=    22.2668
   Eigenvalues:    20.8279    23.1342    27.5770
     62  H    Isotropic =    23.4896   Anisotropy =    11.0441
   XX=    29.1976   YX=    -3.9507   ZX=     0.9423
   XY=    -2.9270   YY=    22.3103   ZY=    -1.5780
   XZ=     0.6688   YZ=    -3.0856   ZZ=    18.9608
   Eigenvalues:    17.6880    21.9284    30.8524
     63  H    Isotropic =    24.4976   Anisotropy =    13.2796
   XX=    23.7289   YX=     5.8958   ZX=    -3.1253
   XY=     3.4708   YY=    29.2459   ZY=    -2.5028
   XZ=    -1.6348   YZ=    -4.6349   ZZ=    20.5179
   Eigenvalues:    19.0515    21.0906    33.3506
     64  H    Isotropic =    24.1621   Anisotropy =     6.2335
   XX=    22.6573   YX=     1.4849   ZX=    -1.4937
   XY=     1.1733   YY=    27.9183   ZY=     1.3883
   XZ=    -1.4273   YZ=     0.7498   ZZ=    21.9107
   Eigenvalues:    20.4076    23.7609    28.3178
     65  H    Isotropic =    24.1449   Anisotropy =     4.2137
   XX=    24.8107   YX=     0.8902   ZX=    -3.0027
   XY=     0.1004   YY=    24.5511   ZY=     1.2599
   XZ=    -2.6671   YZ=     1.1472   ZZ=    23.0729
   Eigenvalues:    20.5745    24.9062    26.9540
     66  H    Isotropic =    23.9820   Anisotropy =     7.3942
   XX=    24.8783   YX=     3.9171   ZX=    -2.0732
   XY=     2.7081   YY=    25.8146   ZY=    -0.0034
   XZ=    -1.6741   YZ=    -0.1142   ZZ=    21.2530
   Eigenvalues:    20.0794    22.9550    28.9114
     67  H    Isotropic =    24.3307   Anisotropy =     9.1010
   XX=    26.2158   YX=     3.1295   ZX=    -2.8795
   XY=     0.1141   YY=    29.3914   ZY=     2.9027
   XZ=     0.1958   YZ=     2.4979   ZZ=    17.3848
   Eigenvalues:    16.5202    26.0738    30.3980
 End of Minotr F.D. properties file   721 does not exist.
 End of Minotr F.D. properties file   722 does not exist.
 End of Minotr F.D. properties file   788 does not exist.

 **********************************************************************

            Population analysis using the SCF density.

 **********************************************************************

 Orbital symmetries:
       Occupied  (A) (A) (A) (A) (A) (A) (A) (A) (A) (A) (A) (A)
                 (A) (A) (A) (A) (A) (A) (A) (A) (A) (A) (A) (A)
                 (A) (A) (A) (A) (A) (A) (A) (A) (A) (A) (A) (A)
                 (A) (A) (A) (A) (A) (A) (A) (A) (A) (A) (A) (A)
                 (A) (A) (A) (A) (A) (A) (A) (A) (A) (A) (A) (A)
                 (A) (A) (A) (A) (A) (A) (A) (A) (A) (A) (A) (A)
                 (A) (A) (A) (A) (A) (A) (A) (A) (A) (A) (A) (A)
                 (A) (A) (A) (A) (A) (A) (A) (A) (A) (A) (A) (A)
                 (A) (A) (A) (A) (A) (A) (A) (A) (A) (A) (A) (A)
                 (A) (A) (A) (A) (A) (A) (A) (A) (A) (A) (A) (A)
                 (A) (A) (A) (A) (A) (A) (A) (A) (A) (A) (A) (A)
       Virtual   (A) (A) (A) (A) (A) (A) (A) (A) (A) (A) (A) (A)
                 (A) (A) (A) (A) (A) (A) (A) (A) (A) (A) (A) (A)
                 (A) (A) (A) (A) (A) (A) (A) (A) (A) (A) (A) (A)
                 (A) (A) (A) (A) (A) (A) (A) (A) (A) (A) (A) (A)
                 (A) (A) (A) (A) (A) (A) (A) (A) (A) (A) (A) (A)
                 (A) (A) (A) (A) (A) (A) (A) (A) (A) (A) (A) (A)
                 (A) (A) (A) (A) (A) (A) (A) (A) (A) (A) (A) (A)
                 (A) (A) (A) (A) (A) (A) (A) (A) (A) (A) (A) (A)
                 (A) (A) (A) (A) (A) (A) (A) (A) (A) (A) (A) (A)
                 (A) (A) (A) (A) (A) (A) (A) (A) (A) (A) (A) (A)
                 (A) (A) (A) (A) (A) (A) (A) (A) (A) (A) (A) (A)
                 (A) (A) (A) (A) (A) (A) (A) (A) (A) (A) (A) (A)
                 (A) (A) (A) (A) (A) (A) (A) (A) (A) (A) (A) (A)
                 (A) (A) (A) (A) (A) (A) (A) (A) (A) (A) (A) (A)
                 (A) (A) (A) (A) (A) (A) (A) (A) (A) (A) (A) (A)
                 (A) (A) (A) (A) (A) (A) (A) (A) (A) (A) (A) (A)
                 (A) (A) (A) (A) (A) (A) (A) (A) (A) (A) (A) (A)
                 (A) (A) (A) (A) (A) (A) (A) (A) (A) (A) (A) (A)
                 (A) (A) (A) (A) (A) (A) (A) (A) (A) (A) (A) (A)
                 (A) (A) (A) (A) (A) (A) (A) (A) (A) (A) (A) (A)
                 (A) (A) (A) (A) (A) (A) (A) (A) (A) (A) (A) (A)
                 (A) (A) (A) (A) (A) (A) (A) (A) (A) (A) (A) (A)
                 (A) (A) (A) (A) (A) (A) (A) (A) (A) (A) (A) (A)
                 (A) (A) (A) (A) (A) (A) (A) (A) (A) (A) (A) (A)
                 (A) (A) (A) (A) (A) (A) (A) (A) (A) (A) (A) (A)
                 (A) (A) (A) (A) (A) (A) (A) (A) (A) (A) (A) (A)
                 (A) (A) (A) (A) (A) (A) (A) (A) (A) (A) (A) (A)
                 (A) (A) (A) (A) (A) (A) (A) (A) (A) (A) (A) (A)
                 (A) (A) (A) (A) (A) (A) (A) (A) (A) (A) (A) (A)
                 (A) (A) (A) (A) (A) (A) (A) (A) (A) (A) (A) (A)
                 (A) (A) (A) (A) (A) (A) (A) (A) (A) (A) (A) (A)
                 (A) (A) (A) (A) (A) (A) (A) (A) (A) (A) (A) (A)
                 (A) (A) (A) (A) (A) (A) (A) (A) (A) (A) (A) (A)
                 (A) (A) (A) (A) (A) (A) (A) (A) (A) (A) (A) (A)
                 (A) (A) (A) (A) (A) (A) (A) (A) (A) (A) (A) (A)
                 (A) (A) (A) (A) (A) (A) (A) (A) (A) (A) (A) (A)
                 (A) (A) (A) (A) (A) (A) (A) (A) (A) (A) (A) (A)
                 (A) (A) (A) (A) (A) (A) (A) (A) (A) (A) (A) (A)
                 (A) (A) (A) (A) (A) (A) (A) (A) (A) (A) (A) (A)
                 (A) (A) (A) (A) (A) (A) (A) (A) (A) (A) (A) (A)
                 (A) (A) (A) (A) (A) (A) (A) (A) (A) (A) (A) (A)
                 (A) (A) (A) (A) (A) (A) (A) (A) (A) (A) (A) (A)
                 (A) (A) (A) (A) (A) (A) (A) (A) (A) (A) (A) (A)
                 (A) (A) (A) (A) (A) (A) (A) (A) (A) (A) (A) (A)
                 (A) (A) (A) (A) (A) (A) (A) (A) (A) (A) (A) (A)
                 (A) (A) (A) (A) (A) (A) (A) (A) (A) (A) (A) (A)
                 (A) (A) (A) (A) (A) (A) (A) (A) (A) (A) (A) (A)
                 (A) (A) (A) (A) (A) (A) (A) (A) (A) (A) (A) (A)
                 (A) (A) (A) (A) (A) (A) (A) (A) (A) (A) (A) (A)
                 (A) (A) (A) (A) (A) (A) (A) (A) (A) (A) (A) (A)
                 (A) (A) (A) (A) (A) (A) (A) (A) (A) (A) (A) (A)
                 (A) (A) (A) (A) (A) (A) (A) (A) (A) (A) (A) (A)
                 (A) (A) (A) (A) (A) (A) (A) (A) (A) (A) (A) (A)
                 (A) (A) (A) (A) (A) (A) (A) (A) (A) (A) (A) (A)
                 (A) (A) (A) (A) (A) (A) (A) (A) (A) (A) (A) (A)
                 (A) (A) (A) (A) (A) (A) (A) (A) (A) (A) (A) (A)
                 (A) (A) (A) (A) (A) (A) (A) (A) (A) (A) (A) (A)
                 (A) (A) (A) (A) (A) (A) (A) (A) (A) (A) (A) (A)
                 (A) (A) (A) (A) (A) (A) (A) (A) (A) (A) (A) (A)
                 (A) (A) (A) (A) (A) (A) (A) (A) (A) (A) (A) (A)
                 (A) (A) (A) (A) (A) (A) (A) (A) (A) (A) (A) (A)
                 (A) (A) (A) (A) (A) (A) (A) (A) (A) (A) (A) (A)
                 (A) (A) (A) (A) (A) (A) (A) (A) (A) (A) (A) (A)
                 (A) (A) (A) (A) (A) (A) (A) (A) (A) (A) (A) (A)
                 (A) (A) (A) (A) (A) (A) (A) (A) (A) (A) (A) (A)
                 (A) (A) (A) (A) (A) (A) (A) (A) (A) (A) (A) (A)
                 (A) (A) (A) (A) (A) (A) (A) (A) (A) (A) (A) (A)
                 (A) (A) (A) (A) (A) (A) (A) (A) (A) (A) (A) (A)
                 (A) (A) (A) (A) (A) (A) (A) (A) (A) (A) (A) (A)
                 (A) (A) (A) (A) (A) (A) (A) (A) (A) (A) (A) (A)
                 (A) (A) (A) (A) (A) (A) (A) (A) (A) (A) (A) (A)
                 (A) (A) (A) (A) (A) (A) (A) (A) (A) (A) (A) (A)
                 (A) (A) (A) (A) (A) (A) (A) (A) (A) (A) (A) (A)
                 (A) (A) (A) (A) (A) (A) (A) (A) (A) (A) (A) (A)
                 (A) (A) (A) (A) (A) (A) (A) (A) (A) (A) (A) (A)
                 (A) (A) (A) (A) (A) (A) (A) (A) (A) (A) (A) (A)
                 (A) (A) (A) (A) (A) (A) (A) (A) (A) (A) (A) (A)
                 (A) (A) (A) (A) (A) (A) (A) (A) (A) (A) (A) (A)
                 (A) (A) (A) (A) (A) (A) (A) (A) (A) (A) (A) (A)
                 (A) (A) (A) (A) (A) (A) (A) (A) (A) (A) (A) (A)
                 (A) (A) (A) (A) (A) (A) (A) (A) (A) (A) (A) (A)
                 (A) (A) (A) (A) (A) (A) (A) (A) (A) (A) (A) (A)
                 (A) (A) (A) (A) (A) (A) (A) (A) (A) (A) (A) (A)
                 (A) (A) (A) (A) (A) (A) (A) (A) (A) (A) (A) (A)
                 (A) (A) (A) (A) (A) (A) (A) (A) (A) (A) (A) (A)
                 (A) (A) (A) (A) (A) (A) (A) (A) (A) (A) (A) (A)
                 (A) (A) (A) (A) (A) (A) (A) (A) (A) (A) (A) (A)
                 (A) (A) (A) (A) (A) (A) (A) (A) (A) (A) (A) (A)
                 (A) (A) (A) (A) (A) (A) (A) (A) (A) (A) (A) (A)
                 (A) (A) (A) (A) (A) (A) (A) (A) (A) (A) (A) (A)
                 (A) (A) (A) (A) (A) (A) (A) (A) (A) (A) (A) (A)
                 (A) (A) (A) (A) (A) (A) (A) (A) (A) (A) (A) (A)
                 (A) (A) (A) (A) (A) (A) (A) (A) (A) (A) (A) (A)
                 (A) (A) (A) (A) (A) (A) (A) (A) (A) (A) (A) (A)
                 (A) (A) (A) (A) (A) (A) (A) (A) (A) (A) (A) (A)
                 (A) (A) (A) (A) (A) (A) (A) (A) (A) (A) (A) (A)
                 (A) (A) (A) (A) (A)
 The electronic state is 1-A.
 Alpha  occ. eigenvalues --  -77.19917 -77.19575 -19.21065 -19.20938 -10.32448
 Alpha  occ. eigenvalues --  -10.28140 -10.27764 -10.24874 -10.24548 -10.24530
 Alpha  occ. eigenvalues --  -10.24409 -10.24389 -10.24333 -10.23948 -10.23908
 Alpha  occ. eigenvalues --  -10.23848 -10.23780 -10.23769 -10.23567 -10.23529
 Alpha  occ. eigenvalues --  -10.23399 -10.23309 -10.23232 -10.23126 -10.23010
 Alpha  occ. eigenvalues --  -10.23004 -10.22961 -10.22922 -10.22916 -10.22900
 Alpha  occ. eigenvalues --  -10.22865 -10.22801 -10.22748 -10.21085 -10.20582
 Alpha  occ. eigenvalues --   -6.59539  -6.59204  -4.73144  -4.73105  -4.72803
 Alpha  occ. eigenvalues --   -4.72776  -4.72664  -4.72333  -1.10852  -1.01608
 Alpha  occ. eigenvalues --   -0.89100  -0.88310  -0.87696  -0.87493  -0.83996
 Alpha  occ. eigenvalues --   -0.79560  -0.79044  -0.77961  -0.77144  -0.77044
 Alpha  occ. eigenvalues --   -0.76692  -0.76521  -0.76252  -0.75979  -0.75250
 Alpha  occ. eigenvalues --   -0.71105  -0.68116  -0.65832  -0.64095  -0.63300
 Alpha  occ. eigenvalues --   -0.62569  -0.62420  -0.61855  -0.61733  -0.61376
 Alpha  occ. eigenvalues --   -0.60359  -0.59290  -0.57246  -0.56201  -0.54409
 Alpha  occ. eigenvalues --   -0.53443  -0.52957  -0.51314  -0.51203  -0.49062
 Alpha  occ. eigenvalues --   -0.47701  -0.47510  -0.47064  -0.46998  -0.46620
 Alpha  occ. eigenvalues --   -0.46473  -0.46093  -0.45990  -0.45724  -0.45285
 Alpha  occ. eigenvalues --   -0.44997  -0.44384  -0.43998  -0.43676  -0.43411
 Alpha  occ. eigenvalues --   -0.43096  -0.42590  -0.41890  -0.41004  -0.40910
 Alpha  occ. eigenvalues --   -0.40137  -0.39609  -0.39286  -0.38869  -0.38786
 Alpha  occ. eigenvalues --   -0.38295  -0.38105  -0.37856  -0.37317  -0.36698
 Alpha  occ. eigenvalues --   -0.36377  -0.35945  -0.35673  -0.35567  -0.35011
 Alpha  occ. eigenvalues --   -0.34685  -0.34084  -0.33555  -0.33280  -0.32839
 Alpha  occ. eigenvalues --   -0.29201  -0.28432  -0.28252  -0.27736  -0.27308
 Alpha  occ. eigenvalues --   -0.27157  -0.26602  -0.26528  -0.26394  -0.25841
 Alpha  occ. eigenvalues --   -0.23198  -0.19741
 Alpha virt. eigenvalues --   -0.03598  -0.02950  -0.02861  -0.01877  -0.01530
 Alpha virt. eigenvalues --   -0.01152  -0.00764  -0.00360   0.03425   0.04014
 Alpha virt. eigenvalues --    0.04817   0.05509   0.05772   0.06084   0.06306
 Alpha virt. eigenvalues --    0.06759   0.07331   0.07862   0.07935   0.08352
 Alpha virt. eigenvalues --    0.08409   0.08938   0.09316   0.09632   0.09874
 Alpha virt. eigenvalues --    0.10054   0.10393   0.10564   0.10833   0.11183
 Alpha virt. eigenvalues --    0.11348   0.11507   0.11885   0.12320   0.12472
 Alpha virt. eigenvalues --    0.12751   0.12939   0.13102   0.13388   0.13557
 Alpha virt. eigenvalues --    0.13832   0.14078   0.14796   0.14904   0.15305
 Alpha virt. eigenvalues --    0.15746   0.16265   0.16574   0.16754   0.17095
 Alpha virt. eigenvalues --    0.17375   0.17808   0.18082   0.18330   0.18703
 Alpha virt. eigenvalues --    0.18858   0.19306   0.19483   0.19734   0.20222
 Alpha virt. eigenvalues --    0.20430   0.20618   0.21104   0.21615   0.21801
 Alpha virt. eigenvalues --    0.22038   0.22114   0.22486   0.22602   0.22631
 Alpha virt. eigenvalues --    0.23044   0.23214   0.23592   0.23962   0.23991
 Alpha virt. eigenvalues --    0.24228   0.24410   0.24660   0.24806   0.24922
 Alpha virt. eigenvalues --    0.24993   0.25456   0.25621   0.26034   0.26349
 Alpha virt. eigenvalues --    0.26561   0.26721   0.27241   0.27357   0.27637
 Alpha virt. eigenvalues --    0.27914   0.28250   0.28469   0.28856   0.29686
 Alpha virt. eigenvalues --    0.29832   0.30488   0.30827   0.31119   0.31585
 Alpha virt. eigenvalues --    0.32145   0.32392   0.32427   0.32606   0.33070
 Alpha virt. eigenvalues --    0.33355   0.33527   0.33824   0.34443   0.34538
 Alpha virt. eigenvalues --    0.34687   0.35007   0.35226   0.35469   0.35546
 Alpha virt. eigenvalues --    0.35937   0.36446   0.36664   0.36858   0.37132
 Alpha virt. eigenvalues --    0.37298   0.37552   0.37764   0.38324   0.38340
 Alpha virt. eigenvalues --    0.38954   0.38992   0.39228   0.39464   0.39557
 Alpha virt. eigenvalues --    0.40204   0.40445   0.40531   0.40687   0.41012
 Alpha virt. eigenvalues --    0.41155   0.41344   0.41549   0.41839   0.42146
 Alpha virt. eigenvalues --    0.42425   0.42524   0.42703   0.42861   0.43319
 Alpha virt. eigenvalues --    0.43560   0.43778   0.43954   0.44309   0.44502
 Alpha virt. eigenvalues --    0.44701   0.44804   0.44957   0.45053   0.45318
 Alpha virt. eigenvalues --    0.45539   0.45691   0.46007   0.46404   0.46588
 Alpha virt. eigenvalues --    0.46941   0.47019   0.47664   0.47834   0.47959
 Alpha virt. eigenvalues --    0.48207   0.48321   0.48637   0.48746   0.48976
 Alpha virt. eigenvalues --    0.49199   0.49513   0.49660   0.49969   0.50198
 Alpha virt. eigenvalues --    0.50367   0.50627   0.50984   0.51099   0.51433
 Alpha virt. eigenvalues --    0.51952   0.52083   0.52173   0.52629   0.52886
 Alpha virt. eigenvalues --    0.53579   0.53700   0.53947   0.54294   0.54738
 Alpha virt. eigenvalues --    0.54846   0.55256   0.56022   0.56221   0.56717
 Alpha virt. eigenvalues --    0.57003   0.57350   0.57583   0.58192   0.58806
 Alpha virt. eigenvalues --    0.58948   0.59580   0.59689   0.60315   0.60442
 Alpha virt. eigenvalues --    0.60758   0.61146   0.61691   0.62138   0.62809
 Alpha virt. eigenvalues --    0.63339   0.63758   0.64090   0.64664   0.64977
 Alpha virt. eigenvalues --    0.65323   0.65954   0.66287   0.66626   0.66866
 Alpha virt. eigenvalues --    0.67074   0.67349   0.67488   0.68134   0.68653
 Alpha virt. eigenvalues --    0.68793   0.69001   0.69621   0.69841   0.70326
 Alpha virt. eigenvalues --    0.70365   0.70632   0.71151   0.71272   0.71536
 Alpha virt. eigenvalues --    0.71791   0.72053   0.72400   0.73193   0.73657
 Alpha virt. eigenvalues --    0.73779   0.73980   0.74393   0.74850   0.75157
 Alpha virt. eigenvalues --    0.75743   0.76020   0.76361   0.76665   0.76770
 Alpha virt. eigenvalues --    0.77062   0.77490   0.77523   0.77855   0.79006
 Alpha virt. eigenvalues --    0.79313   0.79852   0.80075   0.80330   0.80730
 Alpha virt. eigenvalues --    0.81146   0.81610   0.82118   0.82446   0.82692
 Alpha virt. eigenvalues --    0.82765   0.83203   0.83455   0.84177   0.85181
 Alpha virt. eigenvalues --    0.85598   0.85991   0.86147   0.86706   0.86936
 Alpha virt. eigenvalues --    0.87302   0.88061   0.88202   0.88652   0.88862
 Alpha virt. eigenvalues --    0.89368   0.89540   0.89991   0.90331   0.90860
 Alpha virt. eigenvalues --    0.91018   0.91271   0.91872   0.92054   0.92372
 Alpha virt. eigenvalues --    0.92550   0.93065   0.93416   0.93723   0.94262
 Alpha virt. eigenvalues --    0.94634   0.95597   0.95840   0.96115   0.96820
 Alpha virt. eigenvalues --    0.97422   0.98270   0.98486   0.99266   0.99361
 Alpha virt. eigenvalues --    1.00355   1.01011   1.01591   1.02019   1.02780
 Alpha virt. eigenvalues --    1.03049   1.03559   1.03791   1.04583   1.04807
 Alpha virt. eigenvalues --    1.05018   1.05818   1.05967   1.06081   1.07280
 Alpha virt. eigenvalues --    1.07591   1.07916   1.08490   1.09194   1.09531
 Alpha virt. eigenvalues --    1.09957   1.10435   1.10831   1.11104   1.11692
 Alpha virt. eigenvalues --    1.11802   1.11852   1.12646   1.13467   1.13484
 Alpha virt. eigenvalues --    1.14157   1.14397   1.15325   1.15820   1.15964
 Alpha virt. eigenvalues --    1.16420   1.17028   1.17456   1.17973   1.18500
 Alpha virt. eigenvalues --    1.18770   1.19512   1.20340   1.20619   1.21365
 Alpha virt. eigenvalues --    1.21857   1.22082   1.22349   1.22563   1.23108
 Alpha virt. eigenvalues --    1.23262   1.23655   1.24068   1.24586   1.25077
 Alpha virt. eigenvalues --    1.25366   1.25389   1.25938   1.26088   1.26483
 Alpha virt. eigenvalues --    1.26772   1.26922   1.27504   1.27836   1.28129
 Alpha virt. eigenvalues --    1.28541   1.28625   1.28895   1.29825   1.30124
 Alpha virt. eigenvalues --    1.30250   1.30361   1.30809   1.31130   1.31816
 Alpha virt. eigenvalues --    1.31929   1.32690   1.32766   1.33458   1.34003
 Alpha virt. eigenvalues --    1.34101   1.35067   1.35282   1.36103   1.36560
 Alpha virt. eigenvalues --    1.37051   1.37567   1.39024   1.39149   1.39289
 Alpha virt. eigenvalues --    1.40879   1.41202   1.41947   1.42540   1.42978
 Alpha virt. eigenvalues --    1.43603   1.43937   1.44249   1.44891   1.45372
 Alpha virt. eigenvalues --    1.45709   1.46536   1.46764   1.47396   1.47933
 Alpha virt. eigenvalues --    1.48138   1.48438   1.48933   1.49293   1.49936
 Alpha virt. eigenvalues --    1.50519   1.50970   1.51789   1.52382   1.52502
 Alpha virt. eigenvalues --    1.52679   1.53175   1.53605   1.53792   1.53980
 Alpha virt. eigenvalues --    1.54103   1.54512   1.54812   1.54912   1.55521
 Alpha virt. eigenvalues --    1.56183   1.56303   1.56791   1.57080   1.57602
 Alpha virt. eigenvalues --    1.57905   1.58017   1.58709   1.59034   1.59290
 Alpha virt. eigenvalues --    1.59497   1.60165   1.60929   1.61576   1.61849
 Alpha virt. eigenvalues --    1.62267   1.62418   1.62994   1.63328   1.63649
 Alpha virt. eigenvalues --    1.63986   1.64227   1.65444   1.65537   1.65905
 Alpha virt. eigenvalues --    1.66151   1.66621   1.67041   1.67337   1.67543
 Alpha virt. eigenvalues --    1.68011   1.68065   1.68746   1.68981   1.69315
 Alpha virt. eigenvalues --    1.69617   1.70619   1.70816   1.70942   1.71296
 Alpha virt. eigenvalues --    1.71559   1.71793   1.72039   1.72126   1.72446
 Alpha virt. eigenvalues --    1.72958   1.73010   1.73369   1.73656   1.73921
 Alpha virt. eigenvalues --    1.74466   1.75068   1.75507   1.75721   1.76201
 Alpha virt. eigenvalues --    1.76788   1.77283   1.78437   1.78882   1.79219
 Alpha virt. eigenvalues --    1.79347   1.79721   1.79864   1.81163   1.81239
 Alpha virt. eigenvalues --    1.81946   1.82107   1.82331   1.82827   1.83561
 Alpha virt. eigenvalues --    1.84514   1.84579   1.85492   1.86013   1.86549
 Alpha virt. eigenvalues --    1.86904   1.87431   1.88120   1.88480   1.89462
 Alpha virt. eigenvalues --    1.89670   1.90151   1.90822   1.91194   1.92146
 Alpha virt. eigenvalues --    1.92398   1.92610   1.92942   1.93792   1.94029
 Alpha virt. eigenvalues --    1.94985   1.95600   1.95981   1.96219   1.96691
 Alpha virt. eigenvalues --    1.97733   1.98463   1.99180   1.99216   2.00606
 Alpha virt. eigenvalues --    2.01306   2.01465   2.02156   2.02295   2.03029
 Alpha virt. eigenvalues --    2.03145   2.04153   2.05015   2.05115   2.05512
 Alpha virt. eigenvalues --    2.06302   2.06798   2.07464   2.07618   2.08041
 Alpha virt. eigenvalues --    2.08227   2.08491   2.09176   2.09707   2.10053
 Alpha virt. eigenvalues --    2.10368   2.10786   2.11604   2.11980   2.12117
 Alpha virt. eigenvalues --    2.12434   2.12775   2.13623   2.13792   2.14303
 Alpha virt. eigenvalues --    2.14772   2.15439   2.15642   2.16288   2.16421
 Alpha virt. eigenvalues --    2.16857   2.17122   2.17676   2.18435   2.18714
 Alpha virt. eigenvalues --    2.19574   2.19592   2.20015   2.20758   2.20772
 Alpha virt. eigenvalues --    2.21157   2.22418   2.23319   2.24349   2.24861
 Alpha virt. eigenvalues --    2.25030   2.26034   2.26160   2.26625   2.28239
 Alpha virt. eigenvalues --    2.28953   2.29633   2.29821   2.30436   2.30649
 Alpha virt. eigenvalues --    2.31134   2.31288   2.32602   2.33916   2.34390
 Alpha virt. eigenvalues --    2.35104   2.35785   2.36892   2.38648   2.38977
 Alpha virt. eigenvalues --    2.39431   2.39938   2.40576   2.40910   2.41478
 Alpha virt. eigenvalues --    2.42010   2.42250   2.42678   2.42980   2.43888
 Alpha virt. eigenvalues --    2.44619   2.45084   2.45448   2.46003   2.46314
 Alpha virt. eigenvalues --    2.47186   2.47476   2.48243   2.49000   2.49794
 Alpha virt. eigenvalues --    2.49961   2.50806   2.51507   2.51685   2.52128
 Alpha virt. eigenvalues --    2.52911   2.53583   2.54341   2.54682   2.55713
 Alpha virt. eigenvalues --    2.55987   2.56401   2.56763   2.57168   2.57341
 Alpha virt. eigenvalues --    2.57845   2.58681   2.59159   2.59719   2.60279
 Alpha virt. eigenvalues --    2.60754   2.61332   2.61455   2.61784   2.62067
 Alpha virt. eigenvalues --    2.62443   2.62587   2.63225   2.63515   2.63688
 Alpha virt. eigenvalues --    2.64134   2.64218   2.64508   2.64662   2.65117
 Alpha virt. eigenvalues --    2.65491   2.65868   2.65948   2.66826   2.66939
 Alpha virt. eigenvalues --    2.67084   2.67381   2.67444   2.67853   2.67992
 Alpha virt. eigenvalues --    2.68291   2.68480   2.68795   2.69452   2.69727
 Alpha virt. eigenvalues --    2.69994   2.70571   2.70966   2.71170   2.71693
 Alpha virt. eigenvalues --    2.71858   2.72001   2.72567   2.73087   2.73288
 Alpha virt. eigenvalues --    2.74276   2.74483   2.74493   2.74869   2.75248
 Alpha virt. eigenvalues --    2.75285   2.75512   2.76455   2.76845   2.77236
 Alpha virt. eigenvalues --    2.77323   2.77887   2.78370   2.78699   2.78938
 Alpha virt. eigenvalues --    2.79119   2.79363   2.79448   2.79913   2.80352
 Alpha virt. eigenvalues --    2.80914   2.81228   2.81562   2.81866   2.82215
 Alpha virt. eigenvalues --    2.82439   2.83018   2.83313   2.83417   2.83761
 Alpha virt. eigenvalues --    2.84481   2.84999   2.85414   2.85516   2.86103
 Alpha virt. eigenvalues --    2.86185   2.86472   2.86795   2.86892   2.87149
 Alpha virt. eigenvalues --    2.88038   2.88366   2.88928   2.89599   2.89890
 Alpha virt. eigenvalues --    2.90353   2.90615   2.91092   2.92180   2.92222
 Alpha virt. eigenvalues --    2.92806   2.93236   2.93646   2.93940   2.94351
 Alpha virt. eigenvalues --    2.94948   2.95162   2.95714   2.96077   2.96179
 Alpha virt. eigenvalues --    2.96708   2.96979   2.97653   2.98530   2.99359
 Alpha virt. eigenvalues --    2.99965   3.00859   3.02152   3.02474   3.03022
 Alpha virt. eigenvalues --    3.04314   3.05040   3.05254   3.05703   3.05715
 Alpha virt. eigenvalues --    3.07086   3.08332   3.09030   3.09370   3.09732
 Alpha virt. eigenvalues --    3.10711   3.11057   3.11891   3.11991   3.12537
 Alpha virt. eigenvalues --    3.12903   3.12992   3.13388   3.13432   3.13754
 Alpha virt. eigenvalues --    3.14068   3.14500   3.15074   3.15354   3.15770
 Alpha virt. eigenvalues --    3.16010   3.16182   3.16473   3.16596   3.16739
 Alpha virt. eigenvalues --    3.17396   3.17669   3.17870   3.18131   3.18668
 Alpha virt. eigenvalues --    3.18978   3.19117   3.19767   3.19994   3.20249
 Alpha virt. eigenvalues --    3.20732   3.20774   3.21284   3.21560   3.21935
 Alpha virt. eigenvalues --    3.22903   3.23538   3.23839   3.24255   3.24440
 Alpha virt. eigenvalues --    3.24903   3.25672   3.25824   3.26000   3.26778
 Alpha virt. eigenvalues --    3.26865   3.27258   3.27547   3.28335   3.29059
 Alpha virt. eigenvalues --    3.29420   3.29754   3.30179   3.30725   3.31044
 Alpha virt. eigenvalues --    3.31332   3.31820   3.32357   3.32602   3.32804
 Alpha virt. eigenvalues --    3.33448   3.34020   3.34469   3.34598   3.34791
 Alpha virt. eigenvalues --    3.35321   3.35487   3.35845   3.36260   3.36428
 Alpha virt. eigenvalues --    3.36520   3.36810   3.37327   3.37488   3.38195
 Alpha virt. eigenvalues --    3.38303   3.38707   3.39102   3.39246   3.39965
 Alpha virt. eigenvalues --    3.40179   3.40578   3.40703   3.41120   3.41451
 Alpha virt. eigenvalues --    3.41518   3.41800   3.42011   3.42362   3.42828
 Alpha virt. eigenvalues --    3.43381   3.43626   3.43962   3.44106   3.44325
 Alpha virt. eigenvalues --    3.45382   3.45705   3.46315   3.46426   3.47014
 Alpha virt. eigenvalues --    3.47568   3.48042   3.48174   3.48364   3.48705
 Alpha virt. eigenvalues --    3.49403   3.49493   3.49956   3.50396   3.50784
 Alpha virt. eigenvalues --    3.51108   3.51684   3.51769   3.52281   3.52512
 Alpha virt. eigenvalues --    3.52782   3.53257   3.53476   3.53666   3.53803
 Alpha virt. eigenvalues --    3.53998   3.54825   3.55002   3.55214   3.55610
 Alpha virt. eigenvalues --    3.55934   3.56255   3.57065   3.57191   3.57569
 Alpha virt. eigenvalues --    3.57915   3.58679   3.59017   3.59683   3.61281
 Alpha virt. eigenvalues --    3.61532   3.61928   3.62245   3.63237   3.64279
 Alpha virt. eigenvalues --    3.64772   3.65518   3.66765   3.67889   3.68087
 Alpha virt. eigenvalues --    3.69224   3.69744   3.69956   3.70441   3.70768
 Alpha virt. eigenvalues --    3.71447   3.71601   3.72277   3.72345   3.73547
 Alpha virt. eigenvalues --    3.74106   3.75011   3.75444   3.75800   3.75963
 Alpha virt. eigenvalues --    3.76355   3.76725   3.77744   3.78109   3.79598
 Alpha virt. eigenvalues --    3.80337   3.82986   3.85433   3.86336   3.86818
 Alpha virt. eigenvalues --    3.87725   3.88379   3.89404   3.89832   3.90841
 Alpha virt. eigenvalues --    3.92220   3.92761   3.93365   3.93924   3.94528
 Alpha virt. eigenvalues --    3.95176   3.95673   3.96112   3.96967   3.98350
 Alpha virt. eigenvalues --    3.99944   4.00114   4.01619   4.02137   4.02415
 Alpha virt. eigenvalues --    4.03300   4.03460   4.04223   4.04444   4.04794
 Alpha virt. eigenvalues --    4.05207   4.05344   4.06978   4.07537   4.07753
 Alpha virt. eigenvalues --    4.09115   4.09481   4.09654   4.09802   4.11391
 Alpha virt. eigenvalues --    4.11744   4.12227   4.12619   4.12686   4.13553
 Alpha virt. eigenvalues --    4.14274   4.14988   4.15603   4.16030   4.16711
 Alpha virt. eigenvalues --    4.18857   4.19240   4.19465   4.19953   4.20151
 Alpha virt. eigenvalues --    4.20427   4.20497   4.20617   4.20963   4.21160
 Alpha virt. eigenvalues --    4.21435   4.21693   4.22175   4.22310   4.23010
 Alpha virt. eigenvalues --    4.23190   4.24163   4.24458   4.24601   4.25485
 Alpha virt. eigenvalues --    4.25750   4.26423   4.26608   4.27080   4.27601
 Alpha virt. eigenvalues --    4.28003   4.28129   4.28726   4.29493   4.30276
 Alpha virt. eigenvalues --    4.31402   4.31891   4.33745   4.34245   4.35914
 Alpha virt. eigenvalues --    4.36107   4.36228   4.36935   4.37680   4.39528
 Alpha virt. eigenvalues --    4.40756   4.42132   4.43152   4.45345   4.46763
 Alpha virt. eigenvalues --    4.47421   4.50522   4.55635   4.57029   4.59703
 Alpha virt. eigenvalues --    4.60313   4.60903   4.61410   4.62091   4.62493
 Alpha virt. eigenvalues --    4.63077   4.63454   4.63685   4.63794   4.64439
 Alpha virt. eigenvalues --    4.65246   4.65810   4.66209   4.68434   4.70840
 Alpha virt. eigenvalues --    4.71836   4.72937   4.73754   4.74005   4.74914
 Alpha virt. eigenvalues --    4.75253   4.76418   4.79878   4.81971   4.84017
 Alpha virt. eigenvalues --    4.85440   4.85701   4.86451   4.91372   4.91717
 Alpha virt. eigenvalues --    4.92783   4.92985   4.93256   4.93931   4.94120
 Alpha virt. eigenvalues --    4.94718   4.95428   4.96724   4.99416   5.02120
 Alpha virt. eigenvalues --    5.04401   5.12083   5.12460   5.12991   5.13354
 Alpha virt. eigenvalues --    5.13762   5.13975   5.14605   5.14780   5.14937
 Alpha virt. eigenvalues --    5.16386   5.25847   5.26273   5.27373   5.27697
 Alpha virt. eigenvalues --    5.33073   5.33851   5.35049   5.35606   5.39533
 Alpha virt. eigenvalues --    5.40751   5.42189   5.42749   5.42928   5.43715
 Alpha virt. eigenvalues --    5.55915   5.56352   5.57775   5.58593   5.59434
 Alpha virt. eigenvalues --    5.59886   5.77874   5.84902   5.86299   5.88219
 Alpha virt. eigenvalues --    5.91144   5.92532   6.10181   6.20776   6.25370
 Alpha virt. eigenvalues --    6.30650   6.74553   6.79691   6.86471   6.96248
 Alpha virt. eigenvalues --    6.98263   7.08201   7.25000   7.31705   7.41881
 Alpha virt. eigenvalues --    7.49135   7.75406   7.77352   7.99073   8.02177
 Alpha virt. eigenvalues --    8.05273   8.07178  15.85334  15.85862  22.07096
 Alpha virt. eigenvalues --   22.07730  22.26247  22.30406  22.42586  22.48538
 Alpha virt. eigenvalues --   22.56076  22.60929  22.61501  22.61863  22.62787
 Alpha virt. eigenvalues --   22.63291  22.63825  22.64948  22.65539  22.68339
 Alpha virt. eigenvalues --   22.70086  22.72571  22.74918  22.76580  22.77293
 Alpha virt. eigenvalues --   22.79401  22.81176  22.82489  22.85000  22.86524
 Alpha virt. eigenvalues --   22.97582  23.13141  23.14446  23.16204  23.16932
 Alpha virt. eigenvalues --   44.54488  44.60253
          Condensed to atoms (all electrons):
 Mulliken charges:
               1
     1  P    0.082851
     2  P    0.064961
     3  O   -0.295548
     4  O   -0.304640
     5  C   -0.316610
     6  C    0.060782
     7  C    0.124911
     8  C   -0.353301
     9  C    0.334328
    10  C   -0.376090
    11  C   -0.366497
    12  C    0.180462
    13  C   -0.267066
    14  C   -0.104264
    15  C   -0.125148
    16  C   -0.134645
    17  C   -0.199535
    18  C   -0.015437
    19  C   -0.132406
    20  C   -0.152067
    21  C   -0.086593
    22  C   -0.139475
    23  C   -0.144872
    24  C    0.029676
    25  C   -0.163797
    26  C   -0.124732
    27  C   -0.109611
    28  C   -0.127840
    29  C   -0.144013
    30  C    0.100140
    31  C   -0.165939
    32  C   -0.143989
    33  C   -0.105802
    34  C   -0.172498
    35  C   -0.176812
    36  H    0.122843
    37  H    0.141874
    38  H    0.082279
    39  H    0.067540
    40  H    0.138146
    41  H    0.173113
    42  H    0.121075
    43  H    0.124999
    44  H    0.118998
    45  H    0.117146
    46  H    0.148556
    47  H    0.111323
    48  H    0.125743
    49  H    0.117645
    50  H    0.116814
    51  H    0.115807
    52  H    0.148238
    53  H    0.139951
    54  H    0.127982
    55  H    0.124333
    56  H    0.123161
    57  H    0.116470
    58  H    0.130770
    59  H    0.118745
    60  H    0.119558
    61  H    0.117735
    62  H    0.120223
    63  H    0.141858
    64  H    0.115899
    65  H    0.114990
    66  H    0.109716
    67  H    0.157587
 Sum of Mulliken charges =  -0.00000
 Mulliken charges with hydrogens summed into heavy atoms:
               1
     1  P    0.082851
     2  P    0.064961
     3  O   -0.295548
     4  O   -0.304640
     5  C   -0.051893
     6  C    0.143061
     7  C    0.192451
     8  C   -0.042041
     9  C    0.334328
    10  C   -0.011017
    11  C    0.010527
    12  C    0.180462
    13  C   -0.141323
    14  C    0.013382
    15  C   -0.008334
    16  C   -0.018838
    17  C   -0.051297
    18  C   -0.015437
    19  C    0.007544
    20  C   -0.024085
    21  C    0.037740
    22  C   -0.016314
    23  C   -0.028402
    24  C    0.029676
    25  C   -0.033027
    26  C   -0.005987
    27  C    0.009947
    28  C   -0.010105
    29  C   -0.023789
    30  C    0.100140
    31  C   -0.024080
    32  C   -0.028090
    33  C    0.009188
    34  C   -0.062782
    35  C   -0.019226
 Electronic spatial extent (au):  <R**2>=          17375.9238
 Charge=             -0.0000 electrons
 Dipole moment (field-independent basis, Debye):
    X=              0.1769    Y=              0.3065    Z=              1.4162  Tot=              1.4598
 Quadrupole moment (field-independent basis, Debye-Ang):
   XX=           -208.0852   YY=           -209.0468   ZZ=           -215.1788
   XY=             -5.6205   XZ=             -6.0786   YZ=             10.9464
 Traceless Quadrupole moment (field-independent basis, Debye-Ang):
   XX=              2.6851   YY=              1.7234   ZZ=             -4.4085
   XY=             -5.6205   XZ=             -6.0786   YZ=             10.9464
 Octapole moment (field-independent basis, Debye-Ang**2):
  XXX=             17.5441  YYY=             31.1469  ZZZ=             36.3739  XYY=             28.5638
  XXY=            -35.6059  XXZ=            -12.1394  XZZ=            -10.0747  YZZ=            -31.6650
  YYZ=             11.9153  XYZ=            -27.2179
 Hexadecapole moment (field-independent basis, Debye-Ang**3):
 XXXX=         -12259.3791 YYYY=          -7466.9057 ZZZZ=          -3305.0864 XXXY=            -71.5064
 XXXZ=            102.0602 YYYX=            -38.8640 YYYZ=             96.7071 ZZZX=            -89.0580
 ZZZY=             89.0132 XXYY=          -3321.0078 XXZZ=          -2673.8644 YYZZ=          -1771.8137
 XXYZ=             95.5772 YYXZ=            -35.9588 ZZXY=            -17.8554
 N-N= 4.121246991121D+03 E-N=-1.300498355055D+04  KE= 2.023183901111D+03
 1\1\GINC-NC108\SP\RPBE1PBE\def2TZVP\C31H32O2P2\MACKK4\05-Dec-2021\0\\#
  PBE1PBE/def2TZVP int=(grid=ultrafine) empiricaldispersion=GD3BJ nmr=g
 iao\\RR_DIOP_1 title\\0,1\P,0,1.277607461,4.5976950179,-0.0696800528\P
 ,0,-0.4051189839,3.04840943,-2.6694861955\O,0,-0.6252084572,1.28593364
 09,1.4208728377\O,0,-0.4097436152,0.1376346646,-0.5782424727\C,0,0.719
 3521325,3.2399478502,1.0777838325\C,0,-0.1636982994,2.1943057717,0.417
 7328574\C,0,0.503439546,1.2368950955,-0.5805903292\C,0,0.722115317,1.7
 068687142,-2.021244601\C,0,-0.9994643698,0.0663969667,0.7411376846\C,0
 ,-0.4026115614,-1.1004432211,1.5255863324\C,0,-2.5144982836,-0.0164124
 461,0.5751992937\C,0,1.830591283,5.8512757429,1.1511775732\C,0,0.86627
 63471,6.4436444429,1.9920608554\C,0,1.2625164439,7.3560404555,2.974670
 6639\C,0,2.6159191191,7.7004606366,3.1137387062\C,0,3.5726265218,7.129
 1708798,2.2657484731\C,0,3.1843054707,6.2055316157,1.2843685357\C,0,2.
 8349551402,4.0295060982,-0.8632189002\C,0,3.157248561,4.5982554606,-2.
 112974986\C,0,4.3328215016,4.2226886664,-2.7772847861\C,0,5.1889062783
 ,3.2690993674,-2.2064299695\C,0,4.8773226896,2.7053459639,-0.960116240
 1\C,0,3.7105911583,3.0895552732,-0.284543331\C,0,-2.0789914676,2.29797
 22151,-2.5821663923\C,0,-3.1341300943,2.9897203465,-1.9597332512\C,0,-
 4.4038333753,2.400898517,-1.8760101418\C,0,-4.6274110372,1.1276720312,
 -2.4189113828\C,0,-3.5775938084,0.4379044101,-3.0443815667\C,0,-2.3056
 974403,1.0170409727,-3.1230182996\C,0,0.0438325946,3.0266894748,-4.449
 1498354\C,0,-0.9595146577,3.1298386364,-5.4325819521\C,0,-0.6117292817
 ,3.1380585311,-6.7886479148\C,0,0.7330269195,3.0530337231,-7.176486648
 9\C,0,1.7346725363,2.9590874162,-6.2005025629\C,0,1.3946189116,2.94659
 49586,-4.8416637905\H,0,1.5842673243,2.7690945562,1.5771225245\H,0,0.1
 385264397,3.7487206818,1.8663785767\H,0,-1.0228606648,2.7007066901,-0.
 0707568982\H,0,1.4856879255,0.9203788768,-0.1596222513\H,0,0.644311162
 4,0.8314237331,-2.6880239341\H,0,1.7472392712,2.0959577008,-2.12126006
 63\H,0,0.695389714,-1.012064171,1.5531568146\H,0,-0.7815083679,-1.0974
 297095,2.5607228662\H,0,-0.6740563145,-2.0570490202,1.0507836191\H,0,-
 2.9996636143,-0.110928188,1.5603782142\H,0,-2.8909164408,0.8873065173,
 0.0713281665\H,0,-2.7824029603,-0.8906583044,-0.0400982778\H,0,-0.1953
 272356,6.217159114,1.8545884481\H,0,0.5079124601,7.8160935778,3.620298
 6836\H,0,2.9214085712,8.4225859429,3.8777328053\H,0,4.6286152003,7.401
 1772486,2.3630965008\H,0,3.9373940745,5.7643518261,0.6254982823\H,0,2.
 4671035254,5.3224573122,-2.5629181501\H,0,4.5716234193,4.6696564724,-3
 .7476996137\H,0,6.1004375036,2.9656288542,-2.7310717046\H,0,5.54580542
 39,1.964674511,-0.5095059805\H,0,3.4891497185,2.6520257909,0.693784660
 9\H,0,-2.9589690745,3.9989451022,-1.5743718527\H,0,-5.2212956394,2.947
 3090256,-1.3951057002\H,0,-5.6212259295,0.6721833298,-2.3584151373\H,0
 ,-3.7484701359,-0.5557031288,-3.4712397097\H,0,-1.4931224645,0.4732121
 377,-3.6148677962\H,0,-2.0064768858,3.2141613884,-5.1321303594\H,0,-1.
 3980624005,3.220945736,-7.5457022749\H,0,1.0004646384,3.064859444,-8.2
 380176855\H,0,2.787606664,2.8964960864,-6.4949316893\H,0,2.1911484666,
 2.8874326024,-4.0942189053\\Version=ES64L-G09RevE.01\State=1-A\HF=-203
 2.4472921\RMSD=7.207e-09\Dipole=0.3461088,-0.4521719,-0.0747404\Quadru
 pole=10.979668,-7.6420323,-3.3376356,1.238992,-2.3624551,3.1844666\PG=
 C01 [X(C31H32O2P2)]\\@


 I think that all right-thinking people in this
 country are sick and tired of being told that
 ordinary, decent people are fed up in this country
 with being sick and tired.  I'm certainly not!
 But I'm sick and tired of being told that I am!
                               -- Monty Python
 Job cpu time:       0 days 15 hours 52 minutes 16.6 seconds.
 File lengths (MBytes):  RWF=    967 Int=      0 D2E=      0 Chk=    128 Scr=      1
 Normal termination of Gaussian 09 at Sun Dec  5 00:51:01 2021.
 Initial command:
 /gstore/apps/gaussian/g09.e01-foss-2017a/g09/l1.exe "/local/22791310/Gau-7043.inp" -scrdir="/local/22791310/"
 Entering Link 1 = /gstore/apps/gaussian/g09.e01-foss-2017a/g09/l1.exe PID=     28481.
  
 Copyright (c) 1988,1990,1992,1993,1995,1998,2003,2009,2015,
            Gaussian, Inc.  All Rights Reserved.
  
 This is part of the Gaussian(R) 09 program.  It is based on
 the Gaussian(R) 03 system (copyright 2003, Gaussian, Inc.),
 the Gaussian(R) 98 system (copyright 1998, Gaussian, Inc.),
 the Gaussian(R) 94 system (copyright 1995, Gaussian, Inc.),
 the Gaussian 92(TM) system (copyright 1992, Gaussian, Inc.),
 the Gaussian 90(TM) system (copyright 1990, Gaussian, Inc.),
 the Gaussian 88(TM) system (copyright 1988, Gaussian, Inc.),
 the Gaussian 86(TM) system (copyright 1986, Carnegie Mellon
 University), and the Gaussian 82(TM) system (copyright 1983,
 Carnegie Mellon University). Gaussian is a federally registered
 trademark of Gaussian, Inc.
  
 This software contains proprietary and confidential information,
 including trade secrets, belonging to Gaussian, Inc.
  
 This software is provided under written license and may be
 used, copied, transmitted, or stored only in accord with that
 written license.
  
 The following legend is applicable only to US Government
 contracts under FAR:
  
                    RESTRICTED RIGHTS LEGEND
  
 Use, reproduction and disclosure by the US Government is
 subject to restrictions as set forth in subparagraphs (a)
 and (c) of the Commercial Computer Software - Restricted
 Rights clause in FAR 52.227-19.
  
 Gaussian, Inc.
 340 Quinnipiac St., Bldg. 40, Wallingford CT 06492
  
  
 ---------------------------------------------------------------
 Warning -- This program may not be used in any manner that
 competes with the business of Gaussian, Inc. or will provide
 assistance to any competitor of Gaussian, Inc.  The licensee
 of this program is prohibited from giving any competitor of
 Gaussian, Inc. access to this program.  By using this program,
 the user acknowledges that Gaussian, Inc. is engaged in the
 business of creating and licensing software in the field of
 computational chemistry and represents and warrants to the
 licensee that it is not a competitor of Gaussian, Inc. and that
 it will not use this program in any manner prohibited above.
 ---------------------------------------------------------------
  

 Cite this work as:
 Gaussian 09, Revision E.01,
 M. J. Frisch, G. W. Trucks, H. B. Schlegel, G. E. Scuseria, 
 M. A. Robb, J. R. Cheeseman, G. Scalmani, V. Barone, B. Mennucci, 
 G. A. Petersson, H. Nakatsuji, M. Caricato, X. Li, H. P. Hratchian, 
 A. F. Izmaylov, J. Bloino, G. Zheng, J. L. Sonnenberg, M. Hada, 
 M. Ehara, K. Toyota, R. Fukuda, J. Hasegawa, M. Ishida, T. Nakajima, 
 Y. Honda, O. Kitao, H. Nakai, T. Vreven, J. A. Montgomery, Jr., 
 J. E. Peralta, F. Ogliaro, M. Bearpark, J. J. Heyd, E. Brothers, 
 K. N. Kudin, V. N. Staroverov, T. Keith, R. Kobayashi, J. Normand, 
 K. Raghavachari, A. Rendell, J. C. Burant, S. S. Iyengar, J. Tomasi, 
 M. Cossi, N. Rega, J. M. Millam, M. Klene, J. E. Knox, J. B. Cross, 
 V. Bakken, C. Adamo, J. Jaramillo, R. Gomperts, R. E. Stratmann, 
 O. Yazyev, A. J. Austin, R. Cammi, C. Pomelli, J. W. Ochterski, 
 R. L. Martin, K. Morokuma, V. G. Zakrzewski, G. A. Voth, 
 P. Salvador, J. J. Dannenberg, S. Dapprich, A. D. Daniels, 
 O. Farkas, J. B. Foresman, J. V. Ortiz, J. Cioslowski, 
 and D. J. Fox, Gaussian, Inc., Wallingford CT, 2013.
 
 ******************************************
 Gaussian 09:  ES64L-G09RevE.01 30-Nov-2015
                 5-Dec-2021 
 ******************************************
 %nprocs=14
 Will use up to   14 processors via shared memory.
 %mem=128GB
 %chk=RR_DIOP_1_SPE_NoPd.chk
 ----------------------------------------------------------------------
 # PBE1PBE/def2TZVP int=(grid=ultrafine) empiricaldispersion=GD3BJ pop=
 nbo guess=read geom=check
 ----------------------------------------------------------------------
 1/29=2,38=1/1;
 2/12=2,40=1/2;
 3/5=44,7=101,11=2,14=-4,16=1,25=1,30=1,74=-13,75=-5,116=-2,124=41/1,2,3;
 4/5=1/1;
 5/5=2,38=6/2;
 6/7=2,8=2,9=2,10=2,28=1,40=1/1,7;
 99/5=1,9=1/99;
 ---------------
 RR_DIOP_1 title
 ---------------
 Structure from the checkpoint file:  "RR_DIOP_1_SPE_NoPd.chk"
 Charge =  0 Multiplicity = 1
 Z-Matrix found in file.
 P,0,1.277607461,4.5976950179,-0.0696800528
 P,0,-0.4051189839,3.04840943,-2.6694861955
 O,0,-0.6252084572,1.2859336409,1.4208728377
 O,0,-0.4097436152,0.1376346646,-0.5782424727
 C,0,0.7193521325,3.2399478502,1.0777838325
 C,0,-0.1636982994,2.1943057717,0.4177328574
 C,0,0.503439546,1.2368950955,-0.5805903292
 C,0,0.722115317,1.7068687142,-2.021244601
 C,0,-0.9994643698,0.0663969667,0.7411376846
 C,0,-0.4026115614,-1.1004432211,1.5255863324
 C,0,-2.5144982836,-0.0164124461,0.5751992937
 C,0,1.830591283,5.8512757429,1.1511775732
 C,0,0.8662763471,6.4436444429,1.9920608554
 C,0,1.2625164439,7.3560404555,2.9746706639
 C,0,2.6159191191,7.7004606366,3.1137387062
 C,0,3.5726265218,7.1291708798,2.2657484731
 C,0,3.1843054707,6.2055316157,1.2843685357
 C,0,2.8349551402,4.0295060982,-0.8632189002
 C,0,3.157248561,4.5982554606,-2.112974986
 C,0,4.3328215016,4.2226886664,-2.7772847861
 C,0,5.1889062783,3.2690993674,-2.2064299695
 C,0,4.8773226896,2.7053459639,-0.9601162401
 C,0,3.7105911583,3.0895552732,-0.284543331
 C,0,-2.0789914676,2.2979722151,-2.5821663923
 C,0,-3.1341300943,2.9897203465,-1.9597332512
 C,0,-4.4038333753,2.400898517,-1.8760101418
 C,0,-4.6274110372,1.1276720312,-2.4189113828
 C,0,-3.5775938084,0.4379044101,-3.0443815667
 C,0,-2.3056974403,1.0170409727,-3.1230182996
 C,0,0.0438325946,3.0266894748,-4.4491498354
 C,0,-0.9595146577,3.1298386364,-5.4325819521
 C,0,-0.6117292817,3.1380585311,-6.7886479148
 C,0,0.7330269195,3.0530337231,-7.1764866489
 C,0,1.7346725363,2.9590874162,-6.2005025629
 C,0,1.3946189116,2.9465949586,-4.8416637905
 H,0,1.5842673243,2.7690945562,1.5771225245
 H,0,0.1385264397,3.7487206818,1.8663785767
 H,0,-1.0228606648,2.7007066901,-0.0707568982
 H,0,1.4856879255,0.9203788768,-0.1596222513
 H,0,0.6443111624,0.8314237331,-2.6880239341
 H,0,1.7472392712,2.0959577008,-2.1212600663
 H,0,0.695389714,-1.012064171,1.5531568146
 H,0,-0.7815083679,-1.0974297095,2.5607228662
 H,0,-0.6740563145,-2.0570490202,1.0507836191
 H,0,-2.9996636143,-0.110928188,1.5603782142
 H,0,-2.8909164408,0.8873065173,0.0713281665
 H,0,-2.7824029603,-0.8906583044,-0.0400982778
 H,0,-0.1953272356,6.217159114,1.8545884481
 H,0,0.5079124601,7.8160935778,3.6202986836
 H,0,2.9214085712,8.4225859429,3.8777328053
 H,0,4.6286152003,7.4011772486,2.3630965008
 H,0,3.9373940745,5.7643518261,0.6254982823
 H,0,2.4671035254,5.3224573122,-2.5629181501
 H,0,4.5716234193,4.6696564724,-3.7476996137
 H,0,6.1004375036,2.9656288542,-2.7310717046
 H,0,5.5458054239,1.964674511,-0.5095059805
 H,0,3.4891497185,2.6520257909,0.6937846609
 H,0,-2.9589690745,3.9989451022,-1.5743718527
 H,0,-5.2212956394,2.9473090256,-1.3951057002
 H,0,-5.6212259295,0.6721833298,-2.3584151373
 H,0,-3.7484701359,-0.5557031288,-3.4712397097
 H,0,-1.4931224645,0.4732121377,-3.6148677962
 H,0,-2.0064768858,3.2141613884,-5.1321303594
 H,0,-1.3980624005,3.220945736,-7.5457022749
 H,0,1.0004646384,3.064859444,-8.2380176855
 H,0,2.787606664,2.8964960864,-6.4949316893
 H,0,2.1911484666,2.8874326024,-4.0942189053
 Recover connectivity data from disk.
 Stoichiometry    C31H32O2P2
 Framework group  C1[X(C31H32O2P2)]
 Deg. of freedom   195
 Full point group                 C1      NOp   1
 Largest Abelian subgroup         C1      NOp   1
 Largest concise Abelian subgroup C1      NOp   1
                         Standard orientation:                         
 ---------------------------------------------------------------------
 Center     Atomic      Atomic             Coordinates (Angstroms)
 Number     Number       Type             X           Y           Z
 ---------------------------------------------------------------------
      1         15           0       -2.031850   -0.126021   -0.642552
      2         15           0        1.338064    0.669892   -0.674977
      3          8           0        0.038343   -3.220667    1.074330
      4          8           0        1.674125   -1.803395    1.897152
      5          6           0       -1.631201   -1.710887    0.251584
      6          6           0       -0.147571   -1.924079    0.500992
      7          6           0        0.527473   -1.025448    1.547480
      8          6           0        0.978093    0.378475    1.135024
      9          6           0        1.311345   -3.197245    1.758650
     10          6           0        1.107351   -3.830430    3.133630
[...]
  1056. RY*(   5) H  37                  0.00002     3.04848   
  1057. RY*(   1) H  38                  0.00174     0.85199   
  1058. RY*(   2) H  38                  0.00023     2.60216   
  1059. RY*(   3) H  38                  0.00012     2.69444   
  1060. RY*(   4) H  38                  0.00012     2.57259   
  1061. RY*(   5) H  38                  0.00002     3.20966   
  1062. RY*(   1) H  39                  0.00215     0.62570   
  1063. RY*(   2) H  39                  0.00016     2.41882   
  1064. RY*(   3) H  39                  0.00011     2.57515   
  1065. RY*(   4) H  39                  0.00010     2.71208   
  1066. RY*(   5) H  39                  0.00002     3.14857   
  1067. RY*(   1) H  40                  0.00196     0.73564   
  1068. RY*(   2) H  40                  0.00020     2.39287   
  1069. RY*(   3) H  40                  0.00014     2.37984   
  1070. RY*(   4) H  40                  0.00011     2.43624   
  1071. RY*(   5) H  40                  0.00002     3.07332   
  1072. RY*(   1) H  41                  0.00092     0.86371   
  1073. RY*(   2) H  41                  0.00031     2.57213   
  1074. RY*(   3) H  41                  0.00013     2.52945   
  1075. RY*(   4) H  41                  0.00010     2.38618   
  1076. RY*(   5) H  41                  0.00002     3.17145   
  1077. RY*(   1) H  42                  0.00050     1.25452   
  1078. RY*(   2) H  42                  0.00013     1.53285   
  1079. RY*(   3) H  42                  0.00009     2.22031   
  1080. RY*(   4) H  42                  0.00007     2.31772   
  1081. RY*(   5) H  42                  0.00001     2.95937   
  1082. RY*(   1) H  43                  0.00031     0.99240   
  1083. RY*(   2) H  43                  0.00013     1.66589   
  1084. RY*(   3) H  43                  0.00010     2.20925   
  1085. RY*(   4) H  43                  0.00007     2.35387   
  1086. RY*(   5) H  43                  0.00001     2.91043   
  1087. RY*(   1) H  44                  0.00029     1.00780   
  1088. RY*(   2) H  44                  0.00012     1.67916   
  1089. RY*(   3) H  44                  0.00010     2.16921   
  1090. RY*(   4) H  44                  0.00008     2.37550   
  1091. RY*(   5) H  44                  0.00001     2.92715   
  1092. RY*(   1) H  45                  0.00027     1.10493   
  1093. RY*(   2) H  45                  0.00014     2.19277   
  1094. RY*(   3) H  45                  0.00012     1.60424   
  1095. RY*(   4) H  45                  0.00007     2.39429   
  1096. RY*(   5) H  45                  0.00001     2.90316   
  1097. RY*(   1) H  46                  0.00085     0.86573   
  1098. RY*(   2) H  46                  0.00020     2.43345   
  1099. RY*(   3) H  46                  0.00009     2.31974   
  1100. RY*(   4) H  46                  0.00006     2.49217   
  1101. RY*(   5) H  46                  0.00002     2.95720   
  1102. RY*(   1) H  47                  0.00034     0.96031   
  1103. RY*(   2) H  47                  0.00015     2.15413   
  1104. RY*(   3) H  47                  0.00010     1.82412   
  1105. RY*(   4) H  47                  0.00008     2.40118   
  1106. RY*(   5) H  47                  0.00001     2.95604   
  1107. RY*(   1) H  48                  0.00075     1.23342   
  1108. RY*(   2) H  48                  0.00021     1.70599   
  1109. RY*(   3) H  48                  0.00012     2.14564   
  1110. RY*(   4) H  48                  0.00010     2.72717   
  1111. RY*(   5) H  48                  0.00003     3.09380   
  1112. RY*(   1) H  49                  0.00039     0.87785   
  1113. RY*(   2) H  49                  0.00020     1.90657   
  1114. RY*(   3) H  49                  0.00012     2.66114   
  1115. RY*(   4) H  49                  0.00011     2.15592   
  1116. RY*(   5) H  49                  0.00003     3.10534   
  1117. RY*(   1) H  50                  0.00034     0.87144   
  1118. RY*(   2) H  50                  0.00019     1.86037   
  1119. RY*(   3) H  50                  0.00011     2.15505   
  1120. RY*(   4) H  50                  0.00009     2.75223   
  1121. RY*(   5) H  50                  0.00002     3.10174   
  1122. RY*(   1) H  51                  0.00047     0.95072   
  1123. RY*(   2) H  51                  0.00018     1.87212   
  1124. RY*(   3) H  51                  0.00012     2.52825   
  1125. RY*(   4) H  51                  0.00011     2.32586   
  1126. RY*(   5) H  51                  0.00002     3.08956   
  1127. RY*(   1) H  52                  0.00121     0.73589   
  1128. RY*(   2) H  52                  0.00025     2.36486   
  1129. RY*(   3) H  52                  0.00012     2.74138   
  1130. RY*(   4) H  52                  0.00012     2.19243   
  1131. RY*(   5) H  52                  0.00004     3.20324   
  1132. RY*(   1) H  53                  0.00100     0.72055   
  1133. RY*(   2) H  53                  0.00031     2.29620   
  1134. RY*(   3) H  53                  0.00014     2.17442   
  1135. RY*(   4) H  53                  0.00009     2.74664   
  1136. RY*(   5) H  53                  0.00002     3.12202   
  1137. RY*(   1) H  54                  0.00036     1.06086   
  1138. RY*(   2) H  54                  0.00020     1.75914   
  1139. RY*(   3) H  54                  0.00014     2.23466   
  1140. RY*(   4) H  54                  0.00013     2.61034   
  1141. RY*(   5) H  54                  0.00002     3.10129   
  1142. RY*(   1) H  55                  0.00031     0.91193   
  1143. RY*(   2) H  55                  0.00020     1.78501   
  1144. RY*(   3) H  55                  0.00012     2.14604   
  1145. RY*(   4) H  55                  0.00009     2.73795   
  1146. RY*(   5) H  55                  0.00002     3.08168   
  1147. RY*(   1) H  56                  0.00040     1.01463   
  1148. RY*(   2) H  56                  0.00020     1.78079   
  1149. RY*(   3) H  56                  0.00013     2.68726   
  1150. RY*(   4) H  56                  0.00012     2.14692   
  1151. RY*(   5) H  56                  0.00002     3.07826   
  1152. RY*(   1) H  57                  0.00141     0.71254   
  1153. RY*(   2) H  57                  0.00039     2.35144   
  1154. RY*(   3) H  57                  0.00016     2.17757   
  1155. RY*(   4) H  57                  0.00008     2.73542   
  1156. RY*(   5) H  57                  0.00003     3.12969   
  1157. RY*(   1) H  58                  0.00064     1.22134   
  1158. RY*(   2) H  58                  0.00022     1.71119   
  1159. RY*(   3) H  58                  0.00014     2.15453   
  1160. RY*(   4) H  58                  0.00011     2.76151   
  1161. RY*(   5) H  58                  0.00002     3.10043   
  1162. RY*(   1) H  59                  0.00035     0.96067   
  1163. RY*(   2) H  59                  0.00021     1.85141   
  1164. RY*(   3) H  59                  0.00013     2.55315   
  1165. RY*(   4) H  59                  0.00013     2.23255   
  1166. RY*(   5) H  59                  0.00002     3.09704   
  1167. RY*(   1) H  60                  0.00032     0.93657   
  1168. RY*(   2) H  60                  0.00020     1.77608   
  1169. RY*(   3) H  60                  0.00012     2.14904   
  1170. RY*(   4) H  60                  0.00009     2.74609   
  1171. RY*(   5) H  60                  0.00002     3.08548   
  1172. RY*(   1) H  61                  0.00047     1.01175   
  1173. RY*(   2) H  61                  0.00019     1.81320   
  1174. RY*(   3) H  61                  0.00012     2.45026   
  1175. RY*(   4) H  61                  0.00013     2.39375   
  1176. RY*(   5) H  61                  0.00002     3.08542   
  1177. RY*(   1) H  62                  0.00152     0.70924   
  1178. RY*(   2) H  62                  0.00036     2.35872   
  1179. RY*(   3) H  62                  0.00016     2.19668   
  1180. RY*(   4) H  62                  0.00008     2.76836   
  1181. RY*(   5) H  62                  0.00003     3.12688   
  1182. RY*(   1) H  63                  0.00098     0.71109   
  1183. RY*(   2) H  63                  0.00024     2.31562   
  1184. RY*(   3) H  63                  0.00012     2.26325   
  1185. RY*(   4) H  63                  0.00012     2.68227   
  1186. RY*(   5) H  63                  0.00004     3.17819   
  1187. RY*(   1) H  64                  0.00041     0.95488   
  1188. RY*(   2) H  64                  0.00019     1.87526   
  1189. RY*(   3) H  64                  0.00012     2.66212   
  1190. RY*(   4) H  64                  0.00011     2.20203   
  1191. RY*(   5) H  64                  0.00002     3.10001   
  1192. RY*(   1) H  65                  0.00035     0.87073   
  1193. RY*(   2) H  65                  0.00019     1.85307   
  1194. RY*(   3) H  65                  0.00011     2.15626   
  1195. RY*(   4) H  65                  0.00009     2.75331   
  1196. RY*(   5) H  65                  0.00002     3.10178   
  1197. RY*(   1) H  66                  0.00045     0.97221   
  1198. RY*(   2) H  66                  0.00018     1.87087   
  1199. RY*(   3) H  66                  0.00012     2.63887   
  1200. RY*(   4) H  66                  0.00011     2.21952   
  1201. RY*(   5) H  66                  0.00002     3.09782   
  1202. RY*(   1) H  67                  0.00121     0.93902   
  1203. RY*(   2) H  67                  0.00026     2.47388   
  1204. RY*(   3) H  67                  0.00015     2.23515   
  1205. RY*(   4) H  67                  0.00008     2.71973   
  1206. RY*(   5) H  67                  0.00005     3.21356   
  1207. BD*(   1) P   1 - C   5          0.02923     0.20047   
  1208. BD*(   1) P   1 - C  12          0.04822     0.23320   
  1209. BD*(   1) P   1 - C  18          0.03330     0.22552   
  1210. BD*(   1) P   2 - C   8          0.03453     0.19885   
  1211. BD*(   1) P   2 - C  24          0.03605     0.23191   
  1212. BD*(   1) P   2 - C  30          0.04410     0.23615   
  1213. BD*(   1) O   3 - C   6          0.03274     0.28985   
  1214. BD*(   1) O   3 - C   9          0.06275     0.26699   
  1215. BD*(   1) O   4 - C   7          0.02796     0.28908   
  1216. BD*(   1) O   4 - C   9          0.06433     0.26550   
  1217. BD*(   1) C   5 - C   6          0.02303     0.35048   
  1218. BD*(   1) C   5 - H  36          0.02549     0.36185   
  1219. BD*(   1) C   5 - H  37          0.01099     0.36235   
  1220. BD*(   1) C   6 - C   7          0.04892     0.32822   
  1221. BD*(   1) C   6 - H  38          0.04400     0.35058   
  1222. BD*(   1) C   7 - C   8          0.02228     0.34460   
  1223. BD*(   1) C   7 - H  39          0.04484     0.33665   
  1224. BD*(   1) C   8 - H  40          0.02005     0.36903   
  1225. BD*(   1) C   8 - H  41          0.01055     0.38406   
  1226. BD*(   1) C   9 - C  10          0.03983     0.33128   
  1227. BD*(   1) C   9 - C  11          0.04057     0.33408   
  1228. BD*(   1) C  10 - H  42          0.00529     0.37744   
  1229. BD*(   1) C  10 - H  43          0.00555     0.37599   
  1230. BD*(   1) C  10 - H  44          0.00550     0.37656   
  1231. BD*(   1) C  11 - H  45          0.00554     0.37891   
  1232. BD*(   1) C  11 - H  46          0.00620     0.39736   
  1233. BD*(   1) C  11 - H  47          0.00563     0.37938   
  1234. BD*(   1) C  12 - C  13          0.02201     0.52061   
  1235. BD*(   1) C  12 - C  17          0.02666     0.53165   
  1236. BD*(   2) C  12 - C  17          0.36733     0.02897  1243(v),1238(v),1207(v)
                                                    556(g),555(g)
  1237. BD*(   1) C  13 - C  14          0.01556     0.54690   
  1238. BD*(   2) C  13 - C  14          0.31932     0.03047  1243(v),1236(v),477(g)
  1239. BD*(   1) C  13 - H  48          0.01601     0.40430   
  1240. BD*(   1) C  14 - C  15          0.01469     0.53849   
  1241. BD*(   1) C  14 - H  49          0.01339     0.40598   
  1242. BD*(   1) C  15 - C  16          0.01454     0.54319   
  1243. BD*(   2) C  15 - C  16          0.32998     0.03017  1238(v),1236(v),503(g)
                                                    529(g)
  1244. BD*(   1) C  15 - H  50          0.01301     0.40703   
  1245. BD*(   1) C  16 - C  17          0.01626     0.54543   
  1246. BD*(   1) C  16 - H  51          0.01368     0.40670   
  1247. BD*(   1) C  17 - H  52          0.01591     0.41563   
  1248. BD*(   1) C  18 - C  19          0.02384     0.51350   
  1249. BD*(   2) C  18 - C  19          0.36463     0.01472  1254(v),1259(v),607(g)
                                                    1208(v)
  1250. BD*(   1) C  18 - C  23          0.03265     0.51682   
  1251. BD*(   1) C  19 - C  20          0.01707     0.53184   
  1252. BD*(   1) C  19 - H  53          0.01591     0.40443   
  1253. BD*(   1) C  20 - C  21          0.01481     0.52631   
  1254. BD*(   2) C  20 - C  21          0.32723     0.01577  1249(v),1259(v),659(g)
                                                    633(g)
  1255. BD*(   1) C  20 - H  54          0.01354     0.39801   
  1256. BD*(   1) C  21 - C  22          0.01463     0.52538   
  1257. BD*(   1) C  21 - H  55          0.01304     0.39629   
  1258. BD*(   1) C  22 - C  23          0.01700     0.53116   
  1259. BD*(   2) C  22 - C  23          0.31753     0.01767  1254(v),1249(v),685(g)
  1260. BD*(   1) C  22 - H  56          0.01385     0.39496   
  1261. BD*(   1) C  23 - H  57          0.01784     0.40188   
  1262. BD*(   1) C  24 - C  25          0.02430     0.52572   
  1263. BD*(   2) C  24 - C  25          0.35955     0.02322  1268(v),1273(v),763(g)
                                                    1278(r),1210(v),1212(v)
  1264. BD*(   1) C  24 - C  29          0.03277     0.52486   
  1265. BD*(   1) C  25 - C  26          0.01663     0.53734   
  1266. BD*(   1) C  25 - H  58          0.01600     0.40977   
  1267. BD*(   1) C  26 - C  27          0.01476     0.53452   
  1268. BD*(   2) C  26 - C  27          0.32591     0.02339  1263(v),1273(v),815(g)
                                                    789(g)
  1269. BD*(   1) C  26 - H  59          0.01357     0.40376   
  1270. BD*(   1) C  27 - C  28          0.01475     0.53391   
  1271. BD*(   1) C  27 - H  60          0.01306     0.40391   
  1272. BD*(   1) C  28 - C  29          0.01724     0.54468   
  1273. BD*(   2) C  28 - C  29          0.29882     0.03131  1268(v),1263(v),1280(r)
                                                    841(g),867(g)
  1274. BD*(   1) C  28 - H  61          0.01419     0.40281   
  1275. BD*(   1) C  29 - H  62          0.01629     0.41206   
  1276. BD*(   1) C  30 - C  31          0.02331     0.52891   
  1277. BD*(   1) C  30 - C  35          0.02316     0.52820   
  1278. BD*(   2) C  30 - C  35          0.38325     0.02770  1285(v),1280(v),1263(r)
                                                    1210(v),1023(g),894(g)
                                                    1273(r),1211(v)
  1279. BD*(   1) C  31 - C  32          0.01549     0.54919   
  1280. BD*(   2) C  31 - C  32          0.32250     0.03379  1285(v),1278(v),1273(r)
                                                    945(g),920(g)
  1281. BD*(   1) C  31 - H  63          0.01546     0.41507   
  1282. BD*(   1) C  32 - C  33          0.01461     0.54229   
  1283. BD*(   1) C  32 - H  64          0.01355     0.40826   
  1284. BD*(   1) C  33 - C  34          0.01456     0.54212   
  1285. BD*(   2) C  33 - C  34          0.34166     0.03011  1278(v),1280(v),971(g)
                                                    997(g)
  1286. BD*(   1) C  33 - H  65          0.01309     0.40788   
  1287. BD*(   1) C  34 - C  35          0.01578     0.54694   
  1288. BD*(   1) C  34 - H  66          0.01358     0.40559   
  1289. BD*(   1) C  35 - H  67          0.01680     0.41602   
       -------------------------------
              Total Lewis  257.93498  ( 97.7026%)
        Valence non-Lewis    5.58403  (  2.1152%)
        Rydberg non-Lewis    0.48099  (  0.1822%)
       -------------------------------
            Total unit  1  264.00000  (100.0000%)
           Charge unit  1    0.00000
 1\1\GINC-NC108\SP\RPBE1PBE\def2TZVP\C31H32O2P2\MACKK4\05-Dec-2021\0\\#
  PBE1PBE/def2TZVP int=(grid=ultrafine) empiricaldispersion=GD3BJ pop=n
 bo guess=read geom=check\\RR_DIOP_1 title\\0,1\P,0,1.277607461,4.59769
 50179,-0.0696800528\P,0,-0.4051189839,3.04840943,-2.6694861955\O,0,-0.
 6252084572,1.2859336409,1.4208728377\O,0,-0.4097436152,0.1376346646,-0
 .5782424727\C,0,0.7193521325,3.2399478502,1.0777838325\C,0,-0.16369829
 94,2.1943057717,0.4177328574\C,0,0.503439546,1.2368950955,-0.580590329
 2\C,0,0.722115317,1.7068687142,-2.021244601\C,0,-0.9994643698,0.066396
 9667,0.7411376846\C,0,-0.4026115614,-1.1004432211,1.5255863324\C,0,-2.
 5144982836,-0.0164124461,0.5751992937\C,0,1.830591283,5.8512757429,1.1
 511775732\C,0,0.8662763471,6.4436444429,1.9920608554\C,0,1.2625164439,
 7.3560404555,2.9746706639\C,0,2.6159191191,7.7004606366,3.1137387062\C
 ,0,3.5726265218,7.1291708798,2.2657484731\C,0,3.1843054707,6.205531615
 7,1.2843685357\C,0,2.8349551402,4.0295060982,-0.8632189002\C,0,3.15724
 8561,4.5982554606,-2.112974986\C,0,4.3328215016,4.2226886664,-2.777284
 7861\C,0,5.1889062783,3.2690993674,-2.2064299695\C,0,4.8773226896,2.70
 53459639,-0.9601162401\C,0,3.7105911583,3.0895552732,-0.284543331\C,0,
 -2.0789914676,2.2979722151,-2.5821663923\C,0,-3.1341300943,2.989720346
 5,-1.9597332512\C,0,-4.4038333753,2.400898517,-1.8760101418\C,0,-4.627
 4110372,1.1276720312,-2.4189113828\C,0,-3.5775938084,0.4379044101,-3.0
 443815667\C,0,-2.3056974403,1.0170409727,-3.1230182996\C,0,0.043832594
 6,3.0266894748,-4.4491498354\C,0,-0.9595146577,3.1298386364,-5.4325819
 521\C,0,-0.6117292817,3.1380585311,-6.7886479148\C,0,0.7330269195,3.05
 30337231,-7.1764866489\C,0,1.7346725363,2.9590874162,-6.2005025629\C,0
 ,1.3946189116,2.9465949586,-4.8416637905\H,0,1.5842673243,2.7690945562
 ,1.5771225245\H,0,0.1385264397,3.7487206818,1.8663785767\H,0,-1.022860
 6648,2.7007066901,-0.0707568982\H,0,1.4856879255,0.9203788768,-0.15962
 22513\H,0,0.6443111624,0.8314237331,-2.6880239341\H,0,1.7472392712,2.0
 959577008,-2.1212600663\H,0,0.695389714,-1.012064171,1.5531568146\H,0,
 -0.7815083679,-1.0974297095,2.5607228662\H,0,-0.6740563145,-2.05704902
 02,1.0507836191\H,0,-2.9996636143,-0.110928188,1.5603782142\H,0,-2.890
 9164408,0.8873065173,0.0713281665\H,0,-2.7824029603,-0.8906583044,-0.0
 400982778\H,0,-0.1953272356,6.217159114,1.8545884481\H,0,0.5079124601,
 7.8160935778,3.6202986836\H,0,2.9214085712,8.4225859429,3.8777328053\H
 ,0,4.6286152003,7.4011772486,2.3630965008\H,0,3.9373940745,5.764351826
 1,0.6254982823\H,0,2.4671035254,5.3224573122,-2.5629181501\H,0,4.57162
 34193,4.6696564724,-3.7476996137\H,0,6.1004375036,2.9656288542,-2.7310
 717046\H,0,5.5458054239,1.964674511,-0.5095059805\H,0,3.4891497185,2.6
 520257909,0.6937846609\H,0,-2.9589690745,3.9989451022,-1.5743718527\H,
 0,-5.2212956394,2.9473090256,-1.3951057002\H,0,-5.6212259295,0.6721833
 298,-2.3584151373\H,0,-3.7484701359,-0.5557031288,-3.4712397097\H,0,-1
 .4931224645,0.4732121377,-3.6148677962\H,0,-2.0064768858,3.2141613884,
 -5.1321303594\H,0,-1.3980624005,3.220945736,-7.5457022749\H,0,1.000464
 6384,3.064859444,-8.2380176855\H,0,2.787606664,2.8964960864,-6.4949316
 893\H,0,2.1911484666,2.8874326024,-4.0942189053\\Version=ES64L-G09RevE
 .01\State=1-A\HF=-2032.4472921\RMSD=3.734e-09\Dipole=0.3461075,-0.4521
 693,-0.0747375\Quadrupole=10.9796464,-7.6420266,-3.3376198,1.2389812,-
 2.3624595,3.1844894\PG=C01 [X(C31H32O2P2)]\\@


 IT MATTERS NOT HOW DEEP YOU PLOW,
 BUT HOW LONG YOU STAY IN THE FURROW.
 Job cpu time:       0 days  1 hours 15 minutes 51.5 seconds.
 File lengths (MBytes):  RWF=    853 Int=      0 D2E=      0 Chk=    128 Scr=      1
 Normal termination of Gaussian 09 at Sun Dec  5 00:56:35 2021.
