 Entering Gaussian System, Link 0=g09
 Input=RR_DIOP_1_SPE.com
 Output=RR_DIOP_1_SPE.log
 Initial command:
 /gstore/apps/gaussian/g09.e01-foss-2017a/g09/l1.exe "/local/22791309/Gau-1246.inp" -scrdir="/local/22791309/"
 Entering Link 1 = /gstore/apps/gaussian/g09.e01-foss-2017a/g09/l1.exe PID=      1247.
  
 Copyright (c) 1988,1990,1992,1993,1995,1998,2003,2009,2015,
            Gaussian, Inc.  All Rights Reserved.
  
 This is part of the Gaussian(R) 09 program.  It is based on
 the Gaussian(R) 03 system (copyright 2003, Gaussian, Inc.),
 the Gaussian(R) 98 system (copyright 1998, Gaussian, Inc.),
 the Gaussian(R) 94 system (copyright 1995, Gaussian, Inc.),
 the Gaussian 92(TM) system (copyright 1992, Gaussian, Inc.),
 the Gaussian 90(TM) system (copyright 1990, Gaussian, Inc.),
 the Gaussian 88(TM) system (copyright 1988, Gaussian, Inc.),
 the Gaussian 86(TM) system (copyright 1986, Carnegie Mellon
 University), and the Gaussian 82(TM) system (copyright 1983,
 Carnegie Mellon University). Gaussian is a federally registered
 trademark of Gaussian, Inc.
  
 This software contains proprietary and confidential information,
 including trade secrets, belonging to Gaussian, Inc.
  
 This software is provided under written license and may be
 used, copied, transmitted, or stored only in accord with that
 written license.
  
 The following legend is applicable only to US Government
 contracts under FAR:
  
                    RESTRICTED RIGHTS LEGEND
  
 Use, reproduction and disclosure by the US Government is
 subject to restrictions as set forth in subparagraphs (a)
 and (c) of the Commercial Computer Software - Restricted
 Rights clause in FAR 52.227-19.
  
 Gaussian, Inc.
 340 Quinnipiac St., Bldg. 40, Wallingford CT 06492
  
  
 ---------------------------------------------------------------
 Warning -- This program may not be used in any manner that
 competes with the business of Gaussian, Inc. or will provide
 assistance to any competitor of Gaussian, Inc.  The licensee
 of this program is prohibited from giving any competitor of
 Gaussian, Inc. access to this program.  By using this program,
 the user acknowledges that Gaussian, Inc. is engaged in the
 business of creating and licensing software in the field of
 computational chemistry and represents and warrants to the
 licensee that it is not a competitor of Gaussian, Inc. and that
 it will not use this program in any manner prohibited above.
 ---------------------------------------------------------------
  

 Cite this work as:
 Gaussian 09, Revision E.01,
 M. J. Frisch, G. W. Trucks, H. B. Schlegel, G. E. Scuseria, 
 M. A. Robb, J. R. Cheeseman, G. Scalmani, V. Barone, B. Mennucci, 
 G. A. Petersson, H. Nakatsuji, M. Caricato, X. Li, H. P. Hratchian, 
 A. F. Izmaylov, J. Bloino, G. Zheng, J. L. Sonnenberg, M. Hada, 
 M. Ehara, K. Toyota, R. Fukuda, J. Hasegawa, M. Ishida, T. Nakajima, 
 Y. Honda, O. Kitao, H. Nakai, T. Vreven, J. A. Montgomery, Jr., 
 J. E. Peralta, F. Ogliaro, M. Bearpark, J. J. Heyd, E. Brothers, 
 K. N. Kudin, V. N. Staroverov, T. Keith, R. Kobayashi, J. Normand, 
 K. Raghavachari, A. Rendell, J. C. Burant, S. S. Iyengar, J. Tomasi, 
 M. Cossi, N. Rega, J. M. Millam, M. Klene, J. E. Knox, J. B. Cross, 
 V. Bakken, C. Adamo, J. Jaramillo, R. Gomperts, R. E. Stratmann, 
 O. Yazyev, A. J. Austin, R. Cammi, C. Pomelli, J. W. Ochterski, 
 R. L. Martin, K. Morokuma, V. G. Zakrzewski, G. A. Voth, 
 P. Salvador, J. J. Dannenberg, S. Dapprich, A. D. Daniels, 
 O. Farkas, J. B. Foresman, J. V. Ortiz, J. Cioslowski, 
 and D. J. Fox, Gaussian, Inc., Wallingford CT, 2013.
 
 ******************************************
 Gaussian 09:  ES64L-G09RevE.01 30-Nov-2015
                 4-Dec-2021 
 ******************************************
 %nprocs=14
 Will use up to   14 processors via shared memory.
 %mem=128GB
 %chk=RR_DIOP_1_SPE.chk
 ----------------------------------------------------------------------
 # PBE1PBE gen pseudo=read int=(grid=ultrafine) empiricaldispersion=GD3
 BJ nmr=giao
 ----------------------------------------------------------------------
 1/38=1/1;
 2/12=2,17=6,18=5,40=1/2;
 3/5=7,11=2,16=1,17=8,25=1,30=1,74=-13,75=-5,124=41/1,2,8,3;
 4//1;
 5/5=2,38=5/2;
 8/6=1,10=90,11=11/1;
 10/13=100,45=16/2;
 6/7=2,8=2,9=2,10=2,28=1/1;
 99/9=1/99;
 ---------------
 RR_DIOP_1 title
 ---------------
 Symbolic Z-matrix:
 Charge =  0 Multiplicity = 1
 P                     1.27761   4.5977   -0.06968 
 P                    -0.40512   3.04841  -2.66949 
 O                    -0.62521   1.28593   1.42087 
 O                    -0.40974   0.13763  -0.57824 
 C                     0.71935   3.23995   1.07778 
 C                    -0.1637    2.19431   0.41773 
 C                     0.50344   1.2369   -0.58059 
 C                     0.72212   1.70687  -2.02124 
 C                    -0.99946   0.0664    0.74114 
 C                    -0.40261  -1.10044   1.52559 
 C                    -2.5145   -0.01641   0.5752 
 C                     1.83059   5.85128   1.15118 
 C                     0.86628   6.44364   1.99206 
 C                     1.26252   7.35604   2.97467 
 C                     2.61592   7.70046   3.11374 
 C                     3.57263   7.12917   2.26575 
 C                     3.18431   6.20553   1.28437 
 C                     2.83496   4.02951  -0.86322 
 C                     3.15725   4.59826  -2.11297 
 C                     4.33282   4.22269  -2.77728 
 C                     5.18891   3.2691   -2.20643 
 C                     4.87732   2.70535  -0.96012 
 C                     3.71059   3.08956  -0.28454 
 C                    -2.07899   2.29797  -2.58217 
 C                    -3.13413   2.98972  -1.95973 
 C                    -4.40383   2.4009   -1.87601 
 C                    -4.62741   1.12767  -2.41891 
 C                    -3.57759   0.4379   -3.04438 
 C                    -2.3057    1.01704  -3.12302 
 C                     0.04383   3.02669  -4.44915 
 C                    -0.95951   3.12984  -5.43258 
 C                    -0.61173   3.13806  -6.78865 
 C                     0.73303   3.05303  -7.17649 
 C                     1.73467   2.95909  -6.2005 
 C                     1.39462   2.94659  -4.84166 
 H                     1.58427   2.76909   1.57712 
 H                     0.13853   3.74872   1.86638 
 H                    -1.02286   2.70071  -0.07076 
 H                     1.48569   0.92038  -0.15962 
 H                     0.64431   0.83142  -2.68802 
 H                     1.74724   2.09596  -2.12126 
 H                     0.69539  -1.01206   1.55316 
 H                    -0.78151  -1.09743   2.56072 
 H                    -0.67406  -2.05705   1.05078 
 H                    -2.99966  -0.11093   1.56038 
 H                    -2.89092   0.88731   0.07133 
 H                    -2.7824   -0.89066  -0.0401 
 H                    -0.19533   6.21716   1.85459 
 H                     0.50791   7.81609   3.6203 
 H                     2.92141   8.42259   3.87773 
 H                     4.62862   7.40118   2.3631 
 H                     3.93739   5.76435   0.6255 
 H                     2.4671    5.32246  -2.56292 
 H                     4.57162   4.66966  -3.7477 
 H                     6.10044   2.96563  -2.73107 
 H                     5.54581   1.96467  -0.50951 
 H                     3.48915   2.65203   0.69378 
 H                    -2.95897   3.99895  -1.57437 
 H                    -5.2213    2.94731  -1.39511 
 H                    -5.62123   0.67218  -2.35842 
 H                    -3.74847  -0.5557   -3.47124 
 H                    -1.49312   0.47321  -3.61487 
 H                    -2.00648   3.21416  -5.13213 
 H                    -1.39806   3.22095  -7.5457 
 H                     1.00046   3.06486  -8.23802 
 H                     2.78761   2.8965   -6.49493 
 H                     2.19115   2.88743  -4.09422 
 Cl                   -1.79598   5.71854  -3.42069 
 Cl                   -0.24813   7.37369  -0.92163 
 Pd                   -0.25733   5.13885  -1.6926 
 
 Stoichiometry    C31H32Cl2O2P2Pd
 Framework group  C1[X(C31H32Cl2O2P2Pd)]
 Deg. of freedom   204
 Full point group                 C1      NOp   1
 Largest Abelian subgroup         C1      NOp   1
 Largest concise Abelian subgroup C1      NOp   1
                         Standard orientation:                         
 ---------------------------------------------------------------------
 Center     Atomic      Atomic             Coordinates (Angstroms)
 Number     Number       Type             X           Y           Z
 ---------------------------------------------------------------------
      1         15           0        1.927291    0.313131    0.037893
      2         15           0       -1.433292   -0.521632    0.060176
      3          8           0       -0.242770    3.727166    0.705288
      4          8           0       -1.915752    2.568786    1.810170
      5          6           0        1.473734    2.077887    0.427407
      6          6           0       -0.021886    2.325296    0.530957
      7          6           0       -0.749322    1.745124    1.752675
      8          6           0       -1.172355    0.273823    1.730436
      9          6           0       -1.550711    3.873797    1.302922
     10          6           0       -1.423227    4.871893    2.452122
     11          6           0       -2.582627    4.275519    0.252451
     12          6           0        3.668290    0.533479   -0.498876
     13          6           0        3.921730    1.255976   -1.682791
     14          6           0        5.238835    1.495187   -2.086534
     15          6           0        6.310795    1.000506   -1.327683
     16          6           0        6.060944    0.264703   -0.162815
     17          6           0        4.742732    0.029229    0.254174
     18          6           0        2.063005   -0.577085    1.640070
     19          6           0        1.866414   -1.973428    1.611440
     20          6           0        1.962262   -2.724045    2.791150
     21          6           0        2.242701   -2.086758    4.009061
     22          6           0        2.446489   -0.699117    4.042590
     23          6           0        2.367220    0.053691    2.862644
     24          6           0       -2.797613    0.455903   -0.685266
     25          6           0       -2.664977    0.982709   -1.983009
     26          6           0       -3.701152    1.747783   -2.536969
     27          6           0       -4.873427    1.982106   -1.804372
     28          6           0       -5.009782    1.453629   -0.511612
     29          6           0       -3.974984    0.696583    0.049972
     30          6           0       -2.196848   -2.112129    0.566665
     31          6           0       -3.287562   -2.634374   -0.155892
     32          6           0       -3.851802   -3.859925    0.217733
     33          6           0       -3.332054   -4.578251    1.303959
     34          6           0       -2.241299   -4.065895    2.019788
     35          6           0       -1.673392   -2.838594    1.654483
     36          1           0        1.995896    2.424806    1.336315
     37          1           0        1.874549    2.671316   -0.412402
     38          1           0       -0.514063    1.968477   -0.398379
     39          1           0       -0.114278    1.916249    2.652477
     40          1           0       -2.101144    0.170324    2.316687
     41          1           0       -0.403842   -0.329395    2.238166
     42          1           0       -0.711916    4.491601    3.202850
     43          1           0       -1.053793    5.840271    2.076834
     44          1           0       -2.402897    5.027314    2.932023
     45          1           0       -2.360113    5.284308   -0.131904
     46          1           0       -2.571830    3.558947   -0.583428
     47          1           0       -3.593013    4.275969    0.692666
     48          1           0        3.089793    1.600095   -2.304610
     49          1           0        5.428091    2.052104   -3.009539
     50          1           0        7.340650    1.181311   -1.652003
     51          1           0        6.892855   -0.131937    0.428097
     52          1           0        4.555878   -0.546959    1.164660
     53          1           0        1.620592   -2.457669    0.658393
     54          1           0        1.805955   -3.807053    2.756884
     55          1           0        2.304539   -2.670756    4.932834
     56          1           0        2.670509   -0.199396    4.990539
     57          1           0        2.543656    1.132976    2.902745
     58          1           0       -1.762621    0.760928   -2.561184
     59          1           0       -3.593124    2.149870   -3.549260
     60          1           0       -5.684230    2.574271   -2.241107
     61          1           0       -5.924311    1.632706    0.063045
     62          1           0       -4.090639    0.285941    1.057910
     63          1           0       -3.682656   -2.084947   -1.013529
     64          1           0       -4.697634   -4.259022   -0.351136
     65          1           0       -3.773469   -5.538592    1.589280
     66          1           0       -1.826780   -4.622679    2.866808
     67          1           0       -0.813422   -2.461954    2.215934
     68         17           0       -1.144530   -1.944961   -2.681926
     69         17           0        2.140218   -1.198372   -2.865525
     70         46           0        0.411381   -0.764439   -1.312522
 ---------------------------------------------------------------------
 Rotational constants (GHZ):      0.0986845      0.0711771      0.0638509
 General basis read from cards:  (5D, 7F)
 ======================================================================================================
                                       Pseudopotential Parameters
 ======================================================================================================
  Center     Atomic      Valence      Angular      Power
  Number     Number     Electrons     Momentum     of R      Exponent        Coefficient   SO-Coeffient
 ======================================================================================================
    1         15
                                   No pseudopotential on this center.
    2         15
                                   No pseudopotential on this center.
    3          8
                                   No pseudopotential on this center.
    4          8
                                   No pseudopotential on this center.
    5          6
                                   No pseudopotential on this center.
    6          6
                                   No pseudopotential on this center.
    7          6
                                   No pseudopotential on this center.
    8          6
                                   No pseudopotential on this center.
    9          6
                                   No pseudopotential on this center.
   10          6
                                   No pseudopotential on this center.
   11          6
                                   No pseudopotential on this center.
   12          6
                                   No pseudopotential on this center.
   13          6
                                   No pseudopotential on this center.
   14          6
                                   No pseudopotential on this center.
   15          6
                                   No pseudopotential on this center.
   16          6
                                   No pseudopotential on this center.
   17          6
                                   No pseudopotential on this center.
   18          6
                                   No pseudopotential on this center.
   19          6
                                   No pseudopotential on this center.
   20          6
                                   No pseudopotential on this center.
   21          6
                                   No pseudopotential on this center.
   22          6
                                   No pseudopotential on this center.
   23          6
                                   No pseudopotential on this center.
   24          6
                                   No pseudopotential on this center.
   25          6
                                   No pseudopotential on this center.
   26          6
                                   No pseudopotential on this center.
   27          6
                                   No pseudopotential on this center.
   28          6
                                   No pseudopotential on this center.
   29          6
                                   No pseudopotential on this center.
   30          6
                                   No pseudopotential on this center.
   31          6
                                   No pseudopotential on this center.
   32          6
                                   No pseudopotential on this center.
   33          6
                                   No pseudopotential on this center.
   34          6
                                   No pseudopotential on this center.
   35          6
                                   No pseudopotential on this center.
   36          1
                                   No pseudopotential on this center.
   37          1
                                   No pseudopotential on this center.
   38          1
                                   No pseudopotential on this center.
   39          1
                                   No pseudopotential on this center.
   40          1
                                   No pseudopotential on this center.
   41          1
                                   No pseudopotential on this center.
   42          1
                                   No pseudopotential on this center.
   43          1
                                   No pseudopotential on this center.
   44          1
                                   No pseudopotential on this center.
   45          1
                                   No pseudopotential on this center.
   46          1
                                   No pseudopotential on this center.
   47          1
                                   No pseudopotential on this center.
   48          1
                                   No pseudopotential on this center.
   49          1
                                   No pseudopotential on this center.
   50          1
                                   No pseudopotential on this center.
   51          1
                                   No pseudopotential on this center.
   52          1
                                   No pseudopotential on this center.
   53          1
                                   No pseudopotential on this center.
   54          1
                                   No pseudopotential on this center.
   55          1
                                   No pseudopotential on this center.
   56          1
                                   No pseudopotential on this center.
   57          1
                                   No pseudopotential on this center.
   58          1
                                   No pseudopotential on this center.
   59          1
                                   No pseudopotential on this center.
   60          1
                                   No pseudopotential on this center.
   61          1
                                   No pseudopotential on this center.
   62          1
                                   No pseudopotential on this center.
   63          1
                                   No pseudopotential on this center.
   64          1
                                   No pseudopotential on this center.
   65          1
                                   No pseudopotential on this center.
   66          1
                                   No pseudopotential on this center.
   67          1
                                   No pseudopotential on this center.
   68         17
                                   No pseudopotential on this center.
   69         17
                                   No pseudopotential on this center.
   70         46           18
                                      G and up 
                                                     2        1.0000000        0.00000000    0.00000000
                                      S - G
                                                     2       12.4300000      240.22904000    0.00000000
                                                     2        6.1707590       35.17194300    0.00000000
                                      P - G
                                                     2       11.0800000      170.41727600    0.00000000
                                                     2        5.8295540       28.47213300    0.00000000
                                      D - G
                                                     2        9.5100000       69.01384500    0.00000000
                                                     2        4.1397810       11.75086200    0.00000000
                                      F - G
                                                     2       13.2700000      -31.92955400    0.00000000
                                                     2        6.6300000       -5.39821700    0.00000000
 ======================================================================================================
 There are  1587 symmetry adapted cartesian basis functions of A   symmetry.
 There are  1399 symmetry adapted basis functions of A   symmetry.
  1399 basis functions,  2280 primitive gaussians,  1587 cartesian basis functions
   158 alpha electrons      158 beta electrons
       nuclear repulsion energy      5790.2295655507 Hartrees.
 NAtoms=   70 NActive=   70 NUniq=   70 SFac= 1.00D+00 NAtFMM=   60 NAOKFM=T Big=T
 Integral buffers will be    131072 words long.
 Raffenetti 2 integral format.
 Two-electron integral symmetry is turned on.
 Nuclear repulsion after empirical dispersion term =     5790.1066082046 Hartrees.
 One-electron integrals computed using PRISM.
   1 Symmetry operations used in ECPInt.
 ECPInt:  NShTT=  155403 NPrTT=  482648 LenC2=  125445 LenP2D=  259955.
 LDataN:  DoStor=T MaxTD1= 7 Len=  274
 NBasis=  1399 RedAO= T EigKep=  6.00D-06  NBF=  1399
 NBsUse=  1399 1.00D-06 EigRej= -1.00D+00 NBFU=  1399
 Defaulting to unpruned grid for atomic number  46.
 ExpMin= 1.60D-02 ExpMax= 6.95D+04 ExpMxC= 2.37D+03 IAcc=3 IRadAn=         5 AccDes= 0.00D+00
 Harris functional with IExCor= 1009 and IRadAn=       5 diagonalized for initial guess.
 HarFok:  IExCor= 1009 AccDes= 0.00D+00 IRadAn=         5 IDoV= 1 UseB2=F ITyADJ=14
 ICtDFT=  3500011 ScaDFX=  1.000000  1.000000  1.000000  1.000000
 Defaulting to unpruned grid for atomic number  46.
 Defaulting to unpruned grid for atomic number  46.
 Defaulting to unpruned grid for atomic number  46.
 Defaulting to unpruned grid for atomic number  46.
 Defaulting to unpruned grid for atomic number  46.
 Defaulting to unpruned grid for atomic number  46.
 Defaulting to unpruned grid for atomic number  46.
 Defaulting to unpruned grid for atomic number  46.
 Defaulting to unpruned grid for atomic number  46.
 Defaulting to unpruned grid for atomic number  46.
 Defaulting to unpruned grid for atomic number  46.
 Defaulting to unpruned grid for atomic number  46.
 Defaulting to unpruned grid for atomic number  46.
 Defaulting to unpruned grid for atomic number  46.
 FoFCou: FMM=F IPFlag=           0 FMFlag=      100000 FMFlg1=        2001
         NFxFlg=           0 DoJE=T BraDBF=F KetDBF=T FulRan=T
         wScrn=  0.000000 ICntrl=     500 IOpCl=  0 I1Cent=   200000004 NGrid=           0
         NMat0=    1 NMatS0=      1 NMatT0=    0 NMatD0=    1 NMtDS0=    0 NMtDT0=    0
 Petite list used in FoFCou.
 Requested convergence on RMS density matrix=1.00D-08 within 128 cycles.
 Requested convergence on MAX density matrix=1.00D-06.
 Requested convergence on             energy=1.00D-06.
 No special actions if energy rises.
 Defaulting to unpruned grid for atomic number  46.
 Defaulting to unpruned grid for atomic number  46.
 Defaulting to unpruned grid for atomic number  46.
 Defaulting to unpruned grid for atomic number  46.
 Defaulting to unpruned grid for atomic number  46.
 Defaulting to unpruned grid for atomic number  46.
 Defaulting to unpruned grid for atomic number  46.
 Defaulting to unpruned grid for atomic number  46.
 Defaulting to unpruned grid for atomic number  46.
 Defaulting to unpruned grid for atomic number  46.
 Defaulting to unpruned grid for atomic number  46.
 Defaulting to unpruned grid for atomic number  46.
 Defaulting to unpruned grid for atomic number  46.
 Defaulting to unpruned grid for atomic number  46.
 EnCoef did     1 forward-backward iterations
 EnCoef did   100 forward-backward iterations
 SCF Done:  E(RPBE1PBE) =  -3080.63718115     A.U. after   20 cycles
            NFock= 20  Conv=0.47D-08     -V/T= 2.0304
 DoSCS=F DFT=T ScalE2(SS,OS)=  1.000000  1.000000
 Range of M.O.s used for correlation:     1  1399
 NBasis=  1399 NAE=   158 NBE=   158 NFC=     0 NFV=     0
 NROrb=   1399 NOA=   158 NOB=   158 NVA=  1241 NVB=  1241

 **** Warning!!: The largest alpha MO coefficient is  0.49635380D+02

          Differentiating once with respect to magnetic field using GIAOs.
          Electric field/nuclear overlap derivatives assumed to be zero.
 Defaulting to unpruned grid for atomic number  46.
 FoFCou: FMM=F IPFlag=           0 FMFlag=      100000 FMFlg1=        2001
         NFxFlg=           0 DoJE=F BraDBF=F KetDBF=T FulRan=T
         wScrn=  0.000000 ICntrl=    6100 IOpCl=  0 I1Cent=           7 NGrid=          70
         NMat0=    1 NMatS0=      1 NMatT0=    0 NMatD0=    1 NMtDS0=    0 NMtDT0=    0
 Symmetry not used in FoFCou.
   1 Symmetry operations used in ECPInt.
 ECPInt:  NShTT=  155403 NPrTT=  482648 LenC2=  155404 LenP2D=  482648.
 LDataN:  DoStor=T MaxTD1= 8 Len=  415
 FoFJK:  IHMeth= 1 ICntrl=    6127 DoSepK=F KAlg= 0 I1Cent=   0 FoldK=F
 IRaf=         1 NMat=   1 IRICut=       1 DoRegI=T DoRafI=F ISym2E= 0.
 Defaulting to unpruned grid for atomic number  46.
 Defaulting to unpruned grid for atomic number  46.
 Defaulting to unpruned grid for atomic number  46.
 Defaulting to unpruned grid for atomic number  46.
 Defaulting to unpruned grid for atomic number  46.
 Defaulting to unpruned grid for atomic number  46.
 Defaulting to unpruned grid for atomic number  46.
 Defaulting to unpruned grid for atomic number  46.
 Defaulting to unpruned grid for atomic number  46.
 Defaulting to unpruned grid for atomic number  46.
 Defaulting to unpruned grid for atomic number  46.
 Defaulting to unpruned grid for atomic number  46.
 Defaulting to unpruned grid for atomic number  46.
 Defaulting to unpruned grid for atomic number  46.
          There are     3 degrees of freedom in the 1st order CPHF.  IDoFFX=0 NUNeed=     3.
      3 vectors produced by pass  0 Test12= 6.54D-12 3.33D-08 XBig12= 1.58D+02 1.63D+00.
 AX will form     3 AO Fock derivatives at one time.
      3 vectors produced by pass  1 Test12= 6.54D-12 3.33D-08 XBig12= 7.68D-01 1.73D-01.
      3 vectors produced by pass  2 Test12= 6.54D-12 3.33D-08 XBig12= 6.14D-03 2.90D-02.
      3 vectors produced by pass  3 Test12= 6.54D-12 3.33D-08 XBig12= 1.38D-04 4.46D-03.
      3 vectors produced by pass  4 Test12= 6.54D-12 3.33D-08 XBig12= 8.21D-07 2.52D-04.
      3 vectors produced by pass  5 Test12= 6.54D-12 3.33D-08 XBig12= 5.45D-09 2.99D-05.
      3 vectors produced by pass  6 Test12= 6.54D-12 3.33D-08 XBig12= 7.07D-11 3.36D-06.
      3 vectors produced by pass  7 Test12= 6.54D-12 3.33D-08 XBig12= 1.27D-12 3.95D-07.
      1 vectors produced by pass  8 Test12= 6.54D-12 3.33D-08 XBig12= 1.50D-14 4.88D-08.
 InvSVY:  IOpt=1 It=  1 EMax= 3.55D-15
 Solved reduced A of dimension    25 with     3 vectors.
 Calculating GIAO nuclear magnetic shielding tensors.
 SCF GIAO Magnetic shielding tensor (ppm):
      1  P    Isotropic =   244.4647   Anisotropy =   122.3919
   XX=   246.0467   YX=    60.3664   ZX=    26.1742
   XY=    36.7514   YY=   195.0220   ZY=    38.7877
   XZ=    26.3438   YZ=    30.3542   ZZ=   292.3253
   Eigenvalues:   163.4399   243.8948   326.0593
      2  P    Isotropic =   265.2184   Anisotropy =    99.7099
   XX=   307.7147   YX=   -30.5272   ZX=   -40.1968
   XY=   -35.6891   YY=   237.8737   ZY=   -26.0250
   XZ=   -38.5787   YZ=   -25.6915   ZZ=   250.0669
   Eigenvalues:   194.6483   269.3153   331.6916
      3  O    Isotropic =   185.8313   Anisotropy =   105.8206
   XX=   223.5834   YX=   -13.8629   ZX=   -63.8246
   XY=   -29.4205   YY=   215.5647   ZY=   -13.0892
   XZ=   -57.6526   YZ=   -15.0119   ZZ=   118.3457
   Eigenvalues:    86.8860   214.2296   256.3784
      4  O    Isotropic =   188.3246   Anisotropy =   118.9398
   XX=   204.2861   YX=    -7.7187   ZX=   -62.4530
   XY=    19.3896   YY=   244.5646   ZY=   -41.1608
   XZ=   -55.3088   YZ=   -41.3356   ZZ=   116.1231
   Eigenvalues:    79.3798   217.9762   267.6178
      5  C    Isotropic =   148.2739   Anisotropy =    41.8771
   XX=   163.1930   YX=    -9.7549   ZX=   -11.7299
   XY=    -9.9939   YY=   150.9533   ZY=    10.1709
   XZ=   -19.8391   YZ=     9.0863   ZZ=   130.6754
   Eigenvalues:   123.1554   145.4744   176.1920
      6  C    Isotropic =   104.4554   Anisotropy =    54.2928
   XX=    91.1781   YX=   -12.7482   ZX=    -2.7555
   XY=    -6.7991   YY=   138.0030   ZY=    -1.5664
   XZ=   -12.5484   YZ=    11.1331   ZZ=    84.1853
   Eigenvalues:    79.2382    93.4775   140.6506
      7  C    Isotropic =   104.4549   Anisotropy =    53.3437
   XX=   126.1430   YX=   -20.9552   ZX=   -10.3104
   XY=   -20.6441   YY=    99.2682   ZY=     3.5642
   XZ=   -17.8323   YZ=    -7.7233   ZZ=    87.9536
   Eigenvalues:    78.2344    95.1129   140.0174
      8  C    Isotropic =   156.0056   Anisotropy =    21.8086
   XX=   147.0423   YX=     3.8303   ZX=    -0.2890
   XY=     9.2305   YY=   167.6136   ZY=     6.2082
   XZ=    -3.4659   YZ=     3.5572   ZZ=   153.3609
   Eigenvalues:   143.9912   153.4809   170.5447
      9  C    Isotropic =    70.3645   Anisotropy =    41.7618
   XX=    74.5395   YX=     7.2035   ZX=   -20.8751
   XY=     8.7060   YY=    71.3987   ZY=   -11.9922
   XZ=   -20.0424   YZ=   -12.7664   ZZ=    65.1552
   Eigenvalues:    47.6943    65.1935    98.2057
     10  C    Isotropic =   159.1420   Anisotropy =    42.8459
   XX=   145.6173   YX=     0.6791   ZX=     2.0643
   XY=     1.9174   YY=   159.7572   ZY=    21.9176
   XZ=     0.9566   YZ=    19.7208   ZZ=   172.0516
   Eigenvalues:   144.1829   145.5372   187.7060
     11  C    Isotropic =   160.3658   Anisotropy =    38.8701
   XX=   161.1893   YX=    -5.4912   ZX=    20.6744
   XY=    -5.2643   YY=   152.5281   ZY=    -7.4681
   XZ=    18.4197   YZ=    -6.0295   ZZ=   167.3800
   Eigenvalues:   144.4800   150.3382   186.2792
     12  C    Isotropic =    44.7580   Anisotropy =   176.6786
   XX=   -41.4595   YX=     2.6991   ZX=    14.4473
   XY=   -13.5088   YY=   125.4952   ZY=    64.2518
   XZ=    18.6259   YZ=    64.6120   ZZ=    50.2384
   Eigenvalues:   -46.3842    18.1145   162.5438
     13  C    Isotropic =    41.4067   Anisotropy =   200.4624
   XX=   -26.7325   YX=    24.7725   ZX=   -30.5112
   XY=    28.6516   YY=   123.5056   ZY=    83.5561
   XZ=   -40.3760   YZ=    90.5939   ZZ=    27.4470
   Eigenvalues:   -69.5254    18.6972   175.0483
     14  C    Isotropic =    52.2338   Anisotropy =   185.6716
   XX=    36.1132   YX=    -6.2721   ZX=    14.2025
   XY=    -4.7490   YY=   114.9106   ZY=    99.1775
   XZ=    14.7571   YZ=   104.7449   ZZ=     5.6775
   Eigenvalues:   -57.8509    38.5375   176.0149
     15  C    Isotropic =    49.4956   Anisotropy =   190.2730
   XX=   -50.0303   YX=   -10.5994   ZX=    25.0793
   XY=    -9.7345   YY=   132.7401   ZY=    69.2591
   XZ=    29.2723   YZ=    69.2693   ZZ=    65.7771
   Eigenvalues:   -59.9890    32.1316   176.3443
     16  C    Isotropic =    53.1748   Anisotropy =   182.4419
   XX=   -15.9675   YX=    29.1063   ZX=   -39.2664
   XY=    31.0636   YY=   121.7885   ZY=    81.9013
   XZ=   -37.5958   YZ=    78.1622   ZZ=    53.7035
   Eigenvalues:   -57.0003    41.7220   174.8027
     17  C    Isotropic =    48.1795   Anisotropy =   189.6660
   XX=    31.1024   YX=    -2.2569   ZX=     8.6639
   XY=    -4.6209   YY=   105.6377   ZY=   108.3369
   XZ=     8.1168   YZ=   106.1776   ZZ=     7.7985
   Eigenvalues:   -62.0224    31.9375   174.6236
     18  C    Isotropic =    45.1064   Anisotropy =   190.6923
   XX=   166.7163   YX=   -12.4500   ZX=   -24.0938
   XY=   -17.8967   YY=    -2.3242   ZY=    34.7721
   XZ=   -27.4858   YZ=    30.5764   ZZ=   -29.0729
   Eigenvalues:   -51.8100    14.8946   172.2346
     19  C    Isotropic =    36.8664   Anisotropy =   195.3225
   XX=   155.1653   YX=   -43.2392   ZX=   -33.8298
   XY=   -29.6065   YY=     0.9347   ZY=   -42.0546
   XZ=   -39.0206   YZ=   -31.6309   ZZ=   -45.5008
   Eigenvalues:   -76.4996    20.0174   167.0814
     20  C    Isotropic =    48.7341   Anisotropy =   192.1505
   XX=   169.4419   YX=   -31.4132   ZX=   -19.5307
   XY=   -33.5485   YY=   -57.9626   ZY=    -1.7918
   XZ=   -21.3763   YZ=    -0.4558   ZZ=    34.7231
   Eigenvalues:   -62.6740    32.0419   176.8345
     21  C    Isotropic =    47.2524   Anisotropy =   194.5910
   XX=   170.6321   YX=   -12.6961   ZX=   -30.3707
   XY=   -17.4038   YY=     3.4540   ZY=    45.5056
   XZ=   -25.1028   YZ=    43.3776   ZZ=   -32.3291
   Eigenvalues:   -63.2844    28.0617   176.9797
     22  C    Isotropic =    51.5334   Anisotropy =   187.4972
   XX=   165.4665   YX=   -32.4704   ZX=   -41.0584
   XY=   -28.0222   YY=    21.1027   ZY=   -33.9744
   XZ=   -36.9680   YZ=   -35.6265   ZZ=   -31.9692
   Eigenvalues:   -59.6409    37.7094   176.5315
     23  C    Isotropic =    48.9703   Anisotropy =   194.3468
   XX=   169.8795   YX=   -40.5026   ZX=   -15.6307
   XY=   -37.2916   YY=   -58.8467   ZY=    -4.1379
   XZ=   -21.7823   YZ=    -4.0329   ZZ=    35.8781
   Eigenvalues:   -65.7806    34.1566   178.5348
     24  C    Isotropic =    45.5553   Anisotropy =   180.8085
   XX=    11.8003   YX=    74.1599   ZX=     5.1185
   XY=    75.6068   YY=    98.3387   ZY=    68.1576
   XZ=     2.9289   YZ=    60.3132   ZZ=    26.5270
   Eigenvalues:   -46.2805    16.8521   166.0944
     25  C    Isotropic =    33.9622   Anisotropy =   201.0362
   XX=   -20.8966   YX=    64.2884   ZX=    60.4671
   XY=    65.3511   YY=   119.4099   ZY=    37.3509
   XZ=    65.4564   YZ=    42.4304   ZZ=     3.3732
   Eigenvalues:   -76.7355    10.6357   167.9863
     26  C    Isotropic =    51.6258   Anisotropy =   187.2086
   XX=    58.2969   YX=    43.9083   ZX=    31.0954
   XY=    42.9307   YY=   120.2848   ZY=    76.0283
   XZ=    29.6575   YZ=    77.4741   ZZ=   -23.7044
   Eigenvalues:   -58.0315    36.4773   176.4315
     27  C    Isotropic =    48.2229   Anisotropy =   193.9103
   XX=     4.9026   YX=    86.4870   ZX=    -4.2712
   XY=    85.7973   YY=   104.0282   ZY=    67.8804
   XZ=    -4.2769   YZ=    67.7903   ZZ=    35.7379
   Eigenvalues:   -62.0211    29.1934   177.4964
     28  C    Isotropic =    52.9718   Anisotropy =   185.5249
   XX=    -4.2197   YX=    58.8820   ZX=    64.0899
   XY=    58.6695   YY=   131.6490   ZY=    35.3073
   XZ=    63.5400   YZ=    35.9588   ZZ=    31.4862
   Eigenvalues:   -56.6693    38.9297   176.6551
     29  C    Isotropic =    43.1751   Anisotropy =   201.0335
   XX=    47.0651   YX=    46.2107   ZX=    35.8257
   XY=    50.2200   YY=   116.3511   ZY=    79.3034
   XZ=    31.5572   YZ=    82.2576   ZZ=   -33.8909
   Eigenvalues:   -70.4016    22.7294   177.1974
     30  C    Isotropic =    41.0914   Anisotropy =   178.6930
   XX=    60.5755   YX=   -63.9435   ZX=   -53.6824
   XY=   -63.5629   YY=    -1.3675   ZY=    50.0368
   XZ=   -56.4613   YZ=    57.6883   ZZ=    64.0661
   Eigenvalues:   -45.1176     8.1716   160.2200
     31  C    Isotropic =    40.9427   Anisotropy =   201.1891
   XX=    60.0157   YX=   -39.2673   ZX=   -86.6695
   XY=   -25.0482   YY=    40.8452   ZY=    70.8345
   XZ=   -91.1679   YZ=    85.0555   ZZ=    21.9673
   Eigenvalues:   -69.5445    17.3039   175.0688
     32  C    Isotropic =    52.0890   Anisotropy =   184.9942
   XX=    37.8801   YX=   -66.7094   ZX=   -90.1878
   XY=   -69.9537   YY=    56.0864   ZY=    19.7683
   XZ=   -93.3829   YZ=    22.1242   ZZ=    62.3005
   Eigenvalues:   -57.3873    38.2358   175.4185
     33  C    Isotropic =    49.6243   Anisotropy =   189.7672
   XX=    77.3032   YX=   -70.6884   ZX=   -46.7973
   XY=   -77.7937   YY=   -10.3118   ZY=    63.4234
   XZ=   -46.9432   YZ=    60.1954   ZZ=    81.8815
   Eigenvalues:   -60.7969    33.5340   176.1358
     34  C    Isotropic =    54.0252   Anisotropy =   181.7997
   XX=    80.0548   YX=   -17.4504   ZX=   -83.0199
   XY=   -18.6868   YY=    45.6419   ZY=    80.0339
   XZ=   -78.8638   YZ=    77.1823   ZZ=    36.3789
   Eigenvalues:   -57.2684    44.1190   175.2250
     35  C    Isotropic =    50.3336   Anisotropy =   187.9778
   XX=    32.2131   YX=   -69.9485   ZX=   -92.1558
   XY=   -62.5525   YY=    61.1386   ZY=    24.0285
   XZ=   -94.0057   YZ=    29.0360   ZZ=    57.6490
   Eigenvalues:   -59.5260    34.8746   175.6521
     36  H    Isotropic =    28.7652   Anisotropy =     5.7584
   XX=    28.5026   YX=     0.3687   ZX=     3.3164
   XY=    -0.2603   YY=    29.0360   ZY=     3.7394
   XZ=     1.5081   YZ=     2.0835   ZZ=    28.7568
   Eigenvalues:    25.0245    28.6669    32.6041
     37  H    Isotropic =    28.8055   Anisotropy =     7.4059
   XX=    29.6438   YX=     1.5899   ZX=    -4.8667
   XY=    -0.9868   YY=    30.0376   ZY=    -2.0137
   XZ=    -4.6104   YZ=    -2.0362   ZZ=    26.7352
   Eigenvalues:    22.9286    29.7452    33.7428
     38  H    Isotropic =    26.4151   Anisotropy =     9.1343
   XX=    25.0712   YX=    -1.7342   ZX=     2.5014
   XY=     2.6820   YY=    30.0277   ZY=     4.5842
   XZ=     2.1259   YZ=     3.7668   ZZ=    24.1463
   Eigenvalues:    21.0893    25.6513    32.5046
     39  H    Isotropic =    27.7898   Anisotropy =     7.3016
   XX=    28.3761   YX=    -5.6211   ZX=     4.2305
   XY=    -2.5694   YY=    27.1114   ZY=     1.4604
   XZ=     2.5885   YZ=     1.3978   ZZ=    27.8820
   Eigenvalues:    21.7403    28.9717    32.6576
     40  H    Isotropic =    29.2104   Anisotropy =     5.9414
   XX=    30.2217   YX=    -2.0576   ZX=    -2.9515
   XY=     2.4434   YY=    28.1808   ZY=    -0.1372
   XZ=    -3.8687   YZ=     0.5042   ZZ=    29.2286
   Eigenvalues:    26.2429    28.2169    33.1713
     41  H    Isotropic =    30.0306   Anisotropy =    12.3967
   XX=    34.5208   YX=    -5.1299   ZX=     5.0729
   XY=    -2.5639   YY=    27.8220   ZY=    -3.2894
   XZ=     2.5960   YZ=    -2.0962   ZZ=    27.7489
   Eigenvalues:    25.0922    26.7045    38.2950
     42  H    Isotropic =    30.4044   Anisotropy =     7.8004
   XX=    28.2223   YX=    -2.1371   ZX=     2.8955
   XY=    -0.3515   YY=    29.9994   ZY=     3.7324
   XZ=     3.8331   YZ=     2.2296   ZZ=    32.9916
   Eigenvalues:    25.1061    30.5025    35.6047
     43  H    Isotropic =    30.3337   Anisotropy =     9.8954
   XX=    26.9346   YX=     1.5938   ZX=     0.1655
   XY=     1.8501   YY=    36.3326   ZY=     1.0646
   XZ=     0.2825   YZ=     2.1873   ZZ=    27.7340
   Eigenvalues:    26.6243    27.4463    36.9307
     44  H    Isotropic =    30.4834   Anisotropy =     9.8916
   XX=    30.8317   YX=    -2.3768   ZX=    -2.1964
   XY=    -2.9086   YY=    29.6565   ZY=     4.3830
   XZ=    -3.9194   YZ=     3.8206   ZZ=    30.9621
   Eigenvalues:    26.1556    28.2169    37.0778
     45  H    Isotropic =    30.8645   Anisotropy =     9.6331
   XX=    27.3396   YX=    -1.1211   ZX=     2.2935
   XY=    -0.3023   YY=    36.1889   ZY=    -2.6073
   XZ=     1.4014   YZ=    -2.8719   ZZ=    29.0650
   Eigenvalues:    26.0728    29.2341    37.2866
     46  H    Isotropic =    31.9499   Anisotropy =    12.8179
   XX=    29.0328   YX=     2.0021   ZX=     4.9525
   XY=     1.5394   YY=    35.7979   ZY=     3.5181
   XZ=     4.3267   YZ=     6.6436   ZZ=    31.0191
   Eigenvalues:    24.8841    30.4705    40.4952
     47  H    Isotropic =    31.0917   Anisotropy =     6.0765
   XX=    34.5235   YX=    -0.8984   ZX=     0.5789
   XY=    -2.1697   YY=    31.1788   ZY=     2.6519
   XZ=     0.5275   YZ=     2.2368   ZZ=    27.5727
   Eigenvalues:    26.1661    31.9662    35.1427
     48  H    Isotropic =    23.0944   Anisotropy =    12.4034
   XX=    24.1927   YX=     4.8378   ZX=    -5.6387
   XY=     4.9116   YY=    22.1644   ZY=    -1.6965
   XZ=    -4.2166   YZ=    -2.5079   ZZ=    22.9261
   Eigenvalues:    17.4660    20.4539    31.3633
     49  H    Isotropic =    23.6507   Anisotropy =     6.8397
   XX=    28.0634   YX=     0.6620   ZX=    -0.7392
   XY=     0.6489   YY=    20.8951   ZY=    -1.5663
   XZ=    -0.4273   YZ=    -1.5185   ZZ=    21.9936
   Eigenvalues:    19.8021    22.9395    28.2104
     50  H    Isotropic =    23.8160   Anisotropy =     3.9069
   XX=    25.0471   YX=    -0.1097   ZX=     0.2310
   XY=    -0.2389   YY=    21.8244   ZY=    -2.6542
   XZ=     0.7355   YZ=    -2.7574   ZZ=    24.5765
   Eigenvalues:    20.1626    24.8648    26.4206
     51  H    Isotropic =    24.0796   Anisotropy =     7.2505
   XX=    27.5567   YX=     1.3579   ZX=    -2.2909
   XY=     0.8656   YY=    20.9740   ZY=    -1.9971
   XZ=    -1.8248   YZ=    -2.2836   ZZ=    23.7082
   Eigenvalues:    19.8014    23.5242    28.9133
     52  H    Isotropic =    24.8737   Anisotropy =    15.2244
   XX=    34.7389   YX=     1.4260   ZX=    -3.3409
   XY=    -1.4425   YY=    18.3670   ZY=    -0.5495
   XZ=    -0.5734   YZ=    -1.2591   ZZ=    21.5153
   Eigenvalues:    18.1090    21.4888    35.0233
     53  H    Isotropic =    22.0171   Anisotropy =    12.6902
   XX=    19.9831   YX=    -0.1842   ZX=     2.4397
   XY=    -1.4356   YY=    24.3499   ZY=    -6.7837
   XZ=     1.3580   YZ=    -7.2114   ZZ=    21.7182
   Eigenvalues:    15.6940    19.8801    30.4772
     54  H    Isotropic =    23.2736   Anisotropy =     6.5965
   XX=    21.2189   YX=    -0.4205   ZX=     2.4326
   XY=    -0.7406   YY=    22.7695   ZY=    -2.5002
   XZ=     1.6455   YZ=    -1.9467   ZZ=    25.8323
   Eigenvalues:    20.4075    21.7419    27.6713
     55  H    Isotropic =    23.3201   Anisotropy =     3.6509
   XX=    20.6959   YX=     0.9857   ZX=     1.4158
   XY=     0.6619   YY=    24.9509   ZY=     0.6098
   XZ=     1.7172   YZ=     0.4789   ZZ=    24.3136
   Eigenvalues:    20.0411    24.1652    25.7541
     56  H    Isotropic =    23.4783   Anisotropy =     5.7497
   XX=    20.4756   YX=     0.0195   ZX=     1.2916
   XY=     0.2775   YY=    24.7415   ZY=    -1.8702
   XZ=     1.5009   YZ=    -2.4993   ZZ=    25.2179
   Eigenvalues:    19.9667    23.1568    27.3114
     57  H    Isotropic =    23.3309   Anisotropy =    10.5887
   XX=    21.2411   YX=    -0.5916   ZX=     3.1644
   XY=    -1.4597   YY=    19.4795   ZY=    -0.3113
   XZ=     2.9315   YZ=    -1.1100   ZZ=    29.2720
   Eigenvalues:    18.9516    20.6510    30.3900
     58  H    Isotropic =    21.6617   Anisotropy =    13.2357
   XX=    20.3912   YX=    -5.7013   ZX=     5.1243
   XY=    -5.1509   YY=    23.0606   ZY=    -2.8561
   XZ=     3.6755   YZ=    -3.6762   ZZ=    21.5333
   Eigenvalues:    15.5560    18.9436    30.4855
     59  H    Isotropic =    23.5165   Anisotropy =     6.5335
   XX=    25.8602   YX=    -3.1219   ZX=     1.1839
   XY=    -3.0541   YY=    21.6630   ZY=    -1.0769
   XZ=     0.7808   YZ=    -0.9740   ZZ=    23.0263
   Eigenvalues:    19.9574    22.7199    27.8722
     60  H    Isotropic =    23.6957   Anisotropy =     3.1198
   XX=    24.9827   YX=    -0.9164   ZX=    -0.5692
   XY=    -0.8935   YY=    21.1458   ZY=    -1.2759
   XZ=    -1.0293   YZ=    -0.9499   ZZ=    24.9586
   Eigenvalues:    20.5752    24.7363    25.7755
     61  H    Isotropic =    23.9161   Anisotropy =     5.5520
   XX=    25.6742   YX=    -2.0390   ZX=     1.4797
   XY=    -1.8431   YY=    22.5110   ZY=    -2.3953
   XZ=     0.8692   YZ=    -1.7681   ZZ=    23.5632
   Eigenvalues:    20.7236    23.4073    27.6174
     62  H    Isotropic =    23.8005   Anisotropy =    11.5605
   XX=    29.9221   YX=    -4.3087   ZX=    -0.0857
   XY=    -2.9656   YY=    22.9664   ZY=     0.2746
   XZ=    -0.3533   YZ=     1.9150   ZZ=    18.5130
   Eigenvalues:    18.2177    21.6763    31.5075
     63  H    Isotropic =    23.7256   Anisotropy =    12.7668
   XX=    25.4737   YX=     7.1195   ZX=    -0.0035
   XY=     4.2073   YY=    27.4887   ZY=    -0.6160
   XZ=    -0.9664   YZ=     1.9867   ZZ=    18.2144
   Eigenvalues:    17.9721    20.9679    32.2368
     64  H    Isotropic =    23.9408   Anisotropy =     6.9863
   XX=    22.7126   YX=     2.5105   ZX=     0.8223
   XY=     2.1694   YY=    26.5369   ZY=    -3.2340
   XZ=     0.6398   YZ=    -2.5290   ZZ=    22.5729
   Eigenvalues:    19.8504    23.3737    28.5983
     65  H    Isotropic =    23.8307   Anisotropy =     4.1844
   XX=    24.2359   YX=     1.9708   ZX=     2.6134
   XY=     1.1900   YY=    23.3655   ZY=    -1.5980
   XZ=     2.4791   YZ=    -1.4740   ZZ=    23.8909
   Eigenvalues:    20.0493    24.8226    26.6203
     66  H    Isotropic =    23.9535   Anisotropy =     7.6827
   XX=    24.2428   YX=     4.6447   ZX=     0.8739
   XY=     3.4612   YY=    25.5666   ZY=    -1.6311
   XZ=     0.9056   YZ=    -1.5944   ZZ=    22.0510
   Eigenvalues:    19.5767    23.2084    29.0753
     67  H    Isotropic =    24.3561   Anisotropy =    10.0047
   XX=    25.0863   YX=     4.5162   ZX=     1.5541
   XY=     0.7333   YY=    26.0748   ZY=    -6.2727
   XZ=    -0.0595   YZ=    -6.0864   ZZ=    21.9071
   Eigenvalues:    16.8966    25.1458    31.0259
     68  Cl   Isotropic =   869.7656   Anisotropy =   503.7318
   XX=   648.0264   YX=    33.0965   ZX=   205.4127
   XY=    -1.7559   YY=  1084.8781   ZY=  -207.8553
   XZ=   173.7614   YZ=  -159.6685   ZZ=   876.3924
   Eigenvalues:   519.8712   883.8389  1205.5868
     69  Cl   Isotropic =   825.3020   Anisotropy =   293.0036
   XX=   689.3877   YX=  -103.9287   ZX=   -64.6729
   XY=   -71.6474   YY=   926.1754   ZY=   -90.9880
   XZ=   -72.6653   YZ=  -149.3601   ZZ=   860.3429
   Eigenvalues:   612.8085   842.4598  1020.6377
     70  Pd   Isotropic =  -139.5180   Anisotropy =   240.7323
   XX=   -11.5579   YX=    80.8652   ZX=   -69.2847
   XY=    77.9400   YY=  -311.2040   ZY=   169.4976
   XZ=   -52.2460   YZ=   169.5551   ZZ=   -95.7922
   Eigenvalues:  -427.8486   -11.6757    20.9701
 End of Minotr F.D. properties file   721 does not exist.
 End of Minotr F.D. properties file   722 does not exist.
 End of Minotr F.D. properties file   788 does not exist.

 **********************************************************************

            Population analysis using the SCF density.

 **********************************************************************

 Orbital symmetries:
       Occupied  (A) (A) (A) (A) (A) (A) (A) (A) (A) (A) (A) (A)
                 (A) (A) (A) (A) (A) (A) (A) (A) (A) (A) (A) (A)
                 (A) (A) (A) (A) (A) (A) (A) (A) (A) (A) (A) (A)
                 (A) (A) (A) (A) (A) (A) (A) (A) (A) (A) (A) (A)
                 (A) (A) (A) (A) (A) (A) (A) (A) (A) (A) (A) (A)
                 (A) (A) (A) (A) (A) (A) (A) (A) (A) (A) (A) (A)
                 (A) (A) (A) (A) (A) (A) (A) (A) (A) (A) (A) (A)
                 (A) (A) (A) (A) (A) (A) (A) (A) (A) (A) (A) (A)
                 (A) (A) (A) (A) (A) (A) (A) (A) (A) (A) (A) (A)
                 (A) (A) (A) (A) (A) (A) (A) (A) (A) (A) (A) (A)
                 (A) (A) (A) (A) (A) (A) (A) (A) (A) (A) (A) (A)
                 (A) (A) (A) (A) (A) (A) (A) (A) (A) (A) (A) (A)
                 (A) (A) (A) (A) (A) (A) (A) (A) (A) (A) (A) (A)
                 (A) (A)
       Virtual   (A) (A) (A) (A) (A) (A) (A) (A) (A) (A) (A) (A)
                 (A) (A) (A) (A) (A) (A) (A) (A) (A) (A) (A) (A)
                 (A) (A) (A) (A) (A) (A) (A) (A) (A) (A) (A) (A)
                 (A) (A) (A) (A) (A) (A) (A) (A) (A) (A) (A) (A)
                 (A) (A) (A) (A) (A) (A) (A) (A) (A) (A) (A) (A)
                 (A) (A) (A) (A) (A) (A) (A) (A) (A) (A) (A) (A)
                 (A) (A) (A) (A) (A) (A) (A) (A) (A) (A) (A) (A)
                 (A) (A) (A) (A) (A) (A) (A) (A) (A) (A) (A) (A)
                 (A) (A) (A) (A) (A) (A) (A) (A) (A) (A) (A) (A)
                 (A) (A) (A) (A) (A) (A) (A) (A) (A) (A) (A) (A)
                 (A) (A) (A) (A) (A) (A) (A) (A) (A) (A) (A) (A)
                 (A) (A) (A) (A) (A) (A) (A) (A) (A) (A) (A) (A)
                 (A) (A) (A) (A) (A) (A) (A) (A) (A) (A) (A) (A)
                 (A) (A) (A) (A) (A) (A) (A) (A) (A) (A) (A) (A)
                 (A) (A) (A) (A) (A) (A) (A) (A) (A) (A) (A) (A)
                 (A) (A) (A) (A) (A) (A) (A) (A) (A) (A) (A) (A)
                 (A) (A) (A) (A) (A) (A) (A) (A) (A) (A) (A) (A)
                 (A) (A) (A) (A) (A) (A) (A) (A) (A) (A) (A) (A)
                 (A) (A) (A) (A) (A) (A) (A) (A) (A) (A) (A) (A)
                 (A) (A) (A) (A) (A) (A) (A) (A) (A) (A) (A) (A)
                 (A) (A) (A) (A) (A) (A) (A) (A) (A) (A) (A) (A)
                 (A) (A) (A) (A) (A) (A) (A) (A) (A) (A) (A) (A)
                 (A) (A) (A) (A) (A) (A) (A) (A) (A) (A) (A) (A)
                 (A) (A) (A) (A) (A) (A) (A) (A) (A) (A) (A) (A)
                 (A) (A) (A) (A) (A) (A) (A) (A) (A) (A) (A) (A)
                 (A) (A) (A) (A) (A) (A) (A) (A) (A) (A) (A) (A)
                 (A) (A) (A) (A) (A) (A) (A) (A) (A) (A) (A) (A)
                 (A) (A) (A) (A) (A) (A) (A) (A) (A) (A) (A) (A)
                 (A) (A) (A) (A) (A) (A) (A) (A) (A) (A) (A) (A)
                 (A) (A) (A) (A) (A) (A) (A) (A) (A) (A) (A) (A)
                 (A) (A) (A) (A) (A) (A) (A) (A) (A) (A) (A) (A)
                 (A) (A) (A) (A) (A) (A) (A) (A) (A) (A) (A) (A)
                 (A) (A) (A) (A) (A) (A) (A) (A) (A) (A) (A) (A)
                 (A) (A) (A) (A) (A) (A) (A) (A) (A) (A) (A) (A)
                 (A) (A) (A) (A) (A) (A) (A) (A) (A) (A) (A) (A)
                 (A) (A) (A) (A) (A) (A) (A) (A) (A) (A) (A) (A)
                 (A) (A) (A) (A) (A) (A) (A) (A) (A) (A) (A) (A)
                 (A) (A) (A) (A) (A) (A) (A) (A) (A) (A) (A) (A)
                 (A) (A) (A) (A) (A) (A) (A) (A) (A) (A) (A) (A)
                 (A) (A) (A) (A) (A) (A) (A) (A) (A) (A) (A) (A)
                 (A) (A) (A) (A) (A) (A) (A) (A) (A) (A) (A) (A)
                 (A) (A) (A) (A) (A) (A) (A) (A) (A) (A) (A) (A)
                 (A) (A) (A) (A) (A) (A) (A) (A) (A) (A) (A) (A)
                 (A) (A) (A) (A) (A) (A) (A) (A) (A) (A) (A) (A)
                 (A) (A) (A) (A) (A) (A) (A) (A) (A) (A) (A) (A)
                 (A) (A) (A) (A) (A) (A) (A) (A) (A) (A) (A) (A)
                 (A) (A) (A) (A) (A) (A) (A) (A) (A) (A) (A) (A)
                 (A) (A) (A) (A) (A) (A) (A) (A) (A) (A) (A) (A)
                 (A) (A) (A) (A) (A) (A) (A) (A) (A) (A) (A) (A)
                 (A) (A) (A) (A) (A) (A) (A) (A) (A) (A) (A) (A)
                 (A) (A) (A) (A) (A) (A) (A) (A) (A) (A) (A) (A)
                 (A) (A) (A) (A) (A) (A) (A) (A) (A) (A) (A) (A)
                 (A) (A) (A) (A) (A) (A) (A) (A) (A) (A) (A) (A)
                 (A) (A) (A) (A) (A) (A) (A) (A) (A) (A) (A) (A)
                 (A) (A) (A) (A) (A) (A) (A) (A) (A) (A) (A) (A)
                 (A) (A) (A) (A) (A) (A) (A) (A) (A) (A) (A) (A)
                 (A) (A) (A) (A) (A) (A) (A) (A) (A) (A) (A) (A)
                 (A) (A) (A) (A) (A) (A) (A) (A) (A) (A) (A) (A)
                 (A) (A) (A) (A) (A) (A) (A) (A) (A) (A) (A) (A)
                 (A) (A) (A) (A) (A) (A) (A) (A) (A) (A) (A) (A)
                 (A) (A) (A) (A) (A) (A) (A) (A) (A) (A) (A) (A)
                 (A) (A) (A) (A) (A) (A) (A) (A) (A) (A) (A) (A)
                 (A) (A) (A) (A) (A) (A) (A) (A) (A) (A) (A) (A)
                 (A) (A) (A) (A) (A) (A) (A) (A) (A) (A) (A) (A)
                 (A) (A) (A) (A) (A) (A) (A) (A) (A) (A) (A) (A)
                 (A) (A) (A) (A) (A) (A) (A) (A) (A) (A) (A) (A)
                 (A) (A) (A) (A) (A) (A) (A) (A) (A) (A) (A) (A)
                 (A) (A) (A) (A) (A) (A) (A) (A) (A) (A) (A) (A)
                 (A) (A) (A) (A) (A) (A) (A) (A) (A) (A) (A) (A)
                 (A) (A) (A) (A) (A) (A) (A) (A) (A) (A) (A) (A)
                 (A) (A) (A) (A) (A) (A) (A) (A) (A) (A) (A) (A)
                 (A) (A) (A) (A) (A) (A) (A) (A) (A) (A) (A) (A)
                 (A) (A) (A) (A) (A) (A) (A) (A) (A) (A) (A) (A)
                 (A) (A) (A) (A) (A) (A) (A) (A) (A) (A) (A) (A)
                 (A) (A) (A) (A) (A) (A) (A) (A) (A) (A) (A) (A)
                 (A) (A) (A) (A) (A) (A) (A) (A) (A) (A) (A) (A)
                 (A) (A) (A) (A) (A) (A) (A) (A) (A) (A) (A) (A)
                 (A) (A) (A) (A) (A) (A) (A) (A) (A) (A) (A) (A)
                 (A) (A) (A) (A) (A) (A) (A) (A) (A) (A) (A) (A)
                 (A) (A) (A) (A) (A) (A) (A) (A) (A) (A) (A) (A)
                 (A) (A) (A) (A) (A) (A) (A) (A) (A) (A) (A) (A)
                 (A) (A) (A) (A) (A) (A) (A) (A) (A) (A) (A) (A)
                 (A) (A) (A) (A) (A) (A) (A) (A) (A) (A) (A) (A)
                 (A) (A) (A) (A) (A) (A) (A) (A) (A) (A) (A) (A)
                 (A) (A) (A) (A) (A) (A) (A) (A) (A) (A) (A) (A)
                 (A) (A) (A) (A) (A) (A) (A) (A) (A) (A) (A) (A)
                 (A) (A) (A) (A) (A) (A) (A) (A) (A) (A) (A) (A)
                 (A) (A) (A) (A) (A) (A) (A) (A) (A) (A) (A) (A)
                 (A) (A) (A) (A) (A) (A) (A) (A) (A) (A) (A) (A)
                 (A) (A) (A) (A) (A) (A) (A) (A) (A) (A) (A) (A)
                 (A) (A) (A) (A) (A) (A) (A) (A) (A) (A) (A) (A)
                 (A) (A) (A) (A) (A) (A) (A) (A) (A) (A) (A) (A)
                 (A) (A) (A) (A) (A) (A) (A) (A) (A) (A) (A) (A)
                 (A) (A) (A) (A) (A) (A) (A) (A) (A) (A) (A) (A)
                 (A) (A) (A) (A) (A) (A) (A) (A) (A) (A) (A) (A)
                 (A) (A) (A) (A) (A) (A) (A) (A) (A) (A) (A) (A)
                 (A) (A) (A) (A) (A) (A) (A) (A) (A) (A) (A) (A)
                 (A) (A) (A) (A) (A) (A) (A) (A) (A) (A) (A) (A)
                 (A) (A) (A) (A) (A) (A) (A) (A) (A) (A) (A) (A)
                 (A) (A) (A) (A) (A) (A) (A) (A) (A) (A) (A) (A)
                 (A) (A) (A) (A) (A) (A) (A) (A) (A) (A) (A) (A)
                 (A) (A) (A) (A) (A) (A) (A) (A) (A) (A) (A) (A)
                 (A) (A) (A) (A) (A) (A) (A) (A) (A) (A) (A) (A)
                 (A) (A) (A) (A) (A)
 The electronic state is 1-A.
 Alpha  occ. eigenvalues -- -101.61629-101.61142 -77.27049 -77.26609 -19.22929
 Alpha  occ. eigenvalues --  -19.22798 -10.34029 -10.30399 -10.30020 -10.27374
 Alpha  occ. eigenvalues --  -10.26844 -10.26440 -10.26346 -10.26292 -10.26164
 Alpha  occ. eigenvalues --  -10.26115 -10.25736 -10.25699 -10.25692 -10.25624
 Alpha  occ. eigenvalues --  -10.24989 -10.24734 -10.24600 -10.24584 -10.24406
 Alpha  occ. eigenvalues --  -10.24384 -10.24372 -10.24234 -10.24174 -10.24153
 Alpha  occ. eigenvalues --  -10.24143 -10.24128 -10.24009 -10.23862 -10.23841
 Alpha  occ. eigenvalues --  -10.22407 -10.21780  -9.44142  -9.43649  -7.17343
 Alpha  occ. eigenvalues --   -7.16858  -7.16851  -7.16826  -7.16384  -7.16302
 Alpha  occ. eigenvalues --   -6.66273  -6.65790  -4.79881  -4.79832  -4.79597
 Alpha  occ. eigenvalues --   -4.79387  -4.79352  -4.79137  -3.52252  -2.19977
 Alpha  occ. eigenvalues --   -2.19822  -2.16551  -1.12721  -1.03493  -0.91221
 Alpha  occ. eigenvalues --   -0.89553  -0.88994  -0.88777  -0.86241  -0.82060
 Alpha  occ. eigenvalues --   -0.81148  -0.79912  -0.78965  -0.78082  -0.77998
 Alpha  occ. eigenvalues --   -0.77740  -0.77642  -0.77508  -0.77300  -0.74348
 Alpha  occ. eigenvalues --   -0.73393  -0.72417  -0.70693  -0.68454  -0.66423
 Alpha  occ. eigenvalues --   -0.65295  -0.64013  -0.63632  -0.63255  -0.63064
 Alpha  occ. eigenvalues --   -0.62637  -0.62118  -0.61132  -0.59531  -0.58355
 Alpha  occ. eigenvalues --   -0.56512  -0.55139  -0.54240  -0.53302  -0.52906
 Alpha  occ. eigenvalues --   -0.51223  -0.49853  -0.49412  -0.48795  -0.48534
 Alpha  occ. eigenvalues --   -0.48363  -0.47958  -0.47557  -0.47441  -0.47172
 Alpha  occ. eigenvalues --   -0.46947  -0.46668  -0.46257  -0.45865  -0.45048
 Alpha  occ. eigenvalues --   -0.44499  -0.44297  -0.44170  -0.43980  -0.43171
 Alpha  occ. eigenvalues --   -0.42723  -0.42064  -0.41657  -0.41167  -0.40771
 Alpha  occ. eigenvalues --   -0.40445  -0.40317  -0.39939  -0.39481  -0.39034
 Alpha  occ. eigenvalues --   -0.38673  -0.38161  -0.37765  -0.37599  -0.37261
 Alpha  occ. eigenvalues --   -0.36913  -0.36807  -0.36680  -0.36507  -0.36222
 Alpha  occ. eigenvalues --   -0.35966  -0.35655  -0.35044  -0.33592  -0.31572
 Alpha  occ. eigenvalues --   -0.31360  -0.31088  -0.30616  -0.29907  -0.29610
 Alpha  occ. eigenvalues --   -0.29146  -0.28604  -0.28066  -0.27769  -0.27577
 Alpha  occ. eigenvalues --   -0.27445  -0.26871  -0.26590  -0.25774  -0.24849
 Alpha  occ. eigenvalues --   -0.24226  -0.23777  -0.23309
 Alpha virt. eigenvalues --   -0.07445  -0.05716  -0.04622  -0.04135  -0.03454
 Alpha virt. eigenvalues --   -0.02466  -0.02179  -0.01818  -0.01447  -0.00060
 Alpha virt. eigenvalues --    0.00667   0.02645   0.03673   0.03919   0.04020
 Alpha virt. eigenvalues --    0.04506   0.04752   0.05485   0.05610   0.05966
 Alpha virt. eigenvalues --    0.06330   0.07095   0.07282   0.07389   0.07904
 Alpha virt. eigenvalues --    0.08365   0.08636   0.08868   0.08994   0.09194
 Alpha virt. eigenvalues --    0.09248   0.09590   0.09984   0.10222   0.10429
 Alpha virt. eigenvalues --    0.10792   0.11053   0.11120   0.11335   0.11571
 Alpha virt. eigenvalues --    0.11961   0.12218   0.12516   0.12593   0.12793
 Alpha virt. eigenvalues --    0.13129   0.13543   0.13585   0.14245   0.14394
 Alpha virt. eigenvalues --    0.14655   0.15075   0.15124   0.15416   0.15837
 Alpha virt. eigenvalues --    0.16412   0.16677   0.17249   0.17360   0.17936
 Alpha virt. eigenvalues --    0.18030   0.18201   0.18431   0.18629   0.19000
 Alpha virt. eigenvalues --    0.19552   0.19725   0.19810   0.20199   0.20444
 Alpha virt. eigenvalues --    0.20656   0.20740   0.20976   0.21301   0.21731
 Alpha virt. eigenvalues --    0.21854   0.22095   0.22331   0.22563   0.22687
 Alpha virt. eigenvalues --    0.22803   0.23180   0.23415   0.23528   0.23777
 Alpha virt. eigenvalues --    0.24191   0.24451   0.24609   0.24824   0.24847
 Alpha virt. eigenvalues --    0.25151   0.25355   0.25638   0.25924   0.26277
 Alpha virt. eigenvalues --    0.26578   0.26657   0.26789   0.27245   0.27434
 Alpha virt. eigenvalues --    0.27882   0.28229   0.28396   0.28811   0.28950
 Alpha virt. eigenvalues --    0.29104   0.29592   0.30145   0.30683   0.30855
 Alpha virt. eigenvalues --    0.31079   0.31398   0.31566   0.31768   0.32086
 Alpha virt. eigenvalues --    0.32263   0.32481   0.32923   0.33176   0.33430
 Alpha virt. eigenvalues --    0.33693   0.33881   0.34129   0.34388   0.34748
 Alpha virt. eigenvalues --    0.35063   0.35686   0.35768   0.35847   0.35998
 Alpha virt. eigenvalues --    0.36336   0.36388   0.36938   0.37089   0.37333
 Alpha virt. eigenvalues --    0.37407   0.37485   0.38029   0.38283   0.38599
 Alpha virt. eigenvalues --    0.38784   0.39130   0.39245   0.39325   0.39351
 Alpha virt. eigenvalues --    0.39844   0.39994   0.40159   0.40466   0.40527
 Alpha virt. eigenvalues --    0.40795   0.40992   0.41339   0.41609   0.41683
 Alpha virt. eigenvalues --    0.41845   0.42325   0.42533   0.42604   0.42857
 Alpha virt. eigenvalues --    0.43108   0.43332   0.43354   0.43477   0.43831
 Alpha virt. eigenvalues --    0.43936   0.44069   0.44210   0.44547   0.44688
 Alpha virt. eigenvalues --    0.44991   0.45101   0.45354   0.45431   0.46106
 Alpha virt. eigenvalues --    0.46266   0.46413   0.46478   0.46742   0.46988
 Alpha virt. eigenvalues --    0.47160   0.47410   0.47485   0.47730   0.48018
 Alpha virt. eigenvalues --    0.48196   0.48542   0.48834   0.48891   0.49094
 Alpha virt. eigenvalues --    0.49536   0.49880   0.50045   0.50239   0.50443
 Alpha virt. eigenvalues --    0.50662   0.51043   0.51129   0.51259   0.51634
 Alpha virt. eigenvalues --    0.51960   0.52346   0.52658   0.52892   0.53043
 Alpha virt. eigenvalues --    0.53435   0.53887   0.54007   0.54451   0.54698
 Alpha virt. eigenvalues --    0.55052   0.55317   0.55807   0.56195   0.56661
 Alpha virt. eigenvalues --    0.56712   0.56948   0.57483   0.57741   0.58395
 Alpha virt. eigenvalues --    0.58575   0.58828   0.59415   0.59991   0.60269
 Alpha virt. eigenvalues --    0.60296   0.61243   0.62012   0.62386   0.62679
 Alpha virt. eigenvalues --    0.63034   0.63253   0.63583   0.63843   0.64061
 Alpha virt. eigenvalues --    0.64468   0.64687   0.65152   0.65316   0.65484
 Alpha virt. eigenvalues --    0.66014   0.66315   0.66518   0.66958   0.67281
 Alpha virt. eigenvalues --    0.67369   0.67697   0.68097   0.68511   0.68777
 Alpha virt. eigenvalues --    0.68841   0.69175   0.69293   0.69766   0.70052
 Alpha virt. eigenvalues --    0.70241   0.70803   0.70908   0.71304   0.71552
 Alpha virt. eigenvalues --    0.71639   0.71963   0.72357   0.72873   0.73216
 Alpha virt. eigenvalues --    0.73364   0.73713   0.74261   0.74400   0.74786
 Alpha virt. eigenvalues --    0.74959   0.75186   0.75705   0.75954   0.76007
 Alpha virt. eigenvalues --    0.76164   0.76844   0.77304   0.77388   0.77821
 Alpha virt. eigenvalues --    0.78213   0.78835   0.79127   0.79419   0.79549
 Alpha virt. eigenvalues --    0.80283   0.80477   0.80554   0.81048   0.81230
 Alpha virt. eigenvalues --    0.81368   0.81886   0.82164   0.82694   0.82977
 Alpha virt. eigenvalues --    0.83611   0.83903   0.84106   0.84238   0.84800
 Alpha virt. eigenvalues --    0.84974   0.85490   0.86112   0.86177   0.86268
 Alpha virt. eigenvalues --    0.86695   0.87163   0.87846   0.88287   0.88677
 Alpha virt. eigenvalues --    0.89012   0.89224   0.89881   0.89979   0.90197
 Alpha virt. eigenvalues --    0.91002   0.91160   0.91294   0.91662   0.92064
 Alpha virt. eigenvalues --    0.92135   0.92447   0.92760   0.93709   0.94044
 Alpha virt. eigenvalues --    0.94300   0.94774   0.95054   0.95559   0.95757
 Alpha virt. eigenvalues --    0.96406   0.96861   0.97155   0.97614   0.97975
 Alpha virt. eigenvalues --    0.98758   0.99018   0.99245   1.00491   1.00654
 Alpha virt. eigenvalues --    1.01257   1.01803   1.02163   1.02283   1.02900
 Alpha virt. eigenvalues --    1.03492   1.03895   1.04087   1.04749   1.05194
 Alpha virt. eigenvalues --    1.05614   1.05832   1.06205   1.06363   1.07274
 Alpha virt. eigenvalues --    1.07854   1.07971   1.08207   1.08858   1.08957
 Alpha virt. eigenvalues --    1.09740   1.10254   1.10904   1.11386   1.11676
 Alpha virt. eigenvalues --    1.12090   1.12784   1.12918   1.13246   1.13715
 Alpha virt. eigenvalues --    1.14660   1.14848   1.15124   1.15763   1.15923
 Alpha virt. eigenvalues --    1.16146   1.16533   1.17371   1.17923   1.18302
 Alpha virt. eigenvalues --    1.18555   1.18816   1.19881   1.20232   1.20579
 Alpha virt. eigenvalues --    1.20810   1.21314   1.21694   1.22239   1.22471
 Alpha virt. eigenvalues --    1.23311   1.23633   1.23766   1.24039   1.24553
 Alpha virt. eigenvalues --    1.24805   1.24991   1.25217   1.25368   1.25775
 Alpha virt. eigenvalues --    1.26084   1.26279   1.26724   1.27016   1.27679
 Alpha virt. eigenvalues --    1.27881   1.28416   1.28469   1.28841   1.29059
 Alpha virt. eigenvalues --    1.29671   1.29882   1.30125   1.30801   1.31055
 Alpha virt. eigenvalues --    1.31178   1.31696   1.31966   1.32309   1.32501
 Alpha virt. eigenvalues --    1.33008   1.33291   1.33449   1.34227   1.34736
 Alpha virt. eigenvalues --    1.35420   1.36093   1.36549   1.36964   1.37155
 Alpha virt. eigenvalues --    1.38459   1.38731   1.40063   1.40485   1.41124
 Alpha virt. eigenvalues --    1.41730   1.42411   1.42769   1.42979   1.43705
 Alpha virt. eigenvalues --    1.44064   1.44906   1.45160   1.45554   1.45887
 Alpha virt. eigenvalues --    1.46422   1.46827   1.47209   1.47642   1.47787
 Alpha virt. eigenvalues --    1.48122   1.48501   1.49740   1.50074   1.50338
 Alpha virt. eigenvalues --    1.50463   1.51239   1.51489   1.51770   1.52109
 Alpha virt. eigenvalues --    1.52408   1.52710   1.53110   1.53491   1.53895
 Alpha virt. eigenvalues --    1.53964   1.54817   1.54910   1.55094   1.55765
 Alpha virt. eigenvalues --    1.56163   1.56299   1.56894   1.56939   1.57729
 Alpha virt. eigenvalues --    1.58039   1.58426   1.58928   1.59360   1.59726
 Alpha virt. eigenvalues --    1.59920   1.60733   1.60958   1.61318   1.61692
 Alpha virt. eigenvalues --    1.62129   1.62199   1.62737   1.63373   1.63663
 Alpha virt. eigenvalues --    1.64198   1.64502   1.64633   1.65090   1.65572
 Alpha virt. eigenvalues --    1.65700   1.65918   1.66441   1.66660   1.67171
 Alpha virt. eigenvalues --    1.67623   1.67931   1.68658   1.68917   1.69818
 Alpha virt. eigenvalues --    1.69986   1.70187   1.70356   1.70696   1.71119
 Alpha virt. eigenvalues --    1.71287   1.71462   1.71658   1.72092   1.72362
 Alpha virt. eigenvalues --    1.72714   1.73215   1.73684   1.73808   1.73995
 Alpha virt. eigenvalues --    1.75304   1.75835   1.76175   1.76464   1.76739
 Alpha virt. eigenvalues --    1.77053   1.77655   1.77822   1.78314   1.78471
 Alpha virt. eigenvalues --    1.79097   1.79680   1.80000   1.80226   1.80397
 Alpha virt. eigenvalues --    1.81434   1.81835   1.82599   1.82966   1.83872
 Alpha virt. eigenvalues --    1.84060   1.84550   1.85082   1.85441   1.85715
 Alpha virt. eigenvalues --    1.86883   1.87286   1.87912   1.88242   1.88399
 Alpha virt. eigenvalues --    1.89184   1.89765   1.90243   1.90913   1.91259
 Alpha virt. eigenvalues --    1.91641   1.91798   1.92625   1.92977   1.93344
 Alpha virt. eigenvalues --    1.93827   1.94299   1.94707   1.94906   1.95632
 Alpha virt. eigenvalues --    1.96317   1.96923   1.97123   1.97458   1.97844
 Alpha virt. eigenvalues --    1.98630   1.98826   1.99600   2.00012   2.00465
 Alpha virt. eigenvalues --    2.00823   2.01178   2.01556   2.01894   2.02099
 Alpha virt. eigenvalues --    2.02599   2.02904   2.03508   2.04032   2.04277
 Alpha virt. eigenvalues --    2.04763   2.05005   2.05813   2.05980   2.06548
 Alpha virt. eigenvalues --    2.06692   2.07233   2.07732   2.08037   2.08388
 Alpha virt. eigenvalues --    2.08802   2.09165   2.09362   2.09696   2.10227
 Alpha virt. eigenvalues --    2.10663   2.10879   2.11260   2.11595   2.11864
 Alpha virt. eigenvalues --    2.12150   2.12591   2.13334   2.13462   2.13744
 Alpha virt. eigenvalues --    2.14118   2.14525   2.14827   2.14974   2.15602
 Alpha virt. eigenvalues --    2.16033   2.16261   2.16499   2.17344   2.17736
 Alpha virt. eigenvalues --    2.18173   2.18270   2.18962   2.19314   2.19841
 Alpha virt. eigenvalues --    2.19901   2.20171   2.20740   2.21202   2.21405
 Alpha virt. eigenvalues --    2.22238   2.22583   2.22954   2.23346   2.24028
 Alpha virt. eigenvalues --    2.24330   2.24594   2.25082   2.25604   2.26031
 Alpha virt. eigenvalues --    2.26999   2.27239   2.27663   2.27864   2.28370
 Alpha virt. eigenvalues --    2.29019   2.29171   2.30180   2.30498   2.31072
 Alpha virt. eigenvalues --    2.31168   2.31934   2.32529   2.33432   2.34623
 Alpha virt. eigenvalues --    2.35390   2.35705   2.36141   2.36792   2.37504
 Alpha virt. eigenvalues --    2.38190   2.38560   2.38876   2.39502   2.39685
 Alpha virt. eigenvalues --    2.40402   2.40845   2.41340   2.41678   2.42036
 Alpha virt. eigenvalues --    2.42751   2.42979   2.43295   2.43373   2.43823
 Alpha virt. eigenvalues --    2.44754   2.45300   2.45475   2.45996   2.46554
 Alpha virt. eigenvalues --    2.46800   2.47125   2.47721   2.47982   2.48671
 Alpha virt. eigenvalues --    2.48877   2.49335   2.49634   2.50392   2.51218
 Alpha virt. eigenvalues --    2.51334   2.52146   2.52517   2.52615   2.53218
 Alpha virt. eigenvalues --    2.53941   2.54269   2.55219   2.55403   2.55975
 Alpha virt. eigenvalues --    2.56585   2.56732   2.56922   2.57439   2.57955
 Alpha virt. eigenvalues --    2.58554   2.58914   2.59714   2.59905   2.60297
 Alpha virt. eigenvalues --    2.60645   2.61167   2.61490   2.61768   2.62227
 Alpha virt. eigenvalues --    2.62564   2.62892   2.63039   2.63322   2.63634
 Alpha virt. eigenvalues --    2.63956   2.64271   2.64652   2.64827   2.64925
 Alpha virt. eigenvalues --    2.65468   2.65765   2.65977   2.66231   2.66591
 Alpha virt. eigenvalues --    2.66601   2.66971   2.67150   2.67569   2.67699
 Alpha virt. eigenvalues --    2.68165   2.68636   2.69176   2.69641   2.69801
 Alpha virt. eigenvalues --    2.70063   2.70392   2.70977   2.71247   2.71447
 Alpha virt. eigenvalues --    2.71930   2.72116   2.72633   2.73221   2.73458
 Alpha virt. eigenvalues --    2.73577   2.73880   2.74530   2.74834   2.75129
 Alpha virt. eigenvalues --    2.75413   2.75865   2.76159   2.76379   2.76768
 Alpha virt. eigenvalues --    2.77291   2.77627   2.77863   2.78040   2.78353
 Alpha virt. eigenvalues --    2.78579   2.78995   2.79194   2.80117   2.80207
 Alpha virt. eigenvalues --    2.80471   2.80855   2.81231   2.81608   2.82118
 Alpha virt. eigenvalues --    2.82202   2.82574   2.82974   2.83207   2.84000
 Alpha virt. eigenvalues --    2.84461   2.84771   2.85310   2.85488   2.85916
 Alpha virt. eigenvalues --    2.86238   2.86485   2.86624   2.86886   2.87269
 Alpha virt. eigenvalues --    2.87445   2.88218   2.88579   2.88727   2.89442
 Alpha virt. eigenvalues --    2.89632   2.90091   2.90212   2.91170   2.91720
 Alpha virt. eigenvalues --    2.91940   2.92897   2.93098   2.93351   2.93871
 Alpha virt. eigenvalues --    2.94863   2.95024   2.95431   2.95657   2.96072
 Alpha virt. eigenvalues --    2.96731   2.97694   2.98320   2.98567   2.99536
 Alpha virt. eigenvalues --    2.99898   3.00207   3.01181   3.01551   3.02454
 Alpha virt. eigenvalues --    3.03381   3.04111   3.04471   3.05416   3.05814
 Alpha virt. eigenvalues --    3.06059   3.07299   3.07985   3.08868   3.08973
 Alpha virt. eigenvalues --    3.09807   3.10566   3.10975   3.11534   3.11670
 Alpha virt. eigenvalues --    3.12123   3.12331   3.12614   3.12739   3.13086
 Alpha virt. eigenvalues --    3.13355   3.13901   3.13984   3.14330   3.15165
 Alpha virt. eigenvalues --    3.15323   3.15537   3.15911   3.16551   3.16579
 Alpha virt. eigenvalues --    3.17024   3.17215   3.17367   3.17677   3.18007
 Alpha virt. eigenvalues --    3.18284   3.18542   3.19029   3.19383   3.19964
 Alpha virt. eigenvalues --    3.20350   3.20556   3.20935   3.20948   3.21258
 Alpha virt. eigenvalues --    3.22205   3.22685   3.23332   3.23653   3.24111
 Alpha virt. eigenvalues --    3.24577   3.24874   3.25200   3.25807   3.26511
 Alpha virt. eigenvalues --    3.26754   3.27211   3.27669   3.28104   3.28627
 Alpha virt. eigenvalues --    3.29057   3.29401   3.29688   3.29721   3.30743
 Alpha virt. eigenvalues --    3.30772   3.31203   3.31433   3.32037   3.32449
 Alpha virt. eigenvalues --    3.32933   3.33261   3.33541   3.33842   3.34210
 Alpha virt. eigenvalues --    3.34693   3.34727   3.34945   3.35140   3.35869
 Alpha virt. eigenvalues --    3.36161   3.36441   3.36674   3.36944   3.37461
 Alpha virt. eigenvalues --    3.37611   3.38219   3.38359   3.38610   3.38727
 Alpha virt. eigenvalues --    3.39333   3.39582   3.40024   3.40218   3.40678
 Alpha virt. eigenvalues --    3.40757   3.41097   3.41549   3.41676   3.42073
 Alpha virt. eigenvalues --    3.42751   3.43043   3.43142   3.43528   3.43592
 Alpha virt. eigenvalues --    3.44218   3.44534   3.45062   3.45312   3.45799
 Alpha virt. eigenvalues --    3.46150   3.46449   3.47068   3.47252   3.47484
 Alpha virt. eigenvalues --    3.47969   3.48614   3.48911   3.49012   3.49336
 Alpha virt. eigenvalues --    3.49644   3.49760   3.50461   3.50630   3.50889
 Alpha virt. eigenvalues --    3.51660   3.52030   3.52410   3.52601   3.52820
 Alpha virt. eigenvalues --    3.53141   3.53723   3.54016   3.54240   3.54569
 Alpha virt. eigenvalues --    3.54861   3.55324   3.55930   3.56274   3.57042
 Alpha virt. eigenvalues --    3.57292   3.58190   3.58270   3.59065   3.59916
 Alpha virt. eigenvalues --    3.60227   3.60917   3.61310   3.61874   3.62430
 Alpha virt. eigenvalues --    3.63191   3.63965   3.64517   3.65077   3.66291
 Alpha virt. eigenvalues --    3.67008   3.67522   3.68313   3.69093   3.69413
 Alpha virt. eigenvalues --    3.69936   3.70429   3.70634   3.71083   3.71174
 Alpha virt. eigenvalues --    3.71842   3.72574   3.73439   3.73728   3.74719
 Alpha virt. eigenvalues --    3.75149   3.75477   3.76151   3.76528   3.76949
 Alpha virt. eigenvalues --    3.77390   3.78949   3.80065   3.82544   3.84549
 Alpha virt. eigenvalues --    3.85717   3.86557   3.87326   3.88801   3.89133
 Alpha virt. eigenvalues --    3.89581   3.90734   3.91763   3.92459   3.93139
 Alpha virt. eigenvalues --    3.93349   3.93741   3.94677   3.94804   3.95170
 Alpha virt. eigenvalues --    3.96797   3.97587   3.98796   3.99557   4.00816
 Alpha virt. eigenvalues --    4.01207   4.01576   4.02750   4.03229   4.03284
 Alpha virt. eigenvalues --    4.03801   4.04117   4.04664   4.04707   4.06017
 Alpha virt. eigenvalues --    4.06777   4.06951   4.08074   4.08452   4.08570
 Alpha virt. eigenvalues --    4.09161   4.10092   4.10294   4.11583   4.11722
 Alpha virt. eigenvalues --    4.12280   4.12587   4.13672   4.14260   4.15398
 Alpha virt. eigenvalues --    4.16431   4.16760   4.17188   4.17587   4.18610
 Alpha virt. eigenvalues --    4.19086   4.19150   4.19371   4.19399   4.19631
 Alpha virt. eigenvalues --    4.19930   4.20134   4.20458   4.20618   4.21073
 Alpha virt. eigenvalues --    4.21422   4.22062   4.22230   4.23221   4.23477
 Alpha virt. eigenvalues --    4.23828   4.24673   4.25229   4.25564   4.26235
 Alpha virt. eigenvalues --    4.26359   4.26864   4.27147   4.27309   4.28334
 Alpha virt. eigenvalues --    4.29063   4.29430   4.30873   4.31006   4.33055
 Alpha virt. eigenvalues --    4.33536   4.35080   4.35290   4.35632   4.36521
 Alpha virt. eigenvalues --    4.36953   4.39075   4.40282   4.40867   4.41980
 Alpha virt. eigenvalues --    4.43833   4.45222   4.46127   4.49325   4.54010
 Alpha virt. eigenvalues --    4.55498   4.57902   4.58947   4.59807   4.60468
 Alpha virt. eigenvalues --    4.61013   4.61039   4.62061   4.62543   4.62584
 Alpha virt. eigenvalues --    4.62773   4.63058   4.64349   4.64841   4.65445
 Alpha virt. eigenvalues --    4.66986   4.70712   4.71883   4.72222   4.72813
 Alpha virt. eigenvalues --    4.74327   4.74562   4.76145   4.76701   4.78873
 Alpha virt. eigenvalues --    4.80506   4.82614   4.85166   4.85365   4.85552
 Alpha virt. eigenvalues --    4.90188   4.90548   4.91868   4.92191   4.92716
 Alpha virt. eigenvalues --    4.93396   4.94043   4.94351   4.94666   4.96202
 Alpha virt. eigenvalues --    4.98404   5.00671   5.03494   5.10712   5.11290
 Alpha virt. eigenvalues --    5.12119   5.12565   5.12792   5.12970   5.13551
 Alpha virt. eigenvalues --    5.13903   5.14006   5.14986   5.24503   5.25363
 Alpha virt. eigenvalues --    5.26385   5.26739   5.31340   5.33044   5.34238
 Alpha virt. eigenvalues --    5.34930   5.38662   5.40193   5.40994   5.41502
 Alpha virt. eigenvalues --    5.41926   5.42325   5.54310   5.54768   5.56722
 Alpha virt. eigenvalues --    5.57825   5.58180   5.59505   5.76333   5.83245
 Alpha virt. eigenvalues --    5.84869   5.86474   5.89759   5.90851   6.09013
 Alpha virt. eigenvalues --    6.19383   6.23644   6.28933   6.73087   6.78327
 Alpha virt. eigenvalues --    6.84808   6.94785   6.97214   7.06503   7.23549
 Alpha virt. eigenvalues --    7.30138   7.40366   7.47578   7.82306   7.87087
 Alpha virt. eigenvalues --    7.96978   8.01399   8.03044   8.04846  10.93129
 Alpha virt. eigenvalues --   10.94133  10.98223  11.05073  11.05446  11.08476
 Alpha virt. eigenvalues --   15.93698  16.03363  22.12474  22.15152  22.27500
 Alpha virt. eigenvalues --   22.29667  22.41568  22.47641  22.57682  22.60552
 Alpha virt. eigenvalues --   22.61168  22.61221  22.62159  22.62872  22.63078
 Alpha virt. eigenvalues --   22.64387  22.64903  22.67634  22.70365  22.74609
 Alpha virt. eigenvalues --   22.76041  22.77942  22.79500  22.79595  22.81758
 Alpha virt. eigenvalues --   22.83205  22.84670  22.87558  22.97908  23.13691
 Alpha virt. eigenvalues --   23.14888  23.16111  23.17339  25.52399  25.64100
 Alpha virt. eigenvalues --   40.25222  40.83505  40.98344  44.53720  44.59708
 Alpha virt. eigenvalues --   52.08455
          Condensed to atoms (all electrons):
 Mulliken charges:
               1
     1  P    0.280590
     2  P    0.135877
     3  O   -0.291526
     4  O   -0.302401
     5  C   -0.363265
     6  C    0.064486
     7  C    0.105939
     8  C   -0.329932
     9  C    0.323933
    10  C   -0.373969
    11  C   -0.367537
    12  C    0.154905
    13  C   -0.243274
    14  C   -0.114182
    15  C   -0.102996
    16  C   -0.145771
    17  C   -0.180345
    18  C   -0.105656
    19  C   -0.104726
    20  C   -0.154335
    21  C   -0.078438
    22  C   -0.144088
    23  C   -0.136153
    24  C    0.014805
    25  C   -0.098433
    26  C   -0.138806
    27  C   -0.101707
    28  C   -0.131627
    29  C   -0.168621
    30  C    0.153709
    31  C   -0.131807
    32  C   -0.141365
    33  C   -0.089866
    34  C   -0.177906
    35  C   -0.186394
    36  H    0.144604
    37  H    0.169134
    38  H    0.129644
    39  H    0.069688
    40  H    0.159032
    41  H    0.177711
    42  H    0.119786
    43  H    0.130146
    44  H    0.123329
    45  H    0.122301
    46  H    0.151074
    47  H    0.114866
    48  H    0.157005
    49  H    0.125096
    50  H    0.122654
    51  H    0.120450
    52  H    0.151019
    53  H    0.223230
    54  H    0.139174
    55  H    0.131724
    56  H    0.130540
    57  H    0.119998
    58  H    0.188450
    59  H    0.127220
    60  H    0.122928
    61  H    0.121316
    62  H    0.120126
    63  H    0.159964
    64  H    0.124192
    65  H    0.122033
    66  H    0.113677
    67  H    0.154728
    68  Cl  -0.402863
    69  Cl  -0.408018
    70  Pd   0.094923
 Sum of Mulliken charges =  -0.00000
 Mulliken charges with hydrogens summed into heavy atoms:
               1
     1  P    0.280590
     2  P    0.135877
     3  O   -0.291526
     4  O   -0.302401
     5  C   -0.049527
     6  C    0.194130
     7  C    0.175627
     8  C    0.006810
     9  C    0.323933
    10  C   -0.000709
    11  C    0.020704
    12  C    0.154905
    13  C   -0.086269
    14  C    0.010915
    15  C    0.019658
    16  C   -0.025321
    17  C   -0.029325
    18  C   -0.105656
    19  C    0.118504
    20  C   -0.015161
    21  C    0.053287
    22  C   -0.013548
    23  C   -0.016155
    24  C    0.014805
    25  C    0.090017
    26  C   -0.011586
    27  C    0.021221
    28  C   -0.010311
    29  C   -0.048495
    30  C    0.153709
    31  C    0.028157
    32  C   -0.017173
    33  C    0.032168
    34  C   -0.064229
    35  C   -0.031665
    68  Cl  -0.402863
    69  Cl  -0.408018
    70  Pd   0.094923
 Electronic spatial extent (au):  <R**2>=          19689.2695
 Charge=             -0.0000 electrons
 Dipole moment (field-independent basis, Debye):
    X=             -0.8930    Y=              3.9309    Z=              9.6279  Tot=             10.4377
 Quadrupole moment (field-independent basis, Debye-Ang):
[...]
  1283. RY*(  22)Cl  69                  0.00000     2.14558   
  1284. RY*(  23)Cl  69                  0.00000     2.23497   
  1285. RY*(  24)Cl  69                  0.00000     2.17129   
  1286. RY*(  25)Cl  69                  0.00000     2.19428   
  1287. RY*(  26)Cl  69                  0.00000     2.17179   
  1288. RY*(  27)Cl  69                  0.00000     2.17585   
  1289. RY*(  28)Cl  69                  0.00000     2.19364   
  1290. RY*(   1)Pd  70                  0.00377     0.77156   
  1291. RY*(   2)Pd  70                  0.00304     1.53829   
  1292. RY*(   3)Pd  70                  0.00168     1.21029   
  1293. RY*(   4)Pd  70                  0.00135     0.92933   
  1294. RY*(   5)Pd  70                  0.00077     0.91689   
  1295. RY*(   6)Pd  70                  0.00069     1.37325   
  1296. RY*(   7)Pd  70                  0.00068     1.16575   
  1297. RY*(   8)Pd  70                  0.00063     1.69464   
  1298. RY*(   9)Pd  70                  0.00049     0.74916   
  1299. RY*(  10)Pd  70                  0.00036     3.58971   
  1300. RY*(  11)Pd  70                  0.00032     5.51706   
  1301. RY*(  12)Pd  70                  0.00023     1.75010   
  1302. RY*(  13)Pd  70                  0.00021     1.10404   
  1303. RY*(  14)Pd  70                  0.00018     1.33444   
  1304. RY*(  15)Pd  70                  0.00013     3.78084   
  1305. RY*(  16)Pd  70                  0.00009     5.04184   
  1306. RY*(  17)Pd  70                  0.00009     6.12080   
  1307. RY*(  18)Pd  70                  0.00005     4.29042   
  1308. RY*(  19)Pd  70                  0.00006    14.62350   
  1309. RY*(  20)Pd  70                  0.00003     1.13869   
  1310. RY*(  21)Pd  70                  0.00000    39.56326   
  1311. RY*(  22)Pd  70                  0.00000    39.47278   
  1312. RY*(  23)Pd  70                  0.00000    39.48872   
  1313. BD*(   1) P   1 - C   5          0.06300     0.16376   
  1314. BD*(   1) P   1 - C  12          0.07238     0.19852   
  1315. BD*(   1) P   1 - C  18          0.06282     0.19446   
  1316. BD*(   1) P   1 -Pd  70          0.17189     0.59519  1320(g),1307(g),1306(g)
                                                    1291(g),160(g),1297(g)
                                                    1308(g),1305(g),188(v)
                                                    1300(g),1296(g),1299(g)
                                                    1304(g),1295(g),1298(g)
                                                    1293(g),1309(g),1238(v)
                                                    196(v),763(r),1266(v),451(v)
                                                    199(v),919(r),169(g),1240(v)
                                                    1268(v),607(v),1303(g)
                                                    171(g),168(g),1267(v),346(r)
                                                    268(v),1089(r),1399(g)
                                                    195(v),918(r),452(v),174(g)
                                                    173(g),920(r),193(v),762(r)
                                                    790(r),606(v),1292(g),205(v)
                                                    1154(r),1301(g),175(g)
                                                    172(g),792(r),191(v),300(r)
                                                    894(r),348(r),349(r),896(r)
                                                    450(v),921(r),272(v),162(g)
                                                    353(r),1084(r),609(v),454(v)
                                                    190(v),635(r),769(r),197(v)
                                                    1235(v),163(g),170(g)
                                                    1360(r),633(r),610(v),767(r)
                                                    491(r),1302(g),161(g),930(r)
                                                    923(r),269(v),347(r),789(r)
                                                    178(g),929(r),1290(g),636(r)
                                                    1060(r),198(v),660(r)
                                                    1359(r),1294(g),1209(r)
                                                    458(v),1074(r),273(v),176(g)
                                                    1276(v),1246(v),479(r)
                                                    613(v),1237(v),740(r),276(v)
                                                    771(r),585(r),192(v),1264(v)
                                                    455(v),1159(r),1329(r)
                                                    298(r),1050(r),739(r),737(r)
                                                    358(r),278(v),795(r),1244(v)
                                                    297(r),1139(r),934(r),592(r)
                                                    583(r),177(g),1253(v)
                                                    1239(v),798(r)
  1317. BD*(   1) P   2 - C   8          0.08195     0.16825   
  1318. BD*(   1) P   2 - C  24          0.06697     0.20312   
  1319. BD*(   1) P   2 - C  30          0.07338     0.20432   
  1320. BD*(   1) P   2 -Pd  70          0.17337     0.63044  1316(g),1307(g),1306(g)
                                                    1291(g),188(g),1305(g)
                                                    1308(g),1304(g),160(v)
                                                    1296(g),1298(g),1297(g)
                                                    1299(g),1300(g),1295(g)
                                                    1293(g),1309(g),1238(v)
                                                    196(g),763(v),919(v),1266(v)
                                                    199(g),451(r),1268(v),169(v)
                                                    346(v),168(v),171(v),607(r)
                                                    1267(v),1398(g),1303(g)
                                                    1240(v),1301(g),268(r)
                                                    1294(g),193(g),1089(r)
                                                    195(g),452(r),174(v),918(v)
                                                    191(g),173(v),1154(r),606(r)
                                                    762(v),450(r),172(v),896(r)
                                                    349(v),205(g),1084(r),300(r)
                                                    348(v),921(v),792(r),175(v)
                                                    790(r),353(v),894(r),162(v)
                                                    920(v),197(g),769(v),635(r)
                                                    610(r),609(r),272(r),170(v)
                                                    454(r),789(r),347(v),269(r)
                                                    491(r),767(v),633(r),1060(r)
                                                    1050(r),930(v),1374(r)
                                                    192(g),923(v),177(v),929(v)
                                                    298(r),178(v),198(g),1094(r)
                                                    1269(v),1329(r),273(r)
                                                    1276(v),1265(v),636(r)
                                                    458(r),1134(r),176(v)
                                                    1246(v),1139(r),608(r)
                                                    161(v),934(v),660(r),1244(v)
                                                    634(r),585(r),358(v),922(v)
                                                    1270(v),947(r),768(v)
                                                    1209(r),739(r),1237(v)
                                                    1292(g),925(v),740(r),798(r)
                                                    1263(v),479(r),203(g)
                                                    1373(r),1278(v),278(r)
                                                    869(r),1248(v),926(v)
                                                    1312(g),455(r),583(r),791(r)
                                                    276(r),945(r),795(r),592(r)
                                                    1159(r),456(r),1074(r)
                                                    774(v),350(v),771(v),462(r)
  1321. BD*(   1) O   3 - C   6          0.03131     0.27000   
  1322. BD*(   1) O   3 - C   9          0.06298     0.25011   
  1323. BD*(   1) O   4 - C   7          0.02755     0.26815   
  1324. BD*(   1) O   4 - C   9          0.06455     0.24846   
  1325. BD*(   1) C   5 - C   6          0.02234     0.32530   
  1326. BD*(   1) C   5 - H  36          0.01861     0.33468   
  1327. BD*(   1) C   5 - H  37          0.01153     0.33639   
  1328. BD*(   1) C   6 - C   7          0.04838     0.30543   
  1329. BD*(   1) C   6 - H  38          0.04263     0.34143   
  1330. BD*(   1) C   7 - C   8          0.02287     0.32025   
  1331. BD*(   1) C   7 - H  39          0.04445     0.31573   
  1332. BD*(   1) C   8 - H  40          0.01549     0.34133   
  1333. BD*(   1) C   8 - H  41          0.01102     0.35416   
  1334. BD*(   1) C   9 - C  10          0.03933     0.31724   
  1335. BD*(   1) C   9 - C  11          0.03992     0.32078   
  1336. BD*(   1) C  10 - H  42          0.00528     0.36363   
  1337. BD*(   1) C  10 - H  43          0.00538     0.36391   
  1338. BD*(   1) C  10 - H  44          0.00534     0.36434   
  1339. BD*(   1) C  11 - H  45          0.00536     0.36798   
  1340. BD*(   1) C  11 - H  46          0.00621     0.38602   
  1341. BD*(   1) C  11 - H  47          0.00544     0.36793   
  1342. BD*(   1) C  12 - C  13          0.02293     0.50911   
  1343. BD*(   1) C  12 - C  17          0.02479     0.51682   
  1344. BD*(   2) C  12 - C  17          0.37170     0.01453  1351(v),1346(v),1313(v)
                                                    582(g)
  1345. BD*(   1) C  13 - C  14          0.01536     0.54150   
  1346. BD*(   2) C  13 - C  14          0.29648     0.02712  1351(v),1344(v),504(g)
                                                    478(g)
  1347. BD*(   1) C  13 - H  48          0.01409     0.41088   
  1348. BD*(   1) C  14 - C  15          0.01443     0.52984   
  1349. BD*(   1) C  14 - H  49          0.01322     0.39893   
  1350. BD*(   1) C  15 - C  16          0.01430     0.53266   
  1351. BD*(   2) C  15 - C  16          0.31738     0.02108  1346(v),1344(v),530(g)
                                                    556(g)
  1352. BD*(   1) C  15 - H  50          0.01274     0.39945   
  1353. BD*(   1) C  16 - C  17          0.01482     0.53215   
  1354. BD*(   1) C  16 - H  51          0.01318     0.39641   
  1355. BD*(   1) C  17 - H  52          0.01501     0.39964   
  1356. BD*(   1) C  18 - C  19          0.02394     0.49161   
  1357. BD*(   2) C  18 - C  19          0.36879    -0.00684  1367(v),1362(v),1314(v)
                                                    634(g)
  1358. BD*(   1) C  18 - C  23          0.02874     0.49465   
  1359. BD*(   1) C  19 - C  20          0.01681     0.51776   
  1360. BD*(   1) C  19 - H  53          0.01482     0.40942   
  1361. BD*(   1) C  20 - C  21          0.01452     0.50874   
  1362. BD*(   2) C  20 - C  21          0.31652    -0.00065  1367(v),1357(v),686(g)
                                                    660(g)
  1363. BD*(   1) C  20 - H  54          0.01332     0.38327   
  1364. BD*(   1) C  21 - C  22          0.01443     0.50668   
  1365. BD*(   1) C  21 - H  55          0.01286     0.38079   
  1366. BD*(   1) C  22 - C  23          0.01575     0.51002   
  1367. BD*(   2) C  22 - C  23          0.31749    -0.00277  1362(v),1357(v),712(g)
  1368. BD*(   1) C  22 - H  56          0.01325     0.37750   
  1369. BD*(   1) C  23 - H  57          0.01667     0.37900   
  1370. BD*(   1) C  24 - C  25          0.02447     0.51656   
  1371. BD*(   2) C  24 - C  25          0.36248     0.01543  1376(v),1381(v),1386(r)
                                                    790(g),1317(v),1319(v)
                                                    765(g)
  1372. BD*(   1) C  24 - C  29          0.02773     0.50971   
  1373. BD*(   1) C  25 - C  26          0.01655     0.53754   
  1374. BD*(   1) C  25 - H  58          0.01555     0.43345   
  1375. BD*(   1) C  26 - C  27          0.01447     0.52822   
  1376. BD*(   2) C  26 - C  27          0.31838     0.01822  1381(v),1371(v),842(g)
                                                    816(g)
  1377. BD*(   1) C  26 - H  59          0.01347     0.39999   
  1378. BD*(   1) C  27 - C  28          0.01456     0.52508   
  1379. BD*(   1) C  27 - H  60          0.01297     0.39792   
  1380. BD*(   1) C  28 - C  29          0.01530     0.53199   
  1381. BD*(   2) C  28 - C  29          0.30803     0.01917  1376(v),1371(v),868(g)
                                                    1388(r)
  1382. BD*(   1) C  28 - H  61          0.01351     0.39383   
  1383. BD*(   1) C  29 - H  62          0.01558     0.39631   
  1384. BD*(   1) C  30 - C  31          0.02345     0.51577   
  1385. BD*(   1) C  30 - C  35          0.02473     0.51124   
  1386. BD*(   2) C  30 - C  35          0.38425     0.01160  1393(v),1388(v),1371(r)
                                                    1050(g),1317(v)
  1387. BD*(   1) C  31 - C  32          0.01516     0.54063   
  1388. BD*(   2) C  31 - C  32          0.29982     0.02834  1393(v),1386(v),972(g)
                                                    1381(r)
  1389. BD*(   1) C  31 - H  63          0.01390     0.41832   
  1390. BD*(   1) C  32 - C  33          0.01447     0.53119   
  1391. BD*(   1) C  32 - H  64          0.01330     0.39936   
  1392. BD*(   1) C  33 - C  34          0.01434     0.52942   
  1393. BD*(   2) C  33 - C  34          0.32870     0.01888  1386(v),1388(v),998(g)
                                                    1024(g)
  1394. BD*(   1) C  33 - H  65          0.01284     0.39839   
  1395. BD*(   1) C  34 - C  35          0.01531     0.53240   
  1396. BD*(   1) C  34 - H  66          0.01336     0.39308   
  1397. BD*(   1) C  35 - H  67          0.01625     0.39817   
  1398. BD*(   1)Cl  68 -Pd  70          0.18963     0.16570  1399(g),1317(v),1320(g)
                                                    1304(g),188(v),1299(g)
                                                    1305(g),1306(g),1307(g)
                                                    1308(g),1300(g),1294(g)
                                                    1301(g),160(v),1295(g)
                                                    196(v),1291(g),1296(g)
                                                    1297(g),1309(g),1374(r)
                                                    1313(v),199(v),1238(g)
                                                    346(r),1293(g),919(r),763(r)
                                                    1314(v),1236(g),169(v)
                                                    1319(v)
  1399. BD*(   1)Cl  69 -Pd  70          0.18293     0.15195  1398(g),1316(g),1300(g)
                                                    1299(g),1297(g),1307(g)
                                                    160(v),1313(v),1306(g)
                                                    1305(g),1314(v),1302(g)
                                                    1262(g),1308(g),188(v)
                                                    1296(g),1291(g),1266(g)
                                                    1304(g),1293(g),1295(g)
                                                    196(v)
       -------------------------------
              Total Lewis  336.95621  ( 97.9524%)
        Valence non-Lewis    6.48624  (  1.8855%)
        Rydberg non-Lewis    0.55755  (  0.1621%)
       -------------------------------
            Total unit  1  344.00000  (100.0000%)
           Charge unit  1    0.00000
 1\1\GINC-NC104\SP\RPBE1PBE\Gen\C31H32Cl2O2P2Pd1\MACKK4\05-Dec-2021\0\\
 # PBE1PBE gen pseudo=read int=(grid=ultrafine) empiricaldispersion=GD3
 BJ pop=nbo guess=read geom=check\\RR_DIOP_1 title\\0,1\P,0,1.277607461
 ,4.5976950179,-0.0696800528\P,0,-0.4051189839,3.04840943,-2.6694861955
 \O,0,-0.6252084572,1.2859336409,1.4208728377\O,0,-0.4097436152,0.13763
 46646,-0.5782424727\C,0,0.7193521325,3.2399478502,1.0777838325\C,0,-0.
 1636982994,2.1943057717,0.4177328574\C,0,0.503439546,1.2368950955,-0.5
 805903292\C,0,0.722115317,1.7068687142,-2.021244601\C,0,-0.9994643698,
 0.0663969667,0.7411376846\C,0,-0.4026115614,-1.1004432211,1.5255863324
 \C,0,-2.5144982836,-0.0164124461,0.5751992937\C,0,1.830591283,5.851275
 7429,1.1511775732\C,0,0.8662763471,6.4436444429,1.9920608554\C,0,1.262
 5164439,7.3560404555,2.9746706639\C,0,2.6159191191,7.7004606366,3.1137
 387062\C,0,3.5726265218,7.1291708798,2.2657484731\C,0,3.1843054707,6.2
 055316157,1.2843685357\C,0,2.8349551402,4.0295060982,-0.8632189002\C,0
 ,3.157248561,4.5982554606,-2.112974986\C,0,4.3328215016,4.2226886664,-
 2.7772847861\C,0,5.1889062783,3.2690993674,-2.2064299695\C,0,4.8773226
 896,2.7053459639,-0.9601162401\C,0,3.7105911583,3.0895552732,-0.284543
 331\C,0,-2.0789914676,2.2979722151,-2.5821663923\C,0,-3.1341300943,2.9
 897203465,-1.9597332512\C,0,-4.4038333753,2.400898517,-1.8760101418\C,
 0,-4.6274110372,1.1276720312,-2.4189113828\C,0,-3.5775938084,0.4379044
 101,-3.0443815667\C,0,-2.3056974403,1.0170409727,-3.1230182996\C,0,0.0
 438325946,3.0266894748,-4.4491498354\C,0,-0.9595146577,3.1298386364,-5
 .4325819521\C,0,-0.6117292817,3.1380585311,-6.7886479148\C,0,0.7330269
 195,3.0530337231,-7.1764866489\C,0,1.7346725363,2.9590874162,-6.200502
 5629\C,0,1.3946189116,2.9465949586,-4.8416637905\H,0,1.5842673243,2.76
 90945562,1.5771225245\H,0,0.1385264397,3.7487206818,1.8663785767\H,0,-
 1.0228606648,2.7007066901,-0.0707568982\H,0,1.4856879255,0.9203788768,
 -0.1596222513\H,0,0.6443111624,0.8314237331,-2.6880239341\H,0,1.747239
 2712,2.0959577008,-2.1212600663\H,0,0.695389714,-1.012064171,1.5531568
 146\H,0,-0.7815083679,-1.0974297095,2.5607228662\H,0,-0.6740563145,-2.
 0570490202,1.0507836191\H,0,-2.9996636143,-0.110928188,1.5603782142\H,
 0,-2.8909164408,0.8873065173,0.0713281665\H,0,-2.7824029603,-0.8906583
 044,-0.0400982778\H,0,-0.1953272356,6.217159114,1.8545884481\H,0,0.507
 9124601,7.8160935778,3.6202986836\H,0,2.9214085712,8.4225859429,3.8777
 328053\H,0,4.6286152003,7.4011772486,2.3630965008\H,0,3.9373940745,5.7
 643518261,0.6254982823\H,0,2.4671035254,5.3224573122,-2.5629181501\H,0
 ,4.5716234193,4.6696564724,-3.7476996137\H,0,6.1004375036,2.9656288542
 ,-2.7310717046\H,0,5.5458054239,1.964674511,-0.5095059805\H,0,3.489149
 7185,2.6520257909,0.6937846609\H,0,-2.9589690745,3.9989451022,-1.57437
 18527\H,0,-5.2212956394,2.9473090256,-1.3951057002\H,0,-5.6212259295,0
 .6721833298,-2.3584151373\H,0,-3.7484701359,-0.5557031288,-3.471239709
 7\H,0,-1.4931224645,0.4732121377,-3.6148677962\H,0,-2.0064768858,3.214
 1613884,-5.1321303594\H,0,-1.3980624005,3.220945736,-7.5457022749\H,0,
 1.0004646384,3.064859444,-8.2380176855\H,0,2.787606664,2.8964960864,-6
 .4949316893\H,0,2.1911484666,2.8874326024,-4.0942189053\Cl,0,-1.795975
 3126,5.7185368816,-3.4206925474\Cl,0,-0.2481251102,7.3736877776,-0.921
 6306532\Pd,0,-0.2573341517,5.1388462837,-1.6926010176\\Version=ES64L-G
 09RevE.01\State=1-A\HF=-3080.6371811\RMSD=3.274e-09\Dipole=2.08715,-3.
 4620287,0.7221414\Quadrupole=15.2863435,-21.5355511,6.2492076,11.54103
 91,-3.6968914,10.6038921\PG=C01 [X(C31H32Cl2O2P2Pd1)]\\@


 IF GOD HAD MEANT MAN TO SEE THE SUN RISE, HE
 WOULD HAVE SCHEDULED IT FOR A LATER HOUR.
 Job cpu time:       0 days  2 hours 10 minutes 57.2 seconds.
 File lengths (MBytes):  RWF=   1005 Int=      0 D2E=      0 Chk=    144 Scr=      1
 Normal termination of Gaussian 09 at Sun Dec  5 01:51:48 2021.
