 Entering Gaussian System, Link 0=g09
 Input=RR_DIOP_2_SPE_NoPd.com
 Output=RR_DIOP_2_SPE_NoPd.log
 Initial command:
 /gstore/apps/gaussian/g09.e01-foss-2017a/g09/l1.exe "/local/22791312/Gau-27160.inp" -scrdir="/local/22791312/"
 Entering Link 1 = /gstore/apps/gaussian/g09.e01-foss-2017a/g09/l1.exe PID=     27169.
  
 Copyright (c) 1988,1990,1992,1993,1995,1998,2003,2009,2015,
            Gaussian, Inc.  All Rights Reserved.
  
 This is part of the Gaussian(R) 09 program.  It is based on
 the Gaussian(R) 03 system (copyright 2003, Gaussian, Inc.),
 the Gaussian(R) 98 system (copyright 1998, Gaussian, Inc.),
 the Gaussian(R) 94 system (copyright 1995, Gaussian, Inc.),
 the Gaussian 92(TM) system (copyright 1992, Gaussian, Inc.),
 the Gaussian 90(TM) system (copyright 1990, Gaussian, Inc.),
 the Gaussian 88(TM) system (copyright 1988, Gaussian, Inc.),
 the Gaussian 86(TM) system (copyright 1986, Carnegie Mellon
 University), and the Gaussian 82(TM) system (copyright 1983,
 Carnegie Mellon University). Gaussian is a federally registered
 trademark of Gaussian, Inc.
  
 This software contains proprietary and confidential information,
 including trade secrets, belonging to Gaussian, Inc.
  
 This software is provided under written license and may be
 used, copied, transmitted, or stored only in accord with that
 written license.
  
 The following legend is applicable only to US Government
 contracts under FAR:
  
                    RESTRICTED RIGHTS LEGEND
  
 Use, reproduction and disclosure by the US Government is
 subject to restrictions as set forth in subparagraphs (a)
 and (c) of the Commercial Computer Software - Restricted
 Rights clause in FAR 52.227-19.
  
 Gaussian, Inc.
 340 Quinnipiac St., Bldg. 40, Wallingford CT 06492
  
  
 ---------------------------------------------------------------
 Warning -- This program may not be used in any manner that
 competes with the business of Gaussian, Inc. or will provide
 assistance to any competitor of Gaussian, Inc.  The licensee
 of this program is prohibited from giving any competitor of
 Gaussian, Inc. access to this program.  By using this program,
 the user acknowledges that Gaussian, Inc. is engaged in the
 business of creating and licensing software in the field of
 computational chemistry and represents and warrants to the
 licensee that it is not a competitor of Gaussian, Inc. and that
 it will not use this program in any manner prohibited above.
 ---------------------------------------------------------------
  

 Cite this work as:
 Gaussian 09, Revision E.01,
 M. J. Frisch, G. W. Trucks, H. B. Schlegel, G. E. Scuseria, 
 M. A. Robb, J. R. Cheeseman, G. Scalmani, V. Barone, B. Mennucci, 
 G. A. Petersson, H. Nakatsuji, M. Caricato, X. Li, H. P. Hratchian, 
 A. F. Izmaylov, J. Bloino, G. Zheng, J. L. Sonnenberg, M. Hada, 
 M. Ehara, K. Toyota, R. Fukuda, J. Hasegawa, M. Ishida, T. Nakajima, 
 Y. Honda, O. Kitao, H. Nakai, T. Vreven, J. A. Montgomery, Jr., 
 J. E. Peralta, F. Ogliaro, M. Bearpark, J. J. Heyd, E. Brothers, 
 K. N. Kudin, V. N. Staroverov, T. Keith, R. Kobayashi, J. Normand, 
 K. Raghavachari, A. Rendell, J. C. Burant, S. S. Iyengar, J. Tomasi, 
 M. Cossi, N. Rega, J. M. Millam, M. Klene, J. E. Knox, J. B. Cross, 
 V. Bakken, C. Adamo, J. Jaramillo, R. Gomperts, R. E. Stratmann, 
 O. Yazyev, A. J. Austin, R. Cammi, C. Pomelli, J. W. Ochterski, 
 R. L. Martin, K. Morokuma, V. G. Zakrzewski, G. A. Voth, 
 P. Salvador, J. J. Dannenberg, S. Dapprich, A. D. Daniels, 
 O. Farkas, J. B. Foresman, J. V. Ortiz, J. Cioslowski, 
 and D. J. Fox, Gaussian, Inc., Wallingford CT, 2013.
 
 ******************************************
 Gaussian 09:  ES64L-G09RevE.01 30-Nov-2015
                 4-Dec-2021 
 ******************************************
 %nprocs=14
 Will use up to   14 processors via shared memory.
 %mem=128GB
 %chk=RR_DIOP_2_SPE_NoPd.chk
 ----------------------------------------------------------------------
 # PBE1PBE/def2TZVP int=(grid=ultrafine) empiricaldispersion=GD3BJ nmr=
 giao
 ----------------------------------------------------------------------
 1/38=1/1;
 2/12=2,17=6,18=5,40=1/2;
 3/5=44,7=101,11=2,16=1,25=1,30=1,74=-13,75=-5,124=41/1,2,8,3;
 4//1;
 5/5=2,38=5/2;
 8/6=1,10=90,11=11/1;
 10/13=100,45=16/2;
 6/7=2,8=2,9=2,10=2,28=1/1;
 99/9=1/99;
 ---------------
 RR_DIOP_2 title
 ---------------
 Symbolic Z-matrix:
 Charge =  0 Multiplicity = 1
 P                     1.24879   4.59178  -0.07769 
 P                    -0.48936   3.0621   -2.65197 
 O                    -0.61702   1.28214   1.44447 
 O                    -0.4179    0.12631  -0.55001 
 C                     0.70033   3.24454   1.08284 
 C                    -0.18584   2.1952    0.43256 
 C                     0.47327   1.24536  -0.57983 
 C                     0.64683   1.71664  -2.02832 
 C                    -1.01717   0.07247   0.76771 
 C                    -0.44963  -1.10675   1.55428 
 C                    -2.53453   0.02531   0.60111 
 C                     1.86897   5.83827   1.11683 
 C                     0.96796   6.39863   2.04534 
 C                     1.42613   7.31154   3.00012 
 C                     2.77746   7.68946   3.0243 
 C                     3.66972   7.15157   2.08869 
 C                     3.21979   6.22745   1.13472 
 C                     2.76487   3.97598  -0.91388 
 C                     3.0099    4.42393  -2.22722 
 C                     4.12448   3.96125  -2.93785 
 C                     5.00811   3.05169  -2.33897 
 C                     4.78325   2.61845  -1.02334 
 C                     3.66945   3.08076  -0.30908 
 C                    -2.15498   2.27299  -2.57758 
 C                    -2.34087   0.92304  -2.94066 
 C                    -3.61288   0.34182  -2.87887 
 C                    -4.70841   1.08957  -2.42445 
 C                    -4.52425   2.42145  -2.02943 
 C                    -3.25694   3.01498  -2.10971 
 C                     0.07684   3.13331  -4.40674 
 C                     0.59408   4.33971  -4.91583 
 C                     1.12618   4.38918  -6.21086 
 C                     1.13651   3.24077  -7.01414 
 C                     0.60906   2.03976  -6.51882 
 C                     0.08579   1.98385  -5.22084 
 H                     1.57101   2.77356   1.57159 
 H                     0.12566   3.75247   1.87625 
 H                    -1.05938   2.69514  -0.03869 
 H                     1.47152   0.94849  -0.18461 
 H                     0.55525   0.83636  -2.68696 
 H                     1.66501   2.10714  -2.17867 
 H                     0.64939  -1.03794   1.59065 
 H                    -0.83808  -1.10018   2.58584 
 H                    -0.73448  -2.05668   1.07398 
 H                    -3.02062  -0.05607   1.58703 
 H                    -2.89189   0.93626   0.0957 
 H                    -2.82439  -0.84275  -0.01271 
 H                    -0.09579   6.14721   1.99979 
 H                     0.72002   7.74506   3.71522 
 H                     3.13086   8.41145   3.76749 
 H                     4.72301   7.45001   2.09602 
 H                     3.92257   5.8117    0.40731 
 H                     2.29918   5.11507  -2.69272 
 H                     4.28943   4.30056  -3.96525 
 H                     5.87281   2.67821  -2.89668 
 H                     5.47572   1.91414  -0.55113 
 H                     3.51155   2.74022   0.71901 
 H                    -1.49525   0.30117  -3.24368 
 H                    -3.74245  -0.70535  -3.17128 
 H                    -5.70085   0.63039  -2.36944 
 H                    -5.37069   3.01167  -1.66425 
 H                    -3.11929   4.06423  -1.83462 
 H                     0.53991   5.24499  -4.30409 
 H                     1.51792   5.3361   -6.59616 
 H                     1.54629   3.28201  -8.02863 
 H                     0.60192   1.14113  -7.14426 
 H                    -0.32805   1.0392   -4.85665 
 
 Stoichiometry    C31H32O2P2
 Framework group  C1[X(C31H32O2P2)]
 Deg. of freedom   195
 Full point group                 C1      NOp   1
 Largest Abelian subgroup         C1      NOp   1
 Largest concise Abelian subgroup C1      NOp   1
                         Standard orientation:                         
 ---------------------------------------------------------------------
 Center     Atomic      Atomic             Coordinates (Angstroms)
 Number     Number       Type             X           Y           Z
 ---------------------------------------------------------------------
      1         15           0       -2.012983   -0.239110   -0.611315
      2         15           0        1.315295    0.703240   -0.761281
      3          8           0        0.231909   -3.254611    1.007053
      4          8           0        1.820042   -1.777961    1.813804
      5          6           0       -1.519098   -1.820326    0.236358
      6          6           0       -0.020713   -1.965124    0.444062
      7          6           0        0.639776   -1.041394    1.479451
      8          6           0        1.031618    0.379165    1.056583
      9          6           0        1.529064   -3.185687    1.634806
     10          6           0        1.422941   -3.876162    2.992502
     11          6           0        2.600183   -3.783176    0.724820
     12          6           0       -3.744322   -0.628602   -1.076069
     13          6           0       -3.987031   -1.696833   -1.963718
     14          6           0       -5.299937   -2.047374   -2.292851
     15          6           0       -6.378470   -1.325213   -1.759237
     16          6           0       -6.139227   -0.249461   -0.895321
     17          6           0       -4.825586    0.101474   -0.552279
     18          6           0       -2.175335    1.031465    0.706335
     19          6           0       -1.886995    2.366668    0.360402
     20          6           0       -1.949828    3.378807    1.326308
     21          6           0       -2.308439    3.065973    2.645510
     22          6           0       -2.619048    1.742245    2.992525
     23          6           0       -2.558423    0.727333    2.027776
     24          6           0        2.772738   -0.356907   -1.154315
     25          6           0        3.848038   -0.484942   -0.250938
     26          6           0        4.946279   -1.293288   -0.567302
     27          6           0        4.971374   -2.008285   -1.773109
     28          6           0        3.890461   -1.912532   -2.659868
     29          6           0        2.798013   -1.087748   -2.358056
     30          6           0        1.849126    2.466906   -0.664398
     31          6           0        1.109177    3.449763   -1.348911
     32          6           0        1.432915    4.805192   -1.205085
     33          6           0        2.503831    5.192337   -0.388103
     34          6           0        3.254459    4.217547    0.284431
     35          6           0        2.927245    2.862222    0.151378
     36          1           0       -2.059856   -1.934928    1.191988
     37          1           0       -1.866000   -2.632349   -0.425456
     38          1           0        0.496140   -1.859216   -0.534067
     39          1           0       -0.030472   -0.971987    2.366458
     40          1           0        1.937950    0.664413    1.617195
     41          1           0        0.248441    1.091939    1.357205
     42          1           0        0.672205   -3.363721    3.615150
     43          1           0        1.116683   -4.927187    2.863585
     44          1           0        2.395917   -3.850976    3.509087
     45          1           0        2.429535   -4.864958    0.599995
     46          1           0        2.576856   -3.296923   -0.263109
     47          1           0        3.600725   -3.627280    1.159481
     48          1           0       -3.150088   -2.231277   -2.422789
     49          1           0       -5.480291   -2.875412   -2.985482
     50          1           0       -7.404838   -1.596710   -2.026326
     51          1           0       -6.975972    0.324089   -0.483693
     52          1           0       -4.646685    0.942806    0.123031
     53          1           0       -1.584207    2.594358   -0.667196
     54          1           0       -1.701119    4.407682    1.048032
     55          1           0       -2.345557    3.852875    3.405541
     56          1           0       -2.906428    1.496829    4.020011
     57          1           0       -2.811240   -0.299070    2.311412
     58          1           0        3.828691    0.015421    0.720078
     59          1           0        5.776895   -1.376573    0.141217
     60          1           0        5.827862   -2.646137   -2.014729
     61          1           0        3.895299   -2.473606   -3.599729
     62          1           0        1.970316   -0.985518   -3.065165
     63          1           0        0.305375    3.140626   -2.023475
     64          1           0        0.853514    5.557835   -1.749519
     65          1           0        2.760481    6.251408   -0.281689
     66          1           0        4.100389    4.510588    0.914751
     67          1           0        3.530483    2.117332    0.678171
 ---------------------------------------------------------------------
 Rotational constants (GHZ):      0.1270649      0.0883061      0.0678323
 Standard basis: def2TZVP (5D, 7F)
 There are  1464 symmetry adapted cartesian basis functions of A   symmetry.
 There are  1289 symmetry adapted basis functions of A   symmetry.
  1289 basis functions,  2077 primitive gaussians,  1464 cartesian basis functions
   132 alpha electrons      132 beta electrons
       nuclear repulsion energy      4128.3719881481 Hartrees.
 NAtoms=   67 NActive=   67 NUniq=   67 SFac= 1.00D+00 NAtFMM=   60 NAOKFM=T Big=T
 Integral buffers will be    131072 words long.
 Raffenetti 2 integral format.
 Two-electron integral symmetry is turned on.
 Nuclear repulsion after empirical dispersion term =     4128.2735952460 Hartrees.
 One-electron integrals computed using PRISM.
   1 Symmetry operations used in ECPInt.
 ECPInt:  NShTT=  133903 NPrTT=  411765 LenC2=  106799 LenP2D=  219621.
 LDataN:  DoStor=T MaxTD1= 6 Len=  172
 NBasis=  1289 RedAO= T EigKep=  6.48D-06  NBF=  1289
 NBsUse=  1289 1.00D-06 EigRej= -1.00D+00 NBFU=  1289
 ExpMin= 9.04D-02 ExpMax= 5.24D+04 ExpMxC= 1.79D+03 IAcc=3 IRadAn=         5 AccDes= 0.00D+00
 Harris functional with IExCor= 1009 and IRadAn=       5 diagonalized for initial guess.
 HarFok:  IExCor= 1009 AccDes= 0.00D+00 IRadAn=         5 IDoV= 1 UseB2=F ITyADJ=14
 ICtDFT=  3500011 ScaDFX=  1.000000  1.000000  1.000000  1.000000
 FoFCou: FMM=F IPFlag=           0 FMFlag=      100000 FMFlg1=        2001
         NFxFlg=           0 DoJE=T BraDBF=F KetDBF=T FulRan=T
         wScrn=  0.000000 ICntrl=     500 IOpCl=  0 I1Cent=   200000004 NGrid=           0
         NMat0=    1 NMatS0=      1 NMatT0=    0 NMatD0=    1 NMtDS0=    0 NMtDT0=    0
 Petite list used in FoFCou.
 Requested convergence on RMS density matrix=1.00D-08 within 128 cycles.
 Requested convergence on MAX density matrix=1.00D-06.
 Requested convergence on             energy=1.00D-06.
 No special actions if energy rises.
 Integral accuracy reduced to 1.0D-05 until final iterations.
 Problem detected with inexpensive integrals.
 Switching to full accuracy and repeating last cycle.
 SCF Done:  E(RPBE1PBE) =  -2032.44287239     A.U. after   14 cycles
            NFock= 14  Conv=0.71D-08     -V/T= 2.0046
 DoSCS=F DFT=T ScalE2(SS,OS)=  1.000000  1.000000
 Range of M.O.s used for correlation:     1  1289
 NBasis=  1289 NAE=   132 NBE=   132 NFC=     0 NFV=     0
 NROrb=   1289 NOA=   132 NOB=   132 NVA=  1157 NVB=  1157

 **** Warning!!: The largest alpha MO coefficient is  0.39869609D+02

          Differentiating once with respect to magnetic field using GIAOs.
          Electric field/nuclear overlap derivatives assumed to be zero.
 FoFCou: FMM=F IPFlag=           0 FMFlag=      100000 FMFlg1=        2001
         NFxFlg=           0 DoJE=F BraDBF=F KetDBF=T FulRan=T
         wScrn=  0.000000 ICntrl=    6100 IOpCl=  0 I1Cent=           7 NGrid=          67
         NMat0=    1 NMatS0=      1 NMatT0=    0 NMatD0=    1 NMtDS0=    0 NMtDT0=    0
 Symmetry not used in FoFCou.
   1 Symmetry operations used in ECPInt.
 ECPInt:  NShTT=  133903 NPrTT=  411765 LenC2=  133904 LenP2D=  411765.
 LDataN:  DoStor=T MaxTD1= 7 Len=  274
 FoFJK:  IHMeth= 1 ICntrl=    6127 DoSepK=F KAlg= 0 I1Cent=   0 FoldK=F
 IRaf=         1 NMat=   1 IRICut=       1 DoRegI=T DoRafI=F ISym2E= 0.
          There are     3 degrees of freedom in the 1st order CPHF.  IDoFFX=0 NUNeed=     3.
      3 vectors produced by pass  0 Test12= 5.09D-12 3.33D-08 XBig12= 1.42D+02 1.91D+00.
 AX will form     3 AO Fock derivatives at one time.
      3 vectors produced by pass  1 Test12= 5.09D-12 3.33D-08 XBig12= 5.54D-01 1.59D-01.
      3 vectors produced by pass  2 Test12= 5.09D-12 3.33D-08 XBig12= 2.32D-03 6.33D-03.
      3 vectors produced by pass  3 Test12= 5.09D-12 3.33D-08 XBig12= 6.70D-06 3.80D-04.
      3 vectors produced by pass  4 Test12= 5.09D-12 3.33D-08 XBig12= 3.22D-08 4.60D-05.
      3 vectors produced by pass  5 Test12= 5.09D-12 3.33D-08 XBig12= 1.98D-10 4.05D-06.
      3 vectors produced by pass  6 Test12= 5.09D-12 3.33D-08 XBig12= 1.04D-12 3.19D-07.
 InvSVY:  IOpt=1 It=  1 EMax= 3.55D-15
 Solved reduced A of dimension    21 with     3 vectors.
 Calculating GIAO nuclear magnetic shielding tensors.
 SCF GIAO Magnetic shielding tensor (ppm):
      1  P    Isotropic =   315.8935   Anisotropy =    85.3546
   XX=   308.2190   YX=    51.2908   ZX=    14.4689
   XY=    38.9566   YY=   307.8160   ZY=    41.3184
   XZ=   -14.2375   YZ=    32.7227   ZZ=   331.6456
   Eigenvalues:   253.3195   321.5645   372.7966
      2  P    Isotropic =   334.4100   Anisotropy =    29.9373
   XX=   348.5217   YX=     7.3138   ZX=    14.5674
   XY=    -5.6202   YY=   338.9448   ZY=     8.3515
   XZ=    14.8408   YZ=    -2.6433   ZZ=   315.7633
   Eigenvalues:   309.9385   338.9232   354.3682
      3  O    Isotropic =   183.7703   Anisotropy =   107.7204
   XX=   223.1058   YX=     3.3474   ZX=    64.7388
   XY=   -16.0810   YY=   210.5871   ZY=   -11.4272
   XZ=    62.8339   YZ=   -10.6889   ZZ=   117.6178
   Eigenvalues:    87.1599   208.5670   255.5838
      4  O    Isotropic =   188.9870   Anisotropy =   118.6985
   XX=   203.5169   YX=     7.8269   ZX=    65.4072
   XY=    29.8151   YY=   257.3475   ZY=     6.8391
   XZ=    51.6574   YZ=     7.0730   ZZ=   106.0967
   Eigenvalues:    78.6414   220.2004   268.1194
      5  C    Isotropic =   149.1938   Anisotropy =    43.8954
   XX=   163.3201   YX=    -3.3206   ZX=    14.6227
   XY=    -6.3720   YY=   147.4094   ZY=    -7.3060
   XZ=    29.8950   YZ=   -10.8002   ZZ=   136.8518
   Eigenvalues:   122.8931   146.2308   178.4574
      6  C    Isotropic =   104.5671   Anisotropy =    55.8026
   XX=    90.7066   YX=   -13.6843   ZX=     8.7540
   XY=    -1.0174   YY=   135.6959   ZY=   -11.9500
   XZ=    18.4912   YZ=   -16.0607   ZZ=    87.2988
   Eigenvalues:    74.6774    97.2551   141.7688
      7  C    Isotropic =   102.6729   Anisotropy =    51.9496
   XX=   123.6935   YX=   -13.8285   ZX=    17.2275
   XY=   -12.3910   YY=    98.5920   ZY=    -7.1592
   XZ=    25.1617   YZ=     3.9590   ZZ=    85.7332
   Eigenvalues:    75.5183    95.1945   137.3060
      8  C    Isotropic =   154.6222   Anisotropy =    34.4733
   XX=   143.0480   YX=     8.2928   ZX=    -4.7125
   XY=     8.5255   YY=   168.7363   ZY=   -10.6836
   XZ=     0.5423   YZ=   -14.6263   ZZ=   152.0822
   Eigenvalues:   140.1505   146.1116   177.6044
      9  C    Isotropic =    70.7895   Anisotropy =    42.1302
   XX=    73.3403   YX=    11.9579   ZX=    17.7256
   XY=    13.5505   YY=    79.7146   ZY=     9.7777
   XZ=    16.9624   YZ=    10.6001   ZZ=    59.3137
   Eigenvalues:    47.5496    65.9427    98.8763
     10  C    Isotropic =   158.7625   Anisotropy =    42.7653
   XX=   145.1903   YX=    -0.0687   ZX=    -2.6825
   XY=     1.2321   YY=   150.7190   ZY=   -16.8762
   XZ=    -2.1094   YZ=   -14.4886   ZZ=   180.3783
   Eigenvalues:   143.8257   145.1891   187.2728
     11  C    Isotropic =   159.9722   Anisotropy =    37.4297
   XX=   162.7429   YX=    -8.7304   ZX=   -18.5591
   XY=    -8.6563   YY=   155.1505   ZY=     9.3704
   XZ=   -15.8277   YZ=     8.9334   ZZ=   162.0233
   Eigenvalues:   145.1473   149.8440   184.9254
     12  C    Isotropic =    33.0081   Anisotropy =   206.3878
   XX=   -46.4242   YX=     9.1265   ZX=   -16.7222
   XY=    -2.4233   YY=    55.7603   ZY=  -100.5451
   XZ=   -14.7902   YZ=   -90.3462   ZZ=    89.6882
   Eigenvalues:   -49.5943   -21.9813   170.5999
     13  C    Isotropic =    50.7998   Anisotropy =   182.9592
   XX=   -15.0099   YX=    34.4236   ZX=    26.5654
   XY=    53.6912   YY=    70.7581   ZY=   -81.7287
   XZ=    24.6375   YZ=   -93.4855   ZZ=    96.6512
   Eigenvalues:   -60.4785    40.1054   172.7726
     14  C    Isotropic =    52.0604   Anisotropy =   184.4208
   XX=    39.3438   YX=   -10.1797   ZX=   -12.1734
   XY=    -9.5082   YY=    37.7951   ZY=  -111.9173
   XZ=   -12.5018   YZ=  -117.4335   ZZ=    79.0424
   Eigenvalues:   -60.4933    41.6670   175.0076
     15  C    Isotropic =    54.7016   Anisotropy =   181.6337
   XX=   -42.3602   YX=   -17.3344   ZX=   -23.8735
   XY=   -19.3620   YY=    86.8344   ZY=   -71.7972
   XZ=   -25.9173   YZ=   -68.9304   ZZ=   119.6307
   Eigenvalues:   -53.2267    41.5408   175.7908
     16  C    Isotropic =    51.7698   Anisotropy =   183.7494
   XX=   -18.4360   YX=    43.1323   ZX=    27.5229
   XY=    42.8654   YY=    66.5467   ZY=   -83.1117
   XZ=    25.0473   YZ=   -86.4755   ZZ=   107.1986
   Eigenvalues:   -60.3223    41.3622   174.2693
     17  C    Isotropic =    48.5676   Anisotropy =   187.2534
   XX=    35.5937   YX=     0.1712   ZX=    -6.9801
   XY=    -5.0559   YY=    34.8963   ZY=  -108.8493
   XZ=   -12.0283   YZ=  -123.9098   ZZ=    75.2130
   Eigenvalues:   -63.7015    36.0012   173.4032
     18  C    Isotropic =    41.4639   Anisotropy =   210.6438
   XX=   167.7828   YX=   -26.6645   ZX=    41.8819
   XY=   -24.4362   YY=   -27.6968   ZY=   -32.3865
   XZ=    41.9111   YZ=   -34.5482   ZZ=   -15.6942
   Eigenvalues:   -55.9772    -1.5241   181.8931
     19  C    Isotropic =    39.3166   Anisotropy =   189.9397
   XX=   145.9513   YX=   -39.5651   ZX=    57.6494
   XY=   -26.6532   YY=    27.7965   ZY=    20.7567
   XZ=    53.0555   YZ=    11.5162   ZZ=   -55.7981
   Eigenvalues:   -75.6691    27.6757   165.9430
     20  C    Isotropic =    50.7012   Anisotropy =   190.2154
   XX=   162.2536   YX=   -43.7026   ZX=    34.3298
   XY=   -43.9607   YY=   -45.4653   ZY=    18.3310
   XZ=    33.7747   YZ=    16.9989   ZZ=    35.3153
   Eigenvalues:   -60.6259    35.2181   177.5114
     21  C    Isotropic =    49.9769   Anisotropy =   190.8053
   XX=   166.6257   YX=   -15.8735   ZX=    34.8383
   XY=   -21.6377   YY=   -13.3915   ZY=   -52.3987
   XZ=    31.1406   YZ=   -50.9624   ZZ=    -3.3035
   Eigenvalues:   -60.5934    33.3437   177.1805
     22  C    Isotropic =    50.7159   Anisotropy =   188.0993
   XX=   157.5732   YX=   -30.2229   ZX=    56.8321
   XY=   -28.3511   YY=    35.9614   ZY=    16.7173
   XZ=    53.8222   YZ=    17.7508   ZZ=   -41.3870
   Eigenvalues:   -61.7996    37.8318   176.1154
     23  C    Isotropic =    46.5576   Anisotropy =   201.6129
   XX=   164.5337   YX=   -52.8110   ZX=    30.4520
   XY=   -43.9789   YY=   -54.2982   ZY=    19.1293
   XZ=    40.2365   YZ=    21.6942   ZZ=    29.4372
   Eigenvalues:   -72.1284    30.8349   180.9661
     24  C    Isotropic =    40.6076   Anisotropy =   204.1834
   XX=     8.8529   YX=    86.8914   ZX=   -26.7567
   XY=    83.3205   YY=    85.5692   ZY=   -71.8447
   XZ=   -25.9712   YZ=   -68.4141   ZZ=    27.4008
   Eigenvalues:   -51.1479    -3.7591   176.7299
     25  C    Isotropic =    40.5785   Anisotropy =   205.0321
   XX=    63.2657   YX=    48.3344   ZX=   -32.4848
   XY=    68.1539   YY=    87.6861   ZY=   -94.9307
   XZ=   -38.1404   YZ=   -85.3014   ZZ=   -29.2162
   Eigenvalues:   -78.2641    22.7331   177.2666
     26  C    Isotropic =    51.3198   Anisotropy =   186.2703
   XX=    11.1836   YX=    51.6596   ZX=   -77.3401
   XY=    55.6975   YY=   119.0220   ZY=   -42.4347
   XZ=   -76.6288   YZ=   -41.5022   ZZ=    23.7536
   Eigenvalues:   -60.5800    39.0393   175.4999
     27  C    Isotropic =    50.0382   Anisotropy =   189.6997
   XX=     3.8954   YX=    93.9967   ZX=   -11.5602
   XY=    89.7579   YY=    87.3482   ZY=   -61.4233
   XZ=   -10.8918   YZ=   -63.8198   ZZ=    58.8710
   Eigenvalues:   -61.0825    34.6924   176.5046
     28  C    Isotropic =    52.3458   Anisotropy =   184.1435
   XX=    68.1777   YX=    48.1965   ZX=   -25.5269
   XY=    48.3195   YY=    93.2806   ZY=   -87.7674
   XZ=   -28.1575   YZ=   -91.7286   ZZ=    -4.4208
   Eigenvalues:   -57.7742    39.7035   175.1082
     29  C    Isotropic =    42.8964   Anisotropy =   179.8663
   XX=     5.1619   YX=    48.1605   ZX=   -79.9281
   XY=    53.8466   YY=   103.5856   ZY=   -42.8801
   XZ=   -80.1613   YZ=   -37.4920   ZZ=    19.9417
   Eigenvalues:   -68.6000    34.4819   162.8073
     30  C    Isotropic =    37.5611   Anisotropy =   203.2183
   XX=    60.9083   YX=   -11.2831   ZX=   -90.1708
   XY=   -14.6847   YY=   -50.3226   ZY=    17.5596
   XZ=   -85.8994   YZ=     2.3039   ZZ=   102.0976
   Eigenvalues:   -51.8186    -8.5381   173.0400
     31  C    Isotropic =    43.0620   Anisotropy =   178.4295
   XX=    28.0928   YX=   -24.4228   ZX=  -110.8749
   XY=   -22.7883   YY=    29.4454   ZY=   -10.9308
   XZ=  -108.4237   YZ=   -10.2931   ZZ=    71.6477
   Eigenvalues:   -68.3159    35.4868   162.0150
     32  C    Isotropic =    52.8989   Anisotropy =   183.2980
   XX=    67.3474   YX=    29.9202   ZX=   -90.4412
   XY=    30.2450   YY=    -5.7090   ZY=    39.7977
   XZ=   -91.2995   YZ=    42.0641   ZZ=    97.0583
   Eigenvalues:   -57.5480    41.1471   175.0976
     33  C    Isotropic =    50.4739   Anisotropy =   189.1021
   XX=    84.3948   YX=   -28.5801   ZX=   -70.6310
   XY=   -26.5334   YY=   -54.2093   ZY=    -0.6179
   XZ=   -69.4883   YZ=     1.3171   ZZ=   121.2364
   Eigenvalues:   -60.5836    35.4634   176.5420
     34  C    Isotropic =    51.3297   Anisotropy =   185.2747
   XX=    30.5449   YX=   -25.2256   ZX=  -111.2139
   XY=   -25.7977   YY=    34.4417   ZY=    -7.9602
   XZ=  -110.0231   YZ=    -7.3113   ZZ=    89.0025
   Eigenvalues:   -61.1394    40.2823   174.8461
     35  C    Isotropic =    44.6900   Anisotropy =   196.3651
   XX=    57.6815   YX=    34.6956   ZX=   -97.7509
   XY=    29.3327   YY=   -14.8191   ZY=    41.5888
   XZ=  -100.4876   YZ=    40.1913   ZZ=    91.2075
   Eigenvalues:   -71.8086    30.2785   175.6000
     36  H    Isotropic =    28.7423   Anisotropy =     3.2583
   XX=    29.4669   YX=    -1.1985   ZX=    -2.4683
   XY=    -1.2018   YY=    27.7489   ZY=    -2.5847
   XZ=    -0.5313   YZ=    -1.6440   ZZ=    29.0111
   Eigenvalues:    25.3295    29.9830    30.9145
     37  H    Isotropic =    29.2625   Anisotropy =     8.7000
   XX=    30.5641   YX=     2.0506   ZX=     4.6637
   XY=    -0.0600   YY=    30.4468   ZY=     2.9389
   XZ=     4.7868   YZ=     2.6129   ZZ=    26.7767
   Eigenvalues:    23.1326    29.5925    35.0625
     38  H    Isotropic =    26.7772   Anisotropy =     6.4491
   XX=    27.4808   YX=    -1.1948   ZX=    -2.1368
   XY=     3.5362   YY=    26.5638   ZY=    -3.0788
   XZ=    -2.9578   YZ=    -2.2862   ZZ=    26.2871
   Eigenvalues:    23.3698    25.8853    31.0766
     39  H    Isotropic =    28.0249   Anisotropy =     8.3988
   XX=    30.1870   YX=    -6.2762   ZX=    -2.4162
   XY=    -3.2378   YY=    26.6694   ZY=    -1.0273
   XZ=    -1.2381   YZ=    -1.1918   ZZ=    27.2182
   Eigenvalues:    22.5295    27.9211    33.6240
     40  H    Isotropic =    29.1482   Anisotropy =     6.2555
   XX=    30.7638   YX=     1.6654   ZX=     1.6555
   XY=     2.6268   YY=    28.7676   ZY=     0.6275
   XZ=     4.1059   YZ=    -0.5978   ZZ=    27.9133
   Eigenvalues:    25.6486    28.4775    33.3186
     41  H    Isotropic =    31.2022   Anisotropy =    15.2801
   XX=    38.7437   YX=    -4.4357   ZX=    -4.2419
   XY=    -5.5254   YY=    29.9384   ZY=     2.6178
   XZ=    -0.7709   YZ=    -1.2460   ZZ=    24.9246
   Eigenvalues:    24.4748    27.7429    41.3890
     42  H    Isotropic =    30.4041   Anisotropy =     7.2865
   XX=    28.8453   YX=    -2.4662   ZX=    -2.3070
   XY=    -1.1599   YY=    28.5426   ZY=    -2.4737
   XZ=    -3.4588   YZ=    -1.0329   ZZ=    33.8246
   Eigenvalues:    25.5728    30.3778    35.2618
     43  H    Isotropic =    30.3931   Anisotropy =     9.5832
   XX=    27.0340   YX=     1.2919   ZX=    -0.4980
   XY=     1.4234   YY=    35.1732   ZY=    -2.7237
   XZ=    -0.4317   YZ=    -3.7966   ZZ=    28.9720
   Eigenvalues:    26.8090    27.5884    36.7819
     44  H    Isotropic =    30.4740   Anisotropy =     9.2792
   XX=    31.0062   YX=    -1.1480   ZX=     2.6532
   XY=    -1.5238   YY=    27.7154   ZY=    -3.3194
   XZ=     4.6250   YZ=    -2.4324   ZZ=    32.7005
   Eigenvalues:    26.3695    28.3925    36.6601
     45  H    Isotropic =    30.9425   Anisotropy =     9.2913
   XX=    27.7932   YX=    -1.5876   ZX=    -2.0486
   XY=    -0.7758   YY=    36.8274   ZY=     0.6128
   XZ=    -1.2122   YZ=     1.3259   ZZ=    28.2070
   Eigenvalues:    26.3505    29.3404    37.1367
     46  H    Isotropic =    32.1392   Anisotropy =    11.5861
   XX=    29.9244   YX=     1.5931   ZX=    -5.4048
   XY=     1.0771   YY=    33.1889   ZY=    -3.7694
   XZ=    -3.9228   YZ=    -5.6334   ZZ=    33.3041
   Eigenvalues:    26.1386    30.4157    39.8632
     47  H    Isotropic =    31.0532   Anisotropy =     5.5979
   XX=    34.6545   YX=     0.0533   ZX=    -0.5632
   XY=    -1.6243   YY=    29.8204   ZY=    -3.3394
   XZ=     0.0642   YZ=    -1.9914   ZZ=    28.6846
   Eigenvalues:    26.4692    31.9052    34.7851
     48  H    Isotropic =    23.6345   Anisotropy =    11.1414
   XX=    25.0699   YX=     3.4871   ZX=     4.9588
   XY=     2.9662   YY=    21.5785   ZY=     2.3353
   XZ=     3.6138   YZ=     3.8147   ZZ=    24.2550
   Eigenvalues:    19.4747    20.3667    31.0620
     49  H    Isotropic =    23.8232   Anisotropy =     5.8834
   XX=    27.6818   YX=     0.1001   ZX=     0.8109
   XY=    -0.0765   YY=    22.0782   ZY=     1.5268
   XZ=     0.3808   YZ=     1.4401   ZZ=    21.7094
   Eigenvalues:    20.3724    23.3517    27.7454
     50  H    Isotropic =    24.0977   Anisotropy =     3.9784
   XX=    25.0354   YX=    -0.4032   ZX=     0.0599
   XY=    -0.6676   YY=    24.1881   ZY=     2.8758
   XZ=    -0.4540   YZ=     2.9204   ZZ=    23.0696
   Eigenvalues:    20.6691    24.8741    26.7500
     51  H    Isotropic =    24.1663   Anisotropy =     7.0547
   XX=    26.9602   YX=     1.9525   ZX=     2.2234
   XY=     1.2313   YY=    23.1789   ZY=     2.3379
   XZ=     2.2189   YZ=     2.2355   ZZ=    22.3598
   Eigenvalues:    20.3556    23.2739    28.8695
     52  H    Isotropic =    24.6898   Anisotropy =    15.2579
   XX=    34.0664   YX=     2.2517   ZX=     4.4803
   XY=    -1.0127   YY=    19.3951   ZY=     0.3710
   XZ=     2.0746   YZ=     1.2210   ZZ=    20.6080
   Eigenvalues:    18.9214    20.2863    34.8618
     53  H    Isotropic =    23.0149   Anisotropy =     7.1481
   XX=    23.7337   YX=     1.7835   ZX=     0.3779
   XY=     0.5787   YY=    27.4253   ZY=     1.1883
   XZ=    -2.4712   YZ=     0.0534   ZZ=    17.8858
   Eigenvalues:    17.6352    23.6292    27.7804
     54  H    Isotropic =    24.1581   Anisotropy =     6.4929
   XX=    22.8887   YX=    -0.8788   ZX=    -2.1016
   XY=    -0.8323   YY=    23.9231   ZY=     1.9192
   XZ=    -3.7584   YZ=     1.9690   ZZ=    25.6625
   Eigenvalues:    20.9894    22.9981    28.4867
     55  H    Isotropic =    23.8850   Anisotropy =     4.2208
   XX=    21.7587   YX=     0.8848   ZX=    -1.8166
   XY=     0.4515   YY=    24.7798   ZY=    -0.9231
   XZ=    -2.3862   YZ=    -0.7526   ZZ=    25.1164
   Eigenvalues:    20.7330    24.2231    26.6988
     56  H    Isotropic =    23.7211   Anisotropy =     5.2529
   XX=    21.3238   YX=     0.1987   ZX=    -1.2745
   XY=     0.0907   YY=    25.9339   ZY=     1.8995
   XZ=    -1.3812   YZ=     2.1056   ZZ=    23.9057
   Eigenvalues:    20.5790    23.3613    27.2231
     57  H    Isotropic =    23.3941   Anisotropy =     9.5572
   XX=    21.7795   YX=    -1.3005   ZX=    -1.9872
   XY=    -2.4171   YY=    20.5808   ZY=     2.9517
   XZ=    -2.0426   YZ=     3.1982   ZZ=    27.8222
   Eigenvalues:    18.9479    21.4690    29.7656
     58  H    Isotropic =    22.7337   Anisotropy =    10.2417
   XX=    28.2068   YX=    -2.3187   ZX=     0.9661
   XY=    -3.4226   YY=    22.2728   ZY=    -2.2337
   XZ=     1.3028   YZ=    -0.2067   ZZ=    17.7216
   Eigenvalues:    17.3973    21.2424    29.5615
     59  H    Isotropic =    23.8212   Anisotropy =     5.7959
   XX=    25.5345   YX=    -1.9727   ZX=    -1.0013
   XY=    -1.9184   YY=    23.1210   ZY=     2.3010
   XZ=    -1.2925   YZ=     2.5406   ZZ=    22.8082
   Eigenvalues:    20.4788    23.2998    27.6851
     60  H    Isotropic =    23.8064   Anisotropy =     3.7818
   XX=    24.4659   YX=    -0.7831   ZX=     0.8658
   XY=    -0.6888   YY=    21.5859   ZY=     1.7534
   XZ=     1.0795   YZ=     1.8525   ZZ=    25.3674
   Eigenvalues:    20.5781    24.5136    26.3277
     61  H    Isotropic =    23.7777   Anisotropy =     5.1250
   XX=    25.8691   YX=    -2.8516   ZX=     0.1355
   XY=    -2.3971   YY=    21.9143   ZY=     1.0320
   XZ=     0.3545   YZ=     1.0313   ZZ=    23.5496
   Eigenvalues:    20.2789    23.8598    27.1943
     62  H    Isotropic =    23.1649   Anisotropy =     8.4067
   XX=    22.2562   YX=    -3.0077   ZX=    -3.0852
   XY=    -2.0231   YY=    22.9444   ZY=     3.1687
   XZ=    -1.9767   YZ=     3.1096   ZZ=    24.2942
   Eigenvalues:    20.0385    20.6868    28.7694
     63  H    Isotropic =    23.0066   Anisotropy =     8.5615
   XX=    20.2541   YX=     0.3849   ZX=    -1.4620
   XY=    -0.8218   YY=    28.0114   ZY=    -2.5110
   XZ=     0.1897   YZ=    -2.2193   ZZ=    20.7542
   Eigenvalues:    19.4731    20.8323    28.7143
     64  H    Isotropic =    23.7437   Anisotropy =     6.0630
   XX=    22.8819   YX=     2.7029   ZX=     1.4092
   XY=     1.9133   YY=    26.4744   ZY=     0.4983
   XZ=     1.7613   YZ=     0.2135   ZZ=    21.8749
   Eigenvalues:    20.4739    22.9716    27.7857
     65  H    Isotropic =    23.8012   Anisotropy =     4.1310
   XX=    24.4352   YX=     0.2744   ZX=     2.7005
   XY=    -0.2222   YY=    24.3050   ZY=    -0.5977
   XZ=     2.9198   YZ=    -0.6971   ZZ=    22.6634
   Eigenvalues:    20.5260    24.3225    26.5552
     66  H    Isotropic =    23.8878   Anisotropy =     6.3215
   XX=    22.8292   YX=     0.7181   ZX=     1.4340
   XY=     0.1804   YY=    28.0205   ZY=    -0.2609
   XZ=     1.2767   YZ=    -1.0671   ZZ=    20.8137
   Eigenvalues:    20.0531    23.5081    28.1021
     67  H    Isotropic =    23.0442   Anisotropy =    11.7890
   XX=    23.3238   YX=     3.8755   ZX=     2.2393
   XY=     4.1329   YY=    27.3649   ZY=     4.2331
   XZ=     2.1682   YZ=     1.6414   ZZ=    18.4439
   Eigenvalues:    17.3410    20.8881    30.9035
 End of Minotr F.D. properties file   721 does not exist.
 End of Minotr F.D. properties file   722 does not exist.
 End of Minotr F.D. properties file   788 does not exist.

 **********************************************************************

            Population analysis using the SCF density.

 **********************************************************************

 Orbital symmetries:
       Occupied  (A) (A) (A) (A) (A) (A) (A) (A) (A) (A) (A) (A)
                 (A) (A) (A) (A) (A) (A) (A) (A) (A) (A) (A) (A)
                 (A) (A) (A) (A) (A) (A) (A) (A) (A) (A) (A) (A)
                 (A) (A) (A) (A) (A) (A) (A) (A) (A) (A) (A) (A)
                 (A) (A) (A) (A) (A) (A) (A) (A) (A) (A) (A) (A)
                 (A) (A) (A) (A) (A) (A) (A) (A) (A) (A) (A) (A)
                 (A) (A) (A) (A) (A) (A) (A) (A) (A) (A) (A) (A)
                 (A) (A) (A) (A) (A) (A) (A) (A) (A) (A) (A) (A)
                 (A) (A) (A) (A) (A) (A) (A) (A) (A) (A) (A) (A)
                 (A) (A) (A) (A) (A) (A) (A) (A) (A) (A) (A) (A)
                 (A) (A) (A) (A) (A) (A) (A) (A) (A) (A) (A) (A)
       Virtual   (A) (A) (A) (A) (A) (A) (A) (A) (A) (A) (A) (A)
                 (A) (A) (A) (A) (A) (A) (A) (A) (A) (A) (A) (A)
                 (A) (A) (A) (A) (A) (A) (A) (A) (A) (A) (A) (A)
                 (A) (A) (A) (A) (A) (A) (A) (A) (A) (A) (A) (A)
                 (A) (A) (A) (A) (A) (A) (A) (A) (A) (A) (A) (A)
                 (A) (A) (A) (A) (A) (A) (A) (A) (A) (A) (A) (A)
                 (A) (A) (A) (A) (A) (A) (A) (A) (A) (A) (A) (A)
                 (A) (A) (A) (A) (A) (A) (A) (A) (A) (A) (A) (A)
                 (A) (A) (A) (A) (A) (A) (A) (A) (A) (A) (A) (A)
                 (A) (A) (A) (A) (A) (A) (A) (A) (A) (A) (A) (A)
                 (A) (A) (A) (A) (A) (A) (A) (A) (A) (A) (A) (A)
                 (A) (A) (A) (A) (A) (A) (A) (A) (A) (A) (A) (A)
                 (A) (A) (A) (A) (A) (A) (A) (A) (A) (A) (A) (A)
                 (A) (A) (A) (A) (A) (A) (A) (A) (A) (A) (A) (A)
                 (A) (A) (A) (A) (A) (A) (A) (A) (A) (A) (A) (A)
                 (A) (A) (A) (A) (A) (A) (A) (A) (A) (A) (A) (A)
                 (A) (A) (A) (A) (A) (A) (A) (A) (A) (A) (A) (A)
                 (A) (A) (A) (A) (A) (A) (A) (A) (A) (A) (A) (A)
                 (A) (A) (A) (A) (A) (A) (A) (A) (A) (A) (A) (A)
                 (A) (A) (A) (A) (A) (A) (A) (A) (A) (A) (A) (A)
                 (A) (A) (A) (A) (A) (A) (A) (A) (A) (A) (A) (A)
                 (A) (A) (A) (A) (A) (A) (A) (A) (A) (A) (A) (A)
                 (A) (A) (A) (A) (A) (A) (A) (A) (A) (A) (A) (A)
                 (A) (A) (A) (A) (A) (A) (A) (A) (A) (A) (A) (A)
                 (A) (A) (A) (A) (A) (A) (A) (A) (A) (A) (A) (A)
                 (A) (A) (A) (A) (A) (A) (A) (A) (A) (A) (A) (A)
                 (A) (A) (A) (A) (A) (A) (A) (A) (A) (A) (A) (A)
                 (A) (A) (A) (A) (A) (A) (A) (A) (A) (A) (A) (A)
                 (A) (A) (A) (A) (A) (A) (A) (A) (A) (A) (A) (A)
                 (A) (A) (A) (A) (A) (A) (A) (A) (A) (A) (A) (A)
                 (A) (A) (A) (A) (A) (A) (A) (A) (A) (A) (A) (A)
                 (A) (A) (A) (A) (A) (A) (A) (A) (A) (A) (A) (A)
                 (A) (A) (A) (A) (A) (A) (A) (A) (A) (A) (A) (A)
                 (A) (A) (A) (A) (A) (A) (A) (A) (A) (A) (A) (A)
                 (A) (A) (A) (A) (A) (A) (A) (A) (A) (A) (A) (A)
                 (A) (A) (A) (A) (A) (A) (A) (A) (A) (A) (A) (A)
                 (A) (A) (A) (A) (A) (A) (A) (A) (A) (A) (A) (A)
                 (A) (A) (A) (A) (A) (A) (A) (A) (A) (A) (A) (A)
                 (A) (A) (A) (A) (A) (A) (A) (A) (A) (A) (A) (A)
                 (A) (A) (A) (A) (A) (A) (A) (A) (A) (A) (A) (A)
                 (A) (A) (A) (A) (A) (A) (A) (A) (A) (A) (A) (A)
                 (A) (A) (A) (A) (A) (A) (A) (A) (A) (A) (A) (A)
                 (A) (A) (A) (A) (A) (A) (A) (A) (A) (A) (A) (A)
                 (A) (A) (A) (A) (A) (A) (A) (A) (A) (A) (A) (A)
                 (A) (A) (A) (A) (A) (A) (A) (A) (A) (A) (A) (A)
                 (A) (A) (A) (A) (A) (A) (A) (A) (A) (A) (A) (A)
                 (A) (A) (A) (A) (A) (A) (A) (A) (A) (A) (A) (A)
                 (A) (A) (A) (A) (A) (A) (A) (A) (A) (A) (A) (A)
                 (A) (A) (A) (A) (A) (A) (A) (A) (A) (A) (A) (A)
                 (A) (A) (A) (A) (A) (A) (A) (A) (A) (A) (A) (A)
                 (A) (A) (A) (A) (A) (A) (A) (A) (A) (A) (A) (A)
                 (A) (A) (A) (A) (A) (A) (A) (A) (A) (A) (A) (A)
                 (A) (A) (A) (A) (A) (A) (A) (A) (A) (A) (A) (A)
                 (A) (A) (A) (A) (A) (A) (A) (A) (A) (A) (A) (A)
                 (A) (A) (A) (A) (A) (A) (A) (A) (A) (A) (A) (A)
                 (A) (A) (A) (A) (A) (A) (A) (A) (A) (A) (A) (A)
                 (A) (A) (A) (A) (A) (A) (A) (A) (A) (A) (A) (A)
                 (A) (A) (A) (A) (A) (A) (A) (A) (A) (A) (A) (A)
                 (A) (A) (A) (A) (A) (A) (A) (A) (A) (A) (A) (A)
                 (A) (A) (A) (A) (A) (A) (A) (A) (A) (A) (A) (A)
                 (A) (A) (A) (A) (A) (A) (A) (A) (A) (A) (A) (A)
                 (A) (A) (A) (A) (A) (A) (A) (A) (A) (A) (A) (A)
                 (A) (A) (A) (A) (A) (A) (A) (A) (A) (A) (A) (A)
                 (A) (A) (A) (A) (A) (A) (A) (A) (A) (A) (A) (A)
                 (A) (A) (A) (A) (A) (A) (A) (A) (A) (A) (A) (A)
                 (A) (A) (A) (A) (A) (A) (A) (A) (A) (A) (A) (A)
                 (A) (A) (A) (A) (A) (A) (A) (A) (A) (A) (A) (A)
                 (A) (A) (A) (A) (A) (A) (A) (A) (A) (A) (A) (A)
                 (A) (A) (A) (A) (A) (A) (A) (A) (A) (A) (A) (A)
                 (A) (A) (A) (A) (A) (A) (A) (A) (A) (A) (A) (A)
                 (A) (A) (A) (A) (A) (A) (A) (A) (A) (A) (A) (A)
                 (A) (A) (A) (A) (A) (A) (A) (A) (A) (A) (A) (A)
                 (A) (A) (A) (A) (A) (A) (A) (A) (A) (A) (A) (A)
                 (A) (A) (A) (A) (A) (A) (A) (A) (A) (A) (A) (A)
                 (A) (A) (A) (A) (A) (A) (A) (A) (A) (A) (A) (A)
                 (A) (A) (A) (A) (A) (A) (A) (A) (A) (A) (A) (A)
                 (A) (A) (A) (A) (A) (A) (A) (A) (A) (A) (A) (A)
                 (A) (A) (A) (A) (A) (A) (A) (A) (A) (A) (A) (A)
                 (A) (A) (A) (A) (A) (A) (A) (A) (A) (A) (A) (A)
                 (A) (A) (A) (A) (A) (A) (A) (A) (A) (A) (A) (A)
                 (A) (A) (A) (A) (A) (A) (A) (A) (A) (A) (A) (A)
                 (A) (A) (A) (A) (A) (A) (A) (A) (A) (A) (A) (A)
                 (A) (A) (A) (A) (A) (A) (A) (A) (A) (A) (A) (A)
                 (A) (A) (A) (A) (A) (A) (A) (A) (A) (A) (A) (A)
                 (A) (A) (A) (A) (A) (A) (A) (A) (A) (A) (A) (A)
                 (A) (A) (A) (A) (A) (A) (A) (A) (A) (A) (A) (A)
                 (A) (A) (A) (A) (A) (A) (A) (A) (A) (A) (A) (A)
                 (A) (A) (A) (A) (A) (A) (A) (A) (A) (A) (A) (A)
                 (A) (A) (A) (A) (A) (A) (A) (A) (A) (A) (A) (A)
                 (A) (A) (A) (A) (A) (A) (A) (A) (A) (A) (A) (A)
                 (A) (A) (A) (A) (A) (A) (A) (A) (A) (A) (A) (A)
                 (A) (A) (A) (A) (A) (A) (A) (A) (A) (A) (A) (A)
                 (A) (A) (A) (A) (A) (A) (A) (A) (A) (A) (A) (A)
                 (A) (A) (A) (A) (A) (A) (A) (A) (A) (A) (A) (A)
                 (A) (A) (A) (A) (A) (A) (A) (A) (A) (A) (A) (A)
                 (A) (A) (A) (A) (A) (A) (A) (A) (A) (A) (A) (A)
                 (A) (A) (A) (A) (A)
 The electronic state is 1-A.
 Alpha  occ. eigenvalues --  -77.19632 -77.19349 -19.20995 -19.20793 -10.32369
 Alpha  occ. eigenvalues --  -10.27939 -10.27647 -10.24466 -10.24182 -10.24168
 Alpha  occ. eigenvalues --  -10.24081 -10.24039 -10.23973 -10.23910 -10.23851
 Alpha  occ. eigenvalues --  -10.23781 -10.23722 -10.23722 -10.23648 -10.23586
 Alpha  occ. eigenvalues --  -10.23552 -10.23527 -10.23506 -10.23390 -10.23345
 Alpha  occ. eigenvalues --  -10.23223 -10.23117 -10.23053 -10.22958 -10.22836
 Alpha  occ. eigenvalues --  -10.22727 -10.22671 -10.22661 -10.21013 -10.20542
 Alpha  occ. eigenvalues --   -6.59263  -6.58947  -4.72867  -4.72830  -4.72535
 Alpha  occ. eigenvalues --   -4.72524  -4.72386  -4.72075  -1.10736  -1.01489
 Alpha  occ. eigenvalues --   -0.88754  -0.88328  -0.87854  -0.87509  -0.83833
 Alpha  occ. eigenvalues --   -0.79316  -0.78987  -0.77598  -0.77198  -0.76934
 Alpha  occ. eigenvalues --   -0.76813  -0.76592  -0.76324  -0.75865  -0.75130
 Alpha  occ. eigenvalues --   -0.71034  -0.67992  -0.65716  -0.63830  -0.62976
 Alpha  occ. eigenvalues --   -0.62789  -0.62143  -0.62004  -0.61715  -0.61489
 Alpha  occ. eigenvalues --   -0.60360  -0.59182  -0.57120  -0.56225  -0.54184
 Alpha  occ. eigenvalues --   -0.53280  -0.52925  -0.51697  -0.51091  -0.48975
 Alpha  occ. eigenvalues --   -0.47380  -0.47297  -0.47104  -0.46776  -0.46569
 Alpha  occ. eigenvalues --   -0.46539  -0.46327  -0.45981  -0.45776  -0.45123
 Alpha  occ. eigenvalues --   -0.44828  -0.44236  -0.43905  -0.43768  -0.43270
 Alpha  occ. eigenvalues --   -0.43222  -0.42423  -0.41655  -0.41216  -0.40726
 Alpha  occ. eigenvalues --   -0.40054  -0.39885  -0.39117  -0.38683  -0.38584
 Alpha  occ. eigenvalues --   -0.38485  -0.38125  -0.37821  -0.37015  -0.36483
 Alpha  occ. eigenvalues --   -0.36327  -0.36116  -0.35514  -0.35487  -0.34968
 Alpha  occ. eigenvalues --   -0.34582  -0.34044  -0.33709  -0.33121  -0.32654
 Alpha  occ. eigenvalues --   -0.28926  -0.28262  -0.27776  -0.27322  -0.27004
 Alpha  occ. eigenvalues --   -0.26914  -0.26710  -0.26364  -0.26238  -0.25774
 Alpha  occ. eigenvalues --   -0.23768  -0.19886
 Alpha virt. eigenvalues --   -0.03552  -0.03283  -0.02555  -0.01685  -0.01531
 Alpha virt. eigenvalues --   -0.01223  -0.00909  -0.00437   0.03757   0.04336
 Alpha virt. eigenvalues --    0.04442   0.05044   0.05823   0.06337   0.06414
 Alpha virt. eigenvalues --    0.06804   0.07513   0.07772   0.08183   0.08560
 Alpha virt. eigenvalues --    0.09082   0.09236   0.09376   0.09662   0.10170
 Alpha virt. eigenvalues --    0.10208   0.10453   0.10679   0.11085   0.11329
 Alpha virt. eigenvalues --    0.11415   0.11637   0.11895   0.12158   0.12547
 Alpha virt. eigenvalues --    0.12778   0.12843   0.13119   0.13372   0.13651
 Alpha virt. eigenvalues --    0.13849   0.14668   0.14870   0.15139   0.15603
 Alpha virt. eigenvalues --    0.15607   0.15779   0.16768   0.16817   0.17128
 Alpha virt. eigenvalues --    0.17500   0.17886   0.18172   0.18306   0.18561
 Alpha virt. eigenvalues --    0.19187   0.19309   0.19542   0.19687   0.20377
 Alpha virt. eigenvalues --    0.20589   0.20963   0.21243   0.21762   0.21917
 Alpha virt. eigenvalues --    0.22011   0.22170   0.22586   0.22745   0.22933
 Alpha virt. eigenvalues --    0.23042   0.23353   0.23607   0.23852   0.24169
 Alpha virt. eigenvalues --    0.24346   0.24443   0.24573   0.24673   0.24958
 Alpha virt. eigenvalues --    0.25061   0.25656   0.25714   0.25966   0.26017
 Alpha virt. eigenvalues --    0.26668   0.26840   0.27322   0.27519   0.27642
 Alpha virt. eigenvalues --    0.28027   0.28230   0.28265   0.29010   0.29482
 Alpha virt. eigenvalues --    0.29831   0.30425   0.30945   0.31177   0.31269
 Alpha virt. eigenvalues --    0.31912   0.32065   0.32301   0.32423   0.32954
 Alpha virt. eigenvalues --    0.33317   0.33426   0.33830   0.34033   0.34382
 Alpha virt. eigenvalues --    0.34637   0.34823   0.35019   0.35439   0.35672
 Alpha virt. eigenvalues --    0.36266   0.36613   0.36962   0.37018   0.37198
 Alpha virt. eigenvalues --    0.37374   0.37861   0.38138   0.38224   0.38391
 Alpha virt. eigenvalues --    0.38693   0.39097   0.39285   0.39681   0.39947
 Alpha virt. eigenvalues --    0.40214   0.40430   0.40633   0.40824   0.41052
 Alpha virt. eigenvalues --    0.41179   0.41359   0.41376   0.41783   0.42013
 Alpha virt. eigenvalues --    0.42330   0.42594   0.42787   0.42935   0.43260
 Alpha virt. eigenvalues --    0.43374   0.43522   0.43748   0.43872   0.44328
 Alpha virt. eigenvalues --    0.44651   0.44992   0.45118   0.45261   0.45525
 Alpha virt. eigenvalues --    0.45642   0.46021   0.46325   0.46569   0.46783
 Alpha virt. eigenvalues --    0.47246   0.47462   0.47631   0.47746   0.47964
 Alpha virt. eigenvalues --    0.48200   0.48330   0.48427   0.48742   0.49030
 Alpha virt. eigenvalues --    0.49131   0.49405   0.49671   0.50013   0.50164
 Alpha virt. eigenvalues --    0.50315   0.50565   0.50791   0.50997   0.51444
 Alpha virt. eigenvalues --    0.51798   0.52236   0.52440   0.52527   0.52949
 Alpha virt. eigenvalues --    0.53329   0.53879   0.54199   0.54484   0.54819
 Alpha virt. eigenvalues --    0.54983   0.55370   0.55639   0.55952   0.56504
 Alpha virt. eigenvalues --    0.56720   0.57144   0.57472   0.57973   0.58397
 Alpha virt. eigenvalues --    0.58523   0.59453   0.59916   0.60195   0.60455
 Alpha virt. eigenvalues --    0.60784   0.61330   0.62021   0.62384   0.62649
 Alpha virt. eigenvalues --    0.62710   0.63619   0.64269   0.64665   0.65318
 Alpha virt. eigenvalues --    0.65375   0.65758   0.66224   0.66612   0.66981
 Alpha virt. eigenvalues --    0.67378   0.67586   0.67869   0.68373   0.68723
 Alpha virt. eigenvalues --    0.68932   0.69245   0.69484   0.69575   0.70072
 Alpha virt. eigenvalues --    0.70421   0.70665   0.71157   0.71231   0.71428
 Alpha virt. eigenvalues --    0.71649   0.71999   0.72324   0.72533   0.73299
 Alpha virt. eigenvalues --    0.73723   0.74070   0.74710   0.75330   0.75591
 Alpha virt. eigenvalues --    0.75722   0.76097   0.76173   0.76412   0.77114
 Alpha virt. eigenvalues --    0.77642   0.77689   0.77830   0.78358   0.78650
 Alpha virt. eigenvalues --    0.78758   0.79591   0.79916   0.80703   0.81185
 Alpha virt. eigenvalues --    0.81452   0.81582   0.82198   0.82396   0.82622
 Alpha virt. eigenvalues --    0.82871   0.83228   0.83815   0.84161   0.84495
 Alpha virt. eigenvalues --    0.84744   0.84993   0.85873   0.86245   0.86455
 Alpha virt. eigenvalues --    0.86882   0.87325   0.88368   0.88975   0.89266
 Alpha virt. eigenvalues --    0.89627   0.89685   0.90211   0.90457   0.90744
 Alpha virt. eigenvalues --    0.91237   0.91461   0.91843   0.91908   0.92687
 Alpha virt. eigenvalues --    0.92822   0.93337   0.93566   0.93699   0.94130
 Alpha virt. eigenvalues --    0.94630   0.95097   0.95462   0.95946   0.96553
 Alpha virt. eigenvalues --    0.97493   0.97737   0.98685   0.98782   0.99061
 Alpha virt. eigenvalues --    1.00308   1.01358   1.01617   1.02071   1.02278
 Alpha virt. eigenvalues --    1.03157   1.03566   1.04096   1.04378   1.04832
 Alpha virt. eigenvalues --    1.05009   1.06145   1.06278   1.06621   1.06960
 Alpha virt. eigenvalues --    1.07104   1.07742   1.07985   1.08903   1.09742
 Alpha virt. eigenvalues --    1.09969   1.10328   1.10906   1.10987   1.11465
 Alpha virt. eigenvalues --    1.11925   1.12019   1.12598   1.12968   1.13496
 Alpha virt. eigenvalues --    1.14197   1.14886   1.15038   1.15781   1.16180
 Alpha virt. eigenvalues --    1.16465   1.16954   1.17649   1.17975   1.18973
 Alpha virt. eigenvalues --    1.19321   1.19900   1.20321   1.20787   1.21123
 Alpha virt. eigenvalues --    1.21490   1.21989   1.22042   1.22660   1.23406
 Alpha virt. eigenvalues --    1.23579   1.23673   1.23922   1.24459   1.24685
 Alpha virt. eigenvalues --    1.25251   1.25694   1.25826   1.26268   1.26472
 Alpha virt. eigenvalues --    1.26732   1.27287   1.27500   1.27812   1.28066
 Alpha virt. eigenvalues --    1.28522   1.28782   1.29006   1.29566   1.29697
 Alpha virt. eigenvalues --    1.30025   1.30754   1.30965   1.31120   1.31581
 Alpha virt. eigenvalues --    1.32198   1.32464   1.32635   1.33458   1.33849
 Alpha virt. eigenvalues --    1.34667   1.34722   1.35513   1.36148   1.36245
 Alpha virt. eigenvalues --    1.37943   1.38095   1.39522   1.39678   1.39957
 Alpha virt. eigenvalues --    1.40250   1.40859   1.41602   1.42374   1.42566
 Alpha virt. eigenvalues --    1.43976   1.44456   1.44675   1.45101   1.45403
 Alpha virt. eigenvalues --    1.45579   1.46274   1.47106   1.47238   1.47887
 Alpha virt. eigenvalues --    1.48115   1.48665   1.48769   1.49172   1.49868
 Alpha virt. eigenvalues --    1.50407   1.50721   1.51077   1.52000   1.52489
 Alpha virt. eigenvalues --    1.52808   1.53002   1.53392   1.53657   1.54021
 Alpha virt. eigenvalues --    1.54241   1.54720   1.55065   1.55294   1.55589
 Alpha virt. eigenvalues --    1.55809   1.56519   1.56872   1.57262   1.57787
 Alpha virt. eigenvalues --    1.58191   1.58455   1.58641   1.58983   1.59329
 Alpha virt. eigenvalues --    1.59865   1.60391   1.61133   1.61414   1.62143
 Alpha virt. eigenvalues --    1.62684   1.63060   1.63144   1.63401   1.63620
 Alpha virt. eigenvalues --    1.64347   1.64885   1.65015   1.65889   1.66061
 Alpha virt. eigenvalues --    1.66447   1.66901   1.67201   1.67594   1.67982
 Alpha virt. eigenvalues --    1.68273   1.68634   1.68788   1.69204   1.69454
 Alpha virt. eigenvalues --    1.70063   1.70431   1.70642   1.71048   1.71249
 Alpha virt. eigenvalues --    1.71615   1.71922   1.72108   1.72242   1.72838
 Alpha virt. eigenvalues --    1.72993   1.73164   1.73345   1.73861   1.73956
 Alpha virt. eigenvalues --    1.74176   1.74845   1.75146   1.75534   1.76013
 Alpha virt. eigenvalues --    1.76405   1.76454   1.77740   1.78238   1.78424
 Alpha virt. eigenvalues --    1.78692   1.79549   1.80003   1.80642   1.81088
 Alpha virt. eigenvalues --    1.81670   1.82264   1.82447   1.82791   1.83409
 Alpha virt. eigenvalues --    1.84098   1.84287   1.85187   1.85531   1.86128
 Alpha virt. eigenvalues --    1.86715   1.87318   1.88095   1.88259   1.88659
 Alpha virt. eigenvalues --    1.90063   1.90270   1.90962   1.91430   1.92017
 Alpha virt. eigenvalues --    1.92219   1.92739   1.93518   1.93557   1.94409
 Alpha virt. eigenvalues --    1.94827   1.95201   1.96051   1.96815   1.97560
 Alpha virt. eigenvalues --    1.97722   1.98493   1.98814   1.99487   2.00952
 Alpha virt. eigenvalues --    2.02199   2.02302   2.02351   2.02932   2.03080
 Alpha virt. eigenvalues --    2.03671   2.04185   2.04459   2.05116   2.05758
 Alpha virt. eigenvalues --    2.06398   2.06633   2.06867   2.07609   2.07784
 Alpha virt. eigenvalues --    2.07967   2.08580   2.08771   2.09444   2.09633
 Alpha virt. eigenvalues --    2.09918   2.10270   2.10538   2.11754   2.11947
 Alpha virt. eigenvalues --    2.12741   2.13265   2.13799   2.14082   2.14529
 Alpha virt. eigenvalues --    2.15073   2.15249   2.16016   2.16158   2.16439
 Alpha virt. eigenvalues --    2.16820   2.17191   2.17673   2.18491   2.18812
 Alpha virt. eigenvalues --    2.19451   2.19913   2.20282   2.20590   2.21101
 Alpha virt. eigenvalues --    2.21785   2.22234   2.23111   2.24048   2.24557
 Alpha virt. eigenvalues --    2.25288   2.26122   2.26303   2.27002   2.27732
 Alpha virt. eigenvalues --    2.27964   2.29932   2.29949   2.30769   2.30852
 Alpha virt. eigenvalues --    2.31687   2.31750   2.33502   2.33971   2.34460
 Alpha virt. eigenvalues --    2.35281   2.36383   2.37329   2.38794   2.39043
 Alpha virt. eigenvalues --    2.39374   2.39819   2.40304   2.40654   2.41038
 Alpha virt. eigenvalues --    2.41553   2.41913   2.42589   2.42650   2.43586
 Alpha virt. eigenvalues --    2.44301   2.44844   2.45608   2.46416   2.46592
 Alpha virt. eigenvalues --    2.46843   2.47828   2.48719   2.49170   2.49912
 Alpha virt. eigenvalues --    2.50241   2.50765   2.50952   2.51755   2.51872
 Alpha virt. eigenvalues --    2.52638   2.53769   2.54430   2.54906   2.55400
 Alpha virt. eigenvalues --    2.55642   2.55784   2.56776   2.56923   2.57673
 Alpha virt. eigenvalues --    2.58062   2.58185   2.59245   2.59983   2.60316
 Alpha virt. eigenvalues --    2.60848   2.60881   2.61669   2.61894   2.62059
 Alpha virt. eigenvalues --    2.62235   2.62354   2.63519   2.63681   2.64066
 Alpha virt. eigenvalues --    2.64207   2.64412   2.64708   2.64866   2.65260
 Alpha virt. eigenvalues --    2.65436   2.65650   2.66078   2.66546   2.66920
 Alpha virt. eigenvalues --    2.67300   2.67458   2.67779   2.67919   2.68169
 Alpha virt. eigenvalues --    2.68576   2.68824   2.69045   2.69725   2.70073
 Alpha virt. eigenvalues --    2.70282   2.70428   2.71026   2.71199   2.71535
 Alpha virt. eigenvalues --    2.71686   2.72053   2.72507   2.73055   2.73569
 Alpha virt. eigenvalues --    2.73640   2.74069   2.74503   2.75352   2.75464
 Alpha virt. eigenvalues --    2.75733   2.75783   2.76577   2.76858   2.77297
 Alpha virt. eigenvalues --    2.77327   2.77619   2.78153   2.78421   2.78696
 Alpha virt. eigenvalues --    2.79037   2.79200   2.79729   2.79872   2.80372
 Alpha virt. eigenvalues --    2.80858   2.81243   2.81354   2.82328   2.82872
 Alpha virt. eigenvalues --    2.82971   2.83193   2.83749   2.83946   2.84210
 Alpha virt. eigenvalues --    2.84552   2.85165   2.85373   2.85491   2.85886
 Alpha virt. eigenvalues --    2.86225   2.86628   2.86747   2.87063   2.87715
 Alpha virt. eigenvalues --    2.87766   2.88325   2.88675   2.89115   2.89468
 Alpha virt. eigenvalues --    2.89912   2.90593   2.91123   2.91376   2.92180
 Alpha virt. eigenvalues --    2.92382   2.92742   2.93075   2.93576   2.93727
 Alpha virt. eigenvalues --    2.94337   2.95512   2.95793   2.96199   2.96878
 Alpha virt. eigenvalues --    2.97035   2.97922   2.98296   2.99034   2.99523
 Alpha virt. eigenvalues --    2.99841   3.01091   3.01188   3.02373   3.02788
 Alpha virt. eigenvalues --    3.03982   3.05230   3.05316   3.05571   3.06343
 Alpha virt. eigenvalues --    3.06951   3.08022   3.09116   3.09267   3.09638
 Alpha virt. eigenvalues --    3.11084   3.11316   3.11508   3.11921   3.12034
 Alpha virt. eigenvalues --    3.12626   3.12998   3.13460   3.13995   3.14050
 Alpha virt. eigenvalues --    3.14360   3.14565   3.14991   3.15545   3.15787
 Alpha virt. eigenvalues --    3.15976   3.16104   3.16283   3.16649   3.16964
 Alpha virt. eigenvalues --    3.17311   3.17610   3.17908   3.18248   3.18619
 Alpha virt. eigenvalues --    3.19342   3.19641   3.19875   3.20436   3.20796
 Alpha virt. eigenvalues --    3.20840   3.21163   3.21405   3.22176   3.22368
 Alpha virt. eigenvalues --    3.22692   3.23066   3.23314   3.24077   3.24596
 Alpha virt. eigenvalues --    3.25183   3.25782   3.26005   3.26204   3.26368
 Alpha virt. eigenvalues --    3.26947   3.27055   3.27634   3.27980   3.28852
 Alpha virt. eigenvalues --    3.29460   3.29763   3.29950   3.30614   3.30911
 Alpha virt. eigenvalues --    3.31304   3.31882   3.32266   3.32389   3.32804
 Alpha virt. eigenvalues --    3.33480   3.33817   3.34599   3.34674   3.35059
 Alpha virt. eigenvalues --    3.35212   3.35593   3.35752   3.35937   3.36010
 Alpha virt. eigenvalues --    3.36476   3.36952   3.37208   3.37634   3.38015
 Alpha virt. eigenvalues --    3.38367   3.38852   3.39038   3.39324   3.39686
 Alpha virt. eigenvalues --    3.39856   3.40514   3.40768   3.41085   3.41244
 Alpha virt. eigenvalues --    3.41452   3.41927   3.41978   3.42347   3.42746
 Alpha virt. eigenvalues --    3.42891   3.43094   3.43740   3.43817   3.44658
 Alpha virt. eigenvalues --    3.45169   3.45575   3.45716   3.46881   3.47363
 Alpha virt. eigenvalues --    3.47775   3.48014   3.48343   3.48761   3.48892
 Alpha virt. eigenvalues --    3.49171   3.49606   3.49786   3.50251   3.50607
 Alpha virt. eigenvalues --    3.51505   3.51657   3.51969   3.52494   3.52840
 Alpha virt. eigenvalues --    3.53017   3.53395   3.53500   3.53968   3.54049
 Alpha virt. eigenvalues --    3.54227   3.54401   3.54714   3.54889   3.55672
 Alpha virt. eigenvalues --    3.56052   3.56168   3.56971   3.57449   3.57631
 Alpha virt. eigenvalues --    3.58061   3.58818   3.59328   3.59603   3.60664
 Alpha virt. eigenvalues --    3.61109   3.61759   3.62480   3.63546   3.64326
 Alpha virt. eigenvalues --    3.65622   3.65923   3.67197   3.68009   3.68532
 Alpha virt. eigenvalues --    3.69311   3.69603   3.70017   3.70396   3.70601
 Alpha virt. eigenvalues --    3.71035   3.71754   3.72238   3.72519   3.73188
 Alpha virt. eigenvalues --    3.74332   3.75124   3.75345   3.75782   3.76329
 Alpha virt. eigenvalues --    3.76945   3.77065   3.77199   3.78242   3.78597
 Alpha virt. eigenvalues --    3.81259   3.83855   3.85965   3.86588   3.86764
 Alpha virt. eigenvalues --    3.87016   3.88465   3.89325   3.90154   3.91219
 Alpha virt. eigenvalues --    3.91907   3.92683   3.93043   3.94183   3.94704
 Alpha virt. eigenvalues --    3.94856   3.95669   3.95906   3.96481   3.98314
 Alpha virt. eigenvalues --    4.00034   4.00353   4.01976   4.02067   4.02278
 Alpha virt. eigenvalues --    4.03483   4.03669   4.03904   4.04419   4.04816
 Alpha virt. eigenvalues --    4.05010   4.06080   4.07053   4.07533   4.08055
 Alpha virt. eigenvalues --    4.09080   4.09419   4.09675   4.09813   4.11182
 Alpha virt. eigenvalues --    4.11582   4.12106   4.12642   4.12854   4.13477
 Alpha virt. eigenvalues --    4.13910   4.14484   4.14961   4.15940   4.16185
 Alpha virt. eigenvalues --    4.19118   4.19264   4.19653   4.19852   4.20182
 Alpha virt. eigenvalues --    4.20445   4.20497   4.20622   4.21049   4.21283
 Alpha virt. eigenvalues --    4.21516   4.22030   4.22196   4.22658   4.22894
 Alpha virt. eigenvalues --    4.23361   4.23460   4.24571   4.25216   4.25646
 Alpha virt. eigenvalues --    4.25827   4.26257   4.26704   4.26897   4.27377
 Alpha virt. eigenvalues --    4.27542   4.28442   4.28705   4.29180   4.30282
 Alpha virt. eigenvalues --    4.30980   4.31874   4.32983   4.34336   4.35657
 Alpha virt. eigenvalues --    4.36224   4.36655   4.36875   4.37609   4.38992
 Alpha virt. eigenvalues --    4.40067   4.42181   4.43413   4.45590   4.46613
 Alpha virt. eigenvalues --    4.48064   4.50481   4.55819   4.57397   4.59941
 Alpha virt. eigenvalues --    4.60726   4.60841   4.61399   4.62191   4.62677
 Alpha virt. eigenvalues --    4.62998   4.63260   4.63718   4.64102   4.64508
 Alpha virt. eigenvalues --    4.65052   4.65628   4.66455   4.69413   4.70432
 Alpha virt. eigenvalues --    4.71464   4.73043   4.73476   4.73989   4.74476
 Alpha virt. eigenvalues --    4.74954   4.75866   4.79590   4.82233   4.84711
 Alpha virt. eigenvalues --    4.85152   4.85659   4.85912   4.90266   4.91329
 Alpha virt. eigenvalues --    4.92267   4.92863   4.93330   4.93969   4.94069
 Alpha virt. eigenvalues --    4.94604   4.95732   4.96031   4.99266   5.01977
 Alpha virt. eigenvalues --    5.05336   5.11687   5.12677   5.12942   5.13339
 Alpha virt. eigenvalues --    5.13394   5.14095   5.14293   5.14878   5.15293
 Alpha virt. eigenvalues --    5.15940   5.26032   5.26259   5.26828   5.27613
 Alpha virt. eigenvalues --    5.33268   5.33564   5.34926   5.35279   5.38725
 Alpha virt. eigenvalues --    5.39830   5.42524   5.42923   5.43437   5.43801
 Alpha virt. eigenvalues --    5.55905   5.56624   5.57240   5.58519   5.58685
 Alpha virt. eigenvalues --    5.59781   5.78109   5.84579   5.86657   5.87974
 Alpha virt. eigenvalues --    5.91646   5.93216   6.09940   6.21278   6.24991
 Alpha virt. eigenvalues --    6.30962   6.74818   6.79842   6.86706   6.96403
 Alpha virt. eigenvalues --    6.98504   7.08404   7.25747   7.31605   7.41900
 Alpha virt. eigenvalues --    7.49464   7.75734   7.77153   7.93775   8.02780
 Alpha virt. eigenvalues --    8.05290   8.07544  15.83356  15.86277  22.07184
 Alpha virt. eigenvalues --   22.09731  22.24176  22.30960  22.42574  22.49592
 Alpha virt. eigenvalues --   22.56405  22.60252  22.61152  22.61937  22.62411
 Alpha virt. eigenvalues --   22.62741  22.63443  22.64286  22.66156  22.68063
 Alpha virt. eigenvalues --   22.70139  22.72854  22.74627  22.76981  22.77670
 Alpha virt. eigenvalues --   22.79661  22.80666  22.81390  22.85221  22.87558
 Alpha virt. eigenvalues --   22.97528  23.12981  23.14037  23.16236  23.16778
 Alpha virt. eigenvalues --   44.54792  44.59692
          Condensed to atoms (all electrons):
 Mulliken charges:
               1
     1  P    0.084062
     2  P    0.008980
     3  O   -0.293788
     4  O   -0.309344
     5  C   -0.314661
     6  C    0.042518
     7  C    0.119104
     8  C   -0.344487
     9  C    0.329980
    10  C   -0.375843
    11  C   -0.363100
    12  C    0.176255
    13  C   -0.264643
    14  C   -0.105524
    15  C   -0.127421
    16  C   -0.133757
    17  C   -0.200048
    18  C   -0.043977
    19  C   -0.071757
    20  C   -0.144611
    21  C   -0.089827
    22  C   -0.133561
    23  C   -0.147878
    24  C    0.104858
    25  C   -0.139647
    26  C   -0.173692
    27  C   -0.106750
    28  C   -0.120152
    29  C   -0.176099
    30  C    0.191683
    31  C   -0.217730
    32  C   -0.126410
    33  C   -0.113573
    34  C   -0.142766
    35  C   -0.183987
    36  H    0.121414
    37  H    0.138004
    38  H    0.099002
    39  H    0.071419
    40  H    0.129161
    41  H    0.188826
    42  H    0.122026
    43  H    0.124549
    44  H    0.118028
    45  H    0.119354
    46  H    0.148691
    47  H    0.108385
    48  H    0.125461
    49  H    0.116966
    50  H    0.115972
    51  H    0.115362
    52  H    0.148642
    53  H    0.117437
    54  H    0.118608
    55  H    0.122057
    56  H    0.121231
    57  H    0.120457
    58  H    0.117784
    59  H    0.115104
    60  H    0.118677
    61  H    0.118371
    62  H    0.127407
    63  H    0.150896
    64  H    0.120010
    65  H    0.119773
    66  H    0.118041
    67  H    0.090480
 Sum of Mulliken charges =  -0.00000
 Mulliken charges with hydrogens summed into heavy atoms:
               1
     1  P    0.084062
     2  P    0.008980
     3  O   -0.293788
     4  O   -0.309344
     5  C   -0.055243
     6  C    0.141520
     7  C    0.190523
     8  C   -0.026500
     9  C    0.329980
    10  C   -0.011240
    11  C    0.013330
    12  C    0.176255
    13  C   -0.139182
    14  C    0.011442
    15  C   -0.011449
    16  C   -0.018396
    17  C   -0.051406
    18  C   -0.043977
    19  C    0.045680
    20  C   -0.026003
    21  C    0.032231
    22  C   -0.012331
    23  C   -0.027421
    24  C    0.104858
    25  C   -0.021863
    26  C   -0.058588
    27  C    0.011927
    28  C   -0.001780
    29  C   -0.048692
    30  C    0.191683
    31  C   -0.066834
    32  C   -0.006400
    33  C    0.006200
    34  C   -0.024725
    35  C   -0.093507
 Electronic spatial extent (au):  <R**2>=          17200.6466
 Charge=             -0.0000 electrons
 Dipole moment (field-independent basis, Debye):
    X=              0.6094    Y=              1.1045    Z=              1.4915  Tot=              1.9534
 Quadrupole moment (field-independent basis, Debye-Ang):
   XX=           -210.0968   YY=           -205.9205   ZZ=           -215.2002
   XY=             -3.7854   XZ=              0.0207   YZ=              8.3874
 Traceless Quadrupole moment (field-independent basis, Debye-Ang):
   XX=              0.3090   YY=              4.4853   ZZ=             -4.7944
   XY=             -3.7854   XZ=              0.0207   YZ=              8.3874
 Octapole moment (field-independent basis, Debye-Ang**2):
  XXX=             20.7993  YYY=             58.8707  ZZZ=             33.2869  XYY=             30.6388
  XXY=            -43.6657  XXZ=             22.3222  XZZ=             -8.9883  YZZ=            -26.9799
  YYZ=             -5.0702  XYZ=             -1.7043
 Hexadecapole moment (field-independent basis, Debye-Ang**3):
 XXXX=         -11972.6996 YYYY=          -7448.2060 ZZZZ=          -3255.5516 XXXY=            -93.3514
 XXXZ=            221.9849 YYYX=             19.9161 YYYZ=            -20.1707 ZZZX=           -101.1088
 ZZZY=             85.2703 XXYY=          -3312.7940 XXZZ=          -2660.1411 YYZZ=          -1781.8135
 XXYZ=            222.1822 YYXZ=             68.8620 ZZXY=            -55.7240
 N-N= 4.128273595246D+03 E-N=-1.301924376483D+04  KE= 2.023184747951D+03
 1\1\GINC-NC084\SP\RPBE1PBE\def2TZVP\C31H32O2P2\MACKK4\05-Dec-2021\0\\#
  PBE1PBE/def2TZVP int=(grid=ultrafine) empiricaldispersion=GD3BJ nmr=g
 iao\\RR_DIOP_2 title\\0,1\P,0,1.2487850552,4.5917820416,-0.0776937166\
 P,0,-0.4893576798,3.062099832,-2.6519668579\O,0,-0.6170152744,1.282141
 516,1.4444661794\O,0,-0.4179027863,0.1263123908,-0.5500068573\C,0,0.70
 03267875,3.2445404068,1.0828440904\C,0,-0.1858365325,2.1952035338,0.43
 25588435\C,0,0.4732716018,1.2453605714,-0.5798281355\C,0,0.6468291134,
 1.7166367202,-2.028317781\C,0,-1.017171548,0.072467018,0.767710411\C,0
 ,-0.4496252082,-1.106752185,1.5542769008\C,0,-2.5345326106,0.025306150
 9,0.6011092987\C,0,1.8689665259,5.838266852,1.116828444\C,0,0.96796035
 94,6.3986256759,2.0453392565\C,0,1.4261293085,7.3115374405,3.000117934
 4\C,0,2.7774558354,7.6894601487,3.0243016781\C,0,3.6697188944,7.151572
 792,2.0886869825\C,0,3.2197864393,6.2274519061,1.1347232212\C,0,2.7648
 689441,3.9759833667,-0.9138772839\C,0,3.009904435,4.4239325115,-2.2272
 225226\C,0,4.1244814503,3.9612540943,-2.9378512144\C,0,5.0081068682,3.
 0516860265,-2.3389730337\C,0,4.7832493098,2.6184450243,-1.0233387162\C
 ,0,3.6694460588,3.0807628257,-0.3090799296\C,0,-2.1549823399,2.2729944
 925,-2.5775823967\C,0,-2.3408700441,0.9230418532,-2.9406643049\C,0,-3.
 6128786482,0.3418194215,-2.8788733752\C,0,-4.7084131582,1.0895674827,-
 2.424452912\C,0,-4.5242541444,2.4214540988,-2.0294272\C,0,-3.256941408
 1,3.0149808337,-2.1097137535\C,0,0.0768388955,3.1333142803,-4.40674027
 3\C,0,0.594080879,4.3397059953,-4.915827423\C,0,1.1261833654,4.3891800
 913,-6.2108558801\C,0,1.1365072005,3.24077287,-7.0141355957\C,0,0.6090
 635627,2.0397641141,-6.5188167004\C,0,0.0857942042,1.9838513447,-5.220
 8411033\H,0,1.5710090453,2.7735636392,1.5715939838\H,0,0.1256593219,3.
 7524684064,1.8762464653\H,0,-1.0593824558,2.6951397768,-0.0386875396\H
 ,0,1.4715223614,0.9484938792,-0.1846106409\H,0,0.5552465168,0.83635607
 39,-2.6869594575\H,0,1.6650075537,2.1071381499,-2.1786718236\H,0,0.649
 3899433,-1.0379417592,1.59065064\H,0,-0.8380755935,-1.1001763716,2.585
 8438569\H,0,-0.7344773181,-2.0566759837,1.0739847755\H,0,-3.0206241757
 ,-0.0560714521,1.5870343397\H,0,-2.8918924318,0.9362627703,0.095696616
 9\H,0,-2.8243889635,-0.842751855,-0.0127102467\H,0,-0.0957897611,6.147
 2069707,1.999791444\H,0,0.7200155162,7.7450648028,3.715218964\H,0,3.13
 08550198,8.4114458701,3.7674868726\H,0,4.7230098934,7.4500078141,2.096
 0228665\H,0,3.9225729746,5.8117033961,0.4073071633\H,0,2.2991814588,5.
 1150684599,-2.6927176315\H,0,4.2894257534,4.3005624868,-3.9652458822\H
 ,0,5.8728108349,2.6782099907,-2.8966838733\H,0,5.4757207965,1.91413784
 64,-0.5511315902\H,0,3.5115516201,2.7402169513,0.7190088001\H,0,-1.495
 253793,0.3011700337,-3.2436778644\H,0,-3.74245053,-0.7053530866,-3.171
 2769803\H,0,-5.7008538082,0.630391778,-2.3694429734\H,0,-5.3706922026,
 3.0116705085,-1.6642505396\H,0,-3.1192870685,4.0642260935,-1.834624823
 8\H,0,0.5399132181,5.2449914197,-4.3040892356\H,0,1.5179234021,5.33610
 37874,-6.5961625611\H,0,1.5462899476,3.282005253,-8.0286316104\H,0,0.6
 019200178,1.1411324968,-7.1442634823\H,0,-0.3280521353,1.039202686,-4.
 8566457025\\Version=ES64L-G09RevE.01\State=1-A\HF=-2032.4428724\RMSD=7
 .109e-09\Dipole=0.4157701,-0.4847015,-0.4275957\Quadrupole=4.8513271,-
 3.5588066,-1.2925204,2.052885,-5.164285,2.98759\PG=C01 [X(C31H32O2P2)]
 \\@


 ... THE UNIVERSE IS NOT ONLY QUEERER THAN WE SUPPOSE,
 BUT QUEERER THAN WE CAN SUPPOSE ... 

                                   -- J. B. S. HALDANE
 Job cpu time:       0 days 15 hours 25 minutes 12.4 seconds.
 File lengths (MBytes):  RWF=    967 Int=      0 D2E=      0 Chk=    128 Scr=      1
 Normal termination of Gaussian 09 at Sun Dec  5 01:07:53 2021.
 Initial command:
 /gstore/apps/gaussian/g09.e01-foss-2017a/g09/l1.exe "/local/22791312/Gau-27160.inp" -scrdir="/local/22791312/"
 Entering Link 1 = /gstore/apps/gaussian/g09.e01-foss-2017a/g09/l1.exe PID=      4852.
  
 Copyright (c) 1988,1990,1992,1993,1995,1998,2003,2009,2015,
            Gaussian, Inc.  All Rights Reserved.
  
 This is part of the Gaussian(R) 09 program.  It is based on
 the Gaussian(R) 03 system (copyright 2003, Gaussian, Inc.),
 the Gaussian(R) 98 system (copyright 1998, Gaussian, Inc.),
 the Gaussian(R) 94 system (copyright 1995, Gaussian, Inc.),
 the Gaussian 92(TM) system (copyright 1992, Gaussian, Inc.),
 the Gaussian 90(TM) system (copyright 1990, Gaussian, Inc.),
 the Gaussian 88(TM) system (copyright 1988, Gaussian, Inc.),
 the Gaussian 86(TM) system (copyright 1986, Carnegie Mellon
 University), and the Gaussian 82(TM) system (copyright 1983,
 Carnegie Mellon University). Gaussian is a federally registered
 trademark of Gaussian, Inc.
  
 This software contains proprietary and confidential information,
 including trade secrets, belonging to Gaussian, Inc.
  
 This software is provided under written license and may be
 used, copied, transmitted, or stored only in accord with that
 written license.
  
 The following legend is applicable only to US Government
 contracts under FAR:
  
                    RESTRICTED RIGHTS LEGEND
  
 Use, reproduction and disclosure by the US Government is
 subject to restrictions as set forth in subparagraphs (a)
 and (c) of the Commercial Computer Software - Restricted
 Rights clause in FAR 52.227-19.
  
 Gaussian, Inc.
 340 Quinnipiac St., Bldg. 40, Wallingford CT 06492
  
  
 ---------------------------------------------------------------
 Warning -- This program may not be used in any manner that
 competes with the business of Gaussian, Inc. or will provide
 assistance to any competitor of Gaussian, Inc.  The licensee
 of this program is prohibited from giving any competitor of
 Gaussian, Inc. access to this program.  By using this program,
 the user acknowledges that Gaussian, Inc. is engaged in the
 business of creating and licensing software in the field of
 computational chemistry and represents and warrants to the
 licensee that it is not a competitor of Gaussian, Inc. and that
 it will not use this program in any manner prohibited above.
 ---------------------------------------------------------------
  

 Cite this work as:
 Gaussian 09, Revision E.01,
 M. J. Frisch, G. W. Trucks, H. B. Schlegel, G. E. Scuseria, 
 M. A. Robb, J. R. Cheeseman, G. Scalmani, V. Barone, B. Mennucci, 
 G. A. Petersson, H. Nakatsuji, M. Caricato, X. Li, H. P. Hratchian, 
 A. F. Izmaylov, J. Bloino, G. Zheng, J. L. Sonnenberg, M. Hada, 
 M. Ehara, K. Toyota, R. Fukuda, J. Hasegawa, M. Ishida, T. Nakajima, 
 Y. Honda, O. Kitao, H. Nakai, T. Vreven, J. A. Montgomery, Jr., 
 J. E. Peralta, F. Ogliaro, M. Bearpark, J. J. Heyd, E. Brothers, 
 K. N. Kudin, V. N. Staroverov, T. Keith, R. Kobayashi, J. Normand, 
 K. Raghavachari, A. Rendell, J. C. Burant, S. S. Iyengar, J. Tomasi, 
 M. Cossi, N. Rega, J. M. Millam, M. Klene, J. E. Knox, J. B. Cross, 
 V. Bakken, C. Adamo, J. Jaramillo, R. Gomperts, R. E. Stratmann, 
 O. Yazyev, A. J. Austin, R. Cammi, C. Pomelli, J. W. Ochterski, 
 R. L. Martin, K. Morokuma, V. G. Zakrzewski, G. A. Voth, 
 P. Salvador, J. J. Dannenberg, S. Dapprich, A. D. Daniels, 
 O. Farkas, J. B. Foresman, J. V. Ortiz, J. Cioslowski, 
 and D. J. Fox, Gaussian, Inc., Wallingford CT, 2013.
 
 ******************************************
 Gaussian 09:  ES64L-G09RevE.01 30-Nov-2015
                 5-Dec-2021 
 ******************************************
 %nprocs=14
 Will use up to   14 processors via shared memory.
 %mem=128GB
 %chk=RR_DIOP_2_SPE_NoPd.chk
 ----------------------------------------------------------------------
 # PBE1PBE/def2TZVP int=(grid=ultrafine) empiricaldispersion=GD3BJ pop=
 nbo guess=read geom=check
 ----------------------------------------------------------------------
 1/29=2,38=1/1;
 2/12=2,40=1/2;
 3/5=44,7=101,11=2,14=-4,16=1,25=1,30=1,74=-13,75=-5,116=-2,124=41/1,2,3;
 4/5=1/1;
 5/5=2,38=6/2;
 6/7=2,8=2,9=2,10=2,28=1,40=1/1,7;
 99/5=1,9=1/99;
 ---------------
 RR_DIOP_2 title
 ---------------
 Structure from the checkpoint file:  "RR_DIOP_2_SPE_NoPd.chk"
 Charge =  0 Multiplicity = 1
 Z-Matrix found in file.
 P,0,1.2487850552,4.5917820416,-0.0776937166
 P,0,-0.4893576798,3.062099832,-2.6519668579
 O,0,-0.6170152744,1.282141516,1.4444661794
 O,0,-0.4179027863,0.1263123908,-0.5500068573
 C,0,0.7003267875,3.2445404068,1.0828440904
 C,0,-0.1858365325,2.1952035338,0.4325588435
 C,0,0.4732716018,1.2453605714,-0.5798281355
 C,0,0.6468291134,1.7166367202,-2.028317781
 C,0,-1.017171548,0.072467018,0.767710411
 C,0,-0.4496252082,-1.106752185,1.5542769008
 C,0,-2.5345326106,0.0253061509,0.6011092987
 C,0,1.8689665259,5.838266852,1.116828444
 C,0,0.9679603594,6.3986256759,2.0453392565
 C,0,1.4261293085,7.3115374405,3.0001179344
 C,0,2.7774558354,7.6894601487,3.0243016781
 C,0,3.6697188944,7.151572792,2.0886869825
 C,0,3.2197864393,6.2274519061,1.1347232212
 C,0,2.7648689441,3.9759833667,-0.9138772839
 C,0,3.009904435,4.4239325115,-2.2272225226
 C,0,4.1244814503,3.9612540943,-2.9378512144
 C,0,5.0081068682,3.0516860265,-2.3389730337
 C,0,4.7832493098,2.6184450243,-1.0233387162
 C,0,3.6694460588,3.0807628257,-0.3090799296
 C,0,-2.1549823399,2.2729944925,-2.5775823967
 C,0,-2.3408700441,0.9230418532,-2.9406643049
 C,0,-3.6128786482,0.3418194215,-2.8788733752
 C,0,-4.7084131582,1.0895674827,-2.424452912
 C,0,-4.5242541444,2.4214540988,-2.0294272
 C,0,-3.2569414081,3.0149808337,-2.1097137535
 C,0,0.0768388955,3.1333142803,-4.406740273
 C,0,0.594080879,4.3397059953,-4.915827423
 C,0,1.1261833654,4.3891800913,-6.2108558801
 C,0,1.1365072005,3.24077287,-7.0141355957
 C,0,0.6090635627,2.0397641141,-6.5188167004
 C,0,0.0857942042,1.9838513447,-5.2208411033
 H,0,1.5710090453,2.7735636392,1.5715939838
 H,0,0.1256593219,3.7524684064,1.8762464653
 H,0,-1.0593824558,2.6951397768,-0.0386875396
 H,0,1.4715223614,0.9484938792,-0.1846106409
 H,0,0.5552465168,0.8363560739,-2.6869594575
 H,0,1.6650075537,2.1071381499,-2.1786718236
 H,0,0.6493899433,-1.0379417592,1.59065064
 H,0,-0.8380755935,-1.1001763716,2.5858438569
 H,0,-0.7344773181,-2.0566759837,1.0739847755
 H,0,-3.0206241757,-0.0560714521,1.5870343397
 H,0,-2.8918924318,0.9362627703,0.0956966169
 H,0,-2.8243889635,-0.842751855,-0.0127102467
 H,0,-0.0957897611,6.1472069707,1.999791444
 H,0,0.7200155162,7.7450648028,3.715218964
 H,0,3.1308550198,8.4114458701,3.7674868726
 H,0,4.7230098934,7.4500078141,2.0960228665
 H,0,3.9225729746,5.8117033961,0.4073071633
 H,0,2.2991814588,5.1150684599,-2.6927176315
 H,0,4.2894257534,4.3005624868,-3.9652458822
 H,0,5.8728108349,2.6782099907,-2.8966838733
 H,0,5.4757207965,1.9141378464,-0.5511315902
 H,0,3.5115516201,2.7402169513,0.7190088001
 H,0,-1.495253793,0.3011700337,-3.2436778644
 H,0,-3.74245053,-0.7053530866,-3.1712769803
 H,0,-5.7008538082,0.630391778,-2.3694429734
 H,0,-5.3706922026,3.0116705085,-1.6642505396
 H,0,-3.1192870685,4.0642260935,-1.8346248238
 H,0,0.5399132181,5.2449914197,-4.3040892356
 H,0,1.5179234021,5.3361037874,-6.5961625611
 H,0,1.5462899476,3.282005253,-8.0286316104
 H,0,0.6019200178,1.1411324968,-7.1442634823
 H,0,-0.3280521353,1.039202686,-4.8566457025
 Recover connectivity data from disk.
 Stoichiometry    C31H32O2P2
 Framework group  C1[X(C31H32O2P2)]
 Deg. of freedom   195
 Full point group                 C1      NOp   1
 Largest Abelian subgroup         C1      NOp   1
 Largest concise Abelian subgroup C1      NOp   1
                         Standard orientation:                         
 ---------------------------------------------------------------------
 Center     Atomic      Atomic             Coordinates (Angstroms)
 Number     Number       Type             X           Y           Z
 ---------------------------------------------------------------------
      1         15           0       -2.012983   -0.239110   -0.611315
      2         15           0        1.315295    0.703240   -0.761281
      3          8           0        0.231909   -3.254611    1.007053
      4          8           0        1.820042   -1.777961    1.813804
      5          6           0       -1.519098   -1.820326    0.236358
      6          6           0       -0.020713   -1.965124    0.444062
      7          6           0        0.639776   -1.041394    1.479451
      8          6           0        1.031618    0.379165    1.056583
      9          6           0        1.529064   -3.185687    1.634806
     10          6           0        1.422941   -3.876162    2.992502
     11          6           0        2.600183   -3.783176    0.724820
     12          6           0       -3.744322   -0.628602   -1.076069
     13          6           0       -3.987031   -1.696833   -1.963718
[...]
  1057. RY*(   1) H  38                  0.00175     0.80969   
  1058. RY*(   2) H  38                  0.00023     2.59310   
  1059. RY*(   3) H  38                  0.00011     2.70160   
  1060. RY*(   4) H  38                  0.00012     2.57891   
  1061. RY*(   5) H  38                  0.00002     3.20394   
  1062. RY*(   1) H  39                  0.00210     0.62814   
  1063. RY*(   2) H  39                  0.00016     2.42182   
  1064. RY*(   3) H  39                  0.00011     2.58670   
  1065. RY*(   4) H  39                  0.00010     2.70499   
  1066. RY*(   5) H  39                  0.00002     3.15444   
  1067. RY*(   1) H  40                  0.00197     0.79731   
  1068. RY*(   2) H  40                  0.00024     2.36397   
  1069. RY*(   3) H  40                  0.00014     2.46006   
  1070. RY*(   4) H  40                  0.00011     2.38599   
  1071. RY*(   5) H  40                  0.00002     3.06408   
  1072. RY*(   1) H  41                  0.00104     0.83880   
  1073. RY*(   2) H  41                  0.00030     2.54056   
  1074. RY*(   3) H  41                  0.00015     2.54223   
  1075. RY*(   4) H  41                  0.00010     2.36144   
  1076. RY*(   5) H  41                  0.00003     3.21883   
  1077. RY*(   1) H  42                  0.00051     1.20858   
  1078. RY*(   2) H  42                  0.00013     1.54082   
  1079. RY*(   3) H  42                  0.00009     2.21800   
  1080. RY*(   4) H  42                  0.00007     2.34693   
  1081. RY*(   5) H  42                  0.00001     2.95960   
  1082. RY*(   1) H  43                  0.00032     0.98293   
  1083. RY*(   2) H  43                  0.00013     1.67767   
  1084. RY*(   3) H  43                  0.00010     2.20943   
  1085. RY*(   4) H  43                  0.00007     2.35538   
  1086. RY*(   5) H  43                  0.00001     2.91059   
  1087. RY*(   1) H  44                  0.00029     1.01360   
  1088. RY*(   2) H  44                  0.00012     1.67551   
  1089. RY*(   3) H  44                  0.00010     2.17385   
  1090. RY*(   4) H  44                  0.00007     2.37425   
  1091. RY*(   5) H  44                  0.00001     2.92472   
  1092. RY*(   1) H  45                  0.00028     1.09691   
  1093. RY*(   2) H  45                  0.00014     2.18848   
  1094. RY*(   3) H  45                  0.00011     1.61242   
  1095. RY*(   4) H  45                  0.00008     2.40100   
  1096. RY*(   5) H  45                  0.00001     2.90244   
  1097. RY*(   1) H  46                  0.00090     0.79603   
  1098. RY*(   2) H  46                  0.00022     2.46666   
  1099. RY*(   3) H  46                  0.00009     2.33259   
  1100. RY*(   4) H  46                  0.00007     2.52750   
  1101. RY*(   5) H  46                  0.00002     2.91868   
  1102. RY*(   1) H  47                  0.00038     0.92720   
  1103. RY*(   2) H  47                  0.00016     2.14562   
  1104. RY*(   3) H  47                  0.00010     1.86490   
  1105. RY*(   4) H  47                  0.00008     2.41326   
  1106. RY*(   5) H  47                  0.00001     2.96881   
  1107. RY*(   1) H  48                  0.00076     1.22801   
  1108. RY*(   2) H  48                  0.00021     1.71415   
  1109. RY*(   3) H  48                  0.00012     2.13410   
  1110. RY*(   4) H  48                  0.00010     2.73380   
  1111. RY*(   5) H  48                  0.00003     3.09370   
  1112. RY*(   1) H  49                  0.00039     0.88084   
  1113. RY*(   2) H  49                  0.00020     1.90505   
  1114. RY*(   3) H  49                  0.00012     2.65968   
  1115. RY*(   4) H  49                  0.00011     2.16213   
  1116. RY*(   5) H  49                  0.00003     3.10681   
  1117. RY*(   1) H  50                  0.00034     0.87365   
  1118. RY*(   2) H  50                  0.00019     1.86032   
  1119. RY*(   3) H  50                  0.00011     2.15657   
  1120. RY*(   4) H  50                  0.00009     2.75345   
  1121. RY*(   5) H  50                  0.00002     3.10318   
  1122. RY*(   1) H  51                  0.00047     0.95090   
  1123. RY*(   2) H  51                  0.00018     1.87424   
  1124. RY*(   3) H  51                  0.00012     2.56027   
  1125. RY*(   4) H  51                  0.00011     2.29671   
  1126. RY*(   5) H  51                  0.00002     3.09107   
  1127. RY*(   1) H  52                  0.00115     0.73254   
  1128. RY*(   2) H  52                  0.00025     2.36101   
  1129. RY*(   3) H  52                  0.00012     2.74616   
  1130. RY*(   4) H  52                  0.00012     2.19154   
  1131. RY*(   5) H  52                  0.00004     3.20444   
  1132. RY*(   1) H  53                  0.00138     0.75790   
  1133. RY*(   2) H  53                  0.00030     2.34309   
  1134. RY*(   3) H  53                  0.00015     2.23449   
  1135. RY*(   4) H  53                  0.00009     2.74352   
  1136. RY*(   5) H  53                  0.00002     3.14459   
  1137. RY*(   1) H  54                  0.00041     1.03428   
  1138. RY*(   2) H  54                  0.00020     1.84093   
  1139. RY*(   3) H  54                  0.00012     2.17366   
  1140. RY*(   4) H  54                  0.00013     2.67780   
  1141. RY*(   5) H  54                  0.00002     3.10522   
  1142. RY*(   1) H  55                  0.00031     0.91605   
  1143. RY*(   2) H  55                  0.00020     1.79368   
  1144. RY*(   3) H  55                  0.00011     2.14885   
  1145. RY*(   4) H  55                  0.00009     2.74388   
  1146. RY*(   5) H  55                  0.00002     3.08324   
  1147. RY*(   1) H  56                  0.00041     1.01356   
  1148. RY*(   2) H  56                  0.00020     1.78880   
  1149. RY*(   3) H  56                  0.00012     2.16482   
  1150. RY*(   4) H  56                  0.00013     2.67787   
  1151. RY*(   5) H  56                  0.00002     3.08246   
  1152. RY*(   1) H  57                  0.00142     0.70548   
  1153. RY*(   2) H  57                  0.00039     2.34974   
  1154. RY*(   3) H  57                  0.00017     2.18458   
  1155. RY*(   4) H  57                  0.00008     2.73198   
  1156. RY*(   5) H  57                  0.00003     3.14051   
  1157. RY*(   1) H  58                  0.00125     0.75613   
  1158. RY*(   2) H  58                  0.00045     2.41637   
  1159. RY*(   3) H  58                  0.00017     2.23393   
  1160. RY*(   4) H  58                  0.00007     2.74781   
  1161. RY*(   5) H  58                  0.00003     3.14816   
  1162. RY*(   1) H  59                  0.00049     1.01208   
  1163. RY*(   2) H  59                  0.00019     1.82641   
  1164. RY*(   3) H  59                  0.00012     2.37246   
  1165. RY*(   4) H  59                  0.00013     2.47327   
  1166. RY*(   5) H  59                  0.00002     3.09149   
  1167. RY*(   1) H  60                  0.00032     0.92485   
  1168. RY*(   2) H  60                  0.00020     1.79361   
  1169. RY*(   3) H  60                  0.00012     2.15097   
  1170. RY*(   4) H  60                  0.00009     2.74381   
  1171. RY*(   5) H  60                  0.00002     3.08893   
  1172. RY*(   1) H  61                  0.00035     0.92735   
  1173. RY*(   2) H  61                  0.00021     1.86617   
  1174. RY*(   3) H  61                  0.00013     2.56481   
  1175. RY*(   4) H  61                  0.00013     2.24718   
  1176. RY*(   5) H  61                  0.00002     3.09414   
  1177. RY*(   1) H  62                  0.00066     1.16246   
  1178. RY*(   2) H  62                  0.00021     1.74297   
  1179. RY*(   3) H  62                  0.00014     2.17264   
  1180. RY*(   4) H  62                  0.00011     2.74945   
  1181. RY*(   5) H  62                  0.00002     3.10825   
  1182. RY*(   1) H  63                  0.00059     1.28241   
  1183. RY*(   2) H  63                  0.00025     1.74026   
  1184. RY*(   3) H  63                  0.00011     2.75500   
  1185. RY*(   4) H  63                  0.00011     2.12162   
  1186. RY*(   5) H  63                  0.00004     3.11381   
  1187. RY*(   1) H  64                  0.00039     0.87385   
  1188. RY*(   2) H  64                  0.00020     1.88741   
  1189. RY*(   3) H  64                  0.00012     2.56185   
  1190. RY*(   4) H  64                  0.00012     2.26110   
  1191. RY*(   5) H  64                  0.00003     3.10433   
  1192. RY*(   1) H  65                  0.00034     0.84838   
  1193. RY*(   2) H  65                  0.00020     1.86057   
  1194. RY*(   3) H  65                  0.00010     2.51683   
  1195. RY*(   4) H  65                  0.00010     2.37582   
  1196. RY*(   5) H  65                  0.00002     3.09571   
  1197. RY*(   1) H  66                  0.00050     0.97554   
  1198. RY*(   2) H  66                  0.00018     1.86083   
  1199. RY*(   3) H  66                  0.00012     2.67372   
  1200. RY*(   4) H  66                  0.00011     2.15132   
  1201. RY*(   5) H  66                  0.00002     3.08741   
  1202. RY*(   1) H  67                  0.00136     0.80510   
  1203. RY*(   2) H  67                  0.00032     2.38826   
  1204. RY*(   3) H  67                  0.00015     2.21598   
  1205. RY*(   4) H  67                  0.00008     2.68060   
  1206. RY*(   5) H  67                  0.00004     3.15128   
  1207. BD*(   1) P   1 - C   5          0.02910     0.20350   
  1208. BD*(   1) P   1 - C  12          0.04812     0.23635   
  1209. BD*(   1) P   1 - C  18          0.03318     0.22866   
  1210. BD*(   1) P   2 - C   8          0.03617     0.20061   
  1211. BD*(   1) P   2 - C  24          0.04479     0.22861   
  1212. BD*(   1) P   2 - C  30          0.04588     0.22834   
  1213. BD*(   1) O   3 - C   6          0.03259     0.29111   
  1214. BD*(   1) O   3 - C   9          0.06152     0.27041   
  1215. BD*(   1) O   4 - C   7          0.02785     0.28962   
  1216. BD*(   1) O   4 - C   9          0.06559     0.26508   
  1217. BD*(   1) C   5 - C   6          0.02246     0.35217   
  1218. BD*(   1) C   5 - H  36          0.02549     0.36365   
  1219. BD*(   1) C   5 - H  37          0.01120     0.36378   
  1220. BD*(   1) C   6 - C   7          0.04869     0.32913   
  1221. BD*(   1) C   6 - H  38          0.04357     0.35047   
  1222. BD*(   1) C   7 - C   8          0.02366     0.34388   
  1223. BD*(   1) C   7 - H  39          0.04379     0.34102   
  1224. BD*(   1) C   8 - H  40          0.02237     0.36936   
  1225. BD*(   1) C   8 - H  41          0.01037     0.39095   
  1226. BD*(   1) C   9 - C  10          0.03889     0.33276   
  1227. BD*(   1) C   9 - C  11          0.04161     0.33374   
  1228. BD*(   1) C  10 - H  42          0.00522     0.37852   
  1229. BD*(   1) C  10 - H  43          0.00554     0.37647   
  1230. BD*(   1) C  10 - H  44          0.00534     0.37673   
  1231. BD*(   1) C  11 - H  45          0.00569     0.38036   
  1232. BD*(   1) C  11 - H  46          0.00581     0.39649   
  1233. BD*(   1) C  11 - H  47          0.00572     0.38068   
  1234. BD*(   1) C  12 - C  13          0.02204     0.52268   
  1235. BD*(   1) C  12 - C  17          0.02599     0.53310   
  1236. BD*(   2) C  12 - C  17          0.36852     0.03067  1243(v),1238(v),1207(v)
                                                    556(g)
  1237. BD*(   1) C  13 - C  14          0.01553     0.54872   
  1238. BD*(   2) C  13 - C  14          0.32025     0.03212  1243(v),1236(v),477(g)
  1239. BD*(   1) C  13 - H  48          0.01602     0.40567   
  1240. BD*(   1) C  14 - C  15          0.01470     0.54027   
  1241. BD*(   1) C  14 - H  49          0.01341     0.40746   
  1242. BD*(   1) C  15 - C  16          0.01456     0.54489   
  1243. BD*(   2) C  15 - C  16          0.33167     0.03174  1238(v),1236(v),503(g)
                                                    529(g)
  1244. BD*(   1) C  15 - H  50          0.01303     0.40848   
  1245. BD*(   1) C  16 - C  17          0.01619     0.54748   
  1246. BD*(   1) C  16 - H  51          0.01368     0.40829   
  1247. BD*(   1) C  17 - H  52          0.01588     0.41740   
  1248. BD*(   1) C  18 - C  19          0.02429     0.51949   
  1249. BD*(   2) C  18 - C  19          0.36478     0.01897  1254(v),1259(v),607(g)
                                                    1208(v)
  1250. BD*(   1) C  18 - C  23          0.03285     0.52004   
  1251. BD*(   1) C  19 - C  20          0.01718     0.53749   
  1252. BD*(   1) C  19 - H  53          0.01694     0.40902   
  1253. BD*(   1) C  20 - C  21          0.01462     0.53084   
  1254. BD*(   2) C  20 - C  21          0.32276     0.02071  1259(v),1249(v),659(g)
                                                    633(g)
  1255. BD*(   1) C  20 - H  54          0.01356     0.40164   
  1256. BD*(   1) C  21 - C  22          0.01464     0.52852   
  1257. BD*(   1) C  21 - H  55          0.01301     0.39990   
  1258. BD*(   1) C  22 - C  23          0.01707     0.53516   
  1259. BD*(   2) C  22 - C  23          0.31724     0.02138  1254(v),1249(v),685(g)
  1260. BD*(   1) C  22 - H  56          0.01392     0.39799   
  1261. BD*(   1) C  23 - H  57          0.01764     0.40480   
  1262. BD*(   1) C  24 - C  25          0.03261     0.52478   
  1263. BD*(   1) C  24 - C  29          0.02360     0.52465   
  1264. BD*(   2) C  24 - C  29          0.35704     0.02625  1271(v),1266(v),1277(r)
                                                    867(g),1212(v),1287(r)
                                                    1210(v),738(g)
  1265. BD*(   1) C  25 - C  26          0.01796     0.54702   
  1266. BD*(   2) C  25 - C  26          0.30781     0.03226  1264(v),1271(v),789(g)
                                                    763(g),1287(r)
  1267. BD*(   1) C  25 - H  58          0.01732     0.41536   
  1268. BD*(   1) C  26 - C  27          0.01478     0.53721   
  1269. BD*(   1) C  26 - H  59          0.01430     0.40358   
  1270. BD*(   1) C  27 - C  28          0.01479     0.53763   
  1271. BD*(   2) C  27 - C  28          0.32759     0.02573  1264(v),1266(v),815(g)
                                                    841(g)
  1272. BD*(   1) C  27 - H  60          0.01316     0.40504   
  1273. BD*(   1) C  28 - C  29          0.01626     0.54006   
  1274. BD*(   1) C  28 - H  61          0.01356     0.40534   
  1275. BD*(   1) C  29 - H  62          0.01575     0.41256   
  1276. BD*(   1) C  30 - C  31          0.02297     0.52168   
  1277. BD*(   2) C  30 - C  31          0.35349     0.02526  1282(v),1287(v),1264(r)
                                                    920(g),1210(v),1211(v)
                                                    894(g)
  1278. BD*(   1) C  30 - C  35          0.03193     0.52217   
  1279. BD*(   1) C  31 - C  32          0.01645     0.53924   
  1280. BD*(   1) C  31 - H  63          0.01576     0.40740   
  1281. BD*(   1) C  32 - C  33          0.01475     0.53481   
  1282. BD*(   2) C  32 - C  33          0.32706     0.02333  1277(v),1287(v),971(g)
                                                    945(g)
  1283. BD*(   1) C  32 - H  64          0.01357     0.40020   
  1284. BD*(   1) C  33 - C  34          0.01456     0.53393   
  1285. BD*(   1) C  33 - H  65          0.01300     0.40108   
  1286. BD*(   1) C  34 - C  35          0.01740     0.54139   
  1287. BD*(   2) C  34 - C  35          0.31124     0.02730  1277(v),1282(v),997(g)
                                                    1264(r),1266(r),1024(g)
  1288. BD*(   1) C  34 - H  66          0.01399     0.40003   
  1289. BD*(   1) C  35 - H  67          0.01733     0.40688   
       -------------------------------
              Total Lewis  257.95533  ( 97.7104%)
        Valence non-Lewis    5.56224  (  2.1069%)
        Rydberg non-Lewis    0.48243  (  0.1827%)
       -------------------------------
            Total unit  1  264.00000  (100.0000%)
           Charge unit  1    0.00000
 1\1\GINC-NC084\SP\RPBE1PBE\def2TZVP\C31H32O2P2\MACKK4\05-Dec-2021\0\\#
  PBE1PBE/def2TZVP int=(grid=ultrafine) empiricaldispersion=GD3BJ pop=n
 bo guess=read geom=check\\RR_DIOP_2 title\\0,1\P,0,1.2487850552,4.5917
 820416,-0.0776937166\P,0,-0.4893576798,3.062099832,-2.6519668579\O,0,-
 0.6170152744,1.282141516,1.4444661794\O,0,-0.4179027863,0.1263123908,-
 0.5500068573\C,0,0.7003267875,3.2445404068,1.0828440904\C,0,-0.1858365
 325,2.1952035338,0.4325588435\C,0,0.4732716018,1.2453605714,-0.5798281
 355\C,0,0.6468291134,1.7166367202,-2.028317781\C,0,-1.017171548,0.0724
 67018,0.767710411\C,0,-0.4496252082,-1.106752185,1.5542769008\C,0,-2.5
 345326106,0.0253061509,0.6011092987\C,0,1.8689665259,5.838266852,1.116
 828444\C,0,0.9679603594,6.3986256759,2.0453392565\C,0,1.4261293085,7.3
 115374405,3.0001179344\C,0,2.7774558354,7.6894601487,3.0243016781\C,0,
 3.6697188944,7.151572792,2.0886869825\C,0,3.2197864393,6.2274519061,1.
 1347232212\C,0,2.7648689441,3.9759833667,-0.9138772839\C,0,3.009904435
 ,4.4239325115,-2.2272225226\C,0,4.1244814503,3.9612540943,-2.937851214
 4\C,0,5.0081068682,3.0516860265,-2.3389730337\C,0,4.7832493098,2.61844
 50243,-1.0233387162\C,0,3.6694460588,3.0807628257,-0.3090799296\C,0,-2
 .1549823399,2.2729944925,-2.5775823967\C,0,-2.3408700441,0.9230418532,
 -2.9406643049\C,0,-3.6128786482,0.3418194215,-2.8788733752\C,0,-4.7084
 131582,1.0895674827,-2.424452912\C,0,-4.5242541444,2.4214540988,-2.029
 4272\C,0,-3.2569414081,3.0149808337,-2.1097137535\C,0,0.0768388955,3.1
 333142803,-4.406740273\C,0,0.594080879,4.3397059953,-4.915827423\C,0,1
 .1261833654,4.3891800913,-6.2108558801\C,0,1.1365072005,3.24077287,-7.
 0141355957\C,0,0.6090635627,2.0397641141,-6.5188167004\C,0,0.085794204
 2,1.9838513447,-5.2208411033\H,0,1.5710090453,2.7735636392,1.571593983
 8\H,0,0.1256593219,3.7524684064,1.8762464653\H,0,-1.0593824558,2.69513
 97768,-0.0386875396\H,0,1.4715223614,0.9484938792,-0.1846106409\H,0,0.
 5552465168,0.8363560739,-2.6869594575\H,0,1.6650075537,2.1071381499,-2
 .1786718236\H,0,0.6493899433,-1.0379417592,1.59065064\H,0,-0.838075593
 5,-1.1001763716,2.5858438569\H,0,-0.7344773181,-2.0566759837,1.0739847
 755\H,0,-3.0206241757,-0.0560714521,1.5870343397\H,0,-2.8918924318,0.9
 362627703,0.0956966169\H,0,-2.8243889635,-0.842751855,-0.0127102467\H,
 0,-0.0957897611,6.1472069707,1.999791444\H,0,0.7200155162,7.7450648028
 ,3.715218964\H,0,3.1308550198,8.4114458701,3.7674868726\H,0,4.72300989
 34,7.4500078141,2.0960228665\H,0,3.9225729746,5.8117033961,0.407307163
 3\H,0,2.2991814588,5.1150684599,-2.6927176315\H,0,4.2894257534,4.30056
 24868,-3.9652458822\H,0,5.8728108349,2.6782099907,-2.8966838733\H,0,5.
 4757207965,1.9141378464,-0.5511315902\H,0,3.5115516201,2.7402169513,0.
 7190088001\H,0,-1.495253793,0.3011700337,-3.2436778644\H,0,-3.74245053
 ,-0.7053530866,-3.1712769803\H,0,-5.7008538082,0.630391778,-2.36944297
 34\H,0,-5.3706922026,3.0116705085,-1.6642505396\H,0,-3.1192870685,4.06
 42260935,-1.8346248238\H,0,0.5399132181,5.2449914197,-4.3040892356\H,0
 ,1.5179234021,5.3361037874,-6.5961625611\H,0,1.5462899476,3.282005253,
 -8.0286316104\H,0,0.6019200178,1.1411324968,-7.1442634823\H,0,-0.32805
 21353,1.039202686,-4.8566457025\\Version=ES64L-G09RevE.01\State=1-A\HF
 =-2032.4428724\RMSD=3.435e-09\Dipole=0.4157691,-0.4846974,-0.4275933\Q
 uadrupole=4.8512995,-3.5588011,-1.2924984,2.0528623,-5.1642967,2.98759
 3\PG=C01 [X(C31H32O2P2)]\\@


 Other things may change us, but we start and end with family.
 -- Anthony Brandt
 Job cpu time:       0 days  1 hours 15 minutes 45.5 seconds.
 File lengths (MBytes):  RWF=    853 Int=      0 D2E=      0 Chk=    128 Scr=      1
 Normal termination of Gaussian 09 at Sun Dec  5 01:13:27 2021.
