 Entering Gaussian System, Link 0=g09
 Input=RR_DIOP_2_SPE.com
 Output=RR_DIOP_2_SPE.log
 Initial command:
 /gstore/apps/gaussian/g09.e01-foss-2017a/g09/l1.exe "/local/22791311/Gau-11844.inp" -scrdir="/local/22791311/"
 Entering Link 1 = /gstore/apps/gaussian/g09.e01-foss-2017a/g09/l1.exe PID=     11845.
  
 Copyright (c) 1988,1990,1992,1993,1995,1998,2003,2009,2015,
            Gaussian, Inc.  All Rights Reserved.
  
 This is part of the Gaussian(R) 09 program.  It is based on
 the Gaussian(R) 03 system (copyright 2003, Gaussian, Inc.),
 the Gaussian(R) 98 system (copyright 1998, Gaussian, Inc.),
 the Gaussian(R) 94 system (copyright 1995, Gaussian, Inc.),
 the Gaussian 92(TM) system (copyright 1992, Gaussian, Inc.),
 the Gaussian 90(TM) system (copyright 1990, Gaussian, Inc.),
 the Gaussian 88(TM) system (copyright 1988, Gaussian, Inc.),
 the Gaussian 86(TM) system (copyright 1986, Carnegie Mellon
 University), and the Gaussian 82(TM) system (copyright 1983,
 Carnegie Mellon University). Gaussian is a federally registered
 trademark of Gaussian, Inc.
  
 This software contains proprietary and confidential information,
 including trade secrets, belonging to Gaussian, Inc.
  
 This software is provided under written license and may be
 used, copied, transmitted, or stored only in accord with that
 written license.
  
 The following legend is applicable only to US Government
 contracts under FAR:
  
                    RESTRICTED RIGHTS LEGEND
  
 Use, reproduction and disclosure by the US Government is
 subject to restrictions as set forth in subparagraphs (a)
 and (c) of the Commercial Computer Software - Restricted
 Rights clause in FAR 52.227-19.
  
 Gaussian, Inc.
 340 Quinnipiac St., Bldg. 40, Wallingford CT 06492
  
  
 ---------------------------------------------------------------
 Warning -- This program may not be used in any manner that
 competes with the business of Gaussian, Inc. or will provide
 assistance to any competitor of Gaussian, Inc.  The licensee
 of this program is prohibited from giving any competitor of
 Gaussian, Inc. access to this program.  By using this program,
 the user acknowledges that Gaussian, Inc. is engaged in the
 business of creating and licensing software in the field of
 computational chemistry and represents and warrants to the
 licensee that it is not a competitor of Gaussian, Inc. and that
 it will not use this program in any manner prohibited above.
 ---------------------------------------------------------------
  

 Cite this work as:
 Gaussian 09, Revision E.01,
 M. J. Frisch, G. W. Trucks, H. B. Schlegel, G. E. Scuseria, 
 M. A. Robb, J. R. Cheeseman, G. Scalmani, V. Barone, B. Mennucci, 
 G. A. Petersson, H. Nakatsuji, M. Caricato, X. Li, H. P. Hratchian, 
 A. F. Izmaylov, J. Bloino, G. Zheng, J. L. Sonnenberg, M. Hada, 
 M. Ehara, K. Toyota, R. Fukuda, J. Hasegawa, M. Ishida, T. Nakajima, 
 Y. Honda, O. Kitao, H. Nakai, T. Vreven, J. A. Montgomery, Jr., 
 J. E. Peralta, F. Ogliaro, M. Bearpark, J. J. Heyd, E. Brothers, 
 K. N. Kudin, V. N. Staroverov, T. Keith, R. Kobayashi, J. Normand, 
 K. Raghavachari, A. Rendell, J. C. Burant, S. S. Iyengar, J. Tomasi, 
 M. Cossi, N. Rega, J. M. Millam, M. Klene, J. E. Knox, J. B. Cross, 
 V. Bakken, C. Adamo, J. Jaramillo, R. Gomperts, R. E. Stratmann, 
 O. Yazyev, A. J. Austin, R. Cammi, C. Pomelli, J. W. Ochterski, 
 R. L. Martin, K. Morokuma, V. G. Zakrzewski, G. A. Voth, 
 P. Salvador, J. J. Dannenberg, S. Dapprich, A. D. Daniels, 
 O. Farkas, J. B. Foresman, J. V. Ortiz, J. Cioslowski, 
 and D. J. Fox, Gaussian, Inc., Wallingford CT, 2013.
 
 ******************************************
 Gaussian 09:  ES64L-G09RevE.01 30-Nov-2015
                 4-Dec-2021 
 ******************************************
 %nprocs=14
 Will use up to   14 processors via shared memory.
 %mem=128GB
 %chk=RR_DIOP_2_SPE.chk
 ----------------------------------------------------------------------
 # PBE1PBE gen pseudo=read int=(grid=ultrafine) empiricaldispersion=GD3
 BJ nmr=giao
 ----------------------------------------------------------------------
 1/38=1/1;
 2/12=2,17=6,18=5,40=1/2;
 3/5=7,11=2,16=1,17=8,25=1,30=1,74=-13,75=-5,124=41/1,2,8,3;
 4//1;
 5/5=2,38=5/2;
 8/6=1,10=90,11=11/1;
 10/13=100,45=16/2;
 6/7=2,8=2,9=2,10=2,28=1/1;
 99/9=1/99;
 ---------------
 RR_DIOP_2 title
 ---------------
 Symbolic Z-matrix:
 Charge =  0 Multiplicity = 1
 P                     1.24879   4.59178  -0.07769 
 P                    -0.48936   3.0621   -2.65197 
 O                    -0.61702   1.28214   1.44447 
 O                    -0.4179    0.12631  -0.55001 
 C                     0.70033   3.24454   1.08284 
 C                    -0.18584   2.1952    0.43256 
 C                     0.47327   1.24536  -0.57983 
 C                     0.64683   1.71664  -2.02832 
 C                    -1.01717   0.07247   0.76771 
 C                    -0.44963  -1.10675   1.55428 
 C                    -2.53453   0.02531   0.60111 
 C                     1.86897   5.83827   1.11683 
 C                     0.96796   6.39863   2.04534 
 C                     1.42613   7.31154   3.00012 
 C                     2.77746   7.68946   3.0243 
 C                     3.66972   7.15157   2.08869 
 C                     3.21979   6.22745   1.13472 
 C                     2.76487   3.97598  -0.91388 
 C                     3.0099    4.42393  -2.22722 
 C                     4.12448   3.96125  -2.93785 
 C                     5.00811   3.05169  -2.33897 
 C                     4.78325   2.61845  -1.02334 
 C                     3.66945   3.08076  -0.30908 
 C                    -2.15498   2.27299  -2.57758 
 C                    -2.34087   0.92304  -2.94066 
 C                    -3.61288   0.34182  -2.87887 
 C                    -4.70841   1.08957  -2.42445 
 C                    -4.52425   2.42145  -2.02943 
 C                    -3.25694   3.01498  -2.10971 
 C                     0.07684   3.13331  -4.40674 
 C                     0.59408   4.33971  -4.91583 
 C                     1.12618   4.38918  -6.21086 
 C                     1.13651   3.24077  -7.01414 
 C                     0.60906   2.03976  -6.51882 
 C                     0.08579   1.98385  -5.22084 
 H                     1.57101   2.77356   1.57159 
 H                     0.12566   3.75247   1.87625 
 H                    -1.05938   2.69514  -0.03869 
 H                     1.47152   0.94849  -0.18461 
 H                     0.55525   0.83636  -2.68696 
 H                     1.66501   2.10714  -2.17867 
 H                     0.64939  -1.03794   1.59065 
 H                    -0.83808  -1.10018   2.58584 
 H                    -0.73448  -2.05668   1.07398 
 H                    -3.02062  -0.05607   1.58703 
 H                    -2.89189   0.93626   0.0957 
 H                    -2.82439  -0.84275  -0.01271 
 H                    -0.09579   6.14721   1.99979 
 H                     0.72002   7.74506   3.71522 
 H                     3.13086   8.41145   3.76749 
 H                     4.72301   7.45001   2.09602 
 H                     3.92257   5.8117    0.40731 
 H                     2.29918   5.11507  -2.69272 
 H                     4.28943   4.30056  -3.96525 
 H                     5.87281   2.67821  -2.89668 
 H                     5.47572   1.91414  -0.55113 
 H                     3.51155   2.74022   0.71901 
 H                    -1.49525   0.30117  -3.24368 
 H                    -3.74245  -0.70535  -3.17128 
 H                    -5.70085   0.63039  -2.36944 
 H                    -5.37069   3.01167  -1.66425 
 H                    -3.11929   4.06423  -1.83462 
 H                     0.53991   5.24499  -4.30409 
 H                     1.51792   5.3361   -6.59616 
 H                     1.54629   3.28201  -8.02863 
 H                     0.60192   1.14113  -7.14426 
 H                    -0.32805   1.0392   -4.85665 
 Cl                   -1.93308   5.80375  -3.30114 
 Cl                   -0.37305   7.3398   -0.76427 
 Pd                   -0.35865   5.14205  -1.62907 
 
 Stoichiometry    C31H32Cl2O2P2Pd
 Framework group  C1[X(C31H32Cl2O2P2Pd)]
 Deg. of freedom   204
 Full point group                 C1      NOp   1
 Largest Abelian subgroup         C1      NOp   1
 Largest concise Abelian subgroup C1      NOp   1
                         Standard orientation:                         
 ---------------------------------------------------------------------
 Center     Atomic      Atomic             Coordinates (Angstroms)
 Number     Number       Type             X           Y           Z
 ---------------------------------------------------------------------
      1         15           0       -1.880813   -0.409167    0.094308
      2         15           0        1.429079    0.598251   -0.038621
      3          8           0        0.470758   -3.692896    0.756982
      4          8           0        2.110727   -2.435695    1.797874
      5          6           0       -1.329421   -2.142602    0.486591
      6          6           0        0.179745   -2.308545    0.550982
      7          6           0        0.910125   -1.659666    1.737175
      8          6           0        1.271707   -0.172041    1.656081
      9          6           0        1.808182   -3.759657    1.293897
     10          6           0        1.796172   -4.767447    2.440879
     11          6           0        2.813912   -4.093803    0.194252
     12          6           0       -3.640096   -0.700866   -0.335886
     13          6           0       -3.943477   -1.519174   -1.443261
     14          6           0       -5.275960   -1.799606   -1.760713
     15          6           0       -6.315100   -1.251359   -0.993180
     16          6           0       -6.016818   -0.419931    0.093367
     17          6           0       -4.682641   -0.142560    0.424307
     18          6           0       -1.951831    0.491312    1.694625
     19          6           0       -1.688181    1.875371    1.673538
     20          6           0       -1.684201    2.614638    2.862998
     21          6           0       -1.950784    1.977795    4.083706
     22          6           0       -2.236575    0.604196    4.110185
     23          6           0       -2.242677   -0.138082    2.921300
     24          6           0        2.855962   -0.305710   -0.779826
     25          6           0        3.991120   -0.635518   -0.010802
     26          6           0        5.064938   -1.320857   -0.591207
     27          6           0        5.006713   -1.713405   -1.935951
     28          6           0        3.867106   -1.419086   -2.696580
     29          6           0        2.798061   -0.714112   -2.126531
     30          6           0        1.968197    2.291534    0.458394
     31          6           0        1.182648    3.400677    0.091236
     32          6           0        1.515448    4.683290    0.546019
     33          6           0        2.640225    4.873821    1.360131
     34          6           0        3.435599    3.775651    1.717009
     35          6           0        3.100075    2.490403    1.272894
     36          1           0       -1.802850   -2.500297    1.417559
     37          1           0       -1.721161   -2.770664   -0.331821
     38          1           0        0.627772   -1.954094   -0.402290
     39          1           0        0.302760   -1.824339    2.656316
     40          1           0        2.214587   -0.019365    2.208129
     41          1           0        0.511120    0.430088    2.176401
     42          1           0        1.090212   -4.438767    3.220291
     43          1           0        1.481817   -5.758643    2.075123
     44          1           0        2.802514   -4.854556    2.881180
     45          1           0        2.635128   -5.113461   -0.184281
     46          1           0        2.722345   -3.377882   -0.637652
     47          1           0        3.842082   -4.033493    0.586098
     48          1           0       -3.140212   -1.908305   -2.075870
     49          1           0       -5.503677   -2.432647   -2.624030
     50          1           0       -7.357449   -1.465696   -1.250176
     51          1           0       -6.823165    0.018861    0.689861
     52          1           0       -4.457570    0.507634    1.274297
     53          1           0       -1.457134    2.356357    0.717111
     54          1           0       -1.455391    3.684526    2.833661
     55          1           0       -1.935358    2.550497    5.016450
     56          1           0       -2.452257    0.106335    5.061059
     57          1           0       -2.475216   -1.206979    2.956706
     58          1           0        4.038873   -0.392430    1.053264
     59          1           0        5.942529   -1.563154    0.017057
     60          1           0        5.844507   -2.256360   -2.385515
     61          1           0        3.807036   -1.728963   -3.744690
     62          1           0        1.923477   -0.453767   -2.728911
     63          1           0        0.334182    3.254939   -0.583720
     64          1           0        0.899759    5.537450    0.246145
     65          1           0        2.903534    5.877542    1.709468
     66          1           0        4.323036    3.917517    2.342392
     67          1           0        3.738325    1.648546    1.556060
     68         17           0        0.914599    1.900733   -2.877855
     69         17           0       -2.275309    0.874414   -2.880611
     70         46           0       -0.470369    0.665447   -1.371732
 ---------------------------------------------------------------------
 Rotational constants (GHZ):      0.0975205      0.0719479      0.0647192
 General basis read from cards:  (5D, 7F)
 ======================================================================================================
                                       Pseudopotential Parameters
 ======================================================================================================
  Center     Atomic      Valence      Angular      Power
  Number     Number     Electrons     Momentum     of R      Exponent        Coefficient   SO-Coeffient
 ======================================================================================================
    1         15
                                   No pseudopotential on this center.
    2         15
                                   No pseudopotential on this center.
    3          8
                                   No pseudopotential on this center.
    4          8
                                   No pseudopotential on this center.
    5          6
                                   No pseudopotential on this center.
    6          6
                                   No pseudopotential on this center.
    7          6
                                   No pseudopotential on this center.
    8          6
                                   No pseudopotential on this center.
    9          6
                                   No pseudopotential on this center.
   10          6
                                   No pseudopotential on this center.
   11          6
                                   No pseudopotential on this center.
   12          6
                                   No pseudopotential on this center.
   13          6
                                   No pseudopotential on this center.
   14          6
                                   No pseudopotential on this center.
   15          6
                                   No pseudopotential on this center.
   16          6
                                   No pseudopotential on this center.
   17          6
                                   No pseudopotential on this center.
   18          6
                                   No pseudopotential on this center.
   19          6
                                   No pseudopotential on this center.
   20          6
                                   No pseudopotential on this center.
   21          6
                                   No pseudopotential on this center.
   22          6
                                   No pseudopotential on this center.
   23          6
                                   No pseudopotential on this center.
   24          6
                                   No pseudopotential on this center.
   25          6
                                   No pseudopotential on this center.
   26          6
                                   No pseudopotential on this center.
   27          6
                                   No pseudopotential on this center.
   28          6
                                   No pseudopotential on this center.
   29          6
                                   No pseudopotential on this center.
   30          6
                                   No pseudopotential on this center.
   31          6
                                   No pseudopotential on this center.
   32          6
                                   No pseudopotential on this center.
   33          6
                                   No pseudopotential on this center.
   34          6
                                   No pseudopotential on this center.
   35          6
                                   No pseudopotential on this center.
   36          1
                                   No pseudopotential on this center.
   37          1
                                   No pseudopotential on this center.
   38          1
                                   No pseudopotential on this center.
   39          1
                                   No pseudopotential on this center.
   40          1
                                   No pseudopotential on this center.
   41          1
                                   No pseudopotential on this center.
   42          1
                                   No pseudopotential on this center.
   43          1
                                   No pseudopotential on this center.
   44          1
                                   No pseudopotential on this center.
   45          1
                                   No pseudopotential on this center.
   46          1
                                   No pseudopotential on this center.
   47          1
                                   No pseudopotential on this center.
   48          1
                                   No pseudopotential on this center.
   49          1
                                   No pseudopotential on this center.
   50          1
                                   No pseudopotential on this center.
   51          1
                                   No pseudopotential on this center.
   52          1
                                   No pseudopotential on this center.
   53          1
                                   No pseudopotential on this center.
   54          1
                                   No pseudopotential on this center.
   55          1
                                   No pseudopotential on this center.
   56          1
                                   No pseudopotential on this center.
   57          1
                                   No pseudopotential on this center.
   58          1
                                   No pseudopotential on this center.
   59          1
                                   No pseudopotential on this center.
   60          1
                                   No pseudopotential on this center.
   61          1
                                   No pseudopotential on this center.
   62          1
                                   No pseudopotential on this center.
   63          1
                                   No pseudopotential on this center.
   64          1
                                   No pseudopotential on this center.
   65          1
                                   No pseudopotential on this center.
   66          1
                                   No pseudopotential on this center.
   67          1
                                   No pseudopotential on this center.
   68         17
                                   No pseudopotential on this center.
   69         17
                                   No pseudopotential on this center.
   70         46           18
                                      G and up 
                                                     2        1.0000000        0.00000000    0.00000000
                                      S - G
                                                     2       12.4300000      240.22904000    0.00000000
                                                     2        6.1707590       35.17194300    0.00000000
                                      P - G
                                                     2       11.0800000      170.41727600    0.00000000
                                                     2        5.8295540       28.47213300    0.00000000
                                      D - G
                                                     2        9.5100000       69.01384500    0.00000000
                                                     2        4.1397810       11.75086200    0.00000000
                                      F - G
                                                     2       13.2700000      -31.92955400    0.00000000
                                                     2        6.6300000       -5.39821700    0.00000000
 ======================================================================================================
 There are  1587 symmetry adapted cartesian basis functions of A   symmetry.
 There are  1399 symmetry adapted basis functions of A   symmetry.
  1399 basis functions,  2280 primitive gaussians,  1587 cartesian basis functions
   158 alpha electrons      158 beta electrons
       nuclear repulsion energy      5797.2043779700 Hartrees.
 NAtoms=   70 NActive=   70 NUniq=   70 SFac= 1.00D+00 NAtFMM=   60 NAOKFM=T Big=T
 Integral buffers will be    131072 words long.
 Raffenetti 2 integral format.
 Two-electron integral symmetry is turned on.
 Nuclear repulsion after empirical dispersion term =     5797.0812954630 Hartrees.
 One-electron integrals computed using PRISM.
   1 Symmetry operations used in ECPInt.
 ECPInt:  NShTT=  155403 NPrTT=  482648 LenC2=  125733 LenP2D=  260534.
 LDataN:  DoStor=T MaxTD1= 7 Len=  274
 NBasis=  1399 RedAO= T EigKep=  6.11D-06  NBF=  1399
 NBsUse=  1399 1.00D-06 EigRej= -1.00D+00 NBFU=  1399
 Defaulting to unpruned grid for atomic number  46.
 ExpMin= 1.60D-02 ExpMax= 6.95D+04 ExpMxC= 2.37D+03 IAcc=3 IRadAn=         5 AccDes= 0.00D+00
 Harris functional with IExCor= 1009 and IRadAn=       5 diagonalized for initial guess.
 HarFok:  IExCor= 1009 AccDes= 0.00D+00 IRadAn=         5 IDoV= 1 UseB2=F ITyADJ=14
 ICtDFT=  3500011 ScaDFX=  1.000000  1.000000  1.000000  1.000000
 Defaulting to unpruned grid for atomic number  46.
 Defaulting to unpruned grid for atomic number  46.
 Defaulting to unpruned grid for atomic number  46.
 Defaulting to unpruned grid for atomic number  46.
 Defaulting to unpruned grid for atomic number  46.
 Defaulting to unpruned grid for atomic number  46.
 Defaulting to unpruned grid for atomic number  46.
 Defaulting to unpruned grid for atomic number  46.
 Defaulting to unpruned grid for atomic number  46.
 Defaulting to unpruned grid for atomic number  46.
 Defaulting to unpruned grid for atomic number  46.
 Defaulting to unpruned grid for atomic number  46.
 Defaulting to unpruned grid for atomic number  46.
 Defaulting to unpruned grid for atomic number  46.
 FoFCou: FMM=F IPFlag=           0 FMFlag=      100000 FMFlg1=        2001
         NFxFlg=           0 DoJE=T BraDBF=F KetDBF=T FulRan=T
         wScrn=  0.000000 ICntrl=     500 IOpCl=  0 I1Cent=   200000004 NGrid=           0
         NMat0=    1 NMatS0=      1 NMatT0=    0 NMatD0=    1 NMtDS0=    0 NMtDT0=    0
 Petite list used in FoFCou.
 Requested convergence on RMS density matrix=1.00D-08 within 128 cycles.
 Requested convergence on MAX density matrix=1.00D-06.
 Requested convergence on             energy=1.00D-06.
 No special actions if energy rises.
 Defaulting to unpruned grid for atomic number  46.
 Defaulting to unpruned grid for atomic number  46.
 Defaulting to unpruned grid for atomic number  46.
 Defaulting to unpruned grid for atomic number  46.
 Defaulting to unpruned grid for atomic number  46.
 Defaulting to unpruned grid for atomic number  46.
 Defaulting to unpruned grid for atomic number  46.
 Defaulting to unpruned grid for atomic number  46.
 Defaulting to unpruned grid for atomic number  46.
 Defaulting to unpruned grid for atomic number  46.
 Defaulting to unpruned grid for atomic number  46.
 Defaulting to unpruned grid for atomic number  46.
 Defaulting to unpruned grid for atomic number  46.
 Defaulting to unpruned grid for atomic number  46.
 EnCoef did     2 forward-backward iterations
 SCF Done:  E(RPBE1PBE) =  -3080.63402846     A.U. after   18 cycles
            NFock= 18  Conv=0.54D-08     -V/T= 2.0304
 DoSCS=F DFT=T ScalE2(SS,OS)=  1.000000  1.000000
 Range of M.O.s used for correlation:     1  1399
 NBasis=  1399 NAE=   158 NBE=   158 NFC=     0 NFV=     0
 NROrb=   1399 NOA=   158 NOB=   158 NVA=  1241 NVB=  1241

 **** Warning!!: The largest alpha MO coefficient is  0.48765520D+02

          Differentiating once with respect to magnetic field using GIAOs.
          Electric field/nuclear overlap derivatives assumed to be zero.
 Defaulting to unpruned grid for atomic number  46.
 FoFCou: FMM=F IPFlag=           0 FMFlag=      100000 FMFlg1=        2001
         NFxFlg=           0 DoJE=F BraDBF=F KetDBF=T FulRan=T
         wScrn=  0.000000 ICntrl=    6100 IOpCl=  0 I1Cent=           7 NGrid=          70
         NMat0=    1 NMatS0=      1 NMatT0=    0 NMatD0=    1 NMtDS0=    0 NMtDT0=    0
 Symmetry not used in FoFCou.
   1 Symmetry operations used in ECPInt.
 ECPInt:  NShTT=  155403 NPrTT=  482648 LenC2=  155404 LenP2D=  482648.
 LDataN:  DoStor=T MaxTD1= 8 Len=  415
 FoFJK:  IHMeth= 1 ICntrl=    6127 DoSepK=F KAlg= 0 I1Cent=   0 FoldK=F
 IRaf=         1 NMat=   1 IRICut=       1 DoRegI=T DoRafI=F ISym2E= 0.
 Defaulting to unpruned grid for atomic number  46.
 Defaulting to unpruned grid for atomic number  46.
 Defaulting to unpruned grid for atomic number  46.
 Defaulting to unpruned grid for atomic number  46.
 Defaulting to unpruned grid for atomic number  46.
 Defaulting to unpruned grid for atomic number  46.
 Defaulting to unpruned grid for atomic number  46.
 Defaulting to unpruned grid for atomic number  46.
 Defaulting to unpruned grid for atomic number  46.
 Defaulting to unpruned grid for atomic number  46.
 Defaulting to unpruned grid for atomic number  46.
 Defaulting to unpruned grid for atomic number  46.
 Defaulting to unpruned grid for atomic number  46.
 Defaulting to unpruned grid for atomic number  46.
          There are     3 degrees of freedom in the 1st order CPHF.  IDoFFX=0 NUNeed=     3.
      3 vectors produced by pass  0 Test12= 6.54D-12 3.33D-08 XBig12= 1.39D+02 2.16D+00.
 AX will form     3 AO Fock derivatives at one time.
      3 vectors produced by pass  1 Test12= 6.54D-12 3.33D-08 XBig12= 6.88D-01 2.04D-01.
      3 vectors produced by pass  2 Test12= 6.54D-12 3.33D-08 XBig12= 6.24D-03 3.32D-02.
      3 vectors produced by pass  3 Test12= 6.54D-12 3.33D-08 XBig12= 1.45D-04 5.04D-03.
      3 vectors produced by pass  4 Test12= 6.54D-12 3.33D-08 XBig12= 7.90D-07 2.70D-04.
      3 vectors produced by pass  5 Test12= 6.54D-12 3.33D-08 XBig12= 6.38D-09 4.18D-05.
      3 vectors produced by pass  6 Test12= 6.54D-12 3.33D-08 XBig12= 7.88D-11 3.01D-06.
      3 vectors produced by pass  7 Test12= 6.54D-12 3.33D-08 XBig12= 8.95D-13 2.67D-07.
 InvSVY:  IOpt=1 It=  1 EMax= 3.55D-15
 Solved reduced A of dimension    24 with     3 vectors.
 Calculating GIAO nuclear magnetic shielding tensors.
 SCF GIAO Magnetic shielding tensor (ppm):
      1  P    Isotropic =   241.4741   Anisotropy =   123.7551
   XX=   235.6435   YX=    64.5957   ZX=   -21.0851
   XY=    44.5049   YY=   191.4949   ZY=   -35.9567
   XZ=   -21.7285   YZ=   -29.7925   ZZ=   297.2839
   Eigenvalues:   152.9684   247.4764   323.9775
      2  P    Isotropic =   262.6863   Anisotropy =   134.2006
   XX=   321.7723   YX=    -6.7023   ZX=    54.9317
   XY=    -3.2403   YY=   219.0685   ZY=     6.8741
   XZ=    57.9317   YZ=     3.7736   ZZ=   247.2183
   Eigenvalues:   210.8261   225.0795   352.1534
      3  O    Isotropic =   185.3243   Anisotropy =   104.4014
   XX=   229.3606   YX=   -11.9714   ZX=    57.9191
   XY=   -28.3221   YY=   213.9256   ZY=    16.2086
   XZ=    51.6908   YZ=    20.3020   ZZ=   112.6866
   Eigenvalues:    86.2880   214.7597   254.9252
      4  O    Isotropic =   188.3496   Anisotropy =   119.5153
   XX=   208.8206   YX=    -7.2938   ZX=    59.6699
   XY=    18.3862   YY=   246.2085   ZY=    41.5574
   XZ=    51.7060   YZ=    42.8714   ZZ=   110.0197
   Eigenvalues:    77.0703   219.9521   268.0265
      5  C    Isotropic =   147.8079   Anisotropy =    38.5736
   XX=   163.1274   YX=    -9.0906   ZX=     9.6704
   XY=    -6.9017   YY=   149.9984   ZY=   -10.5522
   XZ=    18.2234   YZ=    -9.2710   ZZ=   130.2979
   Eigenvalues:   123.3844   146.5157   173.5236
      6  C    Isotropic =   104.3852   Anisotropy =    55.1475
   XX=    92.1150   YX=   -15.5348   ZX=     3.3128
   XY=    -8.9876   YY=   137.0364   ZY=     0.5500
   XZ=    14.5693   YZ=   -11.3333   ZZ=    84.0043
   Eigenvalues:    78.1528    93.8526   141.1502
      7  C    Isotropic =   104.2569   Anisotropy =    54.1388
   XX=   128.4405   YX=   -18.0560   ZX=    10.5919
   XY=   -20.2141   YY=    98.5846   ZY=    -3.4926
   XZ=    17.5075   YZ=     7.7004   ZZ=    85.7457
   Eigenvalues:    77.7959    94.6253   140.3495
      8  C    Isotropic =   154.4291   Anisotropy =    33.1506
   XX=   143.7685   YX=     8.5993   ZX=    -0.6902
   XY=     8.5586   YY=   171.8541   ZY=    -6.7324
   XZ=     3.3731   YZ=   -10.7005   ZZ=   147.6647
   Eigenvalues:   139.3081   147.4496   176.5295
      9  C    Isotropic =    70.0716   Anisotropy =    41.9673
   XX=    74.6481   YX=     8.2040   ZX=    19.3120
   XY=     9.9655   YY=    72.8211   ZY=    12.6672
   XZ=    18.9293   YZ=    13.8211   ZZ=    62.7456
   Eigenvalues:    47.2767    64.8883    98.0498
     10  C    Isotropic =   158.8907   Anisotropy =    43.0089
   XX=   144.9979   YX=    -1.0354   ZX=    -0.2999
   XY=    -0.0439   YY=   160.2342   ZY=   -22.2079
   XZ=     0.5043   YZ=   -19.7666   ZZ=   171.4400
   Eigenvalues:   143.9826   145.1261   187.5633
     11  C    Isotropic =   160.1391   Anisotropy =    37.0845
   XX=   160.3273   YX=    -3.6733   ZX=   -19.6173
   XY=    -4.0946   YY=   151.3863   ZY=     6.3387
   XZ=   -16.9986   YZ=     5.9817   ZZ=   168.7036
   Eigenvalues:   145.5885   149.9666   184.8621
     12  C    Isotropic =    45.2989   Anisotropy =   176.0753
   XX=   -41.8136   YX=    -3.6458   ZX=   -10.3964
   XY=   -18.0163   YY=   113.2272   ZY=   -69.6962
   XZ=   -13.0772   YZ=   -69.6369   ZZ=    64.4832
   Eigenvalues:   -45.9470    19.1613   162.6824
     13  C    Isotropic =    41.4746   Anisotropy =   201.1470
   XX=   -23.5072   YX=    21.5443   ZX=    32.9069
   XY=    24.7214   YY=   108.7744   ZY=   -92.5197
   XZ=    43.1883   YZ=   -98.3057   ZZ=    39.1565
   Eigenvalues:   -70.0521    18.9033   175.5726
     14  C    Isotropic =    52.4699   Anisotropy =   185.4898
   XX=    35.0062   YX=   -13.6459   ZX=   -13.6442
   XY=   -12.0110   YY=    97.9988   ZY=  -105.5668
   XZ=   -14.0788   YZ=  -112.1062   ZZ=    24.4048
   Eigenvalues:   -57.4853    38.7652   176.1297
     15  C    Isotropic =    49.4354   Anisotropy =   190.5359
   XX=   -52.1627   YX=   -17.4865   ZX=   -17.1377
   XY=   -15.8931   YY=   120.7783   ZY=   -73.2505
   XZ=   -22.1089   YZ=   -73.5388   ZZ=    79.6906
   Eigenvalues:   -60.0414    31.8883   176.4593
     16  C    Isotropic =    53.0353   Anisotropy =   182.7932
   XX=   -12.6881   YX=    27.3408   ZX=    41.4097
   XY=    29.2367   YY=   108.0895   ZY=   -88.3803
   XZ=    38.9830   YZ=   -83.9371   ZZ=    63.7045
   Eigenvalues:   -57.2285    41.4370   174.8974
     17  C    Isotropic =    47.7408   Anisotropy =   190.4566
   XX=    29.9408   YX=    -8.8970   ZX=    -7.4544
   XY=   -13.8257   YY=    87.1183   ZY=  -114.7561
   XZ=    -5.6499   YZ=  -113.0210   ZZ=    26.1632
   Eigenvalues:   -62.8391    31.3496   174.7118
     18  C    Isotropic =    46.2265   Anisotropy =   189.4572
   XX=   166.6265   YX=   -22.0055   ZX=    15.8704
   XY=   -25.3851   YY=     0.7725   ZY=   -35.0135
   XZ=    20.0382   YZ=   -32.9724   ZZ=   -28.7196
   Eigenvalues:   -51.0467    17.1949   172.5313
     19  C    Isotropic =    37.1172   Anisotropy =   193.8468
   XX=   153.1281   YX=   -49.8024   ZX=    30.5710
   XY=   -35.3813   YY=     5.8243   ZY=    41.3616
   XZ=    28.6718   YZ=    32.2052   ZZ=   -47.6006
   Eigenvalues:   -75.7315    20.7347   166.3484
     20  C    Isotropic =    49.3696   Anisotropy =   192.5886
   XX=   166.8129   YX=   -46.5211   ZX=    13.6563
   XY=   -47.8497   YY=   -52.1890   ZY=     0.2664
   XZ=    13.2582   YZ=    -0.8687   ZZ=    33.4850
   Eigenvalues:   -61.9848    32.3317   177.7620
     21  C    Isotropic =    47.5505   Anisotropy =   194.9923
   XX=   170.5176   YX=   -25.6753   ZX=    17.3716
   XY=   -30.1392   YY=     6.5964   ZY=   -45.4237
   XZ=    12.5670   YZ=   -43.8285   ZZ=   -34.4627
   Eigenvalues:   -63.0818    28.1879   177.5453
     22  C    Isotropic =    52.0832   Anisotropy =   187.0359
   XX=   164.9125   YX=   -39.0426   ZX=    33.9704
   XY=   -35.4007   YY=    24.2679   ZY=    33.7706
   XZ=    30.1759   YZ=    35.0007   ZZ=   -32.9307
   Eigenvalues:   -58.2355    37.7113   176.7738
     23  C    Isotropic =    48.6166   Anisotropy =   195.1434
   XX=   167.2113   YX=   -49.6449   ZX=     9.8127
   XY=   -48.6942   YY=   -54.5889   ZY=     3.1338
   XZ=    17.1834   YZ=     2.8654   ZZ=    33.2273
   Eigenvalues:   -65.3358    32.4733   178.7122
     24  C    Isotropic =    46.3986   Anisotropy =   176.3907
   XX=     9.2437   YX=    77.3874   ZX=     2.7072
   XY=    74.4136   YY=   113.1153   ZY=   -49.9652
   XZ=     7.7834   YZ=   -44.7619   ZZ=    16.8369
   Eigenvalues:   -44.2294    19.4329   163.9924
     25  C    Isotropic =    44.2665   Anisotropy =   195.9640
   XX=    58.6086   YX=    50.4283   ZX=   -21.2709
   XY=    66.2436   YY=   128.1820   ZY=   -53.4218
   XZ=   -29.0094   YZ=   -46.3067   ZZ=   -53.9912
   Eigenvalues:   -67.6592    25.5495   174.9092
     26  C    Isotropic =    53.0632   Anisotropy =   184.1332
   XX=     3.2156   YX=    65.9025   ZX=   -59.1498
   XY=    69.3683   YY=   136.2104   ZY=   -19.5438
   XZ=   -58.8497   YZ=   -18.6166   ZZ=    19.7635
   Eigenvalues:   -57.0121    40.3829   175.8186
     27  C    Isotropic =    48.1351   Anisotropy =   193.1810
   XX=     1.3424   YX=    88.2720   ZX=    12.3025
   XY=    86.1666   YY=   117.3495   ZY=   -56.0336
   XZ=    13.1718   YZ=   -55.4467   ZZ=    25.7134
   Eigenvalues:   -62.9301    30.4130   176.9224
     28  C    Isotropic =    51.5765   Anisotropy =   186.4085
   XX=    60.4884   YX=    48.5663   ZX=   -20.6716
   XY=    47.9533   YY=   132.7773   ZY=   -60.7321
   XZ=   -21.3050   YZ=   -60.5352   ZZ=   -38.5363
   Eigenvalues:   -58.0981    36.9787   175.8488
     29  C    Isotropic =    35.4012   Anisotropy =   201.1448
   XX=   -11.7356   YX=    67.3241   ZX=   -55.1414
   XY=    71.4374   YY=   126.4243   ZY=   -28.6973
   XZ=   -56.4691   YZ=   -31.6332   ZZ=    -8.4851
   Eigenvalues:   -71.2449     7.9508   169.4977
     30  C    Isotropic =    42.6538   Anisotropy =   177.6150
   XX=    56.7137   YX=     5.5520   ZX=   -72.4469
   XY=    -1.8818   YY=   -37.0772   ZY=   -23.7686
   XZ=   -68.0083   YZ=   -39.6335   ZZ=   108.3250
   Eigenvalues:   -45.8471    12.7448   161.0639
     31  C    Isotropic =    36.0665   Anisotropy =   194.4345
   XX=    11.2232   YX=     5.7353   ZX=  -109.5211
   XY=     8.8651   YY=    14.4519   ZY=   -18.4057
   XZ=  -112.8153   YZ=   -14.7466   ZZ=    82.5243
   Eigenvalues:   -70.0512    12.5611   165.6894
     32  C    Isotropic =    52.2770   Anisotropy =   184.4710
   XX=    52.0275   YX=    52.9209   ZX=   -78.3075
   XY=    52.5306   YY=   -17.6149   ZY=     4.5752
   XZ=   -76.0255   YZ=     5.9805   ZZ=   122.4184
   Eigenvalues:   -57.3975    38.9708   175.2577
     33  C    Isotropic =    49.0437   Anisotropy =   191.0941
   XX=    72.0601   YX=    -8.4793   ZX=   -73.8104
   XY=    -8.4086   YY=   -44.7386   ZY=   -43.3508
   XZ=   -71.2570   YZ=   -42.4897   ZZ=   119.8096
   Eigenvalues:   -61.2226    31.9139   176.4398
     34  C    Isotropic =    52.8318   Anisotropy =   183.1615
   XX=    18.8177   YX=     0.4618   ZX=  -107.1579
   XY=     0.6887   YY=    42.3172   ZY=   -21.6945
   XZ=  -107.7486   YZ=   -21.3509   ZZ=    97.3606
   Eigenvalues:   -57.7418    41.2978   174.9395
     35  C    Isotropic =    48.8371   Anisotropy =   189.8006
   XX=    48.1192   YX=    55.0692   ZX=   -79.1652
   XY=    53.7202   YY=   -19.0518   ZY=     6.1470
   XZ=   -84.0119   YZ=     1.5966   ZZ=   117.4439
   Eigenvalues:   -62.1847    33.3252   175.3708
     36  H    Isotropic =    28.8822   Anisotropy =     5.9746
   XX=    28.5475   YX=     0.1182   ZX=    -3.1229
   XY=    -0.2457   YY=    29.1403   ZY=    -3.8896
   XZ=    -1.1981   YZ=    -2.6618   ZZ=    28.9588
   Eigenvalues:    24.9945    28.7868    32.8653
     37  H    Isotropic =    28.7262   Anisotropy =     7.5284
   XX=    29.7671   YX=     1.6215   ZX=     4.6243
   XY=    -0.4400   YY=    30.2527   ZY=     2.2860
   XZ=     4.6333   YZ=     1.8133   ZZ=    26.1587
   Eigenvalues:    22.7401    29.6933    33.7451
     38  H    Isotropic =    26.6182   Anisotropy =     9.2263
   XX=    25.3258   YX=    -2.5643   ZX=    -1.5305
   XY=     1.8834   YY=    30.2784   ZY=    -5.0118
   XZ=    -0.6511   YZ=    -4.1850   ZZ=    24.2504
   Eigenvalues:    21.4420    25.6435    32.7691
     39  H    Isotropic =    28.0129   Anisotropy =     7.5472
   XX=    29.2796   YX=    -5.6185   ZX=    -4.0000
   XY=    -3.0484   YY=    26.8793   ZY=    -1.5465
   XZ=    -1.9911   YZ=    -1.7308   ZZ=    27.8799
   Eigenvalues:    21.9049    29.0894    33.0444
     40  H    Isotropic =    28.8179   Anisotropy =     7.8607
   XX=    31.0778   YX=     1.0868   ZX=     2.9434
   XY=     1.7373   YY=    27.7011   ZY=     0.6527
   XZ=     5.3556   YZ=    -0.8693   ZZ=    27.6747
   Eigenvalues:    24.6299    27.7654    34.0583
     41  H    Isotropic =    30.9651   Anisotropy =    12.9607
   XX=    37.0146   YX=    -3.2450   ZX=    -5.1307
   XY=    -4.3584   YY=    27.7359   ZY=     3.3413
   XZ=    -1.7650   YZ=    -0.3074   ZZ=    28.1448
   Eigenvalues:    26.2750    27.0148    39.6056
     42  H    Isotropic =    30.4210   Anisotropy =     7.6847
   XX=    28.2993   YX=    -2.0282   ZX=    -2.4380
   XY=    -0.6186   YY=    29.7689   ZY=    -3.8846
   XZ=    -3.2388   YZ=    -2.3856   ZZ=    33.1949
   Eigenvalues:    25.3570    30.3619    35.5442
     43  H    Isotropic =    30.3193   Anisotropy =     9.9583
   XX=    26.7607   YX=     0.9986   ZX=    -0.0362
   XY=     1.1439   YY=    36.5473   ZY=    -1.1435
   XZ=     0.1034   YZ=    -2.1964   ZZ=    27.6499
   Eigenvalues:    26.5874    27.4124    36.9582
     44  H    Isotropic =    30.4047   Anisotropy =     9.7727
   XX=    31.3958   YX=    -2.1138   ZX=     2.4478
   XY=    -3.0080   YY=    29.3026   ZY=    -4.1367
   XZ=     4.2758   YZ=    -3.3336   ZZ=    30.5157
   Eigenvalues:    26.1074    28.1869    36.9198
     45  H    Isotropic =    30.8657   Anisotropy =     9.6516
   XX=    27.3693   YX=    -1.2429   ZX=    -2.2223
   XY=    -0.7260   YY=    36.0797   ZY=     2.3973
   XZ=    -1.2218   YZ=     3.2005   ZZ=    29.1483
   Eigenvalues:    26.2712    29.0259    37.3002
     46  H    Isotropic =    32.0825   Anisotropy =    11.5810
   XX=    29.2481   YX=     1.7168   ZX=    -4.5193
   XY=     1.0552   YY=    35.9467   ZY=    -3.8108
   XZ=    -3.1368   YZ=    -5.5862   ZZ=    31.0527
   Eigenvalues:    25.7814    30.6629    39.8032
     47  H    Isotropic =    30.9774   Anisotropy =     5.9045
   XX=    34.5950   YX=    -0.1926   ZX=    -0.8093
   XY=    -2.0192   YY=    31.0716   ZY=    -2.8869
   XZ=    -0.5909   YZ=    -1.6474   ZZ=    27.2655
   Eigenvalues:    26.0648    31.9535    34.9137
     48  H    Isotropic =    23.1069   Anisotropy =    12.3374
   XX=    24.4566   YX=     5.0910   ZX=     5.3191
   XY=     5.2842   YY=    22.7995   ZY=     1.5963
   XZ=     3.8861   YZ=     2.1478   ZZ=    22.0645
   Eigenvalues:    17.4569    20.5319    31.3318
     49  H    Isotropic =    23.6415   Anisotropy =     6.7637
   XX=    28.0253   YX=     0.7826   ZX=     0.4056
   XY=     0.8567   YY=    21.2559   ZY=     1.6504
   XZ=     0.0577   YZ=     1.4337   ZZ=    21.6435
   Eigenvalues:    19.8688    22.9051    28.1507
     50  H    Isotropic =    23.7955   Anisotropy =     3.8125
   XX=    24.9602   YX=     0.0014   ZX=    -0.2266
   XY=    -0.0324   YY=    22.3105   ZY=     2.8277
   XZ=    -0.8829   YZ=     2.8325   ZZ=    24.1156
   Eigenvalues:    20.2215    24.8278    26.3371
     51  H    Isotropic =    24.0593   Anisotropy =     7.1637
   XX=    27.6940   YX=     1.6477   ZX=     2.0519
   XY=     1.1494   YY=    21.3442   ZY=     2.0600
   XZ=     1.3675   YZ=     2.2594   ZZ=    23.1398
   Eigenvalues:    19.8963    23.4465    28.8351
     52  H    Isotropic =    24.7746   Anisotropy =    15.1466
   XX=    34.7594   YX=     1.3134   ZX=     2.8835
   XY=    -1.4077   YY=    18.2658   ZY=     0.2878
   XZ=    -0.4078   YZ=     1.0063   ZZ=    21.2985
   Eigenvalues:    18.1282    21.3233    34.8723
     53  H    Isotropic =    22.0640   Anisotropy =    11.0249
   XX=    20.6597   YX=     0.5041   ZX=    -1.1735
   XY=     0.1651   YY=    24.7667   ZY=     6.3330
   XZ=    -4.2161   YZ=     5.9122   ZZ=    20.7656
   Eigenvalues:    15.2545    21.5236    29.4139
     54  H    Isotropic =    23.9926   Anisotropy =     7.7912
   XX=    21.8550   YX=    -0.2726   ZX=    -2.2057
   XY=     0.0527   YY=    22.7598   ZY=     1.8689
   XZ=    -3.8250   YZ=     1.9136   ZZ=    27.3630
   Eigenvalues:    20.3133    22.4778    29.1867
     55  H    Isotropic =    23.7434   Anisotropy =     4.2625
   XX=    21.1499   YX=     1.1963   ZX=    -1.4254
   XY=     0.8665   YY=    24.9367   ZY=    -0.8796
   XZ=    -2.0777   YZ=    -0.7131   ZZ=    25.1435
   Eigenvalues:    20.3823    24.2629    26.5850
     56  H    Isotropic =    23.7383   Anisotropy =     5.3010
   XX=    20.8285   YX=     0.5705   ZX=    -1.1579
   XY=     0.5848   YY=    24.6880   ZY=     1.7356
   XZ=    -1.2982   YZ=     2.1685   ZZ=    25.6985
   Eigenvalues:    20.2709    23.6717    27.2723
     57  H    Isotropic =    23.5613   Anisotropy =    10.4242
   XX=    21.4419   YX=    -0.2312   ZX=    -2.6063
   XY=    -1.4304   YY=    19.4744   ZY=     0.0493
   XZ=    -2.4943   YZ=     0.5500   ZZ=    29.7677
   Eigenvalues:    19.1277    21.0455    30.5108
     58  H    Isotropic =    23.0154   Anisotropy =    10.5791
   XX=    28.8679   YX=    -2.5361   ZX=     0.5538
   XY=    -3.5478   YY=    22.1398   ZY=    -0.6986
   XZ=     0.7781   YZ=     0.8832   ZZ=    18.0386
   Eigenvalues:    17.9745    21.0037    30.0681
     59  H    Isotropic =    23.8189   Anisotropy =     5.7942
   XX=    25.8215   YX=    -1.7589   ZX=    -1.4270
   XY=    -1.6147   YY=    21.6520   ZY=     1.9589
   XZ=    -1.4717   YZ=     2.2131   ZZ=    23.9832
   Eigenvalues:    20.3149    23.4601    27.6817
     60  H    Isotropic =    23.7297   Anisotropy =     3.5346
   XX=    24.8189   YX=    -1.1533   ZX=     0.6169
   XY=    -1.0857   YY=    20.7507   ZY=     0.6348
   XZ=     0.9203   YZ=     0.8152   ZZ=    25.6194
   Eigenvalues:    20.3107    24.7922    26.0861
     61  H    Isotropic =    23.6184   Anisotropy =     6.8615
   XX=    26.1970   YX=    -3.4813   ZX=    -1.0654
   XY=    -3.2249   YY=    21.3414   ZY=     0.8095
   XZ=    -0.6852   YZ=     0.9271   ZZ=    23.3169
   Eigenvalues:    19.5899    23.0726    28.1928
     62  H    Isotropic =    21.4172   Anisotropy =    14.5728
   XX=    21.2433   YX=    -7.7913   ZX=    -5.1376
   XY=    -6.6254   YY=    22.0429   ZY=     2.0225
   XZ=    -3.3967   YZ=     3.0583   ZZ=    20.9654
   Eigenvalues:    14.0804    19.0387    31.1324
     63  H    Isotropic =    21.6221   Anisotropy =    14.9326
   XX=    15.2699   YX=     2.5885   ZX=    -0.8132
   XY=    -0.1888   YY=    29.8074   ZY=     4.6721
   XZ=     0.4747   YZ=     4.2564   ZZ=    19.7890
   Eigenvalues:    15.0872    18.2019    31.5772
     64  H    Isotropic =    23.6056   Anisotropy =     7.7651
   XX=    22.4396   YX=     2.6654   ZX=     2.1094
   XY=     1.8409   YY=    26.5637   ZY=     2.3204
   XZ=     2.3975   YZ=     1.9941   ZZ=    21.8135
   Eigenvalues:    19.8468    22.1877    28.7824
     65  H    Isotropic =    23.7417   Anisotropy =     3.9974
   XX=    24.6397   YX=    -0.1350   ZX=     2.6605
   XY=    -0.7259   YY=    24.5866   ZY=     0.2535
   XZ=     2.8345   YZ=     0.1208   ZZ=    21.9987
   Eigenvalues:    20.2362    24.5822    26.4066
     66  H    Isotropic =    23.8939   Anisotropy =     6.2612
   XX=    23.2035   YX=     0.6619   ZX=     1.8191
   XY=     0.0894   YY=    27.6833   ZY=     1.7620
   XZ=     1.5492   YZ=     1.0634   ZZ=    20.7950
   Eigenvalues:    19.7758    23.8379    28.0681
     67  H    Isotropic =    23.3208   Anisotropy =    12.0398
   XX=    24.3533   YX=     3.2870   ZX=     3.6940
   XY=     3.5517   YY=    25.1100   ZY=     5.6688
   XZ=     3.8375   YZ=     3.3411   ZZ=    20.4992
   Eigenvalues:    17.3168    21.2983    31.3474
     68  Cl   Isotropic =   911.9648   Anisotropy =   592.5546
   XX=   692.8834   YX=   -77.0324   ZX=  -166.7831
   XY=   -79.2584   YY=  1198.0681   ZY=   223.1378
   XZ=  -194.8042   YZ=   133.1945   ZZ=   844.9428
   Eigenvalues:   570.6838   858.2094  1307.0012
     69  Cl   Isotropic =   807.5997   Anisotropy =   274.5787
   XX=   706.2725   YX=   -78.3853   ZX=    74.4297
   XY=   -66.0390   YY=   885.1389   ZY=    88.7149
   XZ=    83.1536   YZ=   170.2158   ZZ=   831.3876
   Eigenvalues:   608.9495   823.1973   990.6521
     70  Pd   Isotropic =  -137.7292   Anisotropy =   239.0818
   XX=   -13.4485   YX=    92.2183   ZX=    67.3669
   XY=    95.9024   YY=  -327.6835   ZY=  -159.5720
   XZ=    46.7908   YZ=  -165.1368   ZZ=   -72.0555
   Eigenvalues:  -434.9813     0.1351    21.6587
 End of Minotr F.D. properties file   721 does not exist.
 End of Minotr F.D. properties file   722 does not exist.
 End of Minotr F.D. properties file   788 does not exist.

 **********************************************************************

            Population analysis using the SCF density.

 **********************************************************************

 Orbital symmetries:
       Occupied  (A) (A) (A) (A) (A) (A) (A) (A) (A) (A) (A) (A)
                 (A) (A) (A) (A) (A) (A) (A) (A) (A) (A) (A) (A)
                 (A) (A) (A) (A) (A) (A) (A) (A) (A) (A) (A) (A)
                 (A) (A) (A) (A) (A) (A) (A) (A) (A) (A) (A) (A)
                 (A) (A) (A) (A) (A) (A) (A) (A) (A) (A) (A) (A)
                 (A) (A) (A) (A) (A) (A) (A) (A) (A) (A) (A) (A)
                 (A) (A) (A) (A) (A) (A) (A) (A) (A) (A) (A) (A)
                 (A) (A) (A) (A) (A) (A) (A) (A) (A) (A) (A) (A)
                 (A) (A) (A) (A) (A) (A) (A) (A) (A) (A) (A) (A)
                 (A) (A) (A) (A) (A) (A) (A) (A) (A) (A) (A) (A)
                 (A) (A) (A) (A) (A) (A) (A) (A) (A) (A) (A) (A)
                 (A) (A) (A) (A) (A) (A) (A) (A) (A) (A) (A) (A)
                 (A) (A) (A) (A) (A) (A) (A) (A) (A) (A) (A) (A)
                 (A) (A)
       Virtual   (A) (A) (A) (A) (A) (A) (A) (A) (A) (A) (A) (A)
                 (A) (A) (A) (A) (A) (A) (A) (A) (A) (A) (A) (A)
                 (A) (A) (A) (A) (A) (A) (A) (A) (A) (A) (A) (A)
                 (A) (A) (A) (A) (A) (A) (A) (A) (A) (A) (A) (A)
                 (A) (A) (A) (A) (A) (A) (A) (A) (A) (A) (A) (A)
                 (A) (A) (A) (A) (A) (A) (A) (A) (A) (A) (A) (A)
                 (A) (A) (A) (A) (A) (A) (A) (A) (A) (A) (A) (A)
                 (A) (A) (A) (A) (A) (A) (A) (A) (A) (A) (A) (A)
                 (A) (A) (A) (A) (A) (A) (A) (A) (A) (A) (A) (A)
                 (A) (A) (A) (A) (A) (A) (A) (A) (A) (A) (A) (A)
                 (A) (A) (A) (A) (A) (A) (A) (A) (A) (A) (A) (A)
                 (A) (A) (A) (A) (A) (A) (A) (A) (A) (A) (A) (A)
                 (A) (A) (A) (A) (A) (A) (A) (A) (A) (A) (A) (A)
                 (A) (A) (A) (A) (A) (A) (A) (A) (A) (A) (A) (A)
                 (A) (A) (A) (A) (A) (A) (A) (A) (A) (A) (A) (A)
                 (A) (A) (A) (A) (A) (A) (A) (A) (A) (A) (A) (A)
                 (A) (A) (A) (A) (A) (A) (A) (A) (A) (A) (A) (A)
                 (A) (A) (A) (A) (A) (A) (A) (A) (A) (A) (A) (A)
                 (A) (A) (A) (A) (A) (A) (A) (A) (A) (A) (A) (A)
                 (A) (A) (A) (A) (A) (A) (A) (A) (A) (A) (A) (A)
                 (A) (A) (A) (A) (A) (A) (A) (A) (A) (A) (A) (A)
                 (A) (A) (A) (A) (A) (A) (A) (A) (A) (A) (A) (A)
                 (A) (A) (A) (A) (A) (A) (A) (A) (A) (A) (A) (A)
                 (A) (A) (A) (A) (A) (A) (A) (A) (A) (A) (A) (A)
                 (A) (A) (A) (A) (A) (A) (A) (A) (A) (A) (A) (A)
                 (A) (A) (A) (A) (A) (A) (A) (A) (A) (A) (A) (A)
                 (A) (A) (A) (A) (A) (A) (A) (A) (A) (A) (A) (A)
                 (A) (A) (A) (A) (A) (A) (A) (A) (A) (A) (A) (A)
                 (A) (A) (A) (A) (A) (A) (A) (A) (A) (A) (A) (A)
                 (A) (A) (A) (A) (A) (A) (A) (A) (A) (A) (A) (A)
                 (A) (A) (A) (A) (A) (A) (A) (A) (A) (A) (A) (A)
                 (A) (A) (A) (A) (A) (A) (A) (A) (A) (A) (A) (A)
                 (A) (A) (A) (A) (A) (A) (A) (A) (A) (A) (A) (A)
                 (A) (A) (A) (A) (A) (A) (A) (A) (A) (A) (A) (A)
                 (A) (A) (A) (A) (A) (A) (A) (A) (A) (A) (A) (A)
                 (A) (A) (A) (A) (A) (A) (A) (A) (A) (A) (A) (A)
                 (A) (A) (A) (A) (A) (A) (A) (A) (A) (A) (A) (A)
                 (A) (A) (A) (A) (A) (A) (A) (A) (A) (A) (A) (A)
                 (A) (A) (A) (A) (A) (A) (A) (A) (A) (A) (A) (A)
                 (A) (A) (A) (A) (A) (A) (A) (A) (A) (A) (A) (A)
                 (A) (A) (A) (A) (A) (A) (A) (A) (A) (A) (A) (A)
                 (A) (A) (A) (A) (A) (A) (A) (A) (A) (A) (A) (A)
                 (A) (A) (A) (A) (A) (A) (A) (A) (A) (A) (A) (A)
                 (A) (A) (A) (A) (A) (A) (A) (A) (A) (A) (A) (A)
                 (A) (A) (A) (A) (A) (A) (A) (A) (A) (A) (A) (A)
                 (A) (A) (A) (A) (A) (A) (A) (A) (A) (A) (A) (A)
                 (A) (A) (A) (A) (A) (A) (A) (A) (A) (A) (A) (A)
                 (A) (A) (A) (A) (A) (A) (A) (A) (A) (A) (A) (A)
                 (A) (A) (A) (A) (A) (A) (A) (A) (A) (A) (A) (A)
                 (A) (A) (A) (A) (A) (A) (A) (A) (A) (A) (A) (A)
                 (A) (A) (A) (A) (A) (A) (A) (A) (A) (A) (A) (A)
                 (A) (A) (A) (A) (A) (A) (A) (A) (A) (A) (A) (A)
                 (A) (A) (A) (A) (A) (A) (A) (A) (A) (A) (A) (A)
                 (A) (A) (A) (A) (A) (A) (A) (A) (A) (A) (A) (A)
                 (A) (A) (A) (A) (A) (A) (A) (A) (A) (A) (A) (A)
                 (A) (A) (A) (A) (A) (A) (A) (A) (A) (A) (A) (A)
                 (A) (A) (A) (A) (A) (A) (A) (A) (A) (A) (A) (A)
                 (A) (A) (A) (A) (A) (A) (A) (A) (A) (A) (A) (A)
                 (A) (A) (A) (A) (A) (A) (A) (A) (A) (A) (A) (A)
                 (A) (A) (A) (A) (A) (A) (A) (A) (A) (A) (A) (A)
                 (A) (A) (A) (A) (A) (A) (A) (A) (A) (A) (A) (A)
                 (A) (A) (A) (A) (A) (A) (A) (A) (A) (A) (A) (A)
                 (A) (A) (A) (A) (A) (A) (A) (A) (A) (A) (A) (A)
                 (A) (A) (A) (A) (A) (A) (A) (A) (A) (A) (A) (A)
                 (A) (A) (A) (A) (A) (A) (A) (A) (A) (A) (A) (A)
                 (A) (A) (A) (A) (A) (A) (A) (A) (A) (A) (A) (A)
                 (A) (A) (A) (A) (A) (A) (A) (A) (A) (A) (A) (A)
                 (A) (A) (A) (A) (A) (A) (A) (A) (A) (A) (A) (A)
                 (A) (A) (A) (A) (A) (A) (A) (A) (A) (A) (A) (A)
                 (A) (A) (A) (A) (A) (A) (A) (A) (A) (A) (A) (A)
                 (A) (A) (A) (A) (A) (A) (A) (A) (A) (A) (A) (A)
                 (A) (A) (A) (A) (A) (A) (A) (A) (A) (A) (A) (A)
                 (A) (A) (A) (A) (A) (A) (A) (A) (A) (A) (A) (A)
                 (A) (A) (A) (A) (A) (A) (A) (A) (A) (A) (A) (A)
                 (A) (A) (A) (A) (A) (A) (A) (A) (A) (A) (A) (A)
                 (A) (A) (A) (A) (A) (A) (A) (A) (A) (A) (A) (A)
                 (A) (A) (A) (A) (A) (A) (A) (A) (A) (A) (A) (A)
                 (A) (A) (A) (A) (A) (A) (A) (A) (A) (A) (A) (A)
                 (A) (A) (A) (A) (A) (A) (A) (A) (A) (A) (A) (A)
                 (A) (A) (A) (A) (A) (A) (A) (A) (A) (A) (A) (A)
                 (A) (A) (A) (A) (A) (A) (A) (A) (A) (A) (A) (A)
                 (A) (A) (A) (A) (A) (A) (A) (A) (A) (A) (A) (A)
                 (A) (A) (A) (A) (A) (A) (A) (A) (A) (A) (A) (A)
                 (A) (A) (A) (A) (A) (A) (A) (A) (A) (A) (A) (A)
                 (A) (A) (A) (A) (A) (A) (A) (A) (A) (A) (A) (A)
                 (A) (A) (A) (A) (A) (A) (A) (A) (A) (A) (A) (A)
                 (A) (A) (A) (A) (A) (A) (A) (A) (A) (A) (A) (A)
                 (A) (A) (A) (A) (A) (A) (A) (A) (A) (A) (A) (A)
                 (A) (A) (A) (A) (A) (A) (A) (A) (A) (A) (A) (A)
                 (A) (A) (A) (A) (A) (A) (A) (A) (A) (A) (A) (A)
                 (A) (A) (A) (A) (A) (A) (A) (A) (A) (A) (A) (A)
                 (A) (A) (A) (A) (A) (A) (A) (A) (A) (A) (A) (A)
                 (A) (A) (A) (A) (A) (A) (A) (A) (A) (A) (A) (A)
                 (A) (A) (A) (A) (A) (A) (A) (A) (A) (A) (A) (A)
                 (A) (A) (A) (A) (A) (A) (A) (A) (A) (A) (A) (A)
                 (A) (A) (A) (A) (A) (A) (A) (A) (A) (A) (A) (A)
                 (A) (A) (A) (A) (A) (A) (A) (A) (A) (A) (A) (A)
                 (A) (A) (A) (A) (A) (A) (A) (A) (A) (A) (A) (A)
                 (A) (A) (A) (A) (A) (A) (A) (A) (A) (A) (A) (A)
                 (A) (A) (A) (A) (A) (A) (A) (A) (A) (A) (A) (A)
                 (A) (A) (A) (A) (A) (A) (A) (A) (A) (A) (A) (A)
                 (A) (A) (A) (A) (A) (A) (A) (A) (A) (A) (A) (A)
                 (A) (A) (A) (A) (A) (A) (A) (A) (A) (A) (A) (A)
                 (A) (A) (A) (A) (A)
 The electronic state is 1-A.
 Alpha  occ. eigenvalues -- -101.61787-101.61377 -77.27093 -77.26678 -19.22975
 Alpha  occ. eigenvalues --  -19.22751 -10.34038 -10.30317 -10.30048 -10.27184
 Alpha  occ. eigenvalues --  -10.26652 -10.26211 -10.26130 -10.26123 -10.26079
 Alpha  occ. eigenvalues --  -10.25843 -10.25819 -10.25788 -10.25741 -10.25544
 Alpha  occ. eigenvalues --  -10.25072 -10.24970 -10.24612 -10.24574 -10.24477
 Alpha  occ. eigenvalues --  -10.24455 -10.24436 -10.24328 -10.24246 -10.24197
 Alpha  occ. eigenvalues --  -10.24136 -10.24041 -10.24015 -10.23907 -10.23898
 Alpha  occ. eigenvalues --  -10.22402 -10.21816  -9.44305  -9.43885  -7.17506
 Alpha  occ. eigenvalues --   -7.17098  -7.17022  -7.16979  -7.16618  -7.16535
 Alpha  occ. eigenvalues --   -6.66315  -6.65830  -4.79920  -4.79874  -4.79645
 Alpha  occ. eigenvalues --   -4.79421  -4.79380  -4.79195  -3.52442  -2.20152
 Alpha  occ. eigenvalues --   -2.20009  -2.16749  -1.12711  -1.03481  -0.91047
 Alpha  occ. eigenvalues --   -0.89510  -0.89027  -0.88881  -0.86197  -0.81978
 Alpha  occ. eigenvalues --   -0.81085  -0.79706  -0.78867  -0.78089  -0.77849
 Alpha  occ. eigenvalues --   -0.77800  -0.77751  -0.77657  -0.77324  -0.74563
 Alpha  occ. eigenvalues --   -0.73609  -0.72417  -0.70682  -0.68436  -0.66296
 Alpha  occ. eigenvalues --   -0.65141  -0.64037  -0.63625  -0.63145  -0.63065
 Alpha  occ. eigenvalues --   -0.62742  -0.62272  -0.61129  -0.59497  -0.58461
 Alpha  occ. eigenvalues --   -0.56386  -0.55030  -0.54221  -0.53409  -0.53115
 Alpha  occ. eigenvalues --   -0.51238  -0.49688  -0.49292  -0.48680  -0.48551
 Alpha  occ. eigenvalues --   -0.48314  -0.47826  -0.47547  -0.47524  -0.47331
 Alpha  occ. eigenvalues --   -0.47014  -0.46612  -0.46166  -0.45836  -0.45181
 Alpha  occ. eigenvalues --   -0.44572  -0.44258  -0.44123  -0.43881  -0.43134
 Alpha  occ. eigenvalues --   -0.42863  -0.42075  -0.41727  -0.41039  -0.40938
 Alpha  occ. eigenvalues --   -0.40316  -0.40027  -0.39654  -0.39440  -0.38922
 Alpha  occ. eigenvalues --   -0.38575  -0.38526  -0.37764  -0.37663  -0.37246
 Alpha  occ. eigenvalues --   -0.36975  -0.36907  -0.36602  -0.36516  -0.36219
 Alpha  occ. eigenvalues --   -0.36180  -0.35555  -0.34918  -0.33810  -0.31569
 Alpha  occ. eigenvalues --   -0.31529  -0.30973  -0.30575  -0.29750  -0.29381
 Alpha  occ. eigenvalues --   -0.29017  -0.28442  -0.27947  -0.27822  -0.27616
 Alpha  occ. eigenvalues --   -0.27530  -0.27266  -0.26951  -0.26261  -0.25118
 Alpha  occ. eigenvalues --   -0.24349  -0.23984  -0.23424
 Alpha virt. eigenvalues --   -0.07419  -0.05615  -0.04770  -0.04361  -0.02974
 Alpha virt. eigenvalues --   -0.02779  -0.02257  -0.01951  -0.01539  -0.00099
 Alpha virt. eigenvalues --    0.00852   0.02692   0.03482   0.03679   0.03858
 Alpha virt. eigenvalues --    0.04684   0.04822   0.05287   0.05688   0.06122
 Alpha virt. eigenvalues --    0.06837   0.07054   0.07361   0.07625   0.07978
 Alpha virt. eigenvalues --    0.08145   0.08430   0.08818   0.08899   0.09161
 Alpha virt. eigenvalues --    0.09632   0.09667   0.09947   0.10093   0.10294
 Alpha virt. eigenvalues --    0.10556   0.10767   0.11000   0.11434   0.11506
 Alpha virt. eigenvalues --    0.12017   0.12175   0.12614   0.12895   0.13036
 Alpha virt. eigenvalues --    0.13246   0.13614   0.13913   0.14098   0.14492
 Alpha virt. eigenvalues --    0.14727   0.15000   0.15429   0.15967   0.16515
 Alpha virt. eigenvalues --    0.16635   0.16727   0.16984   0.17456   0.17673
 Alpha virt. eigenvalues --    0.17951   0.18132   0.18340   0.18590   0.19094
 Alpha virt. eigenvalues --    0.19488   0.19827   0.20041   0.20065   0.20390
 Alpha virt. eigenvalues --    0.20467   0.21131   0.21281   0.21500   0.21552
 Alpha virt. eigenvalues --    0.21904   0.22099   0.22208   0.22436   0.22719
 Alpha virt. eigenvalues --    0.23040   0.23268   0.23407   0.23811   0.23906
 Alpha virt. eigenvalues --    0.24195   0.24333   0.24523   0.24728   0.25138
 Alpha virt. eigenvalues --    0.25370   0.25740   0.25936   0.26090   0.26288
 Alpha virt. eigenvalues --    0.26484   0.26703   0.26839   0.27048   0.27198
 Alpha virt. eigenvalues --    0.27574   0.28171   0.28215   0.28606   0.29143
 Alpha virt. eigenvalues --    0.29480   0.29883   0.30028   0.30362   0.30677
 Alpha virt. eigenvalues --    0.30938   0.31131   0.31483   0.31694   0.31984
 Alpha virt. eigenvalues --    0.32358   0.32782   0.32910   0.33076   0.33193
 Alpha virt. eigenvalues --    0.33489   0.33704   0.33824   0.34422   0.34741
 Alpha virt. eigenvalues --    0.35318   0.35539   0.35601   0.35856   0.35998
 Alpha virt. eigenvalues --    0.36275   0.36559   0.36969   0.37020   0.37363
 Alpha virt. eigenvalues --    0.37513   0.37723   0.38075   0.38230   0.38480
 Alpha virt. eigenvalues --    0.38636   0.38816   0.39106   0.39113   0.39448
 Alpha virt. eigenvalues --    0.39842   0.39908   0.40099   0.40289   0.40518
 Alpha virt. eigenvalues --    0.40648   0.41042   0.41088   0.41299   0.41810
 Alpha virt. eigenvalues --    0.42048   0.42300   0.42609   0.42937   0.43024
 Alpha virt. eigenvalues --    0.43135   0.43279   0.43375   0.43592   0.43801
 Alpha virt. eigenvalues --    0.44088   0.44302   0.44453   0.44770   0.44967
 Alpha virt. eigenvalues --    0.45166   0.45282   0.45540   0.45738   0.46069
 Alpha virt. eigenvalues --    0.46440   0.46522   0.46642   0.46784   0.46879
 Alpha virt. eigenvalues --    0.47132   0.47354   0.47525   0.47659   0.48089
 Alpha virt. eigenvalues --    0.48444   0.48673   0.48782   0.48947   0.49285
 Alpha virt. eigenvalues --    0.49382   0.49690   0.49987   0.50322   0.50578
 Alpha virt. eigenvalues --    0.50799   0.51214   0.51345   0.51496   0.51894
 Alpha virt. eigenvalues --    0.51915   0.52261   0.52764   0.52969   0.53160
 Alpha virt. eigenvalues --    0.53342   0.53781   0.54226   0.54365   0.54639
 Alpha virt. eigenvalues --    0.54857   0.55138   0.55573   0.56090   0.56619
 Alpha virt. eigenvalues --    0.56704   0.57124   0.57254   0.57530   0.57984
 Alpha virt. eigenvalues --    0.58377   0.59038   0.59235   0.59712   0.60301
 Alpha virt. eigenvalues --    0.60522   0.60968   0.61706   0.62134   0.62340
 Alpha virt. eigenvalues --    0.62695   0.62999   0.63145   0.63837   0.64325
 Alpha virt. eigenvalues --    0.64369   0.64770   0.65124   0.65515   0.65840
 Alpha virt. eigenvalues --    0.66256   0.66322   0.66611   0.66868   0.67228
 Alpha virt. eigenvalues --    0.67499   0.67758   0.68238   0.68508   0.68779
 Alpha virt. eigenvalues --    0.69173   0.69408   0.69574   0.69903   0.70147
 Alpha virt. eigenvalues --    0.70530   0.70631   0.70775   0.71034   0.71291
 Alpha virt. eigenvalues --    0.71824   0.72319   0.72540   0.72742   0.73009
 Alpha virt. eigenvalues --    0.73549   0.74048   0.74134   0.74497   0.74916
 Alpha virt. eigenvalues --    0.74987   0.75388   0.75498   0.75943   0.76304
 Alpha virt. eigenvalues --    0.76384   0.76793   0.77387   0.77574   0.78086
 Alpha virt. eigenvalues --    0.78183   0.78627   0.78795   0.79320   0.79538
 Alpha virt. eigenvalues --    0.80036   0.80084   0.80516   0.81079   0.81136
 Alpha virt. eigenvalues --    0.81543   0.81714   0.81951   0.82428   0.82659
 Alpha virt. eigenvalues --    0.83287   0.83461   0.83641   0.84013   0.84808
 Alpha virt. eigenvalues --    0.85155   0.85446   0.85744   0.86425   0.86849
 Alpha virt. eigenvalues --    0.87345   0.87492   0.87820   0.88298   0.88682
 Alpha virt. eigenvalues --    0.89112   0.89440   0.90039   0.90263   0.90648
 Alpha virt. eigenvalues --    0.90727   0.91259   0.91475   0.91753   0.92139
 Alpha virt. eigenvalues --    0.92434   0.92778   0.93059   0.93189   0.93784
 Alpha virt. eigenvalues --    0.94258   0.94396   0.95380   0.95465   0.95682
 Alpha virt. eigenvalues --    0.95975   0.96398   0.96893   0.97382   0.97752
 Alpha virt. eigenvalues --    0.98711   0.98994   0.99339   0.99869   1.00176
 Alpha virt. eigenvalues --    1.01016   1.01757   1.02351   1.02603   1.03236
 Alpha virt. eigenvalues --    1.03686   1.03906   1.04538   1.05096   1.05172
 Alpha virt. eigenvalues --    1.05708   1.05930   1.06221   1.06737   1.07020
 Alpha virt. eigenvalues --    1.07357   1.07963   1.08402   1.08916   1.09253
 Alpha virt. eigenvalues --    1.09406   1.10292   1.10861   1.11050   1.11430
 Alpha virt. eigenvalues --    1.11863   1.12577   1.13039   1.13379   1.13832
 Alpha virt. eigenvalues --    1.14346   1.14714   1.15004   1.15632   1.16025
 Alpha virt. eigenvalues --    1.16564   1.16786   1.17031   1.17462   1.18240
 Alpha virt. eigenvalues --    1.18645   1.19091   1.19384   1.19614   1.20242
 Alpha virt. eigenvalues --    1.20951   1.21039   1.21593   1.22176   1.22308
 Alpha virt. eigenvalues --    1.23086   1.23175   1.23585   1.23917   1.24188
 Alpha virt. eigenvalues --    1.24825   1.24977   1.25311   1.25541   1.25933
 Alpha virt. eigenvalues --    1.26206   1.26485   1.26949   1.27205   1.27378
 Alpha virt. eigenvalues --    1.27808   1.28208   1.28614   1.28880   1.29202
 Alpha virt. eigenvalues --    1.29390   1.29896   1.30294   1.30582   1.30863
 Alpha virt. eigenvalues --    1.31371   1.31887   1.32315   1.32490   1.32742
 Alpha virt. eigenvalues --    1.33270   1.33751   1.34068   1.34563   1.34695
 Alpha virt. eigenvalues --    1.35240   1.35801   1.36441   1.36857   1.37424
 Alpha virt. eigenvalues --    1.38040   1.38451   1.39455   1.39968   1.41077
 Alpha virt. eigenvalues --    1.41433   1.42507   1.42765   1.43417   1.43689
 Alpha virt. eigenvalues --    1.44263   1.44506   1.44802   1.45072   1.45681
 Alpha virt. eigenvalues --    1.46371   1.46653   1.47300   1.47502   1.47956
 Alpha virt. eigenvalues --    1.48383   1.48474   1.49442   1.49672   1.50304
 Alpha virt. eigenvalues --    1.50524   1.50707   1.50973   1.51650   1.51817
 Alpha virt. eigenvalues --    1.52112   1.52405   1.53099   1.53618   1.54317
 Alpha virt. eigenvalues --    1.54438   1.54472   1.54955   1.55255   1.55590
 Alpha virt. eigenvalues --    1.56069   1.56613   1.56946   1.57204   1.57385
 Alpha virt. eigenvalues --    1.57525   1.58822   1.59109   1.59319   1.59622
 Alpha virt. eigenvalues --    1.59987   1.60823   1.60938   1.61275   1.62055
 Alpha virt. eigenvalues --    1.62288   1.62732   1.62866   1.63177   1.63789
 Alpha virt. eigenvalues --    1.63882   1.64447   1.64824   1.65256   1.65729
 Alpha virt. eigenvalues --    1.65939   1.66237   1.66778   1.67231   1.67361
 Alpha virt. eigenvalues --    1.67569   1.68180   1.68550   1.68811   1.69361
 Alpha virt. eigenvalues --    1.69724   1.70072   1.70458   1.70808   1.70857
 Alpha virt. eigenvalues --    1.70979   1.71628   1.71985   1.72074   1.72499
 Alpha virt. eigenvalues --    1.72856   1.73058   1.73130   1.73575   1.74495
 Alpha virt. eigenvalues --    1.74809   1.75148   1.75302   1.76153   1.76385
 Alpha virt. eigenvalues --    1.76914   1.77189   1.78416   1.78534   1.78797
 Alpha virt. eigenvalues --    1.78967   1.79186   1.79809   1.80079   1.80494
 Alpha virt. eigenvalues --    1.80878   1.81164   1.82112   1.82472   1.82710
 Alpha virt. eigenvalues --    1.83832   1.84138   1.84978   1.85398   1.85915
 Alpha virt. eigenvalues --    1.86272   1.87471   1.88123   1.88801   1.89460
 Alpha virt. eigenvalues --    1.89795   1.90019   1.90162   1.90521   1.90973
 Alpha virt. eigenvalues --    1.91388   1.92048   1.93006   1.93211   1.93370
 Alpha virt. eigenvalues --    1.93556   1.94085   1.94928   1.95369   1.96069
 Alpha virt. eigenvalues --    1.96580   1.96975   1.97377   1.97642   1.97925
 Alpha virt. eigenvalues --    1.98506   1.98944   1.99373   2.00238   2.00452
 Alpha virt. eigenvalues --    2.00769   2.01226   2.01410   2.01631   2.02159
 Alpha virt. eigenvalues --    2.02774   2.03011   2.03203   2.03915   2.04204
 Alpha virt. eigenvalues --    2.04481   2.04972   2.05259   2.05606   2.05950
 Alpha virt. eigenvalues --    2.06558   2.07053   2.07176   2.07677   2.08101
 Alpha virt. eigenvalues --    2.08242   2.08727   2.09332   2.09683   2.09842
 Alpha virt. eigenvalues --    2.10464   2.10688   2.11388   2.11742   2.12174
 Alpha virt. eigenvalues --    2.12356   2.12877   2.13527   2.13638   2.13794
 Alpha virt. eigenvalues --    2.14312   2.14552   2.15003   2.15160   2.15770
 Alpha virt. eigenvalues --    2.16010   2.16406   2.16569   2.16714   2.17819
 Alpha virt. eigenvalues --    2.18149   2.18273   2.18483   2.19202   2.19400
 Alpha virt. eigenvalues --    2.19728   2.19984   2.20607   2.20743   2.21541
 Alpha virt. eigenvalues --    2.21834   2.22421   2.22934   2.23465   2.23808
 Alpha virt. eigenvalues --    2.24264   2.24542   2.24607   2.25249   2.25651
 Alpha virt. eigenvalues --    2.26347   2.26738   2.27192   2.27719   2.28453
 Alpha virt. eigenvalues --    2.28908   2.29197   2.29814   2.30863   2.31241
 Alpha virt. eigenvalues --    2.31630   2.32759   2.33333   2.33555   2.33808
 Alpha virt. eigenvalues --    2.34959   2.35179   2.36173   2.36515   2.37617
 Alpha virt. eigenvalues --    2.38594   2.38624   2.38831   2.39145   2.39786
 Alpha virt. eigenvalues --    2.40362   2.40631   2.40690   2.41218   2.41783
 Alpha virt. eigenvalues --    2.42117   2.42599   2.42914   2.43459   2.44212
 Alpha virt. eigenvalues --    2.44592   2.44877   2.45487   2.46162   2.46462
 Alpha virt. eigenvalues --    2.46845   2.47015   2.47297   2.47866   2.48462
 Alpha virt. eigenvalues --    2.49186   2.49291   2.49859   2.50277   2.50572
 Alpha virt. eigenvalues --    2.50950   2.51448   2.52073   2.52420   2.53282
 Alpha virt. eigenvalues --    2.53504   2.54064   2.54463   2.55240   2.56212
 Alpha virt. eigenvalues --    2.56502   2.56913   2.57312   2.57854   2.58395
 Alpha virt. eigenvalues --    2.58607   2.58855   2.59229   2.60217   2.60370
 Alpha virt. eigenvalues --    2.60601   2.61073   2.61542   2.61977   2.62622
 Alpha virt. eigenvalues --    2.62763   2.62911   2.63025   2.63252   2.63753
 Alpha virt. eigenvalues --    2.63839   2.64581   2.64800   2.64910   2.65471
 Alpha virt. eigenvalues --    2.65714   2.65827   2.66070   2.66390   2.66494
 Alpha virt. eigenvalues --    2.66824   2.67041   2.67466   2.67715   2.68360
 Alpha virt. eigenvalues --    2.68695   2.69017   2.69325   2.69664   2.69891
 Alpha virt. eigenvalues --    2.70132   2.70437   2.70534   2.71008   2.71338
 Alpha virt. eigenvalues --    2.71676   2.71932   2.72646   2.72934   2.73133
 Alpha virt. eigenvalues --    2.73973   2.74203   2.74580   2.74760   2.75017
 Alpha virt. eigenvalues --    2.75707   2.75853   2.75918   2.76330   2.76967
 Alpha virt. eigenvalues --    2.77095   2.77219   2.77797   2.78054   2.78531
 Alpha virt. eigenvalues --    2.78722   2.78971   2.79607   2.79893   2.80110
 Alpha virt. eigenvalues --    2.80361   2.81043   2.81347   2.81925   2.82159
 Alpha virt. eigenvalues --    2.82544   2.83033   2.83277   2.83772   2.83992
 Alpha virt. eigenvalues --    2.84394   2.84954   2.85348   2.85560   2.85598
 Alpha virt. eigenvalues --    2.86059   2.86553   2.86904   2.87079   2.87229
 Alpha virt. eigenvalues --    2.87437   2.88050   2.88080   2.88681   2.88992
 Alpha virt. eigenvalues --    2.89542   2.89794   2.90099   2.90703   2.91392
 Alpha virt. eigenvalues --    2.92180   2.92475   2.92891   2.93342   2.93692
 Alpha virt. eigenvalues --    2.94077   2.94832   2.95067   2.95606   2.95848
 Alpha virt. eigenvalues --    2.96589   2.97762   2.98573   2.99131   2.99599
 Alpha virt. eigenvalues --    3.00087   3.00273   3.00598   3.01328   3.01766
 Alpha virt. eigenvalues --    3.03107   3.03909   3.04708   3.05293   3.06064
 Alpha virt. eigenvalues --    3.06168   3.06882   3.08275   3.09084   3.09152
 Alpha virt. eigenvalues --    3.09580   3.10658   3.10881   3.11533   3.11789
 Alpha virt. eigenvalues --    3.11991   3.12271   3.12741   3.13223   3.13305
 Alpha virt. eigenvalues --    3.13757   3.14020   3.14273   3.14571   3.15083
 Alpha virt. eigenvalues --    3.15437   3.15647   3.15833   3.15944   3.16145
 Alpha virt. eigenvalues --    3.16669   3.16805   3.17512   3.17622   3.18067
 Alpha virt. eigenvalues --    3.18382   3.18735   3.19256   3.19555   3.20150
 Alpha virt. eigenvalues --    3.20223   3.20672   3.20923   3.21361   3.21779
 Alpha virt. eigenvalues --    3.22325   3.22735   3.22932   3.23446   3.23575
 Alpha virt. eigenvalues --    3.24624   3.24961   3.25131   3.25921   3.26456
 Alpha virt. eigenvalues --    3.26579   3.27034   3.27252   3.27536   3.27812
 Alpha virt. eigenvalues --    3.28674   3.29389   3.29689   3.29951   3.30326
 Alpha virt. eigenvalues --    3.30714   3.31221   3.31459   3.32117   3.32257
 Alpha virt. eigenvalues --    3.32673   3.32981   3.33349   3.33679   3.33987
 Alpha virt. eigenvalues --    3.34495   3.34570   3.34794   3.34935   3.35381
 Alpha virt. eigenvalues --    3.35523   3.36119   3.36411   3.36970   3.36983
 Alpha virt. eigenvalues --    3.37524   3.37705   3.38047   3.38424   3.38534
 Alpha virt. eigenvalues --    3.38784   3.39574   3.39918   3.40146   3.40560
 Alpha virt. eigenvalues --    3.40659   3.40992   3.41161   3.41653   3.41833
 Alpha virt. eigenvalues --    3.42115   3.42393   3.42910   3.43143   3.43618
 Alpha virt. eigenvalues --    3.44374   3.44823   3.45088   3.45470   3.45927
 Alpha virt. eigenvalues --    3.46498   3.46582   3.47003   3.47355   3.47651
 Alpha virt. eigenvalues --    3.47914   3.48344   3.48830   3.49020   3.49209
 Alpha virt. eigenvalues --    3.49941   3.50090   3.50605   3.50863   3.51340
 Alpha virt. eigenvalues --    3.51846   3.52282   3.52550   3.52821   3.53058
 Alpha virt. eigenvalues --    3.53253   3.53512   3.53788   3.54144   3.54395
 Alpha virt. eigenvalues --    3.54762   3.55278   3.56000   3.56505   3.56788
 Alpha virt. eigenvalues --    3.56959   3.57738   3.58586   3.58881   3.59314
 Alpha virt. eigenvalues --    3.59722   3.60356   3.60683   3.61817   3.62563
 Alpha virt. eigenvalues --    3.63775   3.64312   3.64945   3.65510   3.66815
 Alpha virt. eigenvalues --    3.67419   3.67829   3.68902   3.68985   3.69291
 Alpha virt. eigenvalues --    3.69710   3.70345   3.70523   3.70801   3.71327
 Alpha virt. eigenvalues --    3.71867   3.72058   3.73467   3.73845   3.74283
 Alpha virt. eigenvalues --    3.75251   3.75592   3.76355   3.76427   3.76780
 Alpha virt. eigenvalues --    3.77338   3.77656   3.80100   3.83070   3.85126
 Alpha virt. eigenvalues --    3.85419   3.86274   3.87222   3.88781   3.90008
 Alpha virt. eigenvalues --    3.90380   3.91112   3.91496   3.92603   3.92683
 Alpha virt. eigenvalues --    3.93409   3.93854   3.94694   3.94723   3.95207
 Alpha virt. eigenvalues --    3.95792   3.97534   3.99193   3.99494   4.00948
 Alpha virt. eigenvalues --    4.01566   4.01973   4.02408   4.02800   4.03451
 Alpha virt. eigenvalues --    4.03539   4.03922   4.04259   4.05707   4.06152
 Alpha virt. eigenvalues --    4.06752   4.07517   4.08081   4.08356   4.08593
 Alpha virt. eigenvalues --    4.09101   4.10254   4.10333   4.10975   4.11893
 Alpha virt. eigenvalues --    4.12137   4.12628   4.13533   4.13952   4.14527
 Alpha virt. eigenvalues --    4.15606   4.16497   4.17493   4.17685   4.18217
 Alpha virt. eigenvalues --    4.18825   4.19161   4.19234   4.19589   4.19777
 Alpha virt. eigenvalues --    4.19850   4.20209   4.20661   4.20892   4.21049
 Alpha virt. eigenvalues --    4.21554   4.21937   4.22240   4.22506   4.24052
 Alpha virt. eigenvalues --    4.24524   4.24788   4.24936   4.25529   4.26193
 Alpha virt. eigenvalues --    4.26257   4.26585   4.26790   4.27465   4.27980
 Alpha virt. eigenvalues --    4.28342   4.29397   4.30306   4.30980   4.33239
 Alpha virt. eigenvalues --    4.33423   4.35133   4.35325   4.35869   4.36172
 Alpha virt. eigenvalues --    4.36938   4.38958   4.39411   4.40706   4.42107
 Alpha virt. eigenvalues --    4.43924   4.44997   4.46767   4.49189   4.54063
 Alpha virt. eigenvalues --    4.55777   4.58372   4.59065   4.59504   4.60449
 Alpha virt. eigenvalues --    4.61201   4.61466   4.61616   4.62313   4.62789
 Alpha virt. eigenvalues --    4.63003   4.63108   4.64315   4.64546   4.65208
 Alpha virt. eigenvalues --    4.67697   4.70734   4.71851   4.72330   4.73385
 Alpha virt. eigenvalues --    4.74003   4.74510   4.74763   4.76336   4.78624
 Alpha virt. eigenvalues --    4.80703   4.83242   4.84761   4.85214   4.85632
 Alpha virt. eigenvalues --    4.89906   4.90949   4.91376   4.91692   4.92505
 Alpha virt. eigenvalues --    4.93061   4.93413   4.94243   4.94488   4.95518
 Alpha virt. eigenvalues --    4.98233   5.00334   5.04213   5.10883   5.11283
 Alpha virt. eigenvalues --    5.11623   5.12274   5.12670   5.12976   5.13652
 Alpha virt. eigenvalues --    5.13825   5.14248   5.14900   5.24526   5.25568
 Alpha virt. eigenvalues --    5.26216   5.26340   5.31714   5.33022   5.34103
 Alpha virt. eigenvalues --    5.34448   5.38297   5.39075   5.40875   5.41690
 Alpha virt. eigenvalues --    5.41932   5.42698   5.54217   5.55051   5.57008
 Alpha virt. eigenvalues --    5.57287   5.57789   5.58583   5.76536   5.82805
 Alpha virt. eigenvalues --    5.85082   5.86124   5.90121   5.91426   6.08619
 Alpha virt. eigenvalues --    6.19601   6.23212   6.29109   6.73344   6.78402
 Alpha virt. eigenvalues --    6.84920   6.94841   6.97210   7.06742   7.24265
 Alpha virt. eigenvalues --    7.29986   7.40377   7.47740   7.82708   7.90086
 Alpha virt. eigenvalues --    7.93567   7.99503   8.02336   8.04970  10.93131
 Alpha virt. eigenvalues --   10.94592  10.96144  11.03528  11.05723  11.08534
 Alpha virt. eigenvalues --   15.94894  16.03719  22.13023  22.13884  22.25614
 Alpha virt. eigenvalues --   22.30340  22.41421  22.48564  22.57946  22.59903
 Alpha virt. eigenvalues --   22.60670  22.61097  22.61740  22.62534  22.62922
 Alpha virt. eigenvalues --   22.64049  22.65521  22.66926  22.70080  22.74363
 Alpha virt. eigenvalues --   22.76652  22.77337  22.78415  22.80048  22.81467
 Alpha virt. eigenvalues --   22.83118  22.84534  22.87934  22.97383  23.13264
 Alpha virt. eigenvalues --   23.14668  23.15960  23.17017  25.53081  25.63802
 Alpha virt. eigenvalues --   40.32868  40.83721  41.01037  44.53789  44.59290
 Alpha virt. eigenvalues --   52.09138
          Condensed to atoms (all electrons):
 Mulliken charges:
               1
     1  P    0.289130
     2  P    0.126561
     3  O   -0.289218
     4  O   -0.306784
     5  C   -0.353262
     6  C    0.028196
     7  C    0.111131
     8  C   -0.312565
     9  C    0.317446
    10  C   -0.373270
    11  C   -0.364347
    12  C    0.146026
    13  C   -0.232898
    14  C   -0.119050
    15  C   -0.101688
    16  C   -0.148752
    17  C   -0.176097
    18  C   -0.115947
    19  C   -0.045393
    20  C   -0.141687
    21  C   -0.087427
    22  C   -0.131121
    23  C   -0.156087
    24  C    0.087793
    25  C   -0.154010
    26  C   -0.182650
    27  C   -0.093171
    28  C   -0.150971
    29  C   -0.101560
    30  C    0.171884
    31  C   -0.153694
    32  C   -0.165748
    33  C   -0.095358
    34  C   -0.154960
    35  C   -0.197641
    36  H    0.144825
    37  H    0.165974
    38  H    0.154251
    39  H    0.072578
    40  H    0.150104
    41  H    0.197424
    42  H    0.120662
    43  H    0.129897
    44  H    0.122658
    45  H    0.124835
    46  H    0.152570
    47  H    0.112274
    48  H    0.152130
    49  H    0.125264
    50  H    0.122882
    51  H    0.120815
    52  H    0.153005
    53  H    0.178480
    54  H    0.130255
    55  H    0.130339
    56  H    0.129738
    57  H    0.125307
    58  H    0.116201
    59  H    0.119069
    60  H    0.122394
    61  H    0.128429
    62  H    0.176307
    63  H    0.231734
    64  H    0.129259
    65  H    0.123264
    66  H    0.121547
    67  H    0.093770
    68  Cl  -0.400881
    69  Cl  -0.408972
    70  Pd   0.058799
 Sum of Mulliken charges =  -0.00000
 Mulliken charges with hydrogens summed into heavy atoms:
               1
     1  P    0.289130
     2  P    0.126561
     3  O   -0.289218
     4  O   -0.306784
     5  C   -0.042463
     6  C    0.182448
     7  C    0.183709
     8  C    0.034963
     9  C    0.317446
    10  C   -0.000052
    11  C    0.025332
    12  C    0.146026
    13  C   -0.080768
    14  C    0.006214
    15  C    0.021194
    16  C   -0.027937
    17  C   -0.023092
    18  C   -0.115947
    19  C    0.133088
    20  C   -0.011432
    21  C    0.042913
    22  C   -0.001383
    23  C   -0.030780
    24  C    0.087793
    25  C   -0.037809
    26  C   -0.063581
    27  C    0.029224
    28  C   -0.022542
    29  C    0.074747
    30  C    0.171884
    31  C    0.078040
    32  C   -0.036490
    33  C    0.027906
    34  C   -0.033413
    35  C   -0.103871
    68  Cl  -0.400881
    69  Cl  -0.408972
    70  Pd   0.058799
 Electronic spatial extent (au):  <R**2>=          19560.4962
 Charge=             -0.0000 electrons
 Dipole moment (field-independent basis, Debye):
    X=              1.1823    Y=             -3.2347    Z=             10.0686  Tot=             10.6414
 Quadrupole moment (field-independent basis, Debye-Ang):
   XX=           -240.1084   YY=           -252.0758   ZZ=           -272.5974
[...]
  1283. RY*(  22)Cl  69                  0.00000     2.15283   
  1284. RY*(  23)Cl  69                  0.00000     2.22570   
  1285. RY*(  24)Cl  69                  0.00000     2.17211   
  1286. RY*(  25)Cl  69                  0.00000     2.20174   
  1287. RY*(  26)Cl  69                  0.00000     2.15556   
  1288. RY*(  27)Cl  69                  0.00000     2.17266   
  1289. RY*(  28)Cl  69                  0.00000     2.19257   
  1290. RY*(   1)Pd  70                  0.00383     0.81749   
  1291. RY*(   2)Pd  70                  0.00328     1.56707   
  1292. RY*(   3)Pd  70                  0.00185     1.17533   
  1293. RY*(   4)Pd  70                  0.00130     0.85373   
  1294. RY*(   5)Pd  70                  0.00080     0.79461   
  1295. RY*(   6)Pd  70                  0.00076     1.03830   
  1296. RY*(   7)Pd  70                  0.00065     0.98832   
  1297. RY*(   8)Pd  70                  0.00060     1.37667   
  1298. RY*(   9)Pd  70                  0.00053     0.96840   
  1299. RY*(  10)Pd  70                  0.00038     0.77107   
  1300. RY*(  11)Pd  70                  0.00027    10.29908   
  1301. RY*(  12)Pd  70                  0.00024     1.26755   
  1302. RY*(  13)Pd  70                  0.00021     1.60693   
  1303. RY*(  14)Pd  70                  0.00013    13.12299   
  1304. RY*(  15)Pd  70                  0.00013     1.34623   
  1305. RY*(  16)Pd  70                  0.00010     2.90514   
  1306. RY*(  17)Pd  70                  0.00010    10.74254   
  1307. RY*(  18)Pd  70                  0.00007     1.01696   
  1308. RY*(  19)Pd  70                  0.00006     4.63372   
  1309. RY*(  20)Pd  70                  0.00003     1.67376   
  1310. RY*(  21)Pd  70                  0.00000    39.51880   
  1311. RY*(  22)Pd  70                  0.00000    39.61510   
  1312. RY*(  23)Pd  70                  0.00000    39.37626   
  1313. BD*(   1) P   1 - C   5          0.06189     0.16504   
  1314. BD*(   1) P   1 - C  12          0.07206     0.19878   
  1315. BD*(   1) P   1 - C  18          0.06296     0.19573   
  1316. BD*(   1) P   1 -Pd  70          0.17311     0.58405  1320(g),1308(g),1291(g)
                                                    160(g),1306(g),1303(g)
                                                    1300(g),188(v),1297(g)
                                                    1307(g),1298(g),1305(g)
                                                    1238(v),1296(g),1309(g)
                                                    1295(g),1266(v),763(r)
                                                    198(v),169(g),451(v),1293(g)
                                                    196(v),607(v),174(g),919(r)
                                                    1239(v),1267(v),1304(g)
                                                    268(v),171(g),1302(g)
                                                    1241(v),1268(v),168(g)
                                                    346(r),1399(g),1294(g)
                                                    1299(g),1240(v),189(v)
                                                    1237(v),1089(r),1159(r)
                                                    197(v),452(v),161(g),762(r)
                                                    918(r),190(v),1024(r),349(r)
                                                    946(r),894(r),765(r),606(v)
                                                    162(g),176(g),767(r),450(v)
                                                    790(r),191(v),206(v),896(r)
                                                    272(v),1154(r),1243(v)
                                                    1360(r),948(r),454(v),201(v)
                                                    1052(r),1235(v),769(r)
                                                    792(r),348(r),300(r),194(v)
                                                    635(r),1084(r),613(v),175(g)
                                                    276(v),1359(r),279(v),193(v)
                                                    609(v),611(v),1050(r),273(v)
                                                    204(v),633(r),1229(r)
                                                    1329(r),1049(r),899(r)
                                                    208(v),740(r),1242(v),354(r)
                                                    636(r),1074(r),490(r),771(r)
                                                    952(r),1139(r),297(r),739(r)
                                                    926(r),455(v),269(v),618(v)
                                                    737(r),1276(v),177(g),459(v)
                                                    479(r),351(r),1311(g),585(r)
                                                    1259(v),458(v),1345(r)
                                                    791(r),166(g),456(v),1135(r)
                                                    945(r),462(v),1356(v),281(v)
                                                    1248(v),1398(g)
  1317. BD*(   1) P   2 - C   8          0.07860     0.16878   
  1318. BD*(   1) P   2 - C  24          0.07583     0.19626   
  1319. BD*(   1) P   2 - C  30          0.07640     0.19699   
  1320. BD*(   1) P   2 -Pd  70          0.16799     0.65180  1316(g),1307(g),1291(g)
                                                    1298(g),1308(g),1306(g)
                                                    188(g),1303(g),160(v)
                                                    1300(g),1305(g),1297(g)
                                                    1293(g),1295(g),1238(v)
                                                    1296(g),1304(g),1309(g)
                                                    1266(v),198(g),763(v),451(r)
                                                    169(v),921(v),1239(v)
                                                    1267(v),196(g),919(v)
                                                    1299(g),1268(v),607(r)
                                                    174(v),346(v),1398(g),168(v)
                                                    190(g),1241(v),268(r),171(v)
                                                    765(v),189(g),1237(v),197(g)
                                                    349(v),452(r),161(v),1154(r)
                                                    1240(v),1302(g),450(r)
                                                    191(g),1089(r),894(r),762(v)
                                                    918(v),162(v),1294(g),767(v)
                                                    606(r),1159(r),946(r),206(g)
                                                    1052(r),1084(r),176(v)
                                                    790(r),201(g),194(g),348(v)
                                                    792(r),769(v),896(r),300(r)
                                                    1243(v),948(r),635(r),634(r)
                                                    454(r),272(r),1050(r)
                                                    1134(r),1049(r),193(g)
                                                    1139(r),175(v),1290(g)
                                                    1229(r),1388(r),204(g)
                                                    279(r),354(v),926(v),945(r)
                                                    611(r),1263(v),269(r),273(r)
                                                    1312(g),1242(v),1329(r)
                                                    276(r),618(r),613(r),791(r)
                                                    1383(r),636(r),490(r),609(r)
                                                    208(g),177(v),351(v),1276(v)
                                                    1271(v),610(r),739(r),899(r)
                                                    1387(r),740(r),202(g),456(r)
                                                    952(r),1248(v),1384(v)
                                                    298(r),1360(r),585(r),893(r)
                                                    181(v),357(v),458(r),462(r)
                                                    353(v),1135(r),476(r)
                                                    1381(r),633(r),455(r),817(r)
                                                    173(v),1025(r),583(r)
  1321. BD*(   1) O   3 - C   6          0.03125     0.26994   
  1322. BD*(   1) O   3 - C   9          0.06179     0.25252   
  1323. BD*(   1) O   4 - C   7          0.02745     0.26763   
  1324. BD*(   1) O   4 - C   9          0.06581     0.24717   
  1325. BD*(   1) C   5 - C   6          0.02188     0.32528   
  1326. BD*(   1) C   5 - H  36          0.01859     0.33543   
  1327. BD*(   1) C   5 - H  37          0.01172     0.33666   
  1328. BD*(   1) C   6 - C   7          0.04823     0.30512   
  1329. BD*(   1) C   6 - H  38          0.04231     0.34149   
  1330. BD*(   1) C   7 - C   8          0.02416     0.31845   
  1331. BD*(   1) C   7 - H  39          0.04346     0.31889   
  1332. BD*(   1) C   8 - H  40          0.01637     0.33888   
  1333. BD*(   1) C   8 - H  41          0.01074     0.35997   
  1334. BD*(   1) C   9 - C  10          0.03838     0.31798   
  1335. BD*(   1) C   9 - C  11          0.04090     0.31965   
  1336. BD*(   1) C  10 - H  42          0.00521     0.36406   
  1337. BD*(   1) C  10 - H  43          0.00535     0.36378   
  1338. BD*(   1) C  10 - H  44          0.00518     0.36392   
  1339. BD*(   1) C  11 - H  45          0.00549     0.36881   
  1340. BD*(   1) C  11 - H  46          0.00575     0.38433   
  1341. BD*(   1) C  11 - H  47          0.00551     0.36858   
  1342. BD*(   1) C  12 - C  13          0.02303     0.50879   
  1343. BD*(   1) C  12 - C  17          0.02452     0.51603   
  1344. BD*(   2) C  12 - C  17          0.37209     0.01402  1351(v),1346(v),1313(v)
                                                    582(g)
  1345. BD*(   1) C  13 - C  14          0.01535     0.54101   
  1346. BD*(   2) C  13 - C  14          0.29678     0.02658  1351(v),1344(v),504(g)
                                                    478(g)
  1347. BD*(   1) C  13 - H  48          0.01408     0.40976   
  1348. BD*(   1) C  14 - C  15          0.01443     0.52946   
  1349. BD*(   1) C  14 - H  49          0.01321     0.39837   
  1350. BD*(   1) C  15 - C  16          0.01430     0.53228   
  1351. BD*(   2) C  15 - C  16          0.31743     0.02074  1346(v),1344(v),530(g)
                                                    556(g)
  1352. BD*(   1) C  15 - H  50          0.01274     0.39907   
  1353. BD*(   1) C  16 - C  17          0.01481     0.53222   
  1354. BD*(   1) C  16 - H  51          0.01318     0.39620   
  1355. BD*(   1) C  17 - H  52          0.01494     0.39974   
  1356. BD*(   1) C  18 - C  19          0.02433     0.49645   
  1357. BD*(   2) C  18 - C  19          0.37113    -0.00468  1367(v),1362(v),1314(v)
                                                    634(g),1313(v)
  1358. BD*(   1) C  18 - C  23          0.02844     0.49608   
  1359. BD*(   1) C  19 - C  20          0.01678     0.52166   
  1360. BD*(   1) C  19 - H  53          0.01591     0.41102   
  1361. BD*(   1) C  20 - C  21          0.01433     0.51178   
  1362. BD*(   2) C  20 - C  21          0.31148     0.00294  1367(v),1357(v),686(g)
                                                    660(g)
  1363. BD*(   1) C  20 - H  54          0.01331     0.38557   
  1364. BD*(   1) C  21 - C  22          0.01442     0.50844   
  1365. BD*(   1) C  21 - H  55          0.01281     0.38319   
  1366. BD*(   1) C  22 - C  23          0.01571     0.51250   
  1367. BD*(   2) C  22 - C  23          0.31640    -0.00056  1362(v),1357(v),712(g)
  1368. BD*(   1) C  22 - H  56          0.01327     0.37932   
  1369. BD*(   1) C  23 - H  57          0.01649     0.38044   
  1370. BD*(   1) C  24 - C  25          0.02687     0.50700   
  1371. BD*(   1) C  24 - C  29          0.02363     0.51445   
  1372. BD*(   2) C  24 - C  29          0.35928     0.01793  1374(v),1379(v),1385(r)
                                                    1319(v),894(g),1317(v)
                                                    765(g)
  1373. BD*(   1) C  25 - C  26          0.01591     0.53360   
  1374. BD*(   2) C  25 - C  26          0.31583     0.01947  1379(v),1372(v),816(g)
                                                    1395(r),791(g)
  1375. BD*(   1) C  25 - H  58          0.01612     0.39841   
  1376. BD*(   1) C  26 - C  27          0.01461     0.52785   
  1377. BD*(   1) C  26 - H  59          0.01358     0.39385   
  1378. BD*(   1) C  27 - C  28          0.01449     0.53115   
  1379. BD*(   2) C  27 - C  28          0.31742     0.02044  1374(v),1372(v),868(g)
                                                    842(g)
  1380. BD*(   1) C  27 - H  60          0.01311     0.39880   
  1381. BD*(   1) C  28 - C  29          0.01635     0.54011   
  1382. BD*(   1) C  28 - H  61          0.01349     0.40224   
  1383. BD*(   1) C  29 - H  62          0.01779     0.43691   
  1384. BD*(   1) C  30 - C  31          0.02313     0.51390   
  1385. BD*(   2) C  30 - C  31          0.35759     0.01749  1390(v),1395(v),1372(r)
                                                    1317(v),946(g),1318(v)
                                                    921(g)
  1386. BD*(   1) C  30 - C  35          0.02643     0.50855   
  1387. BD*(   1) C  31 - C  32          0.01651     0.53975   
  1388. BD*(   1) C  31 - H  63          0.01623     0.43448   
  1389. BD*(   1) C  32 - C  33          0.01446     0.52876   
  1390. BD*(   2) C  32 - C  33          0.31912     0.01840  1385(v),1395(v),998(g)
                                                    972(g)
  1391. BD*(   1) C  32 - H  64          0.01349     0.39664   
  1392. BD*(   1) C  33 - C  34          0.01437     0.52572   
  1393. BD*(   1) C  33 - H  65          0.01291     0.39548   
  1394. BD*(   1) C  34 - C  35          0.01538     0.52961   
  1395. BD*(   2) C  34 - C  35          0.31914     0.01586  1385(v),1390(v),1024(g)
                                                    1374(r)
  1396. BD*(   1) C  34 - H  66          0.01327     0.39155   
  1397. BD*(   1) C  35 - H  67          0.01640     0.39064   
  1398. BD*(   1)Cl  68 -Pd  70          0.18753     0.17446  1399(g),1317(v),1320(g)
                                                    1303(g),188(v),1300(g)
                                                    1306(g),1307(g),1304(g)
                                                    1295(g),1308(g),1314(v)
                                                    1388(r),1291(g),1298(g)
                                                    160(v),1318(v),1309(g)
                                                    1383(r),198(v),1234(g)
                                                    1239(g),1293(g),1302(g)
                                                    1319(v),1305(g),190(v)
                                                    169(v),346(r),1316(g),763(r)
                                                    1312(g)
  1399. BD*(   1)Cl  69 -Pd  70          0.18477     0.14900  1398(g),1316(g),1297(g)
                                                    1300(g),1303(g),160(v)
                                                    1314(v),1309(g),1308(g)
                                                    1306(g),1313(v),1262(g)
                                                    1312(g),188(v),161(v)
                                                    1291(g),1266(g),607(r)
                                                    169(v)
       -------------------------------
              Total Lewis  336.96195  ( 97.9541%)
        Valence non-Lewis    6.48367  (  1.8848%)
        Rydberg non-Lewis    0.55439  (  0.1612%)
       -------------------------------
            Total unit  1  344.00000  (100.0000%)
           Charge unit  1    0.00000
 1\1\GINC-NC156\SP\RPBE1PBE\Gen\C31H32Cl2O2P2Pd1\MACKK4\05-Dec-2021\0\\
 # PBE1PBE gen pseudo=read int=(grid=ultrafine) empiricaldispersion=GD3
 BJ pop=nbo guess=read geom=check\\RR_DIOP_2 title\\0,1\P,0,1.248785055
 2,4.5917820416,-0.0776937166\P,0,-0.4893576798,3.062099832,-2.65196685
 79\O,0,-0.6170152744,1.282141516,1.4444661794\O,0,-0.4179027863,0.1263
 123908,-0.5500068573\C,0,0.7003267875,3.2445404068,1.0828440904\C,0,-0
 .1858365325,2.1952035338,0.4325588435\C,0,0.4732716018,1.2453605714,-0
 .5798281355\C,0,0.6468291134,1.7166367202,-2.028317781\C,0,-1.01717154
 8,0.072467018,0.767710411\C,0,-0.4496252082,-1.106752185,1.5542769008\
 C,0,-2.5345326106,0.0253061509,0.6011092987\C,0,1.8689665259,5.8382668
 52,1.116828444\C,0,0.9679603594,6.3986256759,2.0453392565\C,0,1.426129
 3085,7.3115374405,3.0001179344\C,0,2.7774558354,7.6894601487,3.0243016
 781\C,0,3.6697188944,7.151572792,2.0886869825\C,0,3.2197864393,6.22745
 19061,1.1347232212\C,0,2.7648689441,3.9759833667,-0.9138772839\C,0,3.0
 09904435,4.4239325115,-2.2272225226\C,0,4.1244814503,3.9612540943,-2.9
 378512144\C,0,5.0081068682,3.0516860265,-2.3389730337\C,0,4.7832493098
 ,2.6184450243,-1.0233387162\C,0,3.6694460588,3.0807628257,-0.309079929
 6\C,0,-2.1549823399,2.2729944925,-2.5775823967\C,0,-2.3408700441,0.923
 0418532,-2.9406643049\C,0,-3.6128786482,0.3418194215,-2.8788733752\C,0
 ,-4.7084131582,1.0895674827,-2.424452912\C,0,-4.5242541444,2.421454098
 8,-2.0294272\C,0,-3.2569414081,3.0149808337,-2.1097137535\C,0,0.076838
 8955,3.1333142803,-4.406740273\C,0,0.594080879,4.3397059953,-4.9158274
 23\C,0,1.1261833654,4.3891800913,-6.2108558801\C,0,1.1365072005,3.2407
 7287,-7.0141355957\C,0,0.6090635627,2.0397641141,-6.5188167004\C,0,0.0
 857942042,1.9838513447,-5.2208411033\H,0,1.5710090453,2.7735636392,1.5
 715939838\H,0,0.1256593219,3.7524684064,1.8762464653\H,0,-1.0593824558
 ,2.6951397768,-0.0386875396\H,0,1.4715223614,0.9484938792,-0.184610640
 9\H,0,0.5552465168,0.8363560739,-2.6869594575\H,0,1.6650075537,2.10713
 81499,-2.1786718236\H,0,0.6493899433,-1.0379417592,1.59065064\H,0,-0.8
 380755935,-1.1001763716,2.5858438569\H,0,-0.7344773181,-2.0566759837,1
 .0739847755\H,0,-3.0206241757,-0.0560714521,1.5870343397\H,0,-2.891892
 4318,0.9362627703,0.0956966169\H,0,-2.8243889635,-0.842751855,-0.01271
 02467\H,0,-0.0957897611,6.1472069707,1.999791444\H,0,0.7200155162,7.74
 50648028,3.715218964\H,0,3.1308550198,8.4114458701,3.7674868726\H,0,4.
 7230098934,7.4500078141,2.0960228665\H,0,3.9225729746,5.8117033961,0.4
 073071633\H,0,2.2991814588,5.1150684599,-2.6927176315\H,0,4.2894257534
 ,4.3005624868,-3.9652458822\H,0,5.8728108349,2.6782099907,-2.896683873
 3\H,0,5.4757207965,1.9141378464,-0.5511315902\H,0,3.5115516201,2.74021
 69513,0.7190088001\H,0,-1.495253793,0.3011700337,-3.2436778644\H,0,-3.
 74245053,-0.7053530866,-3.1712769803\H,0,-5.7008538082,0.630391778,-2.
 3694429734\H,0,-5.3706922026,3.0116705085,-1.6642505396\H,0,-3.1192870
 685,4.0642260935,-1.8346248238\H,0,0.5399132181,5.2449914197,-4.304089
 2356\H,0,1.5179234021,5.3361037874,-6.5961625611\H,0,1.5462899476,3.28
 2005253,-8.0286316104\H,0,0.6019200178,1.1411324968,-7.1442634823\H,0,
 -0.3280521353,1.039202686,-4.8566457025\Cl,0,-1.9330791406,5.803749738
 ,-3.3011375121\Cl,0,-0.3730487716,7.3398026284,-0.7642700988\Pd,0,-0.3
 586507583,5.1420532616,-1.6290709928\\Version=ES64L-G09RevE.01\State=1
 -A\HF=-3080.6340285\RMSD=5.289e-09\Dipole=2.3258684,-3.4334295,0.57428
 64\Quadrupole=9.6312432,-15.8490536,6.2178104,13.5677247,-6.849595,9.9
 4849\PG=C01 [X(C31H32Cl2O2P2Pd1)]\\@


 The most important thing in communication is to hear what isn't being said.
 -- Peter F. Drucker
 Job cpu time:       0 days  1 hours 38 minutes 48.3 seconds.
 File lengths (MBytes):  RWF=   1005 Int=      0 D2E=      0 Chk=    144 Scr=      1
 Normal termination of Gaussian 09 at Sun Dec  5 01:41:04 2021.
