 Entering Gaussian System, Link 0=g09
 Input=RR_DIOP_2.com
 Output=RR_DIOP_2.log
 Initial command:
 /gstore/apps/gaussian/g09.e01-foss-2017a/g09/l1.exe "/local/21251358/Gau-14454.inp" -scrdir="/local/21251358/"
 Entering Link 1 = /gstore/apps/gaussian/g09.e01-foss-2017a/g09/l1.exe PID=     14455.
  
 Copyright (c) 1988,1990,1992,1993,1995,1998,2003,2009,2015,
            Gaussian, Inc.  All Rights Reserved.
  
 This is part of the Gaussian(R) 09 program.  It is based on
 the Gaussian(R) 03 system (copyright 2003, Gaussian, Inc.),
 the Gaussian(R) 98 system (copyright 1998, Gaussian, Inc.),
 the Gaussian(R) 94 system (copyright 1995, Gaussian, Inc.),
 the Gaussian 92(TM) system (copyright 1992, Gaussian, Inc.),
 the Gaussian 90(TM) system (copyright 1990, Gaussian, Inc.),
 the Gaussian 88(TM) system (copyright 1988, Gaussian, Inc.),
 the Gaussian 86(TM) system (copyright 1986, Carnegie Mellon
 University), and the Gaussian 82(TM) system (copyright 1983,
 Carnegie Mellon University). Gaussian is a federally registered
 trademark of Gaussian, Inc.
  
 This software contains proprietary and confidential information,
 including trade secrets, belonging to Gaussian, Inc.
  
 This software is provided under written license and may be
 used, copied, transmitted, or stored only in accord with that
 written license.
  
 The following legend is applicable only to US Government
 contracts under FAR:
  
                    RESTRICTED RIGHTS LEGEND
  
 Use, reproduction and disclosure by the US Government is
 subject to restrictions as set forth in subparagraphs (a)
 and (c) of the Commercial Computer Software - Restricted
 Rights clause in FAR 52.227-19.
  
 Gaussian, Inc.
 340 Quinnipiac St., Bldg. 40, Wallingford CT 06492
  
  
 ---------------------------------------------------------------
 Warning -- This program may not be used in any manner that
 competes with the business of Gaussian, Inc. or will provide
 assistance to any competitor of Gaussian, Inc.  The licensee
 of this program is prohibited from giving any competitor of
 Gaussian, Inc. access to this program.  By using this program,
 the user acknowledges that Gaussian, Inc. is engaged in the
 business of creating and licensing software in the field of
 computational chemistry and represents and warrants to the
 licensee that it is not a competitor of Gaussian, Inc. and that
 it will not use this program in any manner prohibited above.
 ---------------------------------------------------------------
  

 Cite this work as:
 Gaussian 09, Revision E.01,
 M. J. Frisch, G. W. Trucks, H. B. Schlegel, G. E. Scuseria, 
 M. A. Robb, J. R. Cheeseman, G. Scalmani, V. Barone, B. Mennucci, 
 G. A. Petersson, H. Nakatsuji, M. Caricato, X. Li, H. P. Hratchian, 
 A. F. Izmaylov, J. Bloino, G. Zheng, J. L. Sonnenberg, M. Hada, 
 M. Ehara, K. Toyota, R. Fukuda, J. Hasegawa, M. Ishida, T. Nakajima, 
 Y. Honda, O. Kitao, H. Nakai, T. Vreven, J. A. Montgomery, Jr., 
 J. E. Peralta, F. Ogliaro, M. Bearpark, J. J. Heyd, E. Brothers, 
 K. N. Kudin, V. N. Staroverov, T. Keith, R. Kobayashi, J. Normand, 
 K. Raghavachari, A. Rendell, J. C. Burant, S. S. Iyengar, J. Tomasi, 
 M. Cossi, N. Rega, J. M. Millam, M. Klene, J. E. Knox, J. B. Cross, 
 V. Bakken, C. Adamo, J. Jaramillo, R. Gomperts, R. E. Stratmann, 
 O. Yazyev, A. J. Austin, R. Cammi, C. Pomelli, J. W. Ochterski, 
 R. L. Martin, K. Morokuma, V. G. Zakrzewski, G. A. Voth, 
 P. Salvador, J. J. Dannenberg, S. Dapprich, A. D. Daniels, 
 O. Farkas, J. B. Foresman, J. V. Ortiz, J. Cioslowski, 
 and D. J. Fox, Gaussian, Inc., Wallingford CT, 2013.
 
 ******************************************
 Gaussian 09:  ES64L-G09RevE.01 30-Nov-2015
                16-Nov-2021 
 ******************************************
 %nprocs=14
 Will use up to   14 processors via shared memory.
 %mem=128GB
 %chk=RR_DIOP_2.chk
 ----------------------------------------------------------------------
 # PBEPBE gen 6D pseudo=read scf=maxcycles=500 denfit int=(grid=ultrafi
 ne) empiricaldispersion=GD3BJ opt freq=noraman
 ----------------------------------------------------------------------
 1/14=-1,18=20,19=15,26=4,38=1/1,3;
 2/9=110,12=2,17=6,18=5,40=1/2;
 3/5=7,8=2,11=2,16=1,17=8,25=1,30=1,71=1,74=1009,75=-5,82=47,124=41/1,2,3;
 4//1;
 5/5=2,7=500,38=5/2;
 6/7=2,8=2,9=2,10=2,28=1/1;
 7//1,2,3,16;
 1/14=-1,18=20,19=15,26=4/3(2);
 2/9=110/2;
 99//99;
 2/9=110/2;
 3/5=7,6=1,8=2,11=2,16=1,17=8,25=1,30=1,71=1,74=1009,75=-5,82=7,124=41/1,2,3;
 4/5=5,16=3,69=1/1;
 5/5=2,7=500,38=5/2;
 7//1,2,3,16;
 1/14=-1,18=20,19=15,26=4/3(-5);
 2/9=110/2;
 6/7=2,8=2,9=2,10=2,19=2,28=1/1;
 99/9=1/99;
 -------
 RR_DIOP
 -------
 Symbolic Z-matrix:
 Charge =  0 Multiplicity = 1
 P                     1.3008    4.5298   -0.0644 
 P                    -0.4923    3.0723   -2.6935 
 O                    -0.6104    1.2389    1.3414 
 O                    -0.3761    0.154    -0.6305 
 C                     0.6823    3.2217    1.0759 
 C                    -0.2012    2.1833    0.3757 
 C                     0.4849    1.2738   -0.6535 
 C                     0.6692    1.7603   -2.109 
 C                    -0.8879    0.0681    0.6554 
 C                    -0.1995   -1.0909    1.3804 
 C                    -2.4067   -0.1016    0.5716 
 C                     1.8505    5.8232    1.1808 
 C                     0.9311    6.3219    2.13 
 C                     1.321     7.291     3.0744 
 C                     2.6407    7.7778    3.079 
 C                     3.5648    7.2968    2.1337 
 C                     3.1702    6.3285    1.1902 
 C                     2.9216    3.924    -0.7743 
 C                     3.2748    4.3145   -2.0834 
 C                     4.4756    3.8686   -2.6673 
 C                     5.3438    3.0347   -1.9391 
 C                     5.0112    2.6554   -0.6254 
 C                     3.8076    3.1007   -0.0455 
 C                    -2.2067    2.3123   -2.596 
 C                    -2.4245    0.934    -2.8163 
 C                    -3.7183    0.3839   -2.7374 
 C                    -4.815     1.2075   -2.4257 
 C                    -4.6113    2.5796   -2.1923 
 C                    -3.3154    3.1244   -2.2759 
 C                    -0.0467    3.0668   -4.5105 
 C                     0.6388    4.1772   -5.0474 
 C                     1.008     4.2096   -6.4059 
 C                     0.6952    3.125    -7.2455 
 C                     0.0118    2.012    -6.7223 
 C                    -0.3557    1.9847   -5.363 
 H                     1.5052    2.7198    1.5803 
 H                     0.0968    3.6768    1.8734 
 H                    -1.1015    2.6486   -0.0243 
 H                     1.4491    0.9423   -0.2634 
 H                     0.626     0.8995   -2.7754 
 H                     1.6848    2.1245   -2.2329 
 H                     0.8763   -0.9213    1.4215 
 H                    -0.5819   -1.1729    2.3979 
 H                    -0.3899   -2.0253    0.8521 
 H                    -2.8287   -0.1874    1.5728 
 H                    -2.8533    0.7611    0.0776 
 H                    -2.6514   -0.9983    0.0023 
 H                    -0.091     5.9738    2.1312 
 H                     0.6047    7.6664    3.7908 
 H                     2.9413    8.524     3.8002 
 H                     4.5772    7.6737    2.1278 
 H                     3.8976    5.9839    0.4704 
 H                     2.6216    4.9604   -2.6512 
 H                     4.7321    4.1693   -3.6732 
 H                     6.2679    2.6944   -2.3841 
 H                     5.6835    2.0268   -0.0591 
 H                     3.5846    2.8134    0.9704 
 H                    -1.5959    0.2789   -3.037 
 H                    -3.8668   -0.6722   -2.91 
 H                    -5.8088    0.7883   -2.3643 
 H                    -5.4499    3.2174   -1.9528 
 H                    -3.1839    4.1794   -2.094 
 H                     0.8789    5.0216   -4.4193 
 H                     1.526     5.0697   -6.805 
 H                     0.9737    3.1489   -8.2892 
 H                    -0.2349    1.1789   -7.3645 
 H                    -0.8809    1.1222   -4.9862 
 Cl                   -1.7531    6.0956   -3.3427 
 Cl                   -0.1354    7.4512   -0.8963 
 Pd                   -0.2752    5.2779   -1.7304 
 

 GradGradGradGradGradGradGradGradGradGradGradGradGradGradGradGradGradGrad
 Berny optimization.
 Initialization pass.
                           ----------------------------
                           !    Initial Parameters    !
                           ! (Angstroms and Degrees)  !
 --------------------------                            --------------------------
 ! Name  Definition              Value          Derivative Info.                !
 --------------------------------------------------------------------------------
 ! R1    R(1,5)                  1.8423         estimate D2E/DX2                !
 ! R2    R(1,12)                 1.8777         estimate D2E/DX2                !
 ! R3    R(1,18)                 1.8703         estimate D2E/DX2                !
 ! R4    R(1,70)                 2.4123         estimate D2E/DX2                !
 ! R5    R(2,8)                  1.8472         estimate D2E/DX2                !
 ! R6    R(2,24)                 1.8778         estimate D2E/DX2                !
 ! R7    R(2,30)                 1.8708         estimate D2E/DX2                !
 ! R8    R(2,70)                 2.4165         estimate D2E/DX2                !
 ! R9    R(3,6)                  1.4114         estimate D2E/DX2                !
 ! R10   R(3,9)                  1.3851         estimate D2E/DX2                !
 ! R11   R(4,7)                  1.4127         estimate D2E/DX2                !
 ! R12   R(4,9)                  1.3867         estimate D2E/DX2                !
 ! R13   R(5,6)                  1.5327         estimate D2E/DX2                !
 ! R14   R(5,36)                 1.0879         estimate D2E/DX2                !
 ! R15   R(5,37)                 1.089          estimate D2E/DX2                !
 ! R16   R(6,7)                  1.5353         estimate D2E/DX2                !
 ! R17   R(6,38)                 1.0895         estimate D2E/DX2                !
 ! R18   R(7,8)                  1.5457         estimate D2E/DX2                !
 ! R19   R(7,39)                 1.0917         estimate D2E/DX2                !
 ! R20   R(8,40)                 1.0895         estimate D2E/DX2                !
 ! R21   R(8,41)                 1.086          estimate D2E/DX2                !
 ! R22   R(9,10)                 1.5306         estimate D2E/DX2                !
 ! R23   R(9,11)                 1.5305         estimate D2E/DX2                !
 ! R24   R(10,42)                1.0899         estimate D2E/DX2                !
 ! R25   R(10,43)                1.0901         estimate D2E/DX2                !
 ! R26   R(10,44)                1.0902         estimate D2E/DX2                !
 ! R27   R(11,45)                1.0899         estimate D2E/DX2                !
 ! R28   R(11,46)                1.0898         estimate D2E/DX2                !
 ! R29   R(11,47)                1.09           estimate D2E/DX2                !
 ! R30   R(12,13)                1.4124         estimate D2E/DX2                !
 ! R31   R(12,17)                1.4132         estimate D2E/DX2                !
 ! R32   R(13,14)                1.4082         estimate D2E/DX2                !
 ! R33   R(13,48)                1.0798         estimate D2E/DX2                !
 ! R34   R(14,15)                1.4066         estimate D2E/DX2                !
 ! R35   R(14,49)                1.0804         estimate D2E/DX2                !
 ! R36   R(15,16)                1.4067         estimate D2E/DX2                !
 ! R37   R(15,50)                1.0804         estimate D2E/DX2                !
 ! R38   R(16,17)                1.4084         estimate D2E/DX2                !
 ! R39   R(16,51)                1.0803         estimate D2E/DX2                !
 ! R40   R(17,52)                1.0798         estimate D2E/DX2                !
 ! R41   R(18,19)                1.411          estimate D2E/DX2                !
 ! R42   R(18,23)                1.4121         estimate D2E/DX2                !
 ! R43   R(19,20)                1.4077         estimate D2E/DX2                !
 ! R44   R(19,53)                1.0799         estimate D2E/DX2                !
 ! R45   R(20,21)                1.4069         estimate D2E/DX2                !
 ! R46   R(20,54)                1.0808         estimate D2E/DX2                !
 ! R47   R(21,22)                1.4072         estimate D2E/DX2                !
 ! R48   R(21,55)                1.0806         estimate D2E/DX2                !
 ! R49   R(22,23)                1.4083         estimate D2E/DX2                !
 ! R50   R(22,56)                1.0807         estimate D2E/DX2                !
 ! R51   R(23,57)                1.079          estimate D2E/DX2                !
 ! R52   R(24,25)                1.4127         estimate D2E/DX2                !
 ! R53   R(24,29)                1.4111         estimate D2E/DX2                !
 ! R54   R(25,26)                1.4081         estimate D2E/DX2                !
 ! R55   R(25,58)                1.0791         estimate D2E/DX2                !
 ! R56   R(26,27)                1.4065         estimate D2E/DX2                !
 ! R57   R(26,59)                1.0804         estimate D2E/DX2                !
 ! R58   R(27,28)                1.4066         estimate D2E/DX2                !
 ! R59   R(27,60)                1.0803         estimate D2E/DX2                !
 ! R60   R(28,29)                1.4082         estimate D2E/DX2                !
 ! R61   R(28,61)                1.0805         estimate D2E/DX2                !
 ! R62   R(29,62)                1.0786         estimate D2E/DX2                !
 ! R63   R(30,31)                1.4111         estimate D2E/DX2                !
 ! R64   R(30,35)                1.4118         estimate D2E/DX2                !
 ! R65   R(31,32)                1.4081         estimate D2E/DX2                !
 ! R66   R(31,63)                1.0794         estimate D2E/DX2                !
 ! R67   R(32,33)                1.4068         estimate D2E/DX2                !
 ! R68   R(32,64)                1.0805         estimate D2E/DX2                !
 ! R69   R(33,34)                1.407          estimate D2E/DX2                !
 ! R70   R(33,65)                1.0805         estimate D2E/DX2                !
 ! R71   R(34,35)                1.4084         estimate D2E/DX2                !
 ! R72   R(34,66)                1.0804         estimate D2E/DX2                !
 ! R73   R(35,67)                1.0778         estimate D2E/DX2                !
 ! R74   R(68,70)                2.335          estimate D2E/DX2                !
 ! R75   R(69,70)                2.3321         estimate D2E/DX2                !
 ! A1    A(5,1,12)             100.1903         estimate D2E/DX2                !
 ! A2    A(5,1,18)             107.2111         estimate D2E/DX2                !
 ! A3    A(5,1,70)             115.3625         estimate D2E/DX2                !
 ! A4    A(12,1,18)            102.7755         estimate D2E/DX2                !
 ! A5    A(12,1,70)            115.8269         estimate D2E/DX2                !
 ! A6    A(18,1,70)            113.8591         estimate D2E/DX2                !
 ! A7    A(8,2,24)             105.6749         estimate D2E/DX2                !
 ! A8    A(8,2,30)              98.9438         estimate D2E/DX2                !
 ! A9    A(8,2,70)             117.7544         estimate D2E/DX2                !
 ! A10   A(24,2,30)            105.4673         estimate D2E/DX2                !
 ! A11   A(24,2,70)            115.5139         estimate D2E/DX2                !
 ! A12   A(30,2,70)            111.615          estimate D2E/DX2                !
 ! A13   A(6,3,9)              106.5487         estimate D2E/DX2                !
 ! A14   A(7,4,9)              106.8066         estimate D2E/DX2                !
 ! A15   A(1,5,6)              113.0675         estimate D2E/DX2                !
 ! A16   A(1,5,36)             111.1381         estimate D2E/DX2                !
 ! A17   A(1,5,37)             109.6973         estimate D2E/DX2                !
 ! A18   A(6,5,36)             109.5896         estimate D2E/DX2                !
 ! A19   A(6,5,37)             107.9248         estimate D2E/DX2                !
 ! A20   A(36,5,37)            105.067          estimate D2E/DX2                !
 ! A21   A(3,6,5)              107.932          estimate D2E/DX2                !
 ! A22   A(3,6,7)              101.0609         estimate D2E/DX2                !
 ! A23   A(3,6,38)             107.3014         estimate D2E/DX2                !
 ! A24   A(5,6,7)              116.7433         estimate D2E/DX2                !
 ! A25   A(5,6,38)             110.7758         estimate D2E/DX2                !
 ! A26   A(7,6,38)             112.0955         estimate D2E/DX2                !
 ! A27   A(4,7,6)              100.7362         estimate D2E/DX2                !
 ! A28   A(4,7,8)              109.7237         estimate D2E/DX2                !
 ! A29   A(4,7,39)             106.9644         estimate D2E/DX2                !
 ! A30   A(6,7,8)              119.8726         estimate D2E/DX2                !
 ! A31   A(6,7,39)             109.575          estimate D2E/DX2                !
 ! A32   A(8,7,39)             109.0721         estimate D2E/DX2                !
 ! A33   A(2,8,7)              116.5225         estimate D2E/DX2                !
 ! A34   A(2,8,40)             110.0421         estimate D2E/DX2                !
 ! A35   A(2,8,41)             108.2843         estimate D2E/DX2                !
 ! A36   A(7,8,40)             108.8187         estimate D2E/DX2                !
 ! A37   A(7,8,41)             108.9344         estimate D2E/DX2                !
 ! A38   A(40,8,41)            103.4304         estimate D2E/DX2                !
 ! A39   A(3,9,4)              109.4499         estimate D2E/DX2                !
 ! A40   A(3,9,10)             108.383          estimate D2E/DX2                !
 ! A41   A(3,9,11)             108.6422         estimate D2E/DX2                !
 ! A42   A(4,9,10)             108.6721         estimate D2E/DX2                !
 ! A43   A(4,9,11)             108.805          estimate D2E/DX2                !
 ! A44   A(10,9,11)            112.8474         estimate D2E/DX2                !
 ! A45   A(9,10,42)            110.1194         estimate D2E/DX2                !
 ! A46   A(9,10,43)            109.957          estimate D2E/DX2                !
 ! A47   A(9,10,44)            109.9334         estimate D2E/DX2                !
 ! A48   A(42,10,43)           108.8312         estimate D2E/DX2                !
 ! A49   A(42,10,44)           108.9084         estimate D2E/DX2                !
 ! A50   A(43,10,44)           109.0624         estimate D2E/DX2                !
 ! A51   A(9,11,45)            110.0389         estimate D2E/DX2                !
 ! A52   A(9,11,46)            110.102          estimate D2E/DX2                !
 ! A53   A(9,11,47)            110.0347         estimate D2E/DX2                !
 ! A54   A(45,11,46)           108.6656         estimate D2E/DX2                !
 ! A55   A(45,11,47)           109.1543         estimate D2E/DX2                !
 ! A56   A(46,11,47)           108.8126         estimate D2E/DX2                !
 ! A57   A(1,12,13)            119.8887         estimate D2E/DX2                !
 ! A58   A(1,12,17)            121.6087         estimate D2E/DX2                !
 ! A59   A(13,12,17)           118.5002         estimate D2E/DX2                !
 ! A60   A(12,13,14)           120.8933         estimate D2E/DX2                !
 ! A61   A(12,13,48)           120.205          estimate D2E/DX2                !
 ! A62   A(14,13,48)           118.8951         estimate D2E/DX2                !
 ! A63   A(13,14,15)           120.0079         estimate D2E/DX2                !
 ! A64   A(13,14,49)           120.0162         estimate D2E/DX2                !
 ! A65   A(15,14,49)           119.9742         estimate D2E/DX2                !
 ! A66   A(14,15,16)           119.7214         estimate D2E/DX2                !
 ! A67   A(14,15,50)           120.1479         estimate D2E/DX2                !
 ! A68   A(16,15,50)           120.1287         estimate D2E/DX2                !
 ! A69   A(15,16,17)           120.0798         estimate D2E/DX2                !
 ! A70   A(15,16,51)           120.0            estimate D2E/DX2                !
 ! A71   A(17,16,51)           119.9196         estimate D2E/DX2                !
 ! A72   A(12,17,16)           120.7936         estimate D2E/DX2                !
 ! A73   A(12,17,52)           120.7001         estimate D2E/DX2                !
 ! A74   A(16,17,52)           118.5056         estimate D2E/DX2                !
 ! A75   A(1,18,19)            118.6485         estimate D2E/DX2                !
 ! A76   A(1,18,23)            122.4591         estimate D2E/DX2                !
 ! A77   A(19,18,23)           118.8904         estimate D2E/DX2                !
 ! A78   A(18,19,20)           120.7092         estimate D2E/DX2                !
 ! A79   A(18,19,53)           120.1267         estimate D2E/DX2                !
 ! A80   A(20,19,53)           119.1639         estimate D2E/DX2                !
 ! A81   A(19,20,21)           119.9631         estimate D2E/DX2                !
 ! A82   A(19,20,54)           120.0244         estimate D2E/DX2                !
 ! A83   A(21,20,54)           120.0122         estimate D2E/DX2                !
 ! A84   A(20,21,22)           119.8076         estimate D2E/DX2                !
 ! A85   A(20,21,55)           120.0801         estimate D2E/DX2                !
 ! A86   A(22,21,55)           120.1097         estimate D2E/DX2                !
 ! A87   A(21,22,23)           120.0784         estimate D2E/DX2                !
 ! A88   A(21,22,56)           119.9305         estimate D2E/DX2                !
 ! A89   A(23,22,56)           119.9899         estimate D2E/DX2                !
 ! A90   A(18,23,22)           120.5364         estimate D2E/DX2                !
 ! A91   A(18,23,57)           120.7628         estimate D2E/DX2                !
 ! A92   A(22,23,57)           118.6936         estimate D2E/DX2                !
 ! A93   A(2,24,25)            121.8386         estimate D2E/DX2                !
 ! A94   A(2,24,29)            119.7473         estimate D2E/DX2                !
 ! A95   A(25,24,29)           118.4077         estimate D2E/DX2                !
 ! A96   A(24,25,26)           120.936          estimate D2E/DX2                !
 ! A97   A(24,25,58)           120.3855         estimate D2E/DX2                !
 ! A98   A(26,25,58)           118.6741         estimate D2E/DX2                !
 ! A99   A(25,26,27)           120.0066         estimate D2E/DX2                !
 ! A100  A(25,26,59)           119.9495         estimate D2E/DX2                !
 ! A101  A(27,26,59)           120.0427         estimate D2E/DX2                !
 ! A102  A(26,27,28)           119.6729         estimate D2E/DX2                !
 ! A103  A(26,27,60)           120.176          estimate D2E/DX2                !
 ! A104  A(28,27,60)           120.151          estimate D2E/DX2                !
 ! A105  A(27,28,29)           120.0514         estimate D2E/DX2                !
 ! A106  A(27,28,61)           120.0127         estimate D2E/DX2                !
 ! A107  A(29,28,61)           119.9354         estimate D2E/DX2                !
 ! A108  A(24,29,28)           120.9202         estimate D2E/DX2                !
 ! A109  A(24,29,62)           120.3565         estimate D2E/DX2                !
 ! A110  A(28,29,62)           118.7229         estimate D2E/DX2                !
 ! A111  A(2,30,31)            118.8769         estimate D2E/DX2                !
 ! A112  A(2,30,35)            122.4512         estimate D2E/DX2                !
 ! A113  A(31,30,35)           118.6669         estimate D2E/DX2                !
 ! A114  A(30,31,32)           120.8337         estimate D2E/DX2                !
 ! A115  A(30,31,63)           120.1478         estimate D2E/DX2                !
 ! A116  A(32,31,63)           119.0156         estimate D2E/DX2                !
 ! A117  A(31,32,33)           119.9822         estimate D2E/DX2                !
 ! A118  A(31,32,64)           120.0249         estimate D2E/DX2                !
 ! A119  A(33,32,64)           119.9918         estimate D2E/DX2                !
 ! A120  A(32,33,34)           119.7323         estimate D2E/DX2                !
 ! A121  A(32,33,65)           120.1409         estimate D2E/DX2                !
 ! A122  A(34,33,65)           120.1259         estimate D2E/DX2                !
 ! A123  A(33,34,35)           120.0655         estimate D2E/DX2                !
 ! A124  A(33,34,66)           119.99           estimate D2E/DX2                !
 ! A125  A(35,34,66)           119.944          estimate D2E/DX2                !
 ! A126  A(30,35,34)           120.7193         estimate D2E/DX2                !
 ! A127  A(30,35,67)           120.5903         estimate D2E/DX2                !
 ! A128  A(34,35,67)           118.6901         estimate D2E/DX2                !
 ! A129  A(1,70,2)              92.9172         estimate D2E/DX2                !
 ! A130  A(1,70,69)             90.162          estimate D2E/DX2                !
 ! A131  A(2,70,68)             89.2878         estimate D2E/DX2                !
 ! A132  A(68,70,69)            87.6248         estimate D2E/DX2                !
 ! A133  L(1,70,68,69,-1)      177.7868         estimate D2E/DX2                !
 ! A134  L(2,70,69,68,-1)      176.9125         estimate D2E/DX2                !
 ! A135  L(1,70,68,69,-2)      178.6809         estimate D2E/DX2                !
 ! A136  L(2,70,69,68,-2)      180.318          estimate D2E/DX2                !
 ! D1    D(12,1,5,6)           163.6913         estimate D2E/DX2                !
 ! D2    D(12,1,5,36)          -72.5731         estimate D2E/DX2                !
 ! D3    D(12,1,5,37)           43.1763         estimate D2E/DX2                !
 ! D4    D(18,1,5,6)           -89.3975         estimate D2E/DX2                !
 ! D5    D(18,1,5,36)           34.3381         estimate D2E/DX2                !
 ! D6    D(18,1,5,37)          150.0876         estimate D2E/DX2                !
 ! D7    D(70,1,5,6)            38.5876         estimate D2E/DX2                !
 ! D8    D(70,1,5,36)          162.3232         estimate D2E/DX2                !
 ! D9    D(70,1,5,37)          -81.9274         estimate D2E/DX2                !
 ! D10   D(5,1,12,13)          -56.4211         estimate D2E/DX2                !
 ! D11   D(5,1,12,17)          124.1525         estimate D2E/DX2                !
 ! D12   D(18,1,12,13)        -166.8488         estimate D2E/DX2                !
 ! D13   D(18,1,12,17)          13.7248         estimate D2E/DX2                !
 ! D14   D(70,1,12,13)          68.3644         estimate D2E/DX2                !
 ! D15   D(70,1,12,17)        -111.062          estimate D2E/DX2                !
 ! D16   D(5,1,18,19)          148.2635         estimate D2E/DX2                !
 ! D17   D(5,1,18,23)          -32.2563         estimate D2E/DX2                !
 ! D18   D(12,1,18,19)        -106.6575         estimate D2E/DX2                !
 ! D19   D(12,1,18,23)          72.8227         estimate D2E/DX2                !
 ! D20   D(70,1,18,19)          19.4101         estimate D2E/DX2                !
 ! D21   D(70,1,18,23)        -161.1097         estimate D2E/DX2                !
 ! D22   D(5,1,70,2)           -59.8435         estimate D2E/DX2                !
 ! D23   D(5,1,70,69)          120.5459         estimate D2E/DX2                !
 ! D24   D(12,1,70,2)         -176.3915         estimate D2E/DX2                !
 ! D25   D(12,1,70,69)           3.998          estimate D2E/DX2                !
 ! D26   D(18,1,70,2)           64.7472         estimate D2E/DX2                !
 ! D27   D(18,1,70,69)        -114.8633         estimate D2E/DX2                !
 ! D28   D(24,2,8,7)           -61.8989         estimate D2E/DX2                !
 ! D29   D(24,2,8,40)           62.5602         estimate D2E/DX2                !
 ! D30   D(24,2,8,41)          174.9508         estimate D2E/DX2                !
 ! D31   D(30,2,8,7)          -170.8379         estimate D2E/DX2                !
 ! D32   D(30,2,8,40)          -46.3788         estimate D2E/DX2                !
 ! D33   D(30,2,8,41)           66.0119         estimate D2E/DX2                !
 ! D34   D(70,2,8,7)            68.8839         estimate D2E/DX2                !
 ! D35   D(70,2,8,40)         -166.6569         estimate D2E/DX2                !
 ! D36   D(70,2,8,41)          -54.2663         estimate D2E/DX2                !
 ! D37   D(8,2,24,25)          -32.5814         estimate D2E/DX2                !
 ! D38   D(8,2,24,29)          146.4886         estimate D2E/DX2                !
 ! D39   D(30,2,24,25)          71.6115         estimate D2E/DX2                !
 ! D40   D(30,2,24,29)        -109.3186         estimate D2E/DX2                !
 ! D41   D(70,2,24,25)        -164.638          estimate D2E/DX2                !
 ! D42   D(70,2,24,29)          14.4319         estimate D2E/DX2                !
 ! D43   D(8,2,30,31)         -110.2061         estimate D2E/DX2                !
 ! D44   D(8,2,30,35)           68.971          estimate D2E/DX2                !
 ! D45   D(24,2,30,31)         140.6872         estimate D2E/DX2                !
 ! D46   D(24,2,30,35)         -40.1357         estimate D2E/DX2                !
 ! D47   D(70,2,30,31)          14.5045         estimate D2E/DX2                !
 ! D48   D(70,2,30,35)        -166.3184         estimate D2E/DX2                !
 ! D49   D(8,2,70,1)            -8.8329         estimate D2E/DX2                !
 ! D50   D(8,2,70,68)          169.8339         estimate D2E/DX2                !
 ! D51   D(24,2,70,1)          117.2848         estimate D2E/DX2                !
 ! D52   D(24,2,70,68)         -64.0483         estimate D2E/DX2                !
 ! D53   D(30,2,70,1)         -122.2531         estimate D2E/DX2                !
 ! D54   D(30,2,70,68)          56.4137         estimate D2E/DX2                !
 ! D55   D(9,3,6,5)           -155.0299         estimate D2E/DX2                !
 ! D56   D(9,3,6,7)            -31.9929         estimate D2E/DX2                !
 ! D57   D(9,3,6,38)            85.5445         estimate D2E/DX2                !
 ! D58   D(6,3,9,4)             13.7905         estimate D2E/DX2                !
 ! D59   D(6,3,9,10)           132.1591         estimate D2E/DX2                !
 ! D60   D(6,3,9,11)          -104.8896         estimate D2E/DX2                !
 ! D61   D(9,4,7,6)            -31.2884         estimate D2E/DX2                !
 ! D62   D(9,4,7,8)           -158.6268         estimate D2E/DX2                !
 ! D63   D(9,4,7,39)            83.1907         estimate D2E/DX2                !
 ! D64   D(7,4,9,3)             12.7619         estimate D2E/DX2                !
 ! D65   D(7,4,9,10)          -105.4266         estimate D2E/DX2                !
 ! D66   D(7,4,9,11)           131.3409         estimate D2E/DX2                !
 ! D67   D(1,5,6,3)            179.9136         estimate D2E/DX2                !
 ! D68   D(1,5,6,7)             67.0296         estimate D2E/DX2                !
 ! D69   D(1,5,6,38)           -62.8868         estimate D2E/DX2                !
 ! D70   D(36,5,6,3)            55.3309         estimate D2E/DX2                !
 ! D71   D(36,5,6,7)           -57.5531         estimate D2E/DX2                !
 ! D72   D(36,5,6,38)          172.5305         estimate D2E/DX2                !
 ! D73   D(37,5,6,3)           -58.5672         estimate D2E/DX2                !
 ! D74   D(37,5,6,7)          -171.4512         estimate D2E/DX2                !
 ! D75   D(37,5,6,38)           58.6325         estimate D2E/DX2                !
 ! D76   D(3,6,7,4)             38.5614         estimate D2E/DX2                !
 ! D77   D(3,6,7,8)            158.8952         estimate D2E/DX2                !
 ! D78   D(3,6,7,39)           -73.9344         estimate D2E/DX2                !
 ! D79   D(5,6,7,4)            155.292          estimate D2E/DX2                !
 ! D80   D(5,6,7,8)            -84.3742         estimate D2E/DX2                !
 ! D81   D(5,6,7,39)            42.7962         estimate D2E/DX2                !
 ! D82   D(38,6,7,4)           -75.418          estimate D2E/DX2                !
 ! D83   D(38,6,7,8)            44.9159         estimate D2E/DX2                !
 ! D84   D(38,6,7,39)          172.0863         estimate D2E/DX2                !
 ! D85   D(4,7,8,2)             92.3285         estimate D2E/DX2                !
 ! D86   D(4,7,8,40)           -32.7523         estimate D2E/DX2                !
 ! D87   D(4,7,8,41)          -144.8586         estimate D2E/DX2                !
 ! D88   D(6,7,8,2)            -23.4028         estimate D2E/DX2                !
 ! D89   D(6,7,8,40)          -148.4835         estimate D2E/DX2                !
 ! D90   D(6,7,8,41)            99.4101         estimate D2E/DX2                !
 ! D91   D(39,7,8,2)          -150.8047         estimate D2E/DX2                !
 ! D92   D(39,7,8,40)           84.1145         estimate D2E/DX2                !
 ! D93   D(39,7,8,41)          -27.9918         estimate D2E/DX2                !
 ! D94   D(3,9,10,42)          -59.1845         estimate D2E/DX2                !
 ! D95   D(3,9,10,43)           60.7324         estimate D2E/DX2                !
 ! D96   D(3,9,10,44)         -179.1819         estimate D2E/DX2                !
 ! D97   D(4,9,10,42)           59.6767         estimate D2E/DX2                !
 ! D98   D(4,9,10,43)          179.5936         estimate D2E/DX2                !
 ! D99   D(4,9,10,44)          -60.3207         estimate D2E/DX2                !
 ! D100  D(11,9,10,42)        -179.5521         estimate D2E/DX2                !
 ! D101  D(11,9,10,43)         -59.6352         estimate D2E/DX2                !
 ! D102  D(11,9,10,44)          60.4505         estimate D2E/DX2                !
 ! D103  D(3,9,11,45)          -61.8185         estimate D2E/DX2                !
 ! D104  D(3,9,11,46)           57.9342         estimate D2E/DX2                !
 ! D105  D(3,9,11,47)          177.8661         estimate D2E/DX2                !
 ! D106  D(4,9,11,45)          179.0959         estimate D2E/DX2                !
 ! D107  D(4,9,11,46)          -61.1514         estimate D2E/DX2                !
 ! D108  D(4,9,11,47)           58.7806         estimate D2E/DX2                !
 ! D109  D(10,9,11,45)          58.4005         estimate D2E/DX2                !
 ! D110  D(10,9,11,46)         178.1532         estimate D2E/DX2                !
 ! D111  D(10,9,11,47)         -61.9149         estimate D2E/DX2                !
 ! D112  D(1,12,13,14)         179.9305         estimate D2E/DX2                !
 ! D113  D(1,12,13,48)          -1.0206         estimate D2E/DX2                !
 ! D114  D(17,12,13,14)         -0.6254         estimate D2E/DX2                !
 ! D115  D(17,12,13,48)        178.4235         estimate D2E/DX2                !
 ! D116  D(1,12,17,16)        -179.881          estimate D2E/DX2                !
 ! D117  D(1,12,17,52)           0.4194         estimate D2E/DX2                !
 ! D118  D(13,12,17,16)          0.6849         estimate D2E/DX2                !
 ! D119  D(13,12,17,52)       -179.0147         estimate D2E/DX2                !
 ! D120  D(12,13,14,15)          0.1499         estimate D2E/DX2                !
 ! D121  D(12,13,14,49)        179.6833         estimate D2E/DX2                !
 ! D122  D(48,13,14,15)       -178.9113         estimate D2E/DX2                !
 ! D123  D(48,13,14,49)          0.6221         estimate D2E/DX2                !
 ! D124  D(13,14,15,16)          0.279          estimate D2E/DX2                !
 ! D125  D(13,14,15,50)        179.7733         estimate D2E/DX2                !
 ! D126  D(49,14,15,16)       -179.2547         estimate D2E/DX2                !
 ! D127  D(49,14,15,50)          0.2397         estimate D2E/DX2                !
 ! D128  D(14,15,16,17)         -0.2196         estimate D2E/DX2                !
 ! D129  D(14,15,16,51)        179.4814         estimate D2E/DX2                !
 ! D130  D(50,15,16,17)       -179.714          estimate D2E/DX2                !
 ! D131  D(50,15,16,51)         -0.013          estimate D2E/DX2                !
 ! D132  D(15,16,17,12)         -0.2698         estimate D2E/DX2                !
 ! D133  D(15,16,17,52)        179.4363         estimate D2E/DX2                !
 ! D134  D(51,16,17,12)       -179.971          estimate D2E/DX2                !
 ! D135  D(51,16,17,52)         -0.2649         estimate D2E/DX2                !
 ! D136  D(1,18,19,20)        -179.1083         estimate D2E/DX2                !
 ! D137  D(1,18,19,53)           0.7562         estimate D2E/DX2                !
 ! D138  D(23,18,19,20)          1.3927         estimate D2E/DX2                !
 ! D139  D(23,18,19,53)       -178.7429         estimate D2E/DX2                !
 ! D140  D(1,18,23,22)         179.2835         estimate D2E/DX2                !
 ! D141  D(1,18,23,57)          -1.7052         estimate D2E/DX2                !
 ! D142  D(19,18,23,22)         -1.2375         estimate D2E/DX2                !
 ! D143  D(19,18,23,57)        177.7737         estimate D2E/DX2                !
 ! D144  D(18,19,20,21)         -0.606          estimate D2E/DX2                !
 ! D145  D(18,19,20,54)        179.598          estimate D2E/DX2                !
 ! D146  D(53,19,20,21)        179.5283         estimate D2E/DX2                !
 ! D147  D(53,19,20,54)         -0.2677         estimate D2E/DX2                !
 ! D148  D(19,20,21,22)         -0.3555         estimate D2E/DX2                !
 ! D149  D(19,20,21,55)       -179.7639         estimate D2E/DX2                !
 ! D150  D(54,20,21,22)        179.4405         estimate D2E/DX2                !
 ! D151  D(54,20,21,55)          0.0322         estimate D2E/DX2                !
 ! D152  D(20,21,22,23)          0.5077         estimate D2E/DX2                !
 ! D153  D(20,21,22,56)       -179.1039         estimate D2E/DX2                !
 ! D154  D(55,21,22,23)        179.9159         estimate D2E/DX2                !
 ! D155  D(55,21,22,56)          0.3043         estimate D2E/DX2                !
 ! D156  D(21,22,23,18)          0.2982         estimate D2E/DX2                !
 ! D157  D(21,22,23,57)       -178.7332         estimate D2E/DX2                !
 ! D158  D(56,22,23,18)        179.9096         estimate D2E/DX2                !
 ! D159  D(56,22,23,57)          0.8782         estimate D2E/DX2                !
 ! D160  D(2,24,25,26)         179.9508         estimate D2E/DX2                !
 ! D161  D(2,24,25,58)           0.7221         estimate D2E/DX2                !
 ! D162  D(29,24,25,26)          0.8688         estimate D2E/DX2                !
 ! D163  D(29,24,25,58)       -178.3598         estimate D2E/DX2                !
 ! D164  D(2,24,29,28)        -179.8135         estimate D2E/DX2                !
 ! D165  D(2,24,29,62)           0.4279         estimate D2E/DX2                !
 ! D166  D(25,24,29,28)         -0.7118         estimate D2E/DX2                !
 ! D167  D(25,24,29,62)        179.5296         estimate D2E/DX2                !
 ! D168  D(24,25,26,27)         -0.4804         estimate D2E/DX2                !
 ! D169  D(24,25,26,59)        179.925          estimate D2E/DX2                !
 ! D170  D(58,25,26,27)        178.7612         estimate D2E/DX2                !
 ! D171  D(58,25,26,59)         -0.8334         estimate D2E/DX2                !
 ! D172  D(25,26,27,28)         -0.0839         estimate D2E/DX2                !
 ! D173  D(25,26,27,60)       -179.9905         estimate D2E/DX2                !
 ! D174  D(59,26,27,28)        179.5104         estimate D2E/DX2                !
 ! D175  D(59,26,27,60)         -0.3962         estimate D2E/DX2                !
 ! D176  D(26,27,28,29)          0.239          estimate D2E/DX2                !
 ! D177  D(26,27,28,61)        179.9775         estimate D2E/DX2                !
 ! D178  D(60,27,28,29)       -179.8544         estimate D2E/DX2                !
 ! D179  D(60,27,28,61)         -0.1159         estimate D2E/DX2                !
 ! D180  D(27,28,29,24)          0.1666         estimate D2E/DX2                !
 ! D181  D(27,28,29,62)        179.929          estimate D2E/DX2                !
 ! D182  D(61,28,29,24)       -179.5721         estimate D2E/DX2                !
 ! D183  D(61,28,29,62)          0.1904         estimate D2E/DX2                !
 ! D184  D(2,30,31,32)         179.2603         estimate D2E/DX2                !
 ! D185  D(2,30,31,63)          -1.3662         estimate D2E/DX2                !
 ! D186  D(35,30,31,32)          0.0517         estimate D2E/DX2                !
 ! D187  D(35,30,31,63)        179.4252         estimate D2E/DX2                !
 ! D188  D(2,30,35,34)        -179.2058         estimate D2E/DX2                !
 ! D189  D(2,30,35,67)           0.9961         estimate D2E/DX2                !
 ! D190  D(31,30,35,34)         -0.027          estimate D2E/DX2                !
 ! D191  D(31,30,35,67)       -179.8251         estimate D2E/DX2                !
 ! D192  D(30,31,32,33)         -0.0848         estimate D2E/DX2                !
 ! D193  D(30,31,32,64)        179.5388         estimate D2E/DX2                !
 ! D194  D(63,31,32,33)       -179.4653         estimate D2E/DX2                !
 ! D195  D(63,31,32,64)          0.1583         estimate D2E/DX2                !
 ! D196  D(31,32,33,34)          0.0919         estimate D2E/DX2                !
 ! D197  D(31,32,33,65)        179.7501         estimate D2E/DX2                !
 ! D198  D(64,32,33,34)       -179.5318         estimate D2E/DX2                !
 ! D199  D(64,32,33,65)          0.1263         estimate D2E/DX2                !
 ! D200  D(32,33,34,35)         -0.0675         estimate D2E/DX2                !
 ! D201  D(32,33,34,66)        179.6938         estimate D2E/DX2                !
 ! D202  D(65,33,34,35)       -179.7257         estimate D2E/DX2                !
 ! D203  D(65,33,34,66)          0.0356         estimate D2E/DX2                !
 ! D204  D(33,34,35,30)          0.0354         estimate D2E/DX2                !
 ! D205  D(33,34,35,67)        179.8373         estimate D2E/DX2                !
 ! D206  D(66,34,35,30)       -179.726          estimate D2E/DX2                !
 ! D207  D(66,34,35,67)          0.0759         estimate D2E/DX2                !
 --------------------------------------------------------------------------------
 Trust Radius=3.00D-01 FncErr=1.00D-07 GrdErr=1.00D-06
 Number of steps in this run=    420 maximum allowed number of steps=    420.
 GradGradGradGradGradGradGradGradGradGradGradGradGradGradGradGradGradGrad

 Stoichiometry    C31H32Cl2O2P2Pd
 Framework group  C1[X(C31H32Cl2O2P2Pd)]
 Deg. of freedom   204
 Full point group                 C1      NOp   1
 Largest Abelian subgroup         C1      NOp   1
 Largest concise Abelian subgroup C1      NOp   1
                         Standard orientation:                         
 ---------------------------------------------------------------------
 Center     Atomic      Atomic             Coordinates (Angstroms)
 Number     Number       Type             X           Y           Z
 ---------------------------------------------------------------------
      1         15           0        1.880165    0.400793    0.060510
      2         15           0       -1.495333   -0.525076    0.081950
      3          8           0       -0.382749    3.764455    0.215369
      4          8           0       -1.973986    2.740972    1.456636
      5          6           0        1.388442    2.175574    0.108602
      6          6           0       -0.129258    2.376461    0.181804
      7          6           0       -0.825358    1.918635    1.471384
      8          6           0       -1.244441    0.440078    1.636812
      9          6           0       -1.610481    3.926375    0.835717
     10          6           0       -1.472608    5.015832    1.901961
     11          6           0       -2.655790    4.266150   -0.229391
     12          6           0        3.652161    0.563163   -0.538859
     13          6           0        3.926511    1.234716   -1.750770
     14          6           0        5.247550    1.370051   -2.219393
     15          6           0        6.315180    0.830058   -1.479678
     16          6           0        6.056083    0.150760   -0.275379
     17          6           0        4.733226    0.016665    0.188920
     18          6           0        2.092486   -0.162808    1.831164
     19          6           0        1.799240   -1.504800    2.153726
     20          6           0        1.925936   -1.970509    3.476129
     21          6           0        2.361210   -1.097450    4.489904
     22          6           0        2.675740    0.237732    4.175803
     23          6           0        2.544806    0.701141    2.852422
     24          6           0       -2.898817    0.330925   -0.825666
     25          6           0       -3.952299    0.970570   -0.135224
     26          6           0       -4.994859    1.607708   -0.835136
     27          6           0       -4.991911    1.622062   -2.241553
     28          6           0       -3.943088    0.999301   -2.942101
     29          6           0       -2.904986    0.360926   -2.236428
     30          6           0       -2.247237   -2.072005    0.817973
     31          6           0       -1.494490   -3.265520    0.810650
     32          6           0       -2.014068   -4.449947    1.367475
     33          6           0       -3.298190   -4.452330    1.942064
     34          6           0       -4.058841   -3.268787    1.955465
     35          6           0       -3.534844   -2.086923    1.396785
     36          1           0        1.865236    2.692409    0.938684
     37          1           0        1.750720    2.681177   -0.785296
     38          1           0       -0.615010    1.979819   -0.709130
     39          1           0       -0.229441    2.219286    2.335239
     40          1           0       -2.142122    0.396023    2.252572
     41          1           0       -0.499921   -0.071939    2.239278
     42          1           0       -0.713637    4.732849    2.631127
     43          1           0       -1.179760    5.957029    1.436506
     44          1           0       -2.423341    5.154078    2.417180
     45          1           0       -2.397701    5.204527   -0.719989
     46          1           0       -2.693978    3.478339   -0.981477
     47          1           0       -3.639622    4.361532    0.229989
     48          1           0        3.119115    1.640566   -2.341754
     49          1           0        5.440771    1.882053   -3.150929
     50          1           0        7.329262    0.929386   -1.838949
     51          1           0        6.871863   -0.272995    0.292053
     52          1           0        4.562601   -0.517592    1.111649
     53          1           0        1.471411   -2.188016    1.384312
     54          1           0        1.692157   -2.998984    3.712001
     55          1           0        2.462796   -1.453949    5.504980
     56          1           0        3.024111    0.906133    4.950204
     57          1           0        2.811802    1.723257    2.632614
     58          1           0       -3.965375    0.989992    0.943615
     59          1           0       -5.793296    2.090999   -0.290968
     60          1           0       -5.790339    2.110229   -2.781316
     61          1           0       -3.935521    1.006710   -4.022512
     62          1           0       -2.112078   -0.110792   -2.795163
     63          1           0       -0.511030   -3.283476    0.366068
     64          1           0       -1.429340   -5.358295    1.348132
     65          1           0       -3.700995   -5.360681    2.366434
     66          1           0       -5.047498   -3.267120    2.391231
     67          1           0       -4.137662   -1.193652    1.416669
     68         17           0       -0.845796   -2.479945   -2.546360
     69         17           0        2.264679   -1.607635   -2.605512
     70         46           0        0.452917   -1.031566   -1.254897
 ---------------------------------------------------------------------
 Rotational constants (GHZ):      0.0957838      0.0688551      0.0624360
 General basis read from cards:  (6D, 7F)
 ======================================================================================================
                                       Pseudopotential Parameters
 ======================================================================================================
  Center     Atomic      Valence      Angular      Power
  Number     Number     Electrons     Momentum     of R      Exponent        Coefficient   SO-Coeffient
 ======================================================================================================
    1         15
                                   No pseudopotential on this center.
    2         15
                                   No pseudopotential on this center.
    3          8
                                   No pseudopotential on this center.
    4          8
                                   No pseudopotential on this center.
    5          6
                                   No pseudopotential on this center.
    6          6
                                   No pseudopotential on this center.
    7          6
                                   No pseudopotential on this center.
    8          6
                                   No pseudopotential on this center.
    9          6
                                   No pseudopotential on this center.
   10          6
                                   No pseudopotential on this center.
   11          6
                                   No pseudopotential on this center.
   12          6
                                   No pseudopotential on this center.
   13          6
                                   No pseudopotential on this center.
   14          6
                                   No pseudopotential on this center.
   15          6
                                   No pseudopotential on this center.
   16          6
                                   No pseudopotential on this center.
   17          6
                                   No pseudopotential on this center.
   18          6
                                   No pseudopotential on this center.
   19          6
                                   No pseudopotential on this center.
   20          6
                                   No pseudopotential on this center.
   21          6
                                   No pseudopotential on this center.
   22          6
                                   No pseudopotential on this center.
   23          6
                                   No pseudopotential on this center.
   24          6
                                   No pseudopotential on this center.
   25          6
                                   No pseudopotential on this center.
   26          6
                                   No pseudopotential on this center.
   27          6
                                   No pseudopotential on this center.
   28          6
                                   No pseudopotential on this center.
   29          6
                                   No pseudopotential on this center.
   30          6
                                   No pseudopotential on this center.
   31          6
                                   No pseudopotential on this center.
   32          6
                                   No pseudopotential on this center.
   33          6
                                   No pseudopotential on this center.
   34          6
                                   No pseudopotential on this center.
   35          6
                                   No pseudopotential on this center.
   36          1
                                   No pseudopotential on this center.
   37          1
                                   No pseudopotential on this center.
   38          1
                                   No pseudopotential on this center.
   39          1
                                   No pseudopotential on this center.
   40          1
                                   No pseudopotential on this center.
   41          1
                                   No pseudopotential on this center.
   42          1
                                   No pseudopotential on this center.
   43          1
                                   No pseudopotential on this center.
   44          1
                                   No pseudopotential on this center.
   45          1
                                   No pseudopotential on this center.
   46          1
                                   No pseudopotential on this center.
   47          1
                                   No pseudopotential on this center.
   48          1
                                   No pseudopotential on this center.
   49          1
                                   No pseudopotential on this center.
   50          1
                                   No pseudopotential on this center.
   51          1
                                   No pseudopotential on this center.
   52          1
                                   No pseudopotential on this center.
   53          1
                                   No pseudopotential on this center.
   54          1
                                   No pseudopotential on this center.
   55          1
                                   No pseudopotential on this center.
   56          1
                                   No pseudopotential on this center.
   57          1
                                   No pseudopotential on this center.
   58          1
                                   No pseudopotential on this center.
   59          1
                                   No pseudopotential on this center.
   60          1
                                   No pseudopotential on this center.
   61          1
                                   No pseudopotential on this center.
   62          1
                                   No pseudopotential on this center.
   63          1
                                   No pseudopotential on this center.
   64          1
                                   No pseudopotential on this center.
   65          1
                                   No pseudopotential on this center.
   66          1
                                   No pseudopotential on this center.
   67          1
                                   No pseudopotential on this center.
   68         17
                                   No pseudopotential on this center.
   69         17
                                   No pseudopotential on this center.
   70         46           18
                                      F and up 
                                                     0      598.3336444       -0.05631770    0.00000000
                                                     1      162.4298290      -20.12880360    0.00000000
                                                     2       51.5714771     -105.81979230    0.00000000
                                                     2       16.4888260      -42.57333450    0.00000000
                                                     2        5.8287656       -3.61650860    0.00000000
                                      S - F
                                                     0       73.3806304        3.00036510    0.00000000
                                                     1       14.7550438       32.43500930    0.00000000
                                                     2       17.8350204      459.08303830    0.00000000
                                                     2       12.7111477     -868.06290290    0.00000000
                                                     2        9.3292063      514.47260980    0.00000000
                                      P - F
                                                     0       55.6689877        4.95930990    0.00000000
                                                     1       64.2337771       21.17110290    0.00000000
                                                     2       17.6254952      605.05600920    0.00000000
                                                     2       11.9058155     -726.96418460    0.00000000
                                                     2        8.5100832      396.32748830    0.00000000
                                      D - F
                                                     0       49.9994728        3.05087450    0.00000000
                                                     1       39.7477547       22.25065800    0.00000000
                                                     2       11.4321366      674.83576980    0.00000000
                                                     2        9.1790080    -1040.85540480    0.00000000
                                                     2        7.5624429      505.93751470    0.00000000
 ======================================================================================================
 There are   659 symmetry adapted cartesian basis functions of A   symmetry.
 There are   659 symmetry adapted basis functions of A   symmetry.
   659 basis functions,  1309 primitive gaussians,   659 cartesian basis functions
   158 alpha electrons      158 beta electrons
       nuclear repulsion energy      5726.6832963374 Hartrees.
 NAtoms=   70 NActive=   70 NUniq=   70 SFac= 1.00D+00 NAtFMM=   60 NAOKFM=T Big=T
 Integral buffers will be    131072 words long.
 Raffenetti 2 integral format.
 Two-electron integral symmetry is turned on.
 Nuclear repulsion after empirical dispersion term =     5726.5540447979 Hartrees.
 Standard density basis: Auto (5D, 7F)
  2899 Density fitting functions
 There are  2899 symmetry adapted density basis functions of A   symmetry.
 One-electron integrals computed using PRISM.
   1 Symmetry operations used in ECPInt.
 ECPInt:  NShTT=   25200 NPrTT=  167011 LenC2=   19929 LenP2D=   68034.
 LDataN:  DoStor=T MaxTD1= 5 Len=  102
 NBasis=   659 RedAO= T EigKep=  5.12D-04  NBF=   659
 NBsUse=   659 1.00D-06 EigRej= -1.00D+00 NBFU=   659
 NBasis=      659 NBas6D=      659 NTT=      217470   NTT6D=   217470
 NDBShl=      583 NDBF=       2899 NDBF6D=     3422  NNucDB=        0
 IDenFi=        2 ISolve=        0 FullAP=F BlkAPC=T NucTyp=        0
 TolInv= 1.00D-06 TolIt=  1.00D-10 IR12=0.
 FoFCou: FMM=F IPFlag=           0 FMFlag=           0 FMFlg1=           0
         NFxFlg=           0 DoJE=F BraDBF=T KetDBF=T FulRan=T
         wScrn=  0.000000 ICntrl=     600 IOpCl=  3 I1Cent=           6 NGrid=           0
         NMat0=    1 NMatS0=   3422 NMatT0=    0 NMatD0=    1 NMtDS0=    0 NMtDT0=    0
 Petite list used in FoFCou.
 DBF EigKep=  1.09D-06 EigRej= -1.00D+00
 NDBF=   2899  NBFD=  2899
 NRank=  2899 NBFDU=  2899
 S*AI*S=  12.2401628417    
 Defaulting to unpruned grid for atomic number  46.
 ExpMin= 2.62D-02 ExpMax= 2.52D+04 ExpMxC= 3.78D+03 IAcc=3 IRadAn=         5 AccDes= 0.00D+00
 Harris functional with IExCor= 1009 and IRadAn=       5 diagonalized for initial guess.
 HarFok:  IExCor= 1009 AccDes= 0.00D+00 IRadAn=         5 IDoV= 1 UseB2=F ITyADJ=14
 ICtDFT=  3500011 ScaDFX=  1.000000  1.000000  1.000000  1.000000
 Defaulting to unpruned grid for atomic number  46.
 Defaulting to unpruned grid for atomic number  46.
 Defaulting to unpruned grid for atomic number  46.
 Defaulting to unpruned grid for atomic number  46.
 Defaulting to unpruned grid for atomic number  46.
 Defaulting to unpruned grid for atomic number  46.
 Defaulting to unpruned grid for atomic number  46.
 Defaulting to unpruned grid for atomic number  46.
 Defaulting to unpruned grid for atomic number  46.
 Defaulting to unpruned grid for atomic number  46.
 Defaulting to unpruned grid for atomic number  46.
 Defaulting to unpruned grid for atomic number  46.
 Defaulting to unpruned grid for atomic number  46.
 Defaulting to unpruned grid for atomic number  46.
 FoFCou: FMM=F IPFlag=           0 FMFlag=      100000 FMFlg1=        2001
         NFxFlg=           0 DoJE=T BraDBF=F KetDBF=T FulRan=T
         wScrn=  0.000000 ICntrl=     500 IOpCl=  0 I1Cent=   200000004 NGrid=           0
         NMat0=    1 NMatS0=      1 NMatT0=    0 NMatD0=    1 NMtDS0=    0 NMtDT0=    0
 Petite list used in FoFCou.
 Requested convergence on RMS density matrix=1.00D-08 within 500 cycles.
 Requested convergence on MAX density matrix=1.00D-06.
 Requested convergence on             energy=1.00D-06.
 No special actions if energy rises.
 FoFCou: FMM=F IPFlag=           0 FMFlag=      100000 FMFlg1=        2001
         NFxFlg=           0 DoJE=T BraDBF=T KetDBF=F FulRan=T
         wScrn=  0.000000 ICntrl=     500 IOpCl=  0 I1Cent=           5 NGrid=           0
         NMat0=    1 NMatS0=      1 NMatT0=    0 NMatD0=    1 NMtDS0=    0 NMtDT0=    0
 Symmetry not used in FoFCou.
 Defaulting to unpruned grid for atomic number  46.
 Defaulting to unpruned grid for atomic number  46.
 Defaulting to unpruned grid for atomic number  46.
 Defaulting to unpruned grid for atomic number  46.
 Defaulting to unpruned grid for atomic number  46.
 Defaulting to unpruned grid for atomic number  46.
 Defaulting to unpruned grid for atomic number  46.
 Defaulting to unpruned grid for atomic number  46.
 Defaulting to unpruned grid for atomic number  46.
 Defaulting to unpruned grid for atomic number  46.
 Defaulting to unpruned grid for atomic number  46.
 Defaulting to unpruned grid for atomic number  46.
 Defaulting to unpruned grid for atomic number  46.
 Defaulting to unpruned grid for atomic number  46.
 EnCoef did     5 forward-backward iterations
 EnCoef did   100 forward-backward iterations
 EnCoef did   100 forward-backward iterations
 EnCoef did   100 forward-backward iterations
 EnCoef did     3 forward-backward iterations
 EnCoef did    10 forward-backward iterations
 EnCoef did     3 forward-backward iterations
 Initial convergence to 1.0D-05 achieved.  Increase integral accuracy.
 SCF Done:  E(RPBE-PBE) =  -3078.63827495     A.U. after   27 cycles
            NFock= 27  Conv=0.48D-08     -V/T= 2.0334

 **********************************************************************

            Population analysis using the SCF density.

 **********************************************************************

 Orbital symmetries:
       Occupied  (A) (A) (A) (A) (A) (A) (A) (A) (A) (A) (A) (A)
                 (A) (A) (A) (A) (A) (A) (A) (A) (A) (A) (A) (A)
                 (A) (A) (A) (A) (A) (A) (A) (A) (A) (A) (A) (A)
                 (A) (A) (A) (A) (A) (A) (A) (A) (A) (A) (A) (A)
                 (A) (A) (A) (A) (A) (A) (A) (A) (A) (A) (A) (A)
                 (A) (A) (A) (A) (A) (A) (A) (A) (A) (A) (A) (A)
                 (A) (A) (A) (A) (A) (A) (A) (A) (A) (A) (A) (A)
                 (A) (A) (A) (A) (A) (A) (A) (A) (A) (A) (A) (A)
                 (A) (A) (A) (A) (A) (A) (A) (A) (A) (A) (A) (A)
                 (A) (A) (A) (A) (A) (A) (A) (A) (A) (A) (A) (A)
                 (A) (A) (A) (A) (A) (A) (A) (A) (A) (A) (A) (A)
                 (A) (A) (A) (A) (A) (A) (A) (A) (A) (A) (A) (A)
                 (A) (A) (A) (A) (A) (A) (A) (A) (A) (A) (A) (A)
                 (A) (A)
       Virtual   (A) (A) (A) (A) (A) (A) (A) (A) (A) (A) (A) (A)
                 (A) (A) (A) (A) (A) (A) (A) (A) (A) (A) (A) (A)
                 (A) (A) (A) (A) (A) (A) (A) (A) (A) (A) (A) (A)
                 (A) (A) (A) (A) (A) (A) (A) (A) (A) (A) (A) (A)
                 (A) (A) (A) (A) (A) (A) (A) (A) (A) (A) (A) (A)
                 (A) (A) (A) (A) (A) (A) (A) (A) (A) (A) (A) (A)
                 (A) (A) (A) (A) (A) (A) (A) (A) (A) (A) (A) (A)
                 (A) (A) (A) (A) (A) (A) (A) (A) (A) (A) (A) (A)
                 (A) (A) (A) (A) (A) (A) (A) (A) (A) (A) (A) (A)
                 (A) (A) (A) (A) (A) (A) (A) (A) (A) (A) (A) (A)
                 (A) (A) (A) (A) (A) (A) (A) (A) (A) (A) (A) (A)
                 (A) (A) (A) (A) (A) (A) (A) (A) (A) (A) (A) (A)
                 (A) (A) (A) (A) (A) (A) (A) (A) (A) (A) (A) (A)
                 (A) (A) (A) (A) (A) (A) (A) (A) (A) (A) (A) (A)
                 (A) (A) (A) (A) (A) (A) (A) (A) (A) (A) (A) (A)
                 (A) (A) (A) (A) (A) (A) (A) (A) (A) (A) (A) (A)
                 (A) (A) (A) (A) (A) (A) (A) (A) (A) (A) (A) (A)
                 (A) (A) (A) (A) (A) (A) (A) (A) (A) (A) (A) (A)
                 (A) (A) (A) (A) (A) (A) (A) (A) (A) (A) (A) (A)
                 (A) (A) (A) (A) (A) (A) (A) (A) (A) (A) (A) (A)
                 (A) (A) (A) (A) (A) (A) (A) (A) (A) (A) (A) (A)
                 (A) (A) (A) (A) (A) (A) (A) (A) (A) (A) (A) (A)
                 (A) (A) (A) (A) (A) (A) (A) (A) (A) (A) (A) (A)
                 (A) (A) (A) (A) (A) (A) (A) (A) (A) (A) (A) (A)
                 (A) (A) (A) (A) (A) (A) (A) (A) (A) (A) (A) (A)
                 (A) (A) (A) (A) (A) (A) (A) (A) (A) (A) (A) (A)
                 (A) (A) (A) (A) (A) (A) (A) (A) (A) (A) (A) (A)
                 (A) (A) (A) (A) (A) (A) (A) (A) (A) (A) (A) (A)
                 (A) (A) (A) (A) (A) (A) (A) (A) (A) (A) (A) (A)
                 (A) (A) (A) (A) (A) (A) (A) (A) (A) (A) (A) (A)
                 (A) (A) (A) (A) (A) (A) (A) (A) (A) (A) (A) (A)
                 (A) (A) (A) (A) (A) (A) (A) (A) (A) (A) (A) (A)
                 (A) (A) (A) (A) (A) (A) (A) (A) (A) (A) (A) (A)
                 (A) (A) (A) (A) (A) (A) (A) (A) (A) (A) (A) (A)
                 (A) (A) (A) (A) (A) (A) (A) (A) (A) (A) (A) (A)
                 (A) (A) (A) (A) (A) (A) (A) (A) (A) (A) (A) (A)
                 (A) (A) (A) (A) (A) (A) (A) (A) (A) (A) (A) (A)
                 (A) (A) (A) (A) (A) (A) (A) (A) (A) (A) (A) (A)
                 (A) (A) (A) (A) (A) (A) (A) (A) (A) (A) (A) (A)
                 (A) (A) (A) (A) (A) (A) (A) (A) (A) (A) (A) (A)
                 (A) (A) (A) (A) (A) (A) (A) (A) (A) (A) (A) (A)
                 (A) (A) (A) (A) (A) (A) (A) (A) (A)
 The electronic state is 1-A.
 Alpha  occ. eigenvalues -- -100.59533-100.59146 -76.38338 -76.37863 -18.78878
 Alpha  occ. eigenvalues --  -18.78820  -9.99656  -9.97080  -9.96742  -9.94253
 Alpha  occ. eigenvalues --   -9.93357  -9.92992  -9.92901  -9.92851  -9.92831
 Alpha  occ. eigenvalues --   -9.92674  -9.92658  -9.92604  -9.92487  -9.92307
 Alpha  occ. eigenvalues --   -9.91561  -9.91312  -9.91100  -9.91064  -9.91007
 Alpha  occ. eigenvalues --   -9.90939  -9.90911  -9.90865  -9.90786  -9.90703
 Alpha  occ. eigenvalues --   -9.90646  -9.90601  -9.90584  -9.90540  -9.90509
 Alpha  occ. eigenvalues --   -9.88602  -9.87985  -9.09058  -9.08670  -6.91414
 Alpha  occ. eigenvalues --   -6.91041  -6.90658  -6.90577  -6.90279  -6.90168
 Alpha  occ. eigenvalues --   -6.36172  -6.35638  -4.57996  -4.57955  -4.57673
 Alpha  occ. eigenvalues --   -4.57445  -4.57423  -4.57170  -3.20495  -1.97324
 Alpha  occ. eigenvalues --   -1.97210  -1.93433  -1.02923  -0.93125  -0.79653
 Alpha  occ. eigenvalues --   -0.77985  -0.77338  -0.77310  -0.76204  -0.71751
 Alpha  occ. eigenvalues --   -0.70792  -0.69461  -0.68854  -0.67697  -0.67584
 Alpha  occ. eigenvalues --   -0.67382  -0.67350  -0.67292  -0.67161  -0.64749
 Alpha  occ. eigenvalues --   -0.63708  -0.63086  -0.61650  -0.59752  -0.57657
 Alpha  occ. eigenvalues --   -0.56585  -0.55539  -0.54921  -0.54494  -0.54335
 Alpha  occ. eigenvalues --   -0.54282  -0.53896  -0.53328  -0.51572  -0.50772
 Alpha  occ. eigenvalues --   -0.49295  -0.47643  -0.46567  -0.45924  -0.45685
 Alpha  occ. eigenvalues --   -0.44344  -0.42521  -0.42207  -0.41697  -0.41596
 Alpha  occ. eigenvalues --   -0.41188  -0.40831  -0.40473  -0.40180  -0.39876
 Alpha  occ. eigenvalues --   -0.39666  -0.39536  -0.39320  -0.38926  -0.38440
 Alpha  occ. eigenvalues --   -0.37632  -0.37327  -0.37234  -0.37132  -0.36480
 Alpha  occ. eigenvalues --   -0.36017  -0.35723  -0.35366  -0.34472  -0.34373
 Alpha  occ. eigenvalues --   -0.34113  -0.33600  -0.33145  -0.32772  -0.32555
 Alpha  occ. eigenvalues --   -0.32219  -0.31989  -0.31544  -0.31359  -0.31193
 Alpha  occ. eigenvalues --   -0.30681  -0.30564  -0.30230  -0.30035  -0.29893
 Alpha  occ. eigenvalues --   -0.29827  -0.29351  -0.28726  -0.27239  -0.25574
 Alpha  occ. eigenvalues --   -0.24748  -0.24616  -0.24477  -0.24296  -0.24215
 Alpha  occ. eigenvalues --   -0.23707  -0.22703  -0.22552  -0.22357  -0.22250
 Alpha  occ. eigenvalues --   -0.22156  -0.21745  -0.20566  -0.19599  -0.18788
 Alpha  occ. eigenvalues --   -0.18159  -0.17544  -0.17378
 Alpha virt. eigenvalues --   -0.09809  -0.07266  -0.06008  -0.05974  -0.04583
 Alpha virt. eigenvalues --   -0.04152  -0.03904  -0.03513  -0.03349  -0.01869
 Alpha virt. eigenvalues --    0.00504   0.02884   0.03242   0.03656   0.04095
 Alpha virt. eigenvalues --    0.04395   0.05089   0.05342   0.05709   0.06423
 Alpha virt. eigenvalues --    0.06759   0.07613   0.07925   0.08291   0.08654
 Alpha virt. eigenvalues --    0.09086   0.09281   0.09440   0.09863   0.10184
 Alpha virt. eigenvalues --    0.10354   0.10750   0.11147   0.11462   0.11960
 Alpha virt. eigenvalues --    0.12182   0.12674   0.12909   0.13271   0.13292
 Alpha virt. eigenvalues --    0.13606   0.13939   0.14527   0.14936   0.15286
 Alpha virt. eigenvalues --    0.15436   0.15526   0.15980   0.16286   0.16657
 Alpha virt. eigenvalues --    0.16780   0.17522   0.17814   0.18144   0.18467
 Alpha virt. eigenvalues --    0.19145   0.19494   0.19847   0.20058   0.20745
 Alpha virt. eigenvalues --    0.20937   0.21407   0.22348   0.22721   0.23493
 Alpha virt. eigenvalues --    0.23770   0.24456   0.24650   0.24894   0.25337
 Alpha virt. eigenvalues --    0.25486   0.25913   0.26343   0.26473   0.26833
 Alpha virt. eigenvalues --    0.27257   0.27364   0.28197   0.28761   0.28970
 Alpha virt. eigenvalues --    0.29769   0.29932   0.31819   0.33282   0.34054
 Alpha virt. eigenvalues --    0.35758   0.35914   0.36645   0.37657   0.38723
 Alpha virt. eigenvalues --    0.39858   0.40739   0.41593   0.42224   0.43253
 Alpha virt. eigenvalues --    0.44885   0.45527   0.46237   0.46776   0.47223
 Alpha virt. eigenvalues --    0.47720   0.48170   0.48271   0.48359   0.48729
 Alpha virt. eigenvalues --    0.48903   0.49259   0.49483   0.49901   0.50210
 Alpha virt. eigenvalues --    0.50343   0.50464   0.50647   0.50826   0.50864
 Alpha virt. eigenvalues --    0.51116   0.51413   0.51727   0.51915   0.52366
 Alpha virt. eigenvalues --    0.52379   0.52538   0.53241   0.53559   0.53933
 Alpha virt. eigenvalues --    0.54083   0.54290   0.54928   0.55156   0.55447
 Alpha virt. eigenvalues --    0.55711   0.55787   0.56348   0.56383   0.56538
 Alpha virt. eigenvalues --    0.56866   0.57145   0.57290   0.57451   0.57622
 Alpha virt. eigenvalues --    0.58102   0.58479   0.58682   0.59026   0.59193
 Alpha virt. eigenvalues --    0.60000   0.60177   0.60894   0.60979   0.61128
 Alpha virt. eigenvalues --    0.62233   0.62376   0.62718   0.63303   0.64228
 Alpha virt. eigenvalues --    0.64712   0.65209   0.65943   0.66309   0.66658
 Alpha virt. eigenvalues --    0.66996   0.67615   0.68403   0.69032   0.69418
 Alpha virt. eigenvalues --    0.70425   0.70780   0.71505   0.72582   0.72999
 Alpha virt. eigenvalues --    0.74482   0.74873   0.75217   0.75711   0.76313
 Alpha virt. eigenvalues --    0.76485   0.77296   0.77518   0.77703   0.78279
 Alpha virt. eigenvalues --    0.78643   0.78969   0.79008   0.79429   0.79498
 Alpha virt. eigenvalues --    0.80003   0.80102   0.80176   0.80433   0.81271
 Alpha virt. eigenvalues --    0.81826   0.82136   0.82604   0.82805   0.83382
 Alpha virt. eigenvalues --    0.83439   0.84445   0.84571   0.84759   0.84933
 Alpha virt. eigenvalues --    0.85404   0.85843   0.86216   0.86454   0.86782
 Alpha virt. eigenvalues --    0.87069   0.87279   0.87782   0.88441   0.88789
 Alpha virt. eigenvalues --    0.89016   0.89199   0.89611   0.89716   0.90137
 Alpha virt. eigenvalues --    0.90254   0.90692   0.91099   0.91639   0.91807
 Alpha virt. eigenvalues --    0.92019   0.92511   0.93059   0.93238   0.93856
 Alpha virt. eigenvalues --    0.94359   0.94854   0.95314   0.95814   0.96400
 Alpha virt. eigenvalues --    0.96877   0.97976   0.98425   0.98916   0.99524
 Alpha virt. eigenvalues --    1.00004   1.00268   1.01237   1.01277   1.01969
 Alpha virt. eigenvalues --    1.02302   1.03551   1.04007   1.04299   1.04910
 Alpha virt. eigenvalues --    1.05635   1.06166   1.06698   1.06934   1.07506
 Alpha virt. eigenvalues --    1.07927   1.08514   1.08798   1.09403   1.10204
 Alpha virt. eigenvalues --    1.10708   1.11198   1.11722   1.12230   1.12897
 Alpha virt. eigenvalues --    1.13392   1.14641   1.15008   1.15972   1.17131
 Alpha virt. eigenvalues --    1.17175   1.18427   1.18943   1.19835   1.20412
 Alpha virt. eigenvalues --    1.20829   1.21798   1.22954   1.24029   1.25847
 Alpha virt. eigenvalues --    1.26899   1.28091   1.28917   1.29392   1.31582
 Alpha virt. eigenvalues --    1.32325   1.34563   1.35264   1.36366   1.36802
 Alpha virt. eigenvalues --    1.37023   1.37211   1.38198   1.38587   1.39264
 Alpha virt. eigenvalues --    1.39649   1.39759   1.39842   1.40010   1.40931
 Alpha virt. eigenvalues --    1.40957   1.41325   1.41769   1.41918   1.41945
 Alpha virt. eigenvalues --    1.42058   1.42987   1.43182   1.43708   1.44006
 Alpha virt. eigenvalues --    1.44284   1.44576   1.44675   1.45846   1.48420
 Alpha virt. eigenvalues --    1.49108   1.50828   1.53027   1.54985   1.56014
 Alpha virt. eigenvalues --    1.57221   1.59461   1.59931   1.63271   1.64424
 Alpha virt. eigenvalues --    1.66469   1.68208   1.69038   1.69668   1.70565
 Alpha virt. eigenvalues --    1.71084   1.72325   1.73124   1.73449   1.74275
 Alpha virt. eigenvalues --    1.74727   1.75147   1.75471   1.76720   1.77674
 Alpha virt. eigenvalues --    1.78810   1.79078   1.79851   1.81277   1.82440
 Alpha virt. eigenvalues --    1.82907   1.82974   1.83410   1.84035   1.84921
 Alpha virt. eigenvalues --    1.86121   1.87843   1.89118   1.89223   1.90584
 Alpha virt. eigenvalues --    1.90754   1.90903   1.91479   1.92477   1.92783
 Alpha virt. eigenvalues --    1.93800   1.94799   1.96156   1.97550   1.98971
 Alpha virt. eigenvalues --    1.99153   1.99585   2.00055   2.02012   2.02591
 Alpha virt. eigenvalues --    2.02760   2.03633   2.03899   2.04425   2.05106
 Alpha virt. eigenvalues --    2.05295   2.05324   2.05551   2.05650   2.05954
 Alpha virt. eigenvalues --    2.06161   2.06196   2.06714   2.06917   2.07131
 Alpha virt. eigenvalues --    2.07259   2.07403   2.07777   2.08479   2.08967
 Alpha virt. eigenvalues --    2.10809   2.12261   2.12792   2.13316   2.15909
 Alpha virt. eigenvalues --    2.17536   2.18230   2.19322   2.19731   2.20161
 Alpha virt. eigenvalues --    2.20260   2.20420   2.21179   2.21338   2.21406
 Alpha virt. eigenvalues --    2.21485   2.22157   2.22860   2.23121   2.23866
 Alpha virt. eigenvalues --    2.24368   2.27304   2.29837   2.32323   2.35350
 Alpha virt. eigenvalues --    2.38286   2.41981   2.44328   2.44732   2.46015
 Alpha virt. eigenvalues --    2.46680   2.48128   2.48368   2.49505   2.49953
 Alpha virt. eigenvalues --    2.50376   2.51702   2.53041   2.53629   2.53886
 Alpha virt. eigenvalues --    2.53948   2.54815   2.56326   2.56778   2.57288
 Alpha virt. eigenvalues --    2.57930   2.58395   2.58672   2.60210   2.60354
 Alpha virt. eigenvalues --    2.60689   2.62659   2.64319   2.64856   2.65964
 Alpha virt. eigenvalues --    2.66161   2.66434   2.66887   2.67551   2.67738
 Alpha virt. eigenvalues --    2.68970   2.69929   2.70043   2.71408   2.71702
 Alpha virt. eigenvalues --    2.75067   2.76450   2.88407   2.91780   2.93603
 Alpha virt. eigenvalues --    2.93863   2.95304   2.96397   3.00178   3.22974
 Alpha virt. eigenvalues --    3.24019   3.25899   3.26651   3.47342   3.50935
 Alpha virt. eigenvalues --    3.93345   3.98258   3.99912   4.00455   4.01550
 Alpha virt. eigenvalues --    4.02197   4.03518   4.03614   4.04602   4.06723
 Alpha virt. eigenvalues --    4.09811   4.10572   4.12093   4.15019   4.17677
 Alpha virt. eigenvalues --    4.22458   4.23365   4.23980   4.25005   4.25224
 Alpha virt. eigenvalues --    4.26123   4.26802   4.28676   4.29084   4.30734
 Alpha virt. eigenvalues --    4.30876   4.33462   4.34420   4.45049   4.55654
 Alpha virt. eigenvalues --    4.56913   4.57157   4.58013   4.59230   4.64004
 Alpha virt. eigenvalues --   31.08690
          Condensed to atoms (all electrons):
 Mulliken charges:
               1
     1  P    0.628294
     2  P    0.587993
     3  O   -0.460934
     4  O   -0.454363
     5  C   -0.536866
     6  C    0.061679
     7  C    0.100049
     8  C   -0.549112
     9  C    0.460347
    10  C   -0.486751
    11  C   -0.491608
    12  C   -0.045150
    13  C   -0.163040
    14  C   -0.125116
    15  C   -0.137108
    16  C   -0.125478
    17  C   -0.174827
    18  C   -0.108549
    19  C   -0.176671
    20  C   -0.126023
    21  C   -0.137895
    22  C   -0.131950
    23  C   -0.165760
    24  C   -0.069874
    25  C   -0.155231
    26  C   -0.138418
    27  C   -0.139345
    28  C   -0.130209
    29  C   -0.174022
    30  C   -0.062571
    31  C   -0.168559
    32  C   -0.127555
    33  C   -0.139122
    34  C   -0.130760
    35  C   -0.167862
    36  H    0.203163
    37  H    0.226690
    38  H    0.213608
    39  H    0.147472
    40  H    0.216172
    41  H    0.228383
    42  H    0.156130
    43  H    0.166012
    44  H    0.164934
    45  H    0.162360
    46  H    0.183670
    47  H    0.156645
    48  H    0.163162
    49  H    0.150411
    50  H    0.146460
    51  H    0.145647
    52  H    0.155659
    53  H    0.205543
    54  H    0.161072
    55  H    0.156024
    56  H    0.154994
    57  H    0.156732
    58  H    0.148062
    59  H    0.145061
    60  H    0.148037
    61  H    0.157197
    62  H    0.218355
    63  H    0.205260
    64  H    0.152111
    65  H    0.146653
    66  H    0.145526
    67  H    0.140226
    68  Cl  -0.221870
    69  Cl  -0.223269
    70  Pd  -0.619923
 Sum of Mulliken charges =  -0.00000
 Mulliken charges with hydrogens summed into heavy atoms:
               1
     1  P    0.628294
     2  P    0.587993
     3  O   -0.460934
     4  O   -0.454363
     5  C   -0.107013
     6  C    0.275286
     7  C    0.247521
     8  C   -0.104558
     9  C    0.460347
    10  C    0.000325
    11  C    0.011067
    12  C   -0.045150
    13  C    0.000122
    14  C    0.025296
    15  C    0.009352
    16  C    0.020169
    17  C   -0.019168
    18  C   -0.108549
    19  C    0.028872
    20  C    0.035049
    21  C    0.018129
    22  C    0.023044
    23  C   -0.009029
    24  C   -0.069874
    25  C   -0.007168
    26  C    0.006643
    27  C    0.008692
    28  C    0.026988
    29  C    0.044333
    30  C   -0.062571
    31  C    0.036700
    32  C    0.024555
    33  C    0.007531
    34  C    0.014766
    35  C   -0.027637
    68  Cl  -0.221870
    69  Cl  -0.223269
    70  Pd  -0.619923
[...]
 .00001132,0.00006134,0.00005575,-0.01526747,0.02715337,-0.00308983,0.0
 0054635,0.00104722,-0.00183205,0.00190955,-0.00354172,0.00021191,0.000
 62446,0.00011674,0.00007307,0.00030057,0.00020171,-0.00123504,0.000261
 83,-0.00048664,-0.00026995,-0.00075771,-0.00002131,0.00013966,-0.00025
 492,-0.00028537,-0.00017524,0.00015908,0.00053169,-0.00011865,-0.00044
 476,-0.00019290,0.00000848,0.00004925,0.00003342,0.00003453,0.00004896
 ,0.00004623,-0.00067649,0.00051327,-0.00031032,-0.00022603,0.00001573,
 0.00026883,-0.00015789,-0.00017446,0.00000074,0.00003857,-0.00001020,-
 0.00006141,0.00000827,-0.00016467,0.00007686,0.00034364,-0.00009686,-0
 .00047566,-0.00122175,0.00078777,-0.00229833,-0.00004233,0.00021142,-0
 .00012551,0.00007928,0.00007705,-0.00004229,-0.00010839,0.00006322,0.0
 0000464,-0.00008917,0.00028647,-0.00006854,-0.00055285,-0.00021115,0.0
 0096331,0.00034517,-0.00001347,0.00063257,0.00007419,-0.00006979,0.000
 39914,-0.00000010,0.00011276,-0.00004340,0.00026126,0.00001787,0.00010
 775,-0.00020901,0.00071503,0.00034792,0.00142646,0.00139781,-0.0013960
 6,0.00139732,-0.00071673,-0.00038999,0.00235764,-0.00029096,0.00005611
 ,0.00017090,-0.00033095,0.00047330,-0.00029888,-0.00028168,-0.00004975
 ,0.00013353,0.00015988,-0.00050910,-0.00000875,0.00014084,0.00093866,0
 .00031350,0.00032323,-0.00034786,0.00003363,0.00004100,0.00002757,-0.0
 0002314,0.00002999,0.00002916,0.00002864,-0.00005539,0.00015731,-0.000
 00391,0.00015194,-0.00004501,0.00000511,-0.00014448,-0.00010087,0.0000
 1174,-0.00002067,-0.00000388,-0.00000353,-0.00001323,-0.00000266,0.000
 00140,0.00004197,-0.00000055,0.00000299,-0.00000790,-0.00000210,-0.000
 02582,-0.00002120,-0.00003060,0.00002906,0.00003939,0.00000596,-0.0000
 1916,0.00008901,0.00000484,0.00001306,-0.00004112,-0.00004699,-0.00002
 402,0.00000053,-0.00006273,-0.00005549,-0.00006005,-0.00003525,-0.0000
 0596,0.00008781,-0.00002643,0.00012673,-0.00007308,-0.00033620,-0.0001
 2001,-0.00001634,0.00007236,-0.00005451,-0.00000198,0.00001407,-0.0001
 2031,0.00006986,0.00007080,0.00005731,-0.00007222,-0.00005451,-0.00003
 950,0.00008780,-0.00002166,-0.00001033,0.00003645,-0.00009125,0.000029
 96,0.00010292,0.00002640,0.00000109,-0.00000757,-0.00013970,0.00062825
 ,0.00194137,-0.00093811,0.00024637,-0.00053758,-0.00108777,-0.00004722
 ,0.00001810,0.00007865,-0.00003182,-0.00003567,-0.00007028,-0.00006332
 ,-0.00002198,0.00000782,0.00000806,-0.00011636,-0.00005015,0.03241094,
 -0.01621873,0.04799415,-0.00139161,0.00250449,-0.00072195,0.00520754,-
 0.00020298,-0.00131067,0.00005001,0.00009655,-0.00002631,-0.00002653,0
 .00001721,0.00003903,-0.00004242,0.00028862,0.00012386,-0.00010670,-0.
 00004972,-0.00009254,0.00005279,0.00000561,-0.00015052,-0.00027073,-0.
 00065660,-0.00037005,-0.00000877,-0.00002411,-0.00003514,0.00000328,0.
 00000190,0.00000586,0.00000188,0.00000648,0.00001222,-0.00152395,0.000
 60312,-0.00104923,-0.00136393,0.00040176,-0.00196535,0.00065668,0.0008
 7902,0.00013954,-0.00077140,-0.00005931,0.00040426,0.00020776,-0.00044
 958,-0.00068252,0.00094146,0.00125034,0.00007171,0.00010837,0.00002377
 ,0.00026397,0.00023183,-0.00009497,0.00019401,-0.00003643,0.00007214,-
 0.00006706,-0.00000684,-0.00002908,0.00002674,0.00002587,-0.00002474,-
 0.00000774,-0.00000110,-0.00000585,-0.00009993,-0.00038752,0.00111996,
 0.00073824,0.00049634,-0.00012178,-0.00002408,-0.00000378,0.00014158,-
 0.00001391,0.00001360,0.00005327,0.00002318,-0.00006343,-0.00001240,-0
 .00001194,-0.00004257,0.00013738,-0.00003046,-0.00022498,-0.00065308,-
 0.00022207,0.00003593,-0.00015587,-0.00006725,0.00001696,0.00002325,0.
 00008606,-0.00001849,-0.00006537,-0.00003054,0.00004526,-0.00003222,-0
 .00005993,-0.00002175,0.00020103,-0.00016124,0.00003001,-0.00000803,-0
 .00005399,-0.00004459,0.00001001,-0.00008200,-0.00002782,0.00008607,0.
 00004529,0.00001049,-0.00001215,0.00002545,0.00016729,-0.00019900,0.00
 014933,-0.00007745,0.00007263,-0.00004282,0.00000414,-0.00000170,-0.00
 000187,-0.00000149,0.00000008,-0.00000020,-0.00000036,0.00000210,-0.00
 000049,-0.00000385,0.00000965,-0.00000780,-0.00000326,0.00000211,0.000
 01398,0.00000999,-0.00000926,0.00000161,-0.00006241,0.00009732,-0.0002
 7028,0.00001746,-0.00002843,-0.00001055,0.00001030,-0.00002845,0.00001
 621,0.00002109,-0.00001511,0.00002680,0.00010961,-0.00013591,0.0000749
 0,-0.00014954,-0.00009951,-0.00013045,0.00001002,-0.00000639,-0.000008
 31,-0.00001036,0.00000263,-0.00000504,0.00000781,-0.00000025,-0.000009
 49,-0.00001018,0.00000785,0.00000533,-0.00001334,0.00000246,0.00002761
 ,0.00004899,0.00002695,-0.00002132,0.00000589,-0.00000266,0.00000487,0
 .00003891,0.00000892,0.00000167,-0.00014913,0.00001584,0.00007126,-0.0
 0005992,-0.00001976,0.00005436,0.00000489,0.00000623,-0.00002480,-0.00
 000658,0.00000575,-0.00000317,0.00003219,-0.00000413,-0.00001761,-0.00
 000268,0.00000216,0.00000376,-0.00003101,-0.00418363,-0.00256883,0.010
 79854,0.00210198,-0.00628168,-0.00034924,0.00086002,-0.00049055,-0.001
 24110,-0.00005012,-0.00003075,0.00059112,-0.00018233,-0.00016109,0.000
 55578,0.00024621,0.00005890,0.00026440,-0.00033373,0.00002150,-0.00068
 984,0.00015295,0.00042915,-0.00063299,-0.00073752,-0.00171865,-0.00162
 567,0.00018259,0.00015957,-0.00049010,0.00001616,-0.00000685,0.0000598
 5,-0.00002608,0.00001745,0.00003206,0.00033744,-0.00047448,-0.00039884
 ,0.00027875,-0.00019824,0.00141509,-0.00001874,0.00031971,-0.00002763,
 0.00024102,0.00020580,0.00000884,0.00006096,0.00018714,0.00021486,-0.0
 0033678,-0.00013514,0.00008021,0.00031305,0.00012658,0.00017913,0.0000
 1561,0.00016774,-0.00005430,0.00004645,0.00001887,0.00012816,-0.000016
 01,0.00001528,0.00000002,-0.00001005,0.00001350,0.00001204,0.00015076,
 0.00004342,0.00000850,0.00079454,-0.00166380,-0.00107132,-0.00098879,0
 .00040993,0.00012365,0.00004160,-0.00027781,0.00000862,-0.00005725,-0.
 00004817,0.00000503,0.00006001,-0.00009032,0.00002343,0.00012298,0.000
 04864,0.00008488,-0.00068178,-0.00263460,-0.00034721,0.00002213,-0.000
 09815,0.00005987,-0.00000850,-0.00008145,0.00007061,0.00001895,-0.0000
 5026,-0.00008759,0.00000150,-0.00028069,-0.00012783,0.00035674,0.00090
 331,-0.00078250,0.00001797,-0.00010651,0.00003921,-0.00004423,0.000002
 33,-0.00002115,0.00023547,0.00013074,-0.00002519,0.00005462,-0.0001210
 9,0.00022647,0.00065909,-0.00054161,0.00050383,-0.00010115,-0.00003276
 ,0.00000107,0.00000765,0.00000795,-0.00001786,-0.00000967,-0.00002351,
 0.00004217,-0.00000346,-0.00000297,-0.00000983,-0.00002223,-0.00002073
 ,0.00005379,0.00002584,-0.00003370,-0.00005724,0.00000100,0.00003420,-
 0.00002714,0.00039141,-0.00059836,0.00054924,0.00001089,-0.00000176,0.
 00014752,0.00002699,-0.00002680,0.00004259,0.00000815,-0.00001296,0.00
 006398,-0.00008796,-0.00007547,-0.00003785,-0.00023177,-0.00030243,0.0
 0005200,-0.00004943,-0.00004286,-0.00002319,-0.00000328,-0.00002910,-0
 .00000765,0.00000277,-0.00002773,-0.00000277,-0.00003830,-0.00005615,-
 0.00002076,0.00009872,0.00006095,-0.00002494,-0.00011930,-0.00009072,0
 .00001399,-0.00006504,-0.00003001,-0.00001496,-0.00010230,-0.00000038,
 0.00001319,0.00022294,-0.00008372,-0.00004786,-0.00011404,-0.00025310,
 0.00023555,0.00005634,0.00005312,-0.00010831,0.00002154,0.00000079,-0.
 00006932,0.00008731,-0.00002580,-0.00014946,-0.00001831,0.00001214,0.0
 0010357,-0.00257008,0.00196235,-0.00272237,-0.00554489,0.08674303,-0.0
 0180558,-0.00007531,-0.00150103,-0.00093775,-0.00291050,0.00399385,0.0
 0001162,-0.00002506,0.00040165,-0.00007691,-0.00008173,0.00034204,0.00
 067037,0.00000755,0.00040561,-0.00039048,0.00005324,-0.00046795,0.0000
 0900,0.00030082,-0.00040081,-0.00047541,-0.00126726,-0.00126567,0.0001
 3215,0.00004912,-0.00027330,-0.00000088,-0.00000832,0.00002806,-0.0000
 1321,0.00001925,0.00001997,-0.00230090,0.00146815,-0.00100195,0.000442
 37,0.00113405,-0.00329875,-0.00037344,0.00088400,-0.00027656,-0.000235
 59,-0.00010934,0.00050771,-0.00024448,-0.00055076,-0.00048931,0.000707
 27,0.00097382,0.00056534,0.00010402,0.00033179,0.00013574,-0.00018728,
 0.00022135,-0.00020362,0.00002978,-0.00008115,0.00011433,-0.00000086,0
 .00002181,-0.00000902,0.00000424,-0.00001875,0.00002652,-0.00001308,0.
 00005468,0.00003526,0.00040414,-0.00127818,-0.00091646,-0.00061528,0.0
 0030970,-0.00000110,-0.00005620,-0.00018626,0.00004508,-0.00001418,-0.
 00009254,-0.00003915,0.00008526,0.00000669,0.00005735,0.00005705,-0.00
 011979,0.00007423,0.00002847,0.00019611,0.00010009,-0.00000749,0.00010
 743,0.00008172,0.00000987,-0.00002029,-0.00002174,0.00001418,0.0000074
 9,-0.00000491,-0.00000484,0.00000843,-0.00000884,0.00001258,0.00007569
 ,0.00006428,-0.00002475,-0.00018813,0.00014043,-0.00003063,-0.00014365
 ,0.00009707,0.00018527,0.00001355,0.00002788,0.00003842,-0.00006204,0.
 00011799,0.00049894,-0.00042135,0.00028783,-0.00004275,-0.00001629,-0.
 00001038,0.00000460,0.00000469,-0.00001286,-0.00000714,-0.00001696,0.0
 0002546,-0.00000061,-0.00000153,-0.00000276,-0.00001491,-0.00001950,0.
 00003292,0.00001572,-0.00001703,-0.00004204,-0.00000013,0.00002364,-0.
 00001217,-0.00114035,0.00008609,-0.00052851,0.00005145,0.00008343,0.00
 009783,-0.00006520,-0.00007119,0.00000936,-0.00002540,0.00006861,0.000
 01105,-0.00009771,-0.00008789,0.00002735,-0.00006960,-0.00001659,0.000
 10144,-0.00003465,-0.00000530,0.00000247,0.00000778,-0.00001664,0.0000
 0379,-0.00000668,-0.00001642,0.00000022,-0.00000024,-0.00006171,0.0000
 2429,0.00005866,0.00003229,-0.00002325,-0.00007199,-0.00005829,0.00002
 747,-0.00003440,-0.00000875,-0.00001588,-0.00006185,-0.00000320,0.0000
 0528,0.00011339,-0.00005379,-0.00004806,0.00004708,0.00002633,-0.00006
 350,0.00000411,0.00001743,-0.00000682,0.00000826,-0.00000498,-0.000031
 25,-0.00000316,-0.00001248,-0.00001867,-0.00000081,0.00001345,0.000036
 02,-0.00199245,-0.00451436,-0.00362976,0.00839466,0.02615995,0.0257759
 5,-0.05276849,0.01318841,-0.02288513,-0.02563346,0.00057648,0.00116143
 ,0.00005669,-0.00059893,-0.00020396,0.00040639,-0.00019215,-0.00049981
 ,0.00578326,-0.00192924,0.00172320,0.00047368,0.00062381,0.00044055,-0
 .00055308,-0.00029366,0.00094287,0.00256963,0.00516233,0.00393116,-0.0
 0013329,0.00041406,0.00040488,0.00001269,-0.00006866,-0.00006083,0.000
 00242,-0.00002015,-0.00008118,0.00061785,-0.00022354,-0.00160034,-0.00
 075231,0.00005899,-0.00057803,0.00031430,-0.00014691,0.00004311,-0.000
 00801,0.00001252,0.00002940,0.00010000,-0.00013022,0.00008980,-0.00009
 307,0.00030706,0.00000538,-0.00486663,0.00233446,-0.00529557,-0.003115
 08,0.00108827,-0.00005122,0.00025039,0.00004823,-0.00018012,-0.0002304
 3,0.00031470,-0.00027524,-0.00041079,0.00057298,0.00002283,-0.00074762
 ,-0.00038294,0.00132311,0.00277582,-0.00806269,-0.00524473,-0.00349866
 ,0.00045128,0.00034215,0.00035414,-0.00101079,0.00000867,-0.00002501,-
 0.00006096,0.00002676,-0.00009549,0.00009104,0.00000333,-0.00034457,-0
 .00118177,-0.00098297,0.00096359,0.00158417,0.00104986,-0.00028989,0.0
 0086618,0.00057767,-0.00010680,-0.00008276,-0.00027117,0.00011540,0.00
 021400,0.00000056,-0.00012867,-0.00003422,0.00021993,0.00030146,-0.000
 39615,-0.00002055,-0.00089646,-0.00153172,0.00118442,0.00009330,0.0004
 9720,-0.00051531,-0.00009174,0.00036867,-0.00027492,0.00003219,-0.0000
 2192,-0.00014112,-0.00133389,0.00143801,-0.00111292,0.00055737,-0.0008
 0953,0.00013256,0.00000754,0.00000832,0.00002609,0.00000162,0.00002713
 ,-0.00002269,-0.00000158,-0.00002481,0.00000301,0.00003554,-0.00000536
 ,0.00001344,0.00003410,-0.00000163,-0.00001866,-0.00003241,-0.00000808
 ,-0.00001571,0.00006462,0.00005004,-0.00031472,-0.00003077,-0.00005219
 ,-0.00004490,0.00000516,0.00005037,-0.00003809,-0.00000501,0.00000591,
 -0.00000883,0.00004888,0.00015661,-0.00007042,-0.00004892,-0.00014446,
 0.00012265,-0.00005274,-0.00005378,0.00000955,-0.00002567,0.00003848,0
 .00000306,-0.00012072,0.00012905,0.00012897,-0.00011693,-0.00002027,-0
 .00011276,0.00009812,-0.00005840,-0.00020015,-0.00031681,-0.00016382,0
 .00007674,-0.00003251,0.00001392,0.00002219,-0.00007310,0.00000348,0.0
 0000064,-0.00052041,-0.00091237,0.00086081,0.00007755,-0.00029822,0.00
 054646,0.00001335,-0.00000680,-0.00003001,0.00002039,-0.00001720,0.000
 01053,-0.00006160,0.00001768,0.00000095,-0.00007782,0.00003107,0.00003
 218,-0.03697218,0.01693928,-0.02752245,-0.01245629,0.00422202,-0.00067
 145,0.13088148,0.01316618,-0.03299430,0.01083214,0.00097098,-0.0684856
 6,-0.01996741,-0.00004720,-0.00048492,0.00020246,-0.00012721,-0.000087
 59,-0.00002332,0.00435515,0.00019962,0.00372732,0.00064778,-0.00067816
 ,0.00077896,-0.00032806,0.00053224,-0.00021164,-0.00131861,-0.00159582
 ,-0.00228784,0.00016619,0.00033022,0.00008156,0.00000878,-0.00001917,-
 0.00003989,-0.00000301,-0.00005276,-0.00001019,-0.00519566,0.00529988,
 -0.00323255,-0.00054940,0.00003128,0.00117501,-0.00037916,-0.00126297,
 0.00007475,0.00040956,0.00001713,-0.00046954,-0.00028793,-0.00044678,0
 .00095677,0.00046124,-0.00139368,-0.00198509,0.00286651,0.00067265,0.0
 0225418,0.00034321,0.00018940,0.00006113,-0.00039927,0.00006192,-0.000
 17029,0.00014213,-0.00016320,0.00026153,0.00006695,-0.00034064,-0.0003
 7572,0.00032720,0.00077421,-0.00006321,-0.00055816,-0.00042049,-0.0007
 1649,0.00005009,-0.00023664,-0.00000857,0.00011929,0.00001797,-0.00004
 336,-0.00000522,0.00008309,0.00003177,-0.00012562,0.00011139,0.0000556
 8,-0.00057825,-0.00074410,-0.00036197,0.00037826,0.00249926,-0.0001962
 0,0.00024018,0.00024078,-0.00020194,0.00002357,0.00014308,-0.00008295,
 0.00002062,0.00008645,0.00003385,-0.00006438,0.00026675,0.00020466,-0.
 00027146,-0.00077320,0.00070506,-0.00068889,-0.00059472,0.00120122,-0.
 00005687,-0.00033987,0.00061638,0.00013072,-0.00009138,0.00049867,0.00
 001696,0.00003247,-0.00005308,0.00059166,-0.00054107,0.00022604,-0.000
 21404,0.00051115,-0.00005873,-0.00000301,0.00000608,-0.00000831,-0.000
 00302,0.00000830,0.00001075,0.00000423,-0.00003488,0.00000186,-0.00002
 022,0.00000631,0.00000245,-0.00001706,0.00003541,-0.00001398,-0.000014
 04,-0.00003712,-0.00000046,0.00024520,0.00070223,-0.00049841,0.0000002
 8,-0.00015668,-0.00009922,-0.00001581,0.00011908,-0.00015455,-0.000093
 06,-0.00017929,-0.00017169,-0.00010859,0.00028167,-0.00018585,0.000816
 33,-0.00019011,-0.00056199,0.00002793,0.00003035,0.00000697,0.00000751
 ,0.00005395,0.00000459,-0.00003984,-0.00013470,-0.00009362,-0.00003148
 ,0.00011127,0.00000662,-0.00003486,0.00004546,0.00008434,-0.00000984,0
 .00002086,-0.00000772,0.00002978,0.00001998,0.00002492,0.00001076,-0.0
 0001026,0.00000078,-0.00072917,-0.00014627,-0.00006034,-0.00001671,0.0
 0008938,-0.00068380,-0.00001527,-0.00003442,0.00002562,-0.00000384,-0.
 00000134,0.00003858,-0.00008937,0.00002492,0.00008835,0.00005229,0.000
 08160,-0.00005528,0.01395531,-0.02173850,0.01254567,0.00475066,-0.0748
 9117,-0.02011731,-0.03295986,0.19556403,-0.02374281,0.01203318,-0.0476
 3345,0.00096845,-0.01755806,-0.03154263,-0.00005430,0.00065517,-0.0004
 4823,-0.00010788,0.00023578,-0.00012378,-0.00348289,0.00182994,-0.0020
 6735,0.00019434,0.00057429,-0.00012271,0.00058106,-0.00069953,0.000303
 50,0.00140317,0.00359232,0.00426341,-0.00014550,-0.00041944,-0.0000063
 2,0.00001865,0.00003371,0.00003120,0.00002642,0.00003481,-0.00000704,-
 0.00330521,0.00060429,-0.00104829,-0.00090637,-0.00021815,-0.00009941,
 0.00030474,0.00023795,0.00020743,-0.00037610,0.00004474,0.00007897,-0.
 00031571,-0.00036800,-0.00010749,0.00046772,-0.00025635,-0.00097295,0.
 00273182,-0.00206052,0.00520498,0.00069856,-0.00031583,0.00049309,-0.0
 0004249,-0.00003622,0.00016529,0.00009708,-0.00012922,0.00012534,0.000
 26032,-0.00064941,0.00013696,0.00100618,0.00032215,-0.00156297,0.00031
 641,0.00028806,0.00082474,-0.00033990,-0.00041640,0.00022362,0.0003760
 3,-0.00000223,-0.00012426,-0.00008590,0.00016691,0.00016667,-0.0002595
 4,0.00003117,-0.00020373,-0.00009370,0.00021840,-0.00034890,-0.0019925
 7,-0.00954683,-0.00236126,-0.00029804,-0.00153890,-0.00237596,-0.00003
 556,-0.00000888,-0.00025960,0.00011325,0.00009840,-0.00001454,-0.00014
 817,-0.00109372,0.00000038,0.00137187,0.00161547,-0.00281421,0.0001901
 8,0.00095367,-0.00053380,-0.00027263,-0.00037125,0.00049967,-0.0003519
 2,0.00003945,-0.00044720,-0.00010072,0.00008740,-0.00001929,-0.0014379
 2,0.00114379,-0.00062320,-0.00006129,0.00016665,0.00001165,-0.00000506
 ,-0.00001370,0.00000542,0.00000387,0.00000232,-0.00002014,-0.00000028,
 0.00004331,-0.00000168,0.00001281,0.00000463,-0.00001757,-0.00002801,-
 0.00000052,0.00001725,0.00002373,0.00001481,0.00001301,0.00017283,0.00
 023982,-0.00001422,0.00001190,-0.00003915,-0.00003560,-0.00000158,0.00
 000327,-0.00000470,-0.00002821,-0.00013983,-0.00005500,-0.00007120,0.0
 0004476,-0.00001277,-0.00056793,0.00017996,0.00002428,0.00001628,0.000
 02730,-0.00002175,0.00003799,-0.00001622,-0.00001539,0.00014193,-0.000
 11037,-0.00011179,0.00007293,0.00002400,0.00019388,-0.00006031,0.00002
 727,-0.00004415,-0.00003158,0.00002124,-0.00003836,0.00002106,0.000001
 08,0.00003608,-0.00003513,-0.00002131,-0.00001745,0.00005828,-0.000374
 66,0.00059346,0.00133252,-0.00005263,-0.00034408,0.00001658,0.00004222
 ,-0.00007224,0.00003498,0.00001549,-0.00002123,0.00014858,0.00001787,-
 0.00032894,-0.00009996,-0.00007754,0.00005046,-0.02758491,0.01522614,-
 0.03731334,-0.00058633,-0.02086022,-0.01922487,0.05382506,0.01645188,0
 .13991310\\0.00000602,0.00000121,0.00000095,0.00000717,-0.00001030,-0.
 00000455,-0.00000542,0.00002780,0.00001699,-0.00000724,0.00000434,0.00
 002273,-0.00000299,-0.00000189,0.00000618,-0.00000899,-0.00000487,0.00
 000099,0.00001088,-0.00000127,-0.00000024,0.00000259,0.00000136,-0.000
 00145,0.00000905,-0.00002460,-0.00004767,0.00000061,0.00000339,0.00000
 249,0.00000013,0.00000494,0.00000780,-0.00000588,-0.00000078,0.0000025
 3,0.00000612,-0.00000059,-0.00000316,-0.00000241,0.00000091,-0.0000004
 3,-0.00000080,0.00000114,0.00000229,0.00000060,-0.00000218,-0.00000308
 ,-0.00000134,0.00000071,0.00000233,0.00000283,0.00000283,-0.00000819,-
 0.00000136,-0.00000236,0.00000810,0.00000115,-0.00000037,-0.00000030,0
 .00000014,0.00000024,-0.00000229,-0.00000242,-0.00000081,0.00000411,-0
 .00000154,0.00000135,0.00000088,-0.00001222,0.00000781,-0.00000073,0.0
 0000487,0.00000026,0.00000018,0.00000181,-0.00000133,-0.00000267,-0.00
 000147,-0.00000088,0.00000011,0.00000019,0.00000038,-0.00000043,0.0000
 0664,-0.00000513,-0.00000109,0.00000340,0.00000988,-0.00000040,-0.0000
 0355,-0.00000807,0.00000120,0.00000040,-0.00000252,-0.00000298,0.00000
 252,0.00000210,-0.00000150,-0.00000039,-0.00000348,0.00000189,-0.00000
 240,0.00000017,0.00000298,0.00000084,-0.00000001,-0.00000214,0.0000017
 2,-0.00000269,-0.00000039,-0.00000029,0.00000067,0.00000417,-0.0000010
 0,-0.00000217,-0.00000125,-0.00000008,-0.00000097,0.00000342,-0.000001
 25,0.00000051,-0.00000425,-0.00000033,0.00000085,-0.00000004,0.0000005
 7,-0.00000171,0.00000149,-0.00000117,0.00000022,0.00000023,-0.00000124
 ,-0.00000136,-0.00000064,0.00000169,-0.00000111,0.00000167,-0.00000096
 ,-0.00000157,0.00000009,-0.00000132,0.00000066,0.00000042,-0.00000030,
 -0.00000017,-0.00000047,-0.00000124,0.00000051,0.,-0.00000072,0.,-0.00
 000038,0.00000131,0.00000053,-0.00000004,0.00000020,0.00000213,-0.0000
 0178,-0.00000064,0.00000063,0.00000051,0.00000064,0.00000053,0.0000008
 6,0.00000002,0.00000039,0.00000016,0.00000051,-0.00000018,0.00000142,-
 0.00000045,-0.00000024,-0.00000260,0.00000043,0.00000039,-0.00000022,0
 .00000012,-0.00000009,-0.00000025,0.00000056,-0.00000011,-0.00000072,-
 0.00000055,0.00000182,0.00000030,0.00000031,0.00000130,0.00000153,0.00
 000043,-0.00000004,0.00000051,0.00000075,0.00000100,0.00000034,0.00000
 016,-0.00000012,0.00000089,0.00000191,-0.00000270,-0.00000214,-0.00000
 378,0.00000322,-0.00000461,0.00000046,0.00000374,0.00000164,-0.0000040
 0,-0.00000327,-0.00000128\\\@


 REPARTEE - WHAT YOU THINK OF AFTER YOU BECOME A DEPARTEE.
 Job cpu time:       0 days  6 hours 56 minutes  2.4 seconds.
 File lengths (MBytes):  RWF=   3692 Int=      0 D2E=      0 Chk=    112 Scr=      1
 Normal termination of Gaussian 09 at Tue Nov 16 13:34:13 2021.
