 Entering Gaussian System, Link 0=g09
 Input=RR_DIOP_1.com
 Output=RR_DIOP_1.log
 Initial command:
 /gstore/apps/gaussian/g09.e01-foss-2017a/g09/l1.exe "/local/21251357/Gau-17141.inp" -scrdir="/local/21251357/"
 Entering Link 1 = /gstore/apps/gaussian/g09.e01-foss-2017a/g09/l1.exe PID=     17142.
  
 Copyright (c) 1988,1990,1992,1993,1995,1998,2003,2009,2015,
            Gaussian, Inc.  All Rights Reserved.
  
 This is part of the Gaussian(R) 09 program.  It is based on
 the Gaussian(R) 03 system (copyright 2003, Gaussian, Inc.),
 the Gaussian(R) 98 system (copyright 1998, Gaussian, Inc.),
 the Gaussian(R) 94 system (copyright 1995, Gaussian, Inc.),
 the Gaussian 92(TM) system (copyright 1992, Gaussian, Inc.),
 the Gaussian 90(TM) system (copyright 1990, Gaussian, Inc.),
 the Gaussian 88(TM) system (copyright 1988, Gaussian, Inc.),
 the Gaussian 86(TM) system (copyright 1986, Carnegie Mellon
 University), and the Gaussian 82(TM) system (copyright 1983,
 Carnegie Mellon University). Gaussian is a federally registered
 trademark of Gaussian, Inc.
  
 This software contains proprietary and confidential information,
 including trade secrets, belonging to Gaussian, Inc.
  
 This software is provided under written license and may be
 used, copied, transmitted, or stored only in accord with that
 written license.
  
 The following legend is applicable only to US Government
 contracts under FAR:
  
                    RESTRICTED RIGHTS LEGEND
  
 Use, reproduction and disclosure by the US Government is
 subject to restrictions as set forth in subparagraphs (a)
 and (c) of the Commercial Computer Software - Restricted
 Rights clause in FAR 52.227-19.
  
 Gaussian, Inc.
 340 Quinnipiac St., Bldg. 40, Wallingford CT 06492
  
  
 ---------------------------------------------------------------
 Warning -- This program may not be used in any manner that
 competes with the business of Gaussian, Inc. or will provide
 assistance to any competitor of Gaussian, Inc.  The licensee
 of this program is prohibited from giving any competitor of
 Gaussian, Inc. access to this program.  By using this program,
 the user acknowledges that Gaussian, Inc. is engaged in the
 business of creating and licensing software in the field of
 computational chemistry and represents and warrants to the
 licensee that it is not a competitor of Gaussian, Inc. and that
 it will not use this program in any manner prohibited above.
 ---------------------------------------------------------------
  

 Cite this work as:
 Gaussian 09, Revision E.01,
 M. J. Frisch, G. W. Trucks, H. B. Schlegel, G. E. Scuseria, 
 M. A. Robb, J. R. Cheeseman, G. Scalmani, V. Barone, B. Mennucci, 
 G. A. Petersson, H. Nakatsuji, M. Caricato, X. Li, H. P. Hratchian, 
 A. F. Izmaylov, J. Bloino, G. Zheng, J. L. Sonnenberg, M. Hada, 
 M. Ehara, K. Toyota, R. Fukuda, J. Hasegawa, M. Ishida, T. Nakajima, 
 Y. Honda, O. Kitao, H. Nakai, T. Vreven, J. A. Montgomery, Jr., 
 J. E. Peralta, F. Ogliaro, M. Bearpark, J. J. Heyd, E. Brothers, 
 K. N. Kudin, V. N. Staroverov, T. Keith, R. Kobayashi, J. Normand, 
 K. Raghavachari, A. Rendell, J. C. Burant, S. S. Iyengar, J. Tomasi, 
 M. Cossi, N. Rega, J. M. Millam, M. Klene, J. E. Knox, J. B. Cross, 
 V. Bakken, C. Adamo, J. Jaramillo, R. Gomperts, R. E. Stratmann, 
 O. Yazyev, A. J. Austin, R. Cammi, C. Pomelli, J. W. Ochterski, 
 R. L. Martin, K. Morokuma, V. G. Zakrzewski, G. A. Voth, 
 P. Salvador, J. J. Dannenberg, S. Dapprich, A. D. Daniels, 
 O. Farkas, J. B. Foresman, J. V. Ortiz, J. Cioslowski, 
 and D. J. Fox, Gaussian, Inc., Wallingford CT, 2013.
 
 ******************************************
 Gaussian 09:  ES64L-G09RevE.01 30-Nov-2015
                16-Nov-2021 
 ******************************************
 %nprocs=14
 Will use up to   14 processors via shared memory.
 %mem=128GB
 %chk=RR_DIOP_1.chk
 ----------------------------------------------------------------------
 # PBEPBE gen 6D pseudo=read scf=maxcycles=500 denfit int=(grid=ultrafi
 ne) empiricaldispersion=GD3BJ opt freq=noraman
 ----------------------------------------------------------------------
 1/14=-1,18=20,19=15,26=4,38=1/1,3;
 2/9=110,12=2,17=6,18=5,40=1/2;
 3/5=7,8=2,11=2,16=1,17=8,25=1,30=1,71=1,74=1009,75=-5,82=47,124=41/1,2,3;
 4//1;
 5/5=2,7=500,38=5/2;
 6/7=2,8=2,9=2,10=2,28=1/1;
 7//1,2,3,16;
 1/14=-1,18=20,19=15,26=4/3(2);
 2/9=110/2;
 99//99;
 2/9=110/2;
 3/5=7,6=1,8=2,11=2,16=1,17=8,25=1,30=1,71=1,74=1009,75=-5,82=7,124=41/1,2,3;
 4/5=5,16=3,69=1/1;
 5/5=2,7=500,38=5/2;
 7//1,2,3,16;
 1/14=-1,18=20,19=15,26=4/3(-5);
 2/9=110/2;
 6/7=2,8=2,9=2,10=2,19=2,28=1/1;
 99/9=1/99;
 -------
 RR_DIOP
 -------
 Symbolic Z-matrix:
 Charge =  0 Multiplicity = 1
 P                     1.3171    4.5435   -0.0371 
 P                    -0.4113    3.0523   -2.6755 
 O                    -0.6579    1.2856    1.3757 
 O                    -0.4499    0.1862   -0.5924 
 C                     0.737     3.2156    1.1046 
 C                    -0.1895    2.207     0.4143 
 C                     0.4685    1.2579   -0.5955 
 C                     0.718     1.7344   -2.0411 
 C                    -0.9877    0.1296    0.6838 
 C                    -0.3767   -1.0646    1.4211 
 C                    -2.5109    0.0392    0.5679 
 C                     1.8552    5.8503    1.1989 
 C                     0.9412    6.3246    2.1657 
 C                     1.3236    7.303     3.1036 
 C                     2.6303    7.8235    3.0841 
 C                     3.5486    7.3668    2.1212 
 C                     3.1614    6.3893    1.1843 
 C                     2.9384    3.9767   -0.7752 
 C                     3.2596    4.379    -2.089 
 C                     4.4613    3.9643   -2.6939 
 C                     5.3601    3.1476   -1.9834 
 C                     5.0579    2.7554   -0.6661 
 C                     3.8545    3.1712   -0.0642 
 C                    -2.0985    2.2498   -2.6169 
 C                    -3.1924    2.9403   -2.0543 
 C                    -4.469     2.347    -2.0101 
 C                    -4.6619    1.0526   -2.5279 
 C                    -3.5772    0.3564   -3.0929 
 C                    -2.3034    0.9549   -3.1385 
 C                    -0.0193    3.0475   -4.5049 
 C                    -1.0492    3.2291   -5.4525 
 C                    -0.7654    3.2381   -6.8316 
 C                     0.558     3.0696   -7.2788 
 C                     1.5948    2.8961   -6.3433 
 C                     1.3065    2.8881   -4.9647 
 H                     1.5722    2.6918    1.5644 
 H                     0.1893    3.6609    1.9338 
 H                    -1.0621    2.7093   -0.0017 
 H                     1.404     0.8765   -0.1816 
 H                     0.6896    0.8714   -2.7061 
 H                     1.7426    2.0854   -2.1106 
 H                     0.7056   -0.9534    1.483 
 H                    -0.7827   -1.1256    2.431 
 H                    -0.607    -1.9875    0.8885 
 H                    -2.9598   -0.0118    1.5598 
 H                    -2.8991    0.9159    0.0515 
 H                    -2.7898   -0.8497    0.002 
 H                    -0.0715    5.9506    2.1853 
 H                     0.6114    7.6597    3.8334 
 H                     2.9249    8.577     3.8001 
 H                     4.5507    7.7698    2.0967 
 H                     3.8837    6.0637    0.4506 
 H                     2.5813    5.0117   -2.6438 
 H                     4.6956    4.2776   -3.7014 
 H                     6.2854    2.8318   -2.4439 
 H                     5.754     2.1409   -0.1133 
 H                     3.6544    2.8765    0.9544 
 H                    -3.0613    3.936    -1.6581 
 H                    -5.3008    2.8869   -1.5812 
 H                    -5.6407    0.5962   -2.4955 
 H                    -3.7209   -0.6359   -3.495 
 H                    -1.4792    0.4145   -3.5803 
 H                    -2.0692    3.3673   -5.1218 
 H                    -1.5651    3.3778   -7.5445 
 H                     0.7768    3.0777   -8.3368 
 H                     2.6125    2.7712   -6.6838 
 H                     2.1184    2.7602   -4.2653 
 Cl                   -1.8534    5.9909   -3.2584 
 Cl                   -0.2706    7.4119   -0.8113 
 Pd                   -0.2992    5.2494   -1.6825 
 

 GradGradGradGradGradGradGradGradGradGradGradGradGradGradGradGradGradGrad
 Berny optimization.
 Initialization pass.
                           ----------------------------
                           !    Initial Parameters    !
                           ! (Angstroms and Degrees)  !
 --------------------------                            --------------------------
 ! Name  Definition              Value          Derivative Info.                !
 --------------------------------------------------------------------------------
 ! R1    R(1,5)                  1.8448         estimate D2E/DX2                !
 ! R2    R(1,12)                 1.8775         estimate D2E/DX2                !
 ! R3    R(1,18)                 1.8694         estimate D2E/DX2                !
 ! R4    R(1,70)                 2.4121         estimate D2E/DX2                !
 ! R5    R(2,8)                  1.8479         estimate D2E/DX2                !
 ! R6    R(2,24)                 1.8692         estimate D2E/DX2                !
 ! R7    R(2,30)                 1.8709         estimate D2E/DX2                !
 ! R8    R(2,70)                 2.4137         estimate D2E/DX2                !
 ! R9    R(3,6)                  1.4116         estimate D2E/DX2                !
 ! R10   R(3,9)                  1.387          estimate D2E/DX2                !
 ! R11   R(4,7)                  1.4114         estimate D2E/DX2                !
 ! R12   R(4,9)                  1.386          estimate D2E/DX2                !
 ! R13   R(5,6)                  1.5337         estimate D2E/DX2                !
 ! R14   R(5,36)                 1.0878         estimate D2E/DX2                !
 ! R15   R(5,37)                 1.089          estimate D2E/DX2                !
 ! R16   R(6,7)                  1.5341         estimate D2E/DX2                !
 ! R17   R(6,38)                 1.0894         estimate D2E/DX2                !
 ! R18   R(7,8)                  1.5424         estimate D2E/DX2                !
 ! R19   R(7,39)                 1.0918         estimate D2E/DX2                !
 ! R20   R(8,40)                 1.0899         estimate D2E/DX2                !
 ! R21   R(8,41)                 1.0853         estimate D2E/DX2                !
 ! R22   R(9,10)                 1.5307         estimate D2E/DX2                !
 ! R23   R(9,11)                 1.5303         estimate D2E/DX2                !
 ! R24   R(10,42)                1.0898         estimate D2E/DX2                !
 ! R25   R(10,43)                1.0902         estimate D2E/DX2                !
 ! R26   R(10,44)                1.0902         estimate D2E/DX2                !
 ! R27   R(11,45)                1.0899         estimate D2E/DX2                !
 ! R28   R(11,46)                1.089          estimate D2E/DX2                !
 ! R29   R(11,47)                1.09           estimate D2E/DX2                !
 ! R30   R(12,13)                1.4125         estimate D2E/DX2                !
 ! R31   R(12,17)                1.4131         estimate D2E/DX2                !
 ! R32   R(13,14)                1.4082         estimate D2E/DX2                !
 ! R33   R(13,48)                1.0797         estimate D2E/DX2                !
 ! R34   R(14,15)                1.4067         estimate D2E/DX2                !
 ! R35   R(14,49)                1.0803         estimate D2E/DX2                !
 ! R36   R(15,16)                1.4068         estimate D2E/DX2                !
 ! R37   R(15,50)                1.0804         estimate D2E/DX2                !
 ! R38   R(16,17)                1.4083         estimate D2E/DX2                !
 ! R39   R(16,51)                1.0804         estimate D2E/DX2                !
 ! R40   R(17,52)                1.0798         estimate D2E/DX2                !
 ! R41   R(18,19)                1.4111         estimate D2E/DX2                !
 ! R42   R(18,23)                1.4119         estimate D2E/DX2                !
 ! R43   R(19,20)                1.4078         estimate D2E/DX2                !
 ! R44   R(19,53)                1.0808         estimate D2E/DX2                !
 ! R45   R(20,21)                1.407          estimate D2E/DX2                !
 ! R46   R(20,54)                1.0808         estimate D2E/DX2                !
 ! R47   R(21,22)                1.4073         estimate D2E/DX2                !
 ! R48   R(21,55)                1.0807         estimate D2E/DX2                !
 ! R49   R(22,23)                1.4083         estimate D2E/DX2                !
 ! R50   R(22,56)                1.0806         estimate D2E/DX2                !
 ! R51   R(23,57)                1.0791         estimate D2E/DX2                !
 ! R52   R(24,25)                1.4106         estimate D2E/DX2                !
 ! R53   R(24,29)                1.411          estimate D2E/DX2                !
 ! R54   R(25,26)                1.4084         estimate D2E/DX2                !
 ! R55   R(25,58)                1.0796         estimate D2E/DX2                !
 ! R56   R(26,27)                1.4074         estimate D2E/DX2                !
 ! R57   R(26,59)                1.0804         estimate D2E/DX2                !
 ! R58   R(27,28)                1.4073         estimate D2E/DX2                !
 ! R59   R(27,60)                1.0805         estimate D2E/DX2                !
 ! R60   R(28,29)                1.4081         estimate D2E/DX2                !
 ! R61   R(28,61)                1.0803         estimate D2E/DX2                !
 ! R62   R(29,62)                1.0801         estimate D2E/DX2                !
 ! R63   R(30,31)                1.4112         estimate D2E/DX2                !
 ! R64   R(30,35)                1.4123         estimate D2E/DX2                !
 ! R65   R(31,32)                1.408          estimate D2E/DX2                !
 ! R66   R(31,63)                1.0811         estimate D2E/DX2                !
 ! R67   R(32,33)                1.407          estimate D2E/DX2                !
 ! R68   R(32,64)                1.0804         estimate D2E/DX2                !
 ! R69   R(33,34)                1.4072         estimate D2E/DX2                !
 ! R70   R(33,65)                1.0804         estimate D2E/DX2                !
 ! R71   R(34,35)                1.4084         estimate D2E/DX2                !
 ! R72   R(34,66)                1.0804         estimate D2E/DX2                !
 ! R73   R(35,67)                1.0792         estimate D2E/DX2                !
 ! R74   R(68,70)                2.3343         estimate D2E/DX2                !
 ! R75   R(69,70)                2.3316         estimate D2E/DX2                !
 ! A1    A(5,1,12)             100.5861         estimate D2E/DX2                !
 ! A2    A(5,1,18)             107.387          estimate D2E/DX2                !
 ! A3    A(5,1,70)             114.9679         estimate D2E/DX2                !
 ! A4    A(12,1,18)            102.8498         estimate D2E/DX2                !
 ! A5    A(12,1,70)            115.9402         estimate D2E/DX2                !
 ! A6    A(18,1,70)            113.6127         estimate D2E/DX2                !
 ! A7    A(8,2,24)             103.5719         estimate D2E/DX2                !
 ! A8    A(8,2,30)             101.8773         estimate D2E/DX2                !
 ! A9    A(8,2,70)             118.6578         estimate D2E/DX2                !
 ! A10   A(24,2,30)            102.6308         estimate D2E/DX2                !
 ! A11   A(24,2,70)            114.823          estimate D2E/DX2                !
 ! A12   A(30,2,70)            113.2582         estimate D2E/DX2                !
 ! A13   A(6,3,9)              106.4493         estimate D2E/DX2                !
 ! A14   A(7,4,9)              106.5894         estimate D2E/DX2                !
 ! A15   A(1,5,6)              112.6298         estimate D2E/DX2                !
 ! A16   A(1,5,36)             111.5157         estimate D2E/DX2                !
 ! A17   A(1,5,37)             109.576          estimate D2E/DX2                !
 ! A18   A(6,5,36)             109.7186         estimate D2E/DX2                !
 ! A19   A(6,5,37)             107.9273         estimate D2E/DX2                !
 ! A20   A(36,5,37)            105.1416         estimate D2E/DX2                !
 ! A21   A(3,6,5)              108.8544         estimate D2E/DX2                !
 ! A22   A(3,6,7)              100.7661         estimate D2E/DX2                !
 ! A23   A(3,6,38)             107.1723         estimate D2E/DX2                !
 ! A24   A(5,6,7)              116.3604         estimate D2E/DX2                !
 ! A25   A(5,6,38)             110.6423         estimate D2E/DX2                !
 ! A26   A(7,6,38)             112.1764         estimate D2E/DX2                !
 ! A27   A(4,7,6)              100.9076         estimate D2E/DX2                !
 ! A28   A(4,7,8)              109.9923         estimate D2E/DX2                !
 ! A29   A(4,7,39)             106.9463         estimate D2E/DX2                !
 ! A30   A(6,7,8)              119.6812         estimate D2E/DX2                !
 ! A31   A(6,7,39)             109.5184         estimate D2E/DX2                !
 ! A32   A(8,7,39)             108.9432         estimate D2E/DX2                !
 ! A33   A(2,8,7)              116.3104         estimate D2E/DX2                !
 ! A34   A(2,8,40)             109.8364         estimate D2E/DX2                !
 ! A35   A(2,8,41)             108.9242         estimate D2E/DX2                !
 ! A36   A(7,8,40)             108.8461         estimate D2E/DX2                !
 ! A37   A(7,8,41)             108.2188         estimate D2E/DX2                !
 ! A38   A(40,8,41)            103.9824         estimate D2E/DX2                !
 ! A39   A(3,9,4)              109.4517         estimate D2E/DX2                !
 ! A40   A(3,9,10)             108.3627         estimate D2E/DX2                !
 ! A41   A(3,9,11)             108.8864         estimate D2E/DX2                !
 ! A42   A(4,9,10)             108.692          estimate D2E/DX2                !
 ! A43   A(4,9,11)             108.596          estimate D2E/DX2                !
 ! A44   A(10,9,11)            112.8122         estimate D2E/DX2                !
 ! A45   A(9,10,42)            110.1319         estimate D2E/DX2                !
 ! A46   A(9,10,43)            109.9505         estimate D2E/DX2                !
 ! A47   A(9,10,44)            109.9268         estimate D2E/DX2                !
 ! A48   A(42,10,43)           108.8422         estimate D2E/DX2                !
 ! A49   A(42,10,44)           108.9016         estimate D2E/DX2                !
 ! A50   A(43,10,44)           109.0588         estimate D2E/DX2                !
 ! A51   A(9,11,45)            110.108          estimate D2E/DX2                !
 ! A52   A(9,11,46)            110.0704         estimate D2E/DX2                !
 ! A53   A(9,11,47)            110.0094         estimate D2E/DX2                !
 ! A54   A(45,11,46)           108.8074         estimate D2E/DX2                !
 ! A55   A(45,11,47)           109.2034         estimate D2E/DX2                !
 ! A56   A(46,11,47)           108.6087         estimate D2E/DX2                !
 ! A57   A(1,12,13)            119.9255         estimate D2E/DX2                !
 ! A58   A(1,12,17)            121.5745         estimate D2E/DX2                !
 ! A59   A(13,12,17)           118.4979         estimate D2E/DX2                !
 ! A60   A(12,13,14)           120.894          estimate D2E/DX2                !
 ! A61   A(12,13,48)           120.2009         estimate D2E/DX2                !
 ! A62   A(14,13,48)           118.8979         estimate D2E/DX2                !
 ! A63   A(13,14,15)           120.0057         estimate D2E/DX2                !
 ! A64   A(13,14,49)           120.0199         estimate D2E/DX2                !
 ! A65   A(15,14,49)           119.9726         estimate D2E/DX2                !
 ! A66   A(14,15,16)           119.7182         estimate D2E/DX2                !
 ! A67   A(14,15,50)           120.1444         estimate D2E/DX2                !
 ! A68   A(16,15,50)           120.1353         estimate D2E/DX2                !
 ! A69   A(15,16,17)           120.0815         estimate D2E/DX2                !
 ! A70   A(15,16,51)           119.9932         estimate D2E/DX2                !
 ! A71   A(17,16,51)           119.9245         estimate D2E/DX2                !
 ! A72   A(12,17,16)           120.7989         estimate D2E/DX2                !
 ! A73   A(12,17,52)           120.6837         estimate D2E/DX2                !
 ! A74   A(16,17,52)           118.5167         estimate D2E/DX2                !
 ! A75   A(1,18,19)            118.5936         estimate D2E/DX2                !
 ! A76   A(1,18,23)            122.4702         estimate D2E/DX2                !
 ! A77   A(19,18,23)           118.9345         estimate D2E/DX2                !
 ! A78   A(18,19,20)           120.6888         estimate D2E/DX2                !
 ! A79   A(18,19,53)           120.1303         estimate D2E/DX2                !
 ! A80   A(20,19,53)           119.1809         estimate D2E/DX2                !
 ! A81   A(19,20,21)           119.9529         estimate D2E/DX2                !
 ! A82   A(19,20,54)           120.0126         estimate D2E/DX2                !
 ! A83   A(21,20,54)           120.0337         estimate D2E/DX2                !
 ! A84   A(20,21,22)           119.8202         estimate D2E/DX2                !
 ! A85   A(20,21,55)           120.0913         estimate D2E/DX2                !
 ! A86   A(22,21,55)           120.0847         estimate D2E/DX2                !
 ! A87   A(21,22,23)           120.0845         estimate D2E/DX2                !
 ! A88   A(21,22,56)           119.9339         estimate D2E/DX2                !
 ! A89   A(23,22,56)           119.9798         estimate D2E/DX2                !
 ! A90   A(18,23,22)           120.5064         estimate D2E/DX2                !
 ! A91   A(18,23,57)           120.7185         estimate D2E/DX2                !
 ! A92   A(22,23,57)           118.7673         estimate D2E/DX2                !
 ! A93   A(2,24,25)            120.1518         estimate D2E/DX2                !
 ! A94   A(2,24,29)            120.8966         estimate D2E/DX2                !
 ! A95   A(25,24,29)           118.9503         estimate D2E/DX2                !
 ! A96   A(24,25,26)           120.6102         estimate D2E/DX2                !
 ! A97   A(24,25,58)           120.241          estimate D2E/DX2                !
 ! A98   A(26,25,58)           119.1472         estimate D2E/DX2                !
 ! A99   A(25,26,27)           120.0074         estimate D2E/DX2                !
 ! A100  A(25,26,59)           119.985          estimate D2E/DX2                !
 ! A101  A(27,26,59)           120.0074         estimate D2E/DX2                !
 ! A102  A(26,27,28)           119.805          estimate D2E/DX2                !
 ! A103  A(26,27,60)           120.1076         estimate D2E/DX2                !
 ! A104  A(28,27,60)           120.0869         estimate D2E/DX2                !
 ! A105  A(27,28,29)           119.9981         estimate D2E/DX2                !
 ! A106  A(27,28,61)           120.0879         estimate D2E/DX2                !
 ! A107  A(29,28,61)           119.9137         estimate D2E/DX2                !
 ! A108  A(24,29,28)           120.628          estimate D2E/DX2                !
 ! A109  A(24,29,62)           119.9725         estimate D2E/DX2                !
 ! A110  A(28,29,62)           119.3992         estimate D2E/DX2                !
 ! A111  A(2,30,31)            120.2201         estimate D2E/DX2                !
 ! A112  A(2,30,35)            121.019          estimate D2E/DX2                !
 ! A113  A(31,30,35)           118.7509         estimate D2E/DX2                !
 ! A114  A(30,31,32)           120.7569         estimate D2E/DX2                !
 ! A115  A(30,31,63)           119.9717         estimate D2E/DX2                !
 ! A116  A(32,31,63)           119.2709         estimate D2E/DX2                !
 ! A117  A(31,32,33)           120.0074         estimate D2E/DX2                !
 ! A118  A(31,32,64)           119.863          estimate D2E/DX2                !
 ! A119  A(33,32,64)           120.1293         estimate D2E/DX2                !
 ! A120  A(32,33,34)           119.7658         estimate D2E/DX2                !
 ! A121  A(32,33,65)           120.0538         estimate D2E/DX2                !
 ! A122  A(34,33,65)           120.1799         estimate D2E/DX2                !
 ! A123  A(33,34,35)           120.0392         estimate D2E/DX2                !
 ! A124  A(33,34,66)           119.9181         estimate D2E/DX2                !
 ! A125  A(35,34,66)           120.0425         estimate D2E/DX2                !
 ! A126  A(30,35,34)           120.6763         estimate D2E/DX2                !
 ! A127  A(30,35,67)           120.5719         estimate D2E/DX2                !
 ! A128  A(34,35,67)           118.7516         estimate D2E/DX2                !
 ! A129  A(1,70,2)              92.6003         estimate D2E/DX2                !
 ! A130  A(1,70,69)             90.4769         estimate D2E/DX2                !
 ! A131  A(2,70,68)             88.8819         estimate D2E/DX2                !
 ! A132  A(68,70,69)            88.0403         estimate D2E/DX2                !
 ! A133  L(1,70,68,69,-1)      178.5172         estimate D2E/DX2                !
 ! A134  L(2,70,69,68,-1)      176.9221         estimate D2E/DX2                !
 ! A135  L(1,70,68,69,-2)      179.7236         estimate D2E/DX2                !
 ! A136  L(2,70,69,68,-2)      180.1229         estimate D2E/DX2                !
 ! D1    D(12,1,5,6)           160.7347         estimate D2E/DX2                !
 ! D2    D(12,1,5,36)          -75.3984         estimate D2E/DX2                !
 ! D3    D(12,1,5,37)           40.5898         estimate D2E/DX2                !
 ! D4    D(18,1,5,6)           -92.0717         estimate D2E/DX2                !
 ! D5    D(18,1,5,36)           31.7952         estimate D2E/DX2                !
 ! D6    D(18,1,5,37)          147.7835         estimate D2E/DX2                !
 ! D7    D(70,1,5,6)            35.4313         estimate D2E/DX2                !
 ! D8    D(70,1,5,36)          159.2982         estimate D2E/DX2                !
 ! D9    D(70,1,5,37)          -84.7136         estimate D2E/DX2                !
 ! D10   D(5,1,12,13)          -55.9485         estimate D2E/DX2                !
 ! D11   D(5,1,12,17)          124.5889         estimate D2E/DX2                !
 ! D12   D(18,1,12,13)        -166.7075         estimate D2E/DX2                !
 ! D13   D(18,1,12,17)          13.8298         estimate D2E/DX2                !
 ! D14   D(70,1,12,13)          68.6932         estimate D2E/DX2                !
 ! D15   D(70,1,12,17)        -110.7694         estimate D2E/DX2                !
 ! D16   D(5,1,18,19)          147.9233         estimate D2E/DX2                !
 ! D17   D(5,1,18,23)          -32.546          estimate D2E/DX2                !
 ! D18   D(12,1,18,19)        -106.4789         estimate D2E/DX2                !
 ! D19   D(12,1,18,23)          73.0517         estimate D2E/DX2                !
 ! D20   D(70,1,18,19)          19.6346         estimate D2E/DX2                !
 ! D21   D(70,1,18,23)        -160.8348         estimate D2E/DX2                !
 ! D22   D(5,1,70,2)           -61.3384         estimate D2E/DX2                !
 ! D23   D(5,1,70,69)          118.7995         estimate D2E/DX2                !
 ! D24   D(12,1,70,2)         -178.2012         estimate D2E/DX2                !
 ! D25   D(12,1,70,69)           1.9367         estimate D2E/DX2                !
 ! D26   D(18,1,70,2)           62.9459         estimate D2E/DX2                !
 ! D27   D(18,1,70,69)        -116.9162         estimate D2E/DX2                !
 ! D28   D(24,2,8,7)           -61.7807         estimate D2E/DX2                !
 ! D29   D(24,2,8,40)           62.3762         estimate D2E/DX2                !
 ! D30   D(24,2,8,41)          175.6559         estimate D2E/DX2                !
 ! D31   D(30,2,8,7)          -168.0793         estimate D2E/DX2                !
 ! D32   D(30,2,8,40)          -43.9224         estimate D2E/DX2                !
 ! D33   D(30,2,8,41)           69.3574         estimate D2E/DX2                !
 ! D34   D(70,2,8,7)            66.8356         estimate D2E/DX2                !
 ! D35   D(70,2,8,40)         -169.0075         estimate D2E/DX2                !
 ! D36   D(70,2,8,41)          -55.7277         estimate D2E/DX2                !
 ! D37   D(8,2,24,25)          132.5327         estimate D2E/DX2                !
 ! D38   D(8,2,24,29)          -47.887          estimate D2E/DX2                !
 ! D39   D(30,2,24,25)        -121.739          estimate D2E/DX2                !
 ! D40   D(30,2,24,29)          57.8413         estimate D2E/DX2                !
 ! D41   D(70,2,24,25)           1.5949         estimate D2E/DX2                !
 ! D42   D(70,2,24,29)        -178.8248         estimate D2E/DX2                !
 ! D43   D(8,2,30,31)          141.8196         estimate D2E/DX2                !
 ! D44   D(8,2,30,35)          -39.3526         estimate D2E/DX2                !
 ! D45   D(24,2,30,31)          34.7893         estimate D2E/DX2                !
 ! D46   D(24,2,30,35)        -146.3829         estimate D2E/DX2                !
 ! D47   D(70,2,30,31)         -89.5852         estimate D2E/DX2                !
 ! D48   D(70,2,30,35)          89.2426         estimate D2E/DX2                !
 ! D49   D(8,2,70,1)            -4.2503         estimate D2E/DX2                !
 ! D50   D(8,2,70,68)          175.4698         estimate D2E/DX2                !
 ! D51   D(24,2,70,1)          118.9416         estimate D2E/DX2                !
 ! D52   D(24,2,70,68)         -61.3382         estimate D2E/DX2                !
 ! D53   D(30,2,70,1)         -123.6038         estimate D2E/DX2                !
 ! D54   D(30,2,70,68)          56.1164         estimate D2E/DX2                !
 ! D55   D(9,3,6,5)           -155.3273         estimate D2E/DX2                !
 ! D56   D(9,3,6,7)            -32.4711         estimate D2E/DX2                !
 ! D57   D(9,3,6,38)            84.9747         estimate D2E/DX2                !
 ! D58   D(6,3,9,4)             14.1765         estimate D2E/DX2                !
 ! D59   D(6,3,9,10)           132.5583         estimate D2E/DX2                !
 ! D60   D(6,3,9,11)          -104.3955         estimate D2E/DX2                !
 ! D61   D(9,4,7,6)            -31.6311         estimate D2E/DX2                !
 ! D62   D(9,4,7,8)           -158.9848         estimate D2E/DX2                !
 ! D63   D(9,4,7,39)            82.8519         estimate D2E/DX2                !
 ! D64   D(7,4,9,3)             12.7021         estimate D2E/DX2                !
 ! D65   D(7,4,9,10)          -105.4745         estimate D2E/DX2                !
 ! D66   D(7,4,9,11)           131.4544         estimate D2E/DX2                !
 ! D67   D(1,5,6,3)           -175.966          estimate D2E/DX2                !
 ! D68   D(1,5,6,7)             71.1093         estimate D2E/DX2                !
 ! D69   D(1,5,6,38)           -58.4475         estimate D2E/DX2                !
 ! D70   D(36,5,6,3)            59.1782         estimate D2E/DX2                !
 ! D71   D(36,5,6,7)           -53.7464         estimate D2E/DX2                !
 ! D72   D(36,5,6,38)          176.6967         estimate D2E/DX2                !
 ! D73   D(37,5,6,3)           -54.8753         estimate D2E/DX2                !
 ! D74   D(37,5,6,7)          -167.8            estimate D2E/DX2                !
 ! D75   D(37,5,6,38)           62.6432         estimate D2E/DX2                !
 ! D76   D(3,6,7,4)             39.1209         estimate D2E/DX2                !
 ! D77   D(3,6,7,8)            159.8249         estimate D2E/DX2                !
 ! D78   D(3,6,7,39)           -73.4142         estimate D2E/DX2                !
 ! D79   D(5,6,7,4)            156.5954         estimate D2E/DX2                !
 ! D80   D(5,6,7,8)            -82.7005         estimate D2E/DX2                !
 ! D81   D(5,6,7,39)            44.0604         estimate D2E/DX2                !
 ! D82   D(38,6,7,4)           -74.5856         estimate D2E/DX2                !
 ! D83   D(38,6,7,8)            46.1184         estimate D2E/DX2                !
 ! D84   D(38,6,7,39)          172.8793         estimate D2E/DX2                !
 ! D85   D(4,7,8,2)             89.5302         estimate D2E/DX2                !
 ! D86   D(4,7,8,40)           -35.1341         estimate D2E/DX2                !
 ! D87   D(4,7,8,41)          -147.5379         estimate D2E/DX2                !
 ! D88   D(6,7,8,2)            -26.5182         estimate D2E/DX2                !
 ! D89   D(6,7,8,40)          -151.1826         estimate D2E/DX2                !
 ! D90   D(6,7,8,41)            96.4136         estimate D2E/DX2                !
 ! D91   D(39,7,8,2)          -153.5465         estimate D2E/DX2                !
 ! D92   D(39,7,8,40)           81.7892         estimate D2E/DX2                !
 ! D93   D(39,7,8,41)          -30.6146         estimate D2E/DX2                !
 ! D94   D(3,9,10,42)          -59.0743         estimate D2E/DX2                !
 ! D95   D(3,9,10,43)           60.86           estimate D2E/DX2                !
 ! D96   D(3,9,10,44)         -179.0671         estimate D2E/DX2                !
 ! D97   D(4,9,10,42)           59.7888         estimate D2E/DX2                !
 ! D98   D(4,9,10,43)          179.7231         estimate D2E/DX2                !
 ! D99   D(4,9,10,44)          -60.204          estimate D2E/DX2                !
 ! D100  D(11,9,10,42)        -179.7124         estimate D2E/DX2                !
 ! D101  D(11,9,10,43)         -59.7781         estimate D2E/DX2                !
 ! D102  D(11,9,10,44)          60.2948         estimate D2E/DX2                !
 ! D103  D(3,9,11,45)          -61.1788         estimate D2E/DX2                !
 ! D104  D(3,9,11,46)           58.7731         estimate D2E/DX2                !
 ! D105  D(3,9,11,47)          178.4172         estimate D2E/DX2                !
 ! D106  D(4,9,11,45)          179.7134         estimate D2E/DX2                !
 ! D107  D(4,9,11,46)          -60.3347         estimate D2E/DX2                !
 ! D108  D(4,9,11,47)           59.3093         estimate D2E/DX2                !
 ! D109  D(10,9,11,45)          59.1597         estimate D2E/DX2                !
 ! D110  D(10,9,11,46)         179.1115         estimate D2E/DX2                !
 ! D111  D(10,9,11,47)         -61.2444         estimate D2E/DX2                !
 ! D112  D(1,12,13,14)         179.912          estimate D2E/DX2                !
 ! D113  D(1,12,13,48)          -1.0764         estimate D2E/DX2                !
 ! D114  D(17,12,13,14)         -0.6089         estimate D2E/DX2                !
 ! D115  D(17,12,13,48)        178.4027         estimate D2E/DX2                !
 ! D116  D(1,12,17,16)        -179.8528         estimate D2E/DX2                !
 ! D117  D(1,12,17,52)           0.447          estimate D2E/DX2                !
 ! D118  D(13,12,17,16)          0.6771         estimate D2E/DX2                !
 ! D119  D(13,12,17,52)       -179.0231         estimate D2E/DX2                !
 ! D120  D(12,13,14,15)          0.1336         estimate D2E/DX2                !
 ! D121  D(12,13,14,49)        179.6584         estimate D2E/DX2                !
 ! D122  D(48,13,14,15)       -178.8907         estimate D2E/DX2                !
 ! D123  D(48,13,14,49)          0.6341         estimate D2E/DX2                !
 ! D124  D(13,14,15,16)          0.286          estimate D2E/DX2                !
 ! D125  D(13,14,15,50)        179.7583         estimate D2E/DX2                !
 ! D126  D(49,14,15,16)       -179.239          estimate D2E/DX2                !
 ! D127  D(49,14,15,50)          0.2334         estimate D2E/DX2                !
 ! D128  D(14,15,16,17)         -0.218          estimate D2E/DX2                !
 ! D129  D(14,15,16,51)        179.4651         estimate D2E/DX2                !
 ! D130  D(50,15,16,17)       -179.6905         estimate D2E/DX2                !
 ! D131  D(50,15,16,51)         -0.0073         estimate D2E/DX2                !
 ! D132  D(15,16,17,12)         -0.2708         estimate D2E/DX2                !
 ! D133  D(15,16,17,52)        179.4357         estimate D2E/DX2                !
 ! D134  D(51,16,17,12)       -179.9542         estimate D2E/DX2                !
 ! D135  D(51,16,17,52)         -0.2477         estimate D2E/DX2                !
 ! D136  D(1,18,19,20)        -179.2235         estimate D2E/DX2                !
 ! D137  D(1,18,19,53)           0.749          estimate D2E/DX2                !
 ! D138  D(23,18,19,20)          1.229          estimate D2E/DX2                !
 ! D139  D(23,18,19,53)       -178.7985         estimate D2E/DX2                !
 ! D140  D(1,18,23,22)         179.2885         estimate D2E/DX2                !
 ! D141  D(1,18,23,57)          -1.7408         estimate D2E/DX2                !
 ! D142  D(19,18,23,22)         -1.1824         estimate D2E/DX2                !
 ! D143  D(19,18,23,57)        177.7883         estimate D2E/DX2                !
 ! D144  D(18,19,20,21)         -0.4354         estimate D2E/DX2                !
 ! D145  D(18,19,20,54)        179.8984         estimate D2E/DX2                !
 ! D146  D(53,19,20,21)        179.5919         estimate D2E/DX2                !
 ! D147  D(53,19,20,54)         -0.0743         estimate D2E/DX2                !
 ! D148  D(19,20,21,22)         -0.4212         estimate D2E/DX2                !
 ! D149  D(19,20,21,55)       -179.7101         estimate D2E/DX2                !
 ! D150  D(54,20,21,22)        179.2449         estimate D2E/DX2                !
 ! D151  D(54,20,21,55)         -0.044          estimate D2E/DX2                !
 ! D152  D(20,21,22,23)          0.4658         estimate D2E/DX2                !
 ! D153  D(20,21,22,56)       -179.0484         estimate D2E/DX2                !
 ! D154  D(55,21,22,23)        179.7547         estimate D2E/DX2                !
 ! D155  D(55,21,22,56)          0.2405         estimate D2E/DX2                !
 ! D156  D(21,22,23,18)          0.3449         estimate D2E/DX2                !
 ! D157  D(21,22,23,57)       -178.6456         estimate D2E/DX2                !
 ! D158  D(56,22,23,18)        179.8589         estimate D2E/DX2                !
 ! D159  D(56,22,23,57)          0.8684         estimate D2E/DX2                !
 ! D160  D(2,24,25,26)         179.739          estimate D2E/DX2                !
 ! D161  D(2,24,25,58)           0.2002         estimate D2E/DX2                !
 ! D162  D(29,24,25,26)          0.1506         estimate D2E/DX2                !
 ! D163  D(29,24,25,58)       -179.3882         estimate D2E/DX2                !
 ! D164  D(2,24,29,28)        -179.92           estimate D2E/DX2                !
 ! D165  D(2,24,29,62)          -0.0805         estimate D2E/DX2                !
 ! D166  D(25,24,29,28)         -0.3347         estimate D2E/DX2                !
 ! D167  D(25,24,29,62)        179.5047         estimate D2E/DX2                !
 ! D168  D(24,25,26,27)          0.1183         estimate D2E/DX2                !
 ! D169  D(24,25,26,59)       -179.7042         estimate D2E/DX2                !
 ! D170  D(58,25,26,27)        179.6621         estimate D2E/DX2                !
 ! D171  D(58,25,26,59)         -0.1604         estimate D2E/DX2                !
 ! D172  D(25,26,27,28)         -0.2058         estimate D2E/DX2                !
 ! D173  D(25,26,27,60)       -179.9541         estimate D2E/DX2                !
 ! D174  D(59,26,27,28)        179.6166         estimate D2E/DX2                !
 ! D175  D(59,26,27,60)         -0.1317         estimate D2E/DX2                !
 ! D176  D(26,27,28,29)          0.0233         estimate D2E/DX2                !
 ! D177  D(26,27,28,61)       -179.7727         estimate D2E/DX2                !
 ! D178  D(60,27,28,29)        179.7716         estimate D2E/DX2                !
 ! D179  D(60,27,28,61)         -0.0244         estimate D2E/DX2                !
 ! D180  D(27,28,29,24)          0.2499         estimate D2E/DX2                !
 ! D181  D(27,28,29,62)       -179.5904         estimate D2E/DX2                !
 ! D182  D(61,28,29,24)       -179.9537         estimate D2E/DX2                !
 ! D183  D(61,28,29,62)          0.206          estimate D2E/DX2                !
 ! D184  D(2,30,31,32)         179.4911         estimate D2E/DX2                !
 ! D185  D(2,30,31,63)          -0.2649         estimate D2E/DX2                !
 ! D186  D(35,30,31,32)          0.637          estimate D2E/DX2                !
 ! D187  D(35,30,31,63)       -179.119          estimate D2E/DX2                !
 ! D188  D(2,30,35,34)        -179.4981         estimate D2E/DX2                !
 ! D189  D(2,30,35,67)           0.3525         estimate D2E/DX2                !
 ! D190  D(31,30,35,34)         -0.6535         estimate D2E/DX2                !
 ! D191  D(31,30,35,67)        179.1971         estimate D2E/DX2                !
 ! D192  D(30,31,32,33)         -0.2291         estimate D2E/DX2                !
 ! D193  D(30,31,32,64)        179.9706         estimate D2E/DX2                !
 ! D194  D(63,31,32,33)        179.5286         estimate D2E/DX2                !
 ! D195  D(63,31,32,64)         -0.2717         estimate D2E/DX2                !
 ! D196  D(31,32,33,34)         -0.1735         estimate D2E/DX2                !
 ! D197  D(31,32,33,65)       -179.9184         estimate D2E/DX2                !
 ! D198  D(64,32,33,34)        179.6263         estimate D2E/DX2                !
 ! D199  D(64,32,33,65)         -0.1186         estimate D2E/DX2                !
 ! D200  D(32,33,34,35)          0.1567         estimate D2E/DX2                !
 ! D201  D(32,33,34,66)       -179.71           estimate D2E/DX2                !
 ! D202  D(65,33,34,35)        179.9012         estimate D2E/DX2                !
 ! D203  D(65,33,34,66)          0.0346         estimate D2E/DX2                !
 ! D204  D(33,34,35,30)          0.2626         estimate D2E/DX2                !
 ! D205  D(33,34,35,67)       -179.5907         estimate D2E/DX2                !
 ! D206  D(66,34,35,30)       -179.8709         estimate D2E/DX2                !
 ! D207  D(66,34,35,67)          0.2759         estimate D2E/DX2                !
 --------------------------------------------------------------------------------
 Trust Radius=3.00D-01 FncErr=1.00D-07 GrdErr=1.00D-06
 Number of steps in this run=    420 maximum allowed number of steps=    420.
 GradGradGradGradGradGradGradGradGradGradGradGradGradGradGradGradGradGrad

 Stoichiometry    C31H32Cl2O2P2Pd
 Framework group  C1[X(C31H32Cl2O2P2Pd)]
 Deg. of freedom   204
 Full point group                 C1      NOp   1
 Largest Abelian subgroup         C1      NOp   1
 Largest concise Abelian subgroup C1      NOp   1
                         Standard orientation:                         
 ---------------------------------------------------------------------
 Center     Atomic      Atomic             Coordinates (Angstroms)
 Number     Number       Type             X           Y           Z
 ---------------------------------------------------------------------
      1         15           0        1.927491    0.328734    0.087057
      2         15           0       -1.461180   -0.500759    0.119405
      3          8           0       -0.243829    3.737211    0.509191
      4          8           0       -1.881151    2.667496    1.649475
      5          6           0        1.503876    2.105024    0.349082
      6          6           0       -0.009333    2.349459    0.400461
      7          6           0       -0.740179    1.836719    1.648024
      8          6           0       -1.165629    0.356379    1.729563
      9          6           0       -1.488673    3.879767    1.104060
     10          6           0       -1.369682    4.909043    2.230771
     11          6           0       -2.505166    4.285643    0.034597
     12          6           0        3.695886    0.482468   -0.524597
     13          6           0        3.984460    1.282922   -1.652009
     14          6           0        5.303645    1.414127   -2.127076
     15          6           0        6.354990    0.740855   -1.478891
     16          6           0        6.081089   -0.066875   -0.360152
     17          6           0        4.760158   -0.196321    0.110590
     18          6           0        2.137108   -0.450213    1.773465
     19          6           0        1.788908   -1.807657    1.938351
     20          6           0        1.913715   -2.434181    3.192884
     21          6           0        2.398613   -1.707564    4.295858
     22          6           0        2.765718   -0.358189    4.138235
     23          6           0        2.638783    0.265864    2.882134
     24          6           0       -2.872404    0.463011   -0.638010
     25          6           0       -2.803520    0.880597   -1.983671
     26          6           0       -3.863590    1.602501   -2.565713
     27          6           0       -5.004157    1.915823   -1.802998
     28          6           0       -5.083059    1.501998   -0.460234
     29          6           0       -4.022538    0.777106    0.116545
     30          6           0       -2.295489   -2.081526    0.672120
     31          6           0       -3.351658   -2.629996   -0.086370
     32          6           0       -3.980436   -3.824734    0.313357
     33          6           0       -3.554145   -4.488594    1.478404
     34          6           0       -2.496393   -3.956075    2.238536
     35          6           0       -1.870000   -2.760922    1.834853
     36          1           0        1.969881    2.497578    1.250239
     37          1           0        1.912305    2.701500   -0.465315
     38          1           0       -0.484009    2.014274   -0.521019
     39          1           0       -0.161815    2.088856    2.539013
     40          1           0       -2.052738    0.279126    2.357950
     41          1           0       -0.404792   -0.185383    2.282245
     42          1           0       -0.632960    4.579893    2.963214
     43          1           0       -1.056644    5.870953    1.824332
     44          1           0       -2.332554    5.028927    2.727711
     45          1           0       -2.222282    5.240660   -0.408004
     46          1           0       -2.542470    3.532059   -0.750700
     47          1           0       -3.496983    4.375611    0.477740
     48          1           0        3.188752    1.793068   -2.173949
     49          1           0        5.507604    2.025653   -2.993972
     50          1           0        7.367334    0.836811   -1.843802
     51          1           0        6.883962   -0.592845    0.135795
     52          1           0        4.577333   -0.830100    0.965545
     53          1           0        1.421334   -2.379418    1.098005
     54          1           0        1.642295   -3.474071    3.307212
     55          1           0        2.499746   -2.187582    5.258835
     56          1           0        3.152837    0.197249    4.980483
     57          1           0        2.947256    1.294861    2.779939
     58          1           0       -1.937576    0.643014   -2.583067
     59          1           0       -3.802246    1.913216   -3.598686
     60          1           0       -5.818646    2.468909   -2.248087
     61          1           0       -5.957956    1.736825    0.128328
     62          1           0       -4.096140    0.458561    1.145932
     63          1           0       -3.683666   -2.133858   -0.987746
     64          1           0       -4.787966   -4.231573   -0.277946
     65          1           0       -4.035216   -5.406097    1.785099
     66          1           0       -2.163976   -4.466287    3.130969
     67          1           0       -1.056499   -2.374648    2.429588
     68         17           0       -1.002357   -2.064319   -2.778793
     69         17           0        2.149921   -1.308619   -2.848500
     70         46           0        0.414080   -0.877214   -1.352852
 ---------------------------------------------------------------------
 Rotational constants (GHZ):      0.0970980      0.0682496      0.0625945
 General basis read from cards:  (6D, 7F)
 ======================================================================================================
                                       Pseudopotential Parameters
 ======================================================================================================
  Center     Atomic      Valence      Angular      Power
  Number     Number     Electrons     Momentum     of R      Exponent        Coefficient   SO-Coeffient
 ======================================================================================================
    1         15
                                   No pseudopotential on this center.
    2         15
                                   No pseudopotential on this center.
    3          8
                                   No pseudopotential on this center.
    4          8
                                   No pseudopotential on this center.
    5          6
                                   No pseudopotential on this center.
    6          6
                                   No pseudopotential on this center.
    7          6
                                   No pseudopotential on this center.
    8          6
                                   No pseudopotential on this center.
    9          6
                                   No pseudopotential on this center.
   10          6
                                   No pseudopotential on this center.
   11          6
                                   No pseudopotential on this center.
   12          6
                                   No pseudopotential on this center.
   13          6
                                   No pseudopotential on this center.
   14          6
                                   No pseudopotential on this center.
   15          6
                                   No pseudopotential on this center.
   16          6
                                   No pseudopotential on this center.
   17          6
                                   No pseudopotential on this center.
   18          6
                                   No pseudopotential on this center.
   19          6
                                   No pseudopotential on this center.
   20          6
                                   No pseudopotential on this center.
   21          6
                                   No pseudopotential on this center.
   22          6
                                   No pseudopotential on this center.
   23          6
                                   No pseudopotential on this center.
   24          6
                                   No pseudopotential on this center.
   25          6
                                   No pseudopotential on this center.
   26          6
                                   No pseudopotential on this center.
   27          6
                                   No pseudopotential on this center.
   28          6
                                   No pseudopotential on this center.
   29          6
                                   No pseudopotential on this center.
   30          6
                                   No pseudopotential on this center.
   31          6
                                   No pseudopotential on this center.
   32          6
                                   No pseudopotential on this center.
   33          6
                                   No pseudopotential on this center.
   34          6
                                   No pseudopotential on this center.
   35          6
                                   No pseudopotential on this center.
   36          1
                                   No pseudopotential on this center.
   37          1
                                   No pseudopotential on this center.
   38          1
                                   No pseudopotential on this center.
   39          1
                                   No pseudopotential on this center.
   40          1
                                   No pseudopotential on this center.
   41          1
                                   No pseudopotential on this center.
   42          1
                                   No pseudopotential on this center.
   43          1
                                   No pseudopotential on this center.
   44          1
                                   No pseudopotential on this center.
   45          1
                                   No pseudopotential on this center.
   46          1
                                   No pseudopotential on this center.
   47          1
                                   No pseudopotential on this center.
   48          1
                                   No pseudopotential on this center.
   49          1
                                   No pseudopotential on this center.
   50          1
                                   No pseudopotential on this center.
   51          1
                                   No pseudopotential on this center.
   52          1
                                   No pseudopotential on this center.
   53          1
                                   No pseudopotential on this center.
   54          1
                                   No pseudopotential on this center.
   55          1
                                   No pseudopotential on this center.
   56          1
                                   No pseudopotential on this center.
   57          1
                                   No pseudopotential on this center.
   58          1
                                   No pseudopotential on this center.
   59          1
                                   No pseudopotential on this center.
   60          1
                                   No pseudopotential on this center.
   61          1
                                   No pseudopotential on this center.
   62          1
                                   No pseudopotential on this center.
   63          1
                                   No pseudopotential on this center.
   64          1
                                   No pseudopotential on this center.
   65          1
                                   No pseudopotential on this center.
   66          1
                                   No pseudopotential on this center.
   67          1
                                   No pseudopotential on this center.
   68         17
                                   No pseudopotential on this center.
   69         17
                                   No pseudopotential on this center.
   70         46           18
                                      F and up 
                                                     0      598.3336444       -0.05631770    0.00000000
                                                     1      162.4298290      -20.12880360    0.00000000
                                                     2       51.5714771     -105.81979230    0.00000000
                                                     2       16.4888260      -42.57333450    0.00000000
                                                     2        5.8287656       -3.61650860    0.00000000
                                      S - F
                                                     0       73.3806304        3.00036510    0.00000000
                                                     1       14.7550438       32.43500930    0.00000000
                                                     2       17.8350204      459.08303830    0.00000000
                                                     2       12.7111477     -868.06290290    0.00000000
                                                     2        9.3292063      514.47260980    0.00000000
                                      P - F
                                                     0       55.6689877        4.95930990    0.00000000
                                                     1       64.2337771       21.17110290    0.00000000
                                                     2       17.6254952      605.05600920    0.00000000
                                                     2       11.9058155     -726.96418460    0.00000000
                                                     2        8.5100832      396.32748830    0.00000000
                                      D - F
                                                     0       49.9994728        3.05087450    0.00000000
                                                     1       39.7477547       22.25065800    0.00000000
                                                     2       11.4321366      674.83576980    0.00000000
                                                     2        9.1790080    -1040.85540480    0.00000000
                                                     2        7.5624429      505.93751470    0.00000000
 ======================================================================================================
 There are   659 symmetry adapted cartesian basis functions of A   symmetry.
 There are   659 symmetry adapted basis functions of A   symmetry.
   659 basis functions,  1309 primitive gaussians,   659 cartesian basis functions
   158 alpha electrons      158 beta electrons
       nuclear repulsion energy      5732.0991821761 Hartrees.
 NAtoms=   70 NActive=   70 NUniq=   70 SFac= 1.00D+00 NAtFMM=   60 NAOKFM=T Big=T
 Integral buffers will be    131072 words long.
 Raffenetti 2 integral format.
 Two-electron integral symmetry is turned on.
 Nuclear repulsion after empirical dispersion term =     5731.9694695130 Hartrees.
 Standard density basis: Auto (5D, 7F)
  2899 Density fitting functions
 There are  2899 symmetry adapted density basis functions of A   symmetry.
 One-electron integrals computed using PRISM.
   1 Symmetry operations used in ECPInt.
 ECPInt:  NShTT=   25200 NPrTT=  167011 LenC2=   19942 LenP2D=   68143.
 LDataN:  DoStor=T MaxTD1= 5 Len=  102
 NBasis=   659 RedAO= T EigKep=  5.18D-04  NBF=   659
 NBsUse=   659 1.00D-06 EigRej= -1.00D+00 NBFU=   659
 NBasis=      659 NBas6D=      659 NTT=      217470   NTT6D=   217470
 NDBShl=      583 NDBF=       2899 NDBF6D=     3422  NNucDB=        0
 IDenFi=        2 ISolve=        0 FullAP=F BlkAPC=T NucTyp=        0
 TolInv= 1.00D-06 TolIt=  1.00D-10 IR12=0.
 FoFCou: FMM=F IPFlag=           0 FMFlag=           0 FMFlg1=           0
         NFxFlg=           0 DoJE=F BraDBF=T KetDBF=T FulRan=T
         wScrn=  0.000000 ICntrl=     600 IOpCl=  3 I1Cent=           6 NGrid=           0
         NMat0=    1 NMatS0=   3422 NMatT0=    0 NMatD0=    1 NMtDS0=    0 NMtDT0=    0
 Petite list used in FoFCou.
 DBF EigKep=  1.20D-06 EigRej= -1.00D+00
 NDBF=   2899  NBFD=  2899
 NRank=  2899 NBFDU=  2899
 S*AI*S=  12.2349969048    
 Defaulting to unpruned grid for atomic number  46.
 ExpMin= 2.62D-02 ExpMax= 2.52D+04 ExpMxC= 3.78D+03 IAcc=3 IRadAn=         5 AccDes= 0.00D+00
 Harris functional with IExCor= 1009 and IRadAn=       5 diagonalized for initial guess.
 HarFok:  IExCor= 1009 AccDes= 0.00D+00 IRadAn=         5 IDoV= 1 UseB2=F ITyADJ=14
 ICtDFT=  3500011 ScaDFX=  1.000000  1.000000  1.000000  1.000000
 Defaulting to unpruned grid for atomic number  46.
 Defaulting to unpruned grid for atomic number  46.
 Defaulting to unpruned grid for atomic number  46.
 Defaulting to unpruned grid for atomic number  46.
 Defaulting to unpruned grid for atomic number  46.
 Defaulting to unpruned grid for atomic number  46.
 Defaulting to unpruned grid for atomic number  46.
 Defaulting to unpruned grid for atomic number  46.
 Defaulting to unpruned grid for atomic number  46.
 Defaulting to unpruned grid for atomic number  46.
 Defaulting to unpruned grid for atomic number  46.
 Defaulting to unpruned grid for atomic number  46.
 Defaulting to unpruned grid for atomic number  46.
 Defaulting to unpruned grid for atomic number  46.
 FoFCou: FMM=F IPFlag=           0 FMFlag=      100000 FMFlg1=        2001
         NFxFlg=           0 DoJE=T BraDBF=F KetDBF=T FulRan=T
         wScrn=  0.000000 ICntrl=     500 IOpCl=  0 I1Cent=   200000004 NGrid=           0
         NMat0=    1 NMatS0=      1 NMatT0=    0 NMatD0=    1 NMtDS0=    0 NMtDT0=    0
 Petite list used in FoFCou.
 Requested convergence on RMS density matrix=1.00D-08 within 500 cycles.
 Requested convergence on MAX density matrix=1.00D-06.
 Requested convergence on             energy=1.00D-06.
 No special actions if energy rises.
 FoFCou: FMM=F IPFlag=           0 FMFlag=      100000 FMFlg1=        2001
         NFxFlg=           0 DoJE=T BraDBF=T KetDBF=F FulRan=T
         wScrn=  0.000000 ICntrl=     500 IOpCl=  0 I1Cent=           5 NGrid=           0
         NMat0=    1 NMatS0=      1 NMatT0=    0 NMatD0=    1 NMtDS0=    0 NMtDT0=    0
 Symmetry not used in FoFCou.
 Defaulting to unpruned grid for atomic number  46.
 Defaulting to unpruned grid for atomic number  46.
 Defaulting to unpruned grid for atomic number  46.
 Defaulting to unpruned grid for atomic number  46.
 Defaulting to unpruned grid for atomic number  46.
 Defaulting to unpruned grid for atomic number  46.
 Defaulting to unpruned grid for atomic number  46.
 Defaulting to unpruned grid for atomic number  46.
 Defaulting to unpruned grid for atomic number  46.
 Defaulting to unpruned grid for atomic number  46.
 Defaulting to unpruned grid for atomic number  46.
 Defaulting to unpruned grid for atomic number  46.
 Defaulting to unpruned grid for atomic number  46.
 Defaulting to unpruned grid for atomic number  46.
 EnCoef did     7 forward-backward iterations
 EnCoef did   100 forward-backward iterations
 Problem detected with inexpensive integrals.
 Switching to full accuracy and repeating last cycle.
 EnCoef did     3 forward-backward iterations
 EnCoef did   100 forward-backward iterations
 EnCoef did   100 forward-backward iterations
 EnCoef did   100 forward-backward iterations
 EnCoef did   100 forward-backward iterations
 EnCoef did     4 forward-backward iterations
 EnCoef did     4 forward-backward iterations
 EnCoef did     5 forward-backward iterations
 EnCoef did     1 forward-backward iterations
 EnCoef did   100 forward-backward iterations
 EnCoef did     7 forward-backward iterations
 EnCoef did     9 forward-backward iterations
 Restarting incremental Fock formation.
 SCF Done:  E(RPBE-PBE) =  -3078.64035418     A.U. after   35 cycles
            NFock= 35  Conv=0.43D-08     -V/T= 2.0334

 **********************************************************************

            Population analysis using the SCF density.

 **********************************************************************

 Orbital symmetries:
       Occupied  (A) (A) (A) (A) (A) (A) (A) (A) (A) (A) (A) (A)
                 (A) (A) (A) (A) (A) (A) (A) (A) (A) (A) (A) (A)
                 (A) (A) (A) (A) (A) (A) (A) (A) (A) (A) (A) (A)
                 (A) (A) (A) (A) (A) (A) (A) (A) (A) (A) (A) (A)
                 (A) (A) (A) (A) (A) (A) (A) (A) (A) (A) (A) (A)
                 (A) (A) (A) (A) (A) (A) (A) (A) (A) (A) (A) (A)
                 (A) (A) (A) (A) (A) (A) (A) (A) (A) (A) (A) (A)
                 (A) (A) (A) (A) (A) (A) (A) (A) (A) (A) (A) (A)
                 (A) (A) (A) (A) (A) (A) (A) (A) (A) (A) (A) (A)
                 (A) (A) (A) (A) (A) (A) (A) (A) (A) (A) (A) (A)
                 (A) (A) (A) (A) (A) (A) (A) (A) (A) (A) (A) (A)
                 (A) (A) (A) (A) (A) (A) (A) (A) (A) (A) (A) (A)
                 (A) (A) (A) (A) (A) (A) (A) (A) (A) (A) (A) (A)
                 (A) (A)
       Virtual   (A) (A) (A) (A) (A) (A) (A) (A) (A) (A) (A) (A)
                 (A) (A) (A) (A) (A) (A) (A) (A) (A) (A) (A) (A)
                 (A) (A) (A) (A) (A) (A) (A) (A) (A) (A) (A) (A)
                 (A) (A) (A) (A) (A) (A) (A) (A) (A) (A) (A) (A)
                 (A) (A) (A) (A) (A) (A) (A) (A) (A) (A) (A) (A)
                 (A) (A) (A) (A) (A) (A) (A) (A) (A) (A) (A) (A)
                 (A) (A) (A) (A) (A) (A) (A) (A) (A) (A) (A) (A)
                 (A) (A) (A) (A) (A) (A) (A) (A) (A) (A) (A) (A)
                 (A) (A) (A) (A) (A) (A) (A) (A) (A) (A) (A) (A)
                 (A) (A) (A) (A) (A) (A) (A) (A) (A) (A) (A) (A)
                 (A) (A) (A) (A) (A) (A) (A) (A) (A) (A) (A) (A)
                 (A) (A) (A) (A) (A) (A) (A) (A) (A) (A) (A) (A)
                 (A) (A) (A) (A) (A) (A) (A) (A) (A) (A) (A) (A)
                 (A) (A) (A) (A) (A) (A) (A) (A) (A) (A) (A) (A)
                 (A) (A) (A) (A) (A) (A) (A) (A) (A) (A) (A) (A)
                 (A) (A) (A) (A) (A) (A) (A) (A) (A) (A) (A) (A)
                 (A) (A) (A) (A) (A) (A) (A) (A) (A) (A) (A) (A)
                 (A) (A) (A) (A) (A) (A) (A) (A) (A) (A) (A) (A)
                 (A) (A) (A) (A) (A) (A) (A) (A) (A) (A) (A) (A)
                 (A) (A) (A) (A) (A) (A) (A) (A) (A) (A) (A) (A)
                 (A) (A) (A) (A) (A) (A) (A) (A) (A) (A) (A) (A)
                 (A) (A) (A) (A) (A) (A) (A) (A) (A) (A) (A) (A)
                 (A) (A) (A) (A) (A) (A) (A) (A) (A) (A) (A) (A)
                 (A) (A) (A) (A) (A) (A) (A) (A) (A) (A) (A) (A)
                 (A) (A) (A) (A) (A) (A) (A) (A) (A) (A) (A) (A)
                 (A) (A) (A) (A) (A) (A) (A) (A) (A) (A) (A) (A)
                 (A) (A) (A) (A) (A) (A) (A) (A) (A) (A) (A) (A)
                 (A) (A) (A) (A) (A) (A) (A) (A) (A) (A) (A) (A)
                 (A) (A) (A) (A) (A) (A) (A) (A) (A) (A) (A) (A)
                 (A) (A) (A) (A) (A) (A) (A) (A) (A) (A) (A) (A)
                 (A) (A) (A) (A) (A) (A) (A) (A) (A) (A) (A) (A)
                 (A) (A) (A) (A) (A) (A) (A) (A) (A) (A) (A) (A)
                 (A) (A) (A) (A) (A) (A) (A) (A) (A) (A) (A) (A)
                 (A) (A) (A) (A) (A) (A) (A) (A) (A) (A) (A) (A)
                 (A) (A) (A) (A) (A) (A) (A) (A) (A) (A) (A) (A)
                 (A) (A) (A) (A) (A) (A) (A) (A) (A) (A) (A) (A)
                 (A) (A) (A) (A) (A) (A) (A) (A) (A) (A) (A) (A)
                 (A) (A) (A) (A) (A) (A) (A) (A) (A) (A) (A) (A)
                 (A) (A) (A) (A) (A) (A) (A) (A) (A) (A) (A) (A)
                 (A) (A) (A) (A) (A) (A) (A) (A) (A) (A) (A) (A)
                 (A) (A) (A) (A) (A) (A) (A) (A) (A) (A) (A) (A)
                 (A) (A) (A) (A) (A) (A) (A) (A) (A)
 The electronic state is 1-A.
 Alpha  occ. eigenvalues -- -100.59345-100.58985 -76.38303 -76.37905 -18.78696
 Alpha  occ. eigenvalues --  -18.78685  -9.99490  -9.97119  -9.96644  -9.94337
 Alpha  occ. eigenvalues --   -9.93502  -9.93071  -9.93036  -9.93012  -9.92948
 Alpha  occ. eigenvalues --   -9.92849  -9.92758  -9.92546  -9.92500  -9.92479
 Alpha  occ. eigenvalues --   -9.91600  -9.91445  -9.91182  -9.91120  -9.90999
 Alpha  occ. eigenvalues --   -9.90984  -9.90932  -9.90885  -9.90866  -9.90814
 Alpha  occ. eigenvalues --   -9.90807  -9.90642  -9.90563  -9.90521  -9.90484
 Alpha  occ. eigenvalues --   -9.88465  -9.87722  -9.08868  -9.08511  -6.91222
 Alpha  occ. eigenvalues --   -6.90881  -6.90456  -6.90403  -6.90117  -6.90011
 Alpha  occ. eigenvalues --   -6.36140  -6.35695  -4.57967  -4.57923  -4.57637
 Alpha  occ. eigenvalues --   -4.57512  -4.57485  -4.57211  -3.20317  -1.97154
 Alpha  occ. eigenvalues --   -1.97044  -1.93242  -1.02781  -0.92970  -0.79805
 Alpha  occ. eigenvalues --   -0.78088  -0.77346  -0.77323  -0.76181  -0.71809
 Alpha  occ. eigenvalues --   -0.70861  -0.69617  -0.68919  -0.67886  -0.67603
 Alpha  occ. eigenvalues --   -0.67441  -0.67329  -0.67219  -0.67143  -0.64544
 Alpha  occ. eigenvalues --   -0.63539  -0.62912  -0.61597  -0.59720  -0.57748
 Alpha  occ. eigenvalues --   -0.56722  -0.55641  -0.54892  -0.54680  -0.54287
 Alpha  occ. eigenvalues --   -0.54255  -0.53921  -0.53216  -0.51617  -0.50729
 Alpha  occ. eigenvalues --   -0.49298  -0.47714  -0.46706  -0.45905  -0.45644
 Alpha  occ. eigenvalues --   -0.44283  -0.42620  -0.42281  -0.41769  -0.41511
 Alpha  occ. eigenvalues --   -0.41271  -0.40970  -0.40433  -0.40074  -0.39899
 Alpha  occ. eigenvalues --   -0.39766  -0.39567  -0.39411  -0.39042  -0.38382
 Alpha  occ. eigenvalues --   -0.37589  -0.37396  -0.37295  -0.37235  -0.36473
 Alpha  occ. eigenvalues --   -0.35999  -0.35678  -0.35183  -0.34442  -0.34266
 Alpha  occ. eigenvalues --   -0.34026  -0.33652  -0.33464  -0.32894  -0.32491
 Alpha  occ. eigenvalues --   -0.32268  -0.31775  -0.31473  -0.31306  -0.31201
 Alpha  occ. eigenvalues --   -0.30614  -0.30473  -0.30289  -0.30048  -0.29843
 Alpha  occ. eigenvalues --   -0.29655  -0.29417  -0.28907  -0.27126  -0.25680
 Alpha  occ. eigenvalues --   -0.25052  -0.24830  -0.24522  -0.24199  -0.24048
 Alpha  occ. eigenvalues --   -0.23615  -0.22869  -0.22639  -0.22455  -0.22150
 Alpha  occ. eigenvalues --   -0.21713  -0.21500  -0.20497  -0.19334  -0.18560
 Alpha  occ. eigenvalues --   -0.18031  -0.17339  -0.17292
 Alpha virt. eigenvalues --   -0.09760  -0.07438  -0.06179  -0.05579  -0.04831
 Alpha virt. eigenvalues --   -0.04123  -0.03944  -0.03577  -0.03246  -0.01860
 Alpha virt. eigenvalues --    0.00696   0.02127   0.03479   0.03789   0.04058
 Alpha virt. eigenvalues --    0.04804   0.05098   0.05599   0.05788   0.06260
 Alpha virt. eigenvalues --    0.06476   0.07545   0.07926   0.08390   0.08810
 Alpha virt. eigenvalues --    0.09190   0.09246   0.09682   0.09782   0.10389
 Alpha virt. eigenvalues --    0.10656   0.10955   0.11353   0.11596   0.11881
 Alpha virt. eigenvalues --    0.12083   0.12499   0.12658   0.12957   0.13385
 Alpha virt. eigenvalues --    0.13535   0.14197   0.14364   0.14682   0.14739
 Alpha virt. eigenvalues --    0.15040   0.15718   0.15796   0.16390   0.16500
 Alpha virt. eigenvalues --    0.16809   0.17071   0.17627   0.17970   0.18408
 Alpha virt. eigenvalues --    0.18647   0.19151   0.19415   0.20169   0.20787
 Alpha virt. eigenvalues --    0.21270   0.21498   0.21865   0.22718   0.23371
 Alpha virt. eigenvalues --    0.23913   0.24130   0.24460   0.24895   0.25463
 Alpha virt. eigenvalues --    0.25741   0.26044   0.26064   0.26509   0.26573
 Alpha virt. eigenvalues --    0.26622   0.27877   0.27964   0.28211   0.28563
 Alpha virt. eigenvalues --    0.29055   0.30251   0.31735   0.32052   0.34150
 Alpha virt. eigenvalues --    0.35614   0.36043   0.36813   0.37682   0.39397
 Alpha virt. eigenvalues --    0.39811   0.41559   0.41974   0.42694   0.43134
 Alpha virt. eigenvalues --    0.44455   0.45409   0.45945   0.46466   0.47057
 Alpha virt. eigenvalues --    0.47307   0.47450   0.47936   0.48373   0.48578
 Alpha virt. eigenvalues --    0.48916   0.49030   0.49470   0.49531   0.49969
 Alpha virt. eigenvalues --    0.50186   0.50489   0.50627   0.50844   0.50925
 Alpha virt. eigenvalues --    0.51083   0.51460   0.51646   0.51966   0.52267
 Alpha virt. eigenvalues --    0.52461   0.52827   0.53056   0.53570   0.53729
 Alpha virt. eigenvalues --    0.53951   0.54088   0.54525   0.54670   0.55105
 Alpha virt. eigenvalues --    0.55561   0.55797   0.56154   0.56328   0.56581
 Alpha virt. eigenvalues --    0.56916   0.57000   0.57349   0.57642   0.57897
 Alpha virt. eigenvalues --    0.58001   0.58160   0.58720   0.59035   0.59387
 Alpha virt. eigenvalues --    0.59579   0.60062   0.60588   0.61166   0.61777
 Alpha virt. eigenvalues --    0.62029   0.62465   0.62727   0.63286   0.64277
 Alpha virt. eigenvalues --    0.64617   0.65086   0.65648   0.65835   0.66637
 Alpha virt. eigenvalues --    0.66963   0.67788   0.68391   0.68976   0.69674
 Alpha virt. eigenvalues --    0.69921   0.71662   0.72243   0.72413   0.73327
 Alpha virt. eigenvalues --    0.74084   0.74661   0.75330   0.75383   0.76071
 Alpha virt. eigenvalues --    0.76788   0.76887   0.77313   0.77918   0.78235
 Alpha virt. eigenvalues --    0.78704   0.78933   0.79082   0.79360   0.79438
 Alpha virt. eigenvalues --    0.79726   0.80078   0.80261   0.80687   0.81156
 Alpha virt. eigenvalues --    0.81396   0.82024   0.82104   0.82727   0.82939
 Alpha virt. eigenvalues --    0.83296   0.84102   0.84569   0.84863   0.85009
 Alpha virt. eigenvalues --    0.85294   0.85832   0.85883   0.86430   0.86843
 Alpha virt. eigenvalues --    0.87398   0.87716   0.87840   0.88351   0.88505
 Alpha virt. eigenvalues --    0.88901   0.89246   0.89453   0.89512   0.90034
 Alpha virt. eigenvalues --    0.90113   0.90296   0.90902   0.91326   0.91384
 Alpha virt. eigenvalues --    0.91990   0.92386   0.93127   0.93608   0.93667
 Alpha virt. eigenvalues --    0.94441   0.94972   0.95401   0.95547   0.95970
 Alpha virt. eigenvalues --    0.96661   0.97166   0.98157   0.98514   0.98774
 Alpha virt. eigenvalues --    0.99399   0.99848   1.00813   1.01120   1.01802
 Alpha virt. eigenvalues --    1.02476   1.03155   1.03363   1.03562   1.04224
 Alpha virt. eigenvalues --    1.04407   1.05953   1.06020   1.07254   1.07834
 Alpha virt. eigenvalues --    1.08054   1.08714   1.09082   1.09276   1.10564
 Alpha virt. eigenvalues --    1.11378   1.11906   1.12705   1.12929   1.13342
 Alpha virt. eigenvalues --    1.13415   1.14309   1.15874   1.16888   1.17481
 Alpha virt. eigenvalues --    1.17802   1.18461   1.19025   1.19795   1.20256
 Alpha virt. eigenvalues --    1.21335   1.22138   1.23261   1.24610   1.25314
 Alpha virt. eigenvalues --    1.25642   1.26210   1.27860   1.29687   1.31210
 Alpha virt. eigenvalues --    1.31789   1.32962   1.34737   1.35274   1.36158
 Alpha virt. eigenvalues --    1.36625   1.36818   1.37807   1.38296   1.38570
 Alpha virt. eigenvalues --    1.39211   1.39478   1.39758   1.40011   1.40758
 Alpha virt. eigenvalues --    1.40990   1.41464   1.41621   1.41883   1.41914
 Alpha virt. eigenvalues --    1.42049   1.42196   1.43088   1.43563   1.43871
 Alpha virt. eigenvalues --    1.44038   1.44334   1.44794   1.44983   1.46336
 Alpha virt. eigenvalues --    1.48903   1.52007   1.52331   1.54625   1.55928
 Alpha virt. eigenvalues --    1.56263   1.59069   1.61735   1.63206   1.64430
 Alpha virt. eigenvalues --    1.65672   1.68234   1.69030   1.69465   1.70277
 Alpha virt. eigenvalues --    1.71190   1.72774   1.73083   1.73390   1.73773
 Alpha virt. eigenvalues --    1.74624   1.75213   1.76007   1.76838   1.77405
 Alpha virt. eigenvalues --    1.78557   1.79750   1.80056   1.81541   1.82437
 Alpha virt. eigenvalues --    1.82872   1.83114   1.84065   1.84262   1.84914
 Alpha virt. eigenvalues --    1.85949   1.87926   1.88893   1.89340   1.90323
 Alpha virt. eigenvalues --    1.90819   1.90879   1.91404   1.92180   1.92813
 Alpha virt. eigenvalues --    1.93468   1.94291   1.95598   1.97561   1.98398
 Alpha virt. eigenvalues --    1.98820   1.99762   2.00271   2.00739   2.02622
 Alpha virt. eigenvalues --    2.03590   2.03914   2.04364   2.04794   2.05093
 Alpha virt. eigenvalues --    2.05195   2.05404   2.05486   2.05544   2.05941
 Alpha virt. eigenvalues --    2.06204   2.06311   2.06612   2.07046   2.07115
 Alpha virt. eigenvalues --    2.07278   2.07787   2.08315   2.08663   2.09061
 Alpha virt. eigenvalues --    2.10861   2.11783   2.12825   2.13340   2.15852
 Alpha virt. eigenvalues --    2.17759   2.18169   2.19190   2.19693   2.20228
 Alpha virt. eigenvalues --    2.20239   2.20585   2.20772   2.21046   2.21129
 Alpha virt. eigenvalues --    2.21412   2.21633   2.22609   2.22840   2.23173
 Alpha virt. eigenvalues --    2.24697   2.27057   2.29860   2.32734   2.35793
 Alpha virt. eigenvalues --    2.38967   2.42097   2.44468   2.44700   2.46276
 Alpha virt. eigenvalues --    2.46755   2.47243   2.48014   2.49649   2.49948
 Alpha virt. eigenvalues --    2.50479   2.51542   2.53216   2.53655   2.53783
 Alpha virt. eigenvalues --    2.53914   2.54715   2.56239   2.56766   2.57196
 Alpha virt. eigenvalues --    2.58081   2.58292   2.58401   2.59706   2.60206
 Alpha virt. eigenvalues --    2.61089   2.62869   2.64086   2.64734   2.65394
 Alpha virt. eigenvalues --    2.65755   2.66289   2.66882   2.67905   2.67939
 Alpha virt. eigenvalues --    2.68987   2.69723   2.70069   2.71610   2.72317
 Alpha virt. eigenvalues --    2.75245   2.76607   2.88513   2.91566   2.93436
 Alpha virt. eigenvalues --    2.93860   2.94696   2.96335   2.99885   3.22881
 Alpha virt. eigenvalues --    3.23906   3.25882   3.26838   3.47502   3.51294
 Alpha virt. eigenvalues --    3.92420   3.98085   3.99842   4.00549   4.01955
 Alpha virt. eigenvalues --    4.02140   4.02834   4.03661   4.04846   4.08027
 Alpha virt. eigenvalues --    4.09648   4.10857   4.12481   4.14152   4.17837
 Alpha virt. eigenvalues --    4.22414   4.22704   4.23812   4.24780   4.25068
 Alpha virt. eigenvalues --    4.26696   4.27547   4.28128   4.28935   4.30992
 Alpha virt. eigenvalues --    4.32224   4.33608   4.34675   4.45395   4.55524
 Alpha virt. eigenvalues --    4.56954   4.57160   4.57572   4.59288   4.62894
 Alpha virt. eigenvalues --   31.06503
          Condensed to atoms (all electrons):
 Mulliken charges:
               1
     1  P    0.629527
     2  P    0.577291
     3  O   -0.461567
     4  O   -0.449585
     5  C   -0.538313
     6  C    0.063615
     7  C    0.101941
     8  C   -0.555043
     9  C    0.459271
    10  C   -0.486835
    11  C   -0.494208
    12  C   -0.045308
    13  C   -0.162621
    14  C   -0.125142
    15  C   -0.137116
    16  C   -0.125352
    17  C   -0.175215
    18  C   -0.110390
    19  C   -0.190020
    20  C   -0.131385
    21  C   -0.138436
    22  C   -0.131533
    23  C   -0.165382
    24  C   -0.081840
    25  C   -0.176803
    26  C   -0.133800
    27  C   -0.137554
    28  C   -0.136573
    29  C   -0.138703
    30  C   -0.061796
    31  C   -0.152783
    32  C   -0.127883
    33  C   -0.137970
    34  C   -0.129049
    35  C   -0.191919
    36  H    0.201069
    37  H    0.227116
    38  H    0.212567
    39  H    0.145828
    40  H    0.218358
    41  H    0.217116
    42  H    0.155233
    43  H    0.165697
    44  H    0.165514
    45  H    0.160859
    46  H    0.182407
    47  H    0.159982
    48  H    0.163752
    49  H    0.150522
    50  H    0.146502
    51  H    0.145670
    52  H    0.155205
    53  H    0.226330
    54  H    0.162117
    55  H    0.156366
    56  H    0.155850
    57  H    0.157633
    58  H    0.219833
    59  H    0.156398
    60  H    0.148435
    61  H    0.146957
    62  H    0.150860
    63  H    0.180836
    64  H    0.152503
    65  H    0.146623
    66  H    0.141526
    67  H    0.140956
    68  Cl  -0.235303
    69  Cl  -0.225686
    70  Pd  -0.557153
 Sum of Mulliken charges =  -0.00000
 Mulliken charges with hydrogens summed into heavy atoms:
               1
     1  P    0.629527
     2  P    0.577291
     3  O   -0.461567
     4  O   -0.449585
     5  C   -0.110128
     6  C    0.276182
     7  C    0.247770
     8  C   -0.119569
     9  C    0.459271
    10  C   -0.000391
    11  C    0.009041
    12  C   -0.045308
    13  C    0.001131
    14  C    0.025379
    15  C    0.009386
    16  C    0.020319
    17  C   -0.020010
    18  C   -0.110390
    19  C    0.036310
    20  C    0.030732
    21  C    0.017930
[...]
 66,0.00069249,-0.00186636,0.00256467,-0.00367774,0.00021008,0.00061654
 ,0.00011756,0.00007771,0.00030111,0.00018940,-0.00116343,0.00022466,-0
 .00043933,-0.00029352,-0.00073785,-0.00004125,0.00012848,-0.00020545,-
 0.00028033,-0.00017868,0.00017741,0.00049339,-0.00011077,-0.00044174,-
 0.00018518,0.00000748,0.00004900,0.00003226,0.00003266,0.00005432,0.00
 004373,-0.00076785,0.00058842,-0.00036217,-0.00022291,0.00002009,0.000
 25363,-0.00015096,-0.00016449,-0.00000174,0.00004105,-0.00001193,-0.00
 006122,-0.00001885,-0.00016247,0.00009435,0.00037962,-0.00014762,-0.00
 047604,-0.00117962,0.00082966,-0.00233284,-0.00000596,0.00020922,-0.00
 008486,0.00008411,0.00010934,0.00000007,-0.00013027,0.00009593,0.00000
 130,-0.00009054,0.00030367,-0.00001618,-0.00057820,-0.00028010,0.00089
 496,0.00022947,-0.00011230,0.00062461,0.00094738,0.00075462,-0.0015060
 9,-0.00014338,0.00053667,0.00026359,0.00017828,0.00000753,0.00014141,0
 .00004987,0.00016668,-0.00002691,0.00003155,-0.00015543,0.00023116,0.0
 0175974,-0.00123279,-0.00016601,-0.00084612,-0.00128105,-0.00089672,0.
 00008297,-0.00067120,0.00051503,0.00032914,0.00016390,0.00029195,0.000
 21892,0.00006792,-0.00056215,-0.00062771,-0.00018228,0.00051798,0.0003
 0879,0.00032310,-0.00032905,0.00003065,0.00004493,0.00002352,-0.000024
 15,0.00001898,0.00001924,0.00002399,-0.00005954,0.00014330,-0.00001039
 ,0.00015729,-0.00002107,0.00002654,-0.00013286,-0.00014607,0.00001309,
 -0.00002073,-0.00000367,-0.00000358,-0.00001324,-0.00000269,0.00000062
 ,0.00004096,-0.00000023,0.00000291,-0.00000893,-0.00000293,-0.00002481
 ,-0.00001736,-0.00002841,0.00002796,0.00003519,0.00000667,-0.00000957,
 0.00009559,0.00000037,0.00001639,-0.00004120,-0.00004646,-0.00001817,-
 0.00000103,-0.00006438,-0.00005450,-0.00006173,-0.00004355,-0.00000132
 ,0.00009280,-0.00002641,0.00019864,-0.00000305,-0.00031096,-0.00011897
 ,-0.00003853,0.00006504,-0.00005878,-0.00000390,0.00000712,-0.00012680
 ,0.00006059,0.00006445,0.00005253,-0.00007181,-0.00007094,0.00036021,0
 .00140134,-0.00050837,-0.00003348,0.00000946,-0.00011989,0.00002704,0.
 00007568,0.00003522,-0.00001038,0.00003894,-0.00006604,-0.00001361,0.0
 0007878,0.00001005,0.00075456,0.00007691,-0.00033560,-0.00001606,0.000
 02183,0.00013997,0.00006465,0.00005848,-0.00003010,0.00003612,0.000010
 81,-0.00001493,0.00008767,-0.00009218,-0.00003162,0.03630684,-0.014359
 83,0.05140795,-0.00104444,0.00224599,-0.00069867,0.00537320,-0.0003378
 1,-0.00150194,0.00004847,0.00012215,-0.00000549,-0.00003175,0.00002288
 ,0.00006522,-0.00013853,0.00029215,0.00007877,-0.00010128,-0.00008846,
 -0.00009668,0.00006845,-0.00000958,-0.00018289,-0.00028690,-0.00075451
 ,-0.00029752,-0.00001043,-0.00003751,-0.00006215,0.00000584,0.00000700
 ,0.00000884,0.00000087,0.00000765,0.00001657,-0.00111518,0.00043581,-0
 .00106203,-0.00120211,0.00030373,-0.00180995,0.00068642,0.00081089,0.0
 0022275,-0.00078859,-0.00002828,0.00030874,0.00026961,-0.00042503,-0.0
 0064298,0.00092940,0.00116765,0.00013835,0.00008355,-0.00002415,0.0002
 9105,0.00029401,-0.00020591,0.00029335,-0.00003522,0.00012796,-0.00009
 148,-0.00001350,-0.00002847,0.00002773,0.00001570,-0.00001402,-0.00001
 729,0.00003621,0.00000266,-0.00010355,-0.00038874,0.00113366,0.0007781
 7,-0.00002224,0.00014057,0.00000849,-0.00005070,-0.00001319,-0.0000043
 3,0.00000703,0.00003860,0.00002456,-0.00000522,0.00014249,0.00004148,0
 .00052336,-0.00007901,-0.00009608,-0.00039078,-0.00055230,-0.00006984,
 0.00006299,-0.00002337,-0.00004462,0.00007191,0.00006916,-0.00011299,-
 0.00010600,0.00000638,-0.00007634,0.00000060,0.00004613,0.00009799,0.0
 0003141,0.00000272,-0.00007692,0.00004984,0.00001353,-0.00006365,-0.00
 003792,0.00000584,-0.00006962,-0.00002778,0.00007592,0.00003376,0.0000
 1290,-0.00001432,0.00004066,0.00016317,-0.00019941,0.00016192,-0.00010
 269,0.00007723,-0.00005008,0.00000430,-0.00000204,-0.00000234,-0.00000
 163,-0.00000128,0.00000108,-0.00000069,0.00000356,-0.00000080,-0.00000
 443,0.00000781,-0.00000566,-0.00000277,0.00000151,0.00000961,0.0000100
 5,-0.00000537,0.00000069,0.00001070,0.00007383,-0.00025420,0.00001288,
 -0.00003317,-0.00001415,0.00001150,-0.00002446,0.00001745,0.00002002,-
 0.00002056,0.00003205,0.00009946,-0.00013121,0.00008912,-0.00014213,-0
 .00020132,-0.00025591,0.00001706,-0.00001687,-0.00001111,-0.00001806,0
 .00000828,-0.00000692,0.00001028,0.00000033,-0.00001073,-0.00001563,0.
 00001452,-0.00000617,-0.00015745,0.00002321,0.00007842,0.00003654,0.00
 001206,-0.00000074,0.00000413,-0.00000316,-0.00000109,0.00004929,0.000
 02809,-0.00002034,-0.00001075,0.00000162,0.00001370,0.00000970,-0.0000
 5557,0.00000451,0.00000258,0.00001072,-0.00002084,-0.00000082,-0.00001
 297,-0.00000542,0.00001478,-0.00001075,-0.00001036,-0.00002104,-0.0000
 3175,0.00001880,0.00014314,-0.00398536,-0.00202687,0.00918562,0.001746
 75,-0.00629127,0.00004082,0.00080704,-0.00131762,-0.00054600,-0.000059
 07,-0.00001553,0.00061061,-0.00020057,-0.00015676,0.00058729,0.0002584
 2,0.00004073,0.00028305,-0.00034762,0.00001886,-0.00074155,0.00020457,
 0.00037562,-0.00068759,-0.00084296,-0.00189474,-0.00158860,0.00018819,
 0.00015138,-0.00050744,0.00001865,-0.00000680,0.00006260,-0.00002259,0
 .00002021,0.00003746,0.00033215,-0.00046489,-0.00038140,0.00016874,-0.
 00016736,0.00141541,-0.00003095,0.00029195,-0.00004816,0.00026161,0.00
 020164,0.00002563,0.00004759,0.00016691,0.00022776,-0.00035252,-0.0000
 8130,0.00003182,0.00022441,0.00023447,0.00010197,0.00013428,0.00019617
 ,-0.00001744,0.00004375,0.00001181,0.00016244,-0.00001511,0.00003628,-
 0.00001861,-0.00003549,0.00002967,0.00001191,0.00013710,0.00005902,0.0
 0004766,0.00079870,-0.00158476,-0.00103775,0.00011101,0.00002672,-0.00
 001367,0.00004068,-0.00007116,-0.00000440,-0.00005852,-0.00003301,0.00
 000217,0.00005245,-0.00024352,-0.00010884,-0.00099538,0.00029379,0.000
 29959,-0.00058903,-0.00147952,-0.00041352,0.00063482,-0.00018303,-0.00
 006438,0.00018583,0.00028367,-0.00017073,-0.00004130,-0.00002896,-0.00
 013364,-0.00004489,0.00022922,-0.00009695,-0.00051782,-0.00000553,-0.0
 0029358,0.00002296,-0.00011887,0.00004670,-0.00002861,0.00000362,0.000
 01039,0.00023442,0.00008556,-0.00003229,0.00005295,-0.00012568,0.00025
 049,0.00069463,-0.00057119,0.00050928,-0.00014405,0.00000763,-0.000040
 51,0.00000628,0.00000903,-0.00002073,-0.00000975,-0.00002433,0.0000434
 7,-0.00000377,-0.00000402,-0.00000968,-0.00002568,-0.00002164,0.000051
 98,0.00001934,-0.00002297,-0.00005904,0.00000376,0.00003022,-0.0000250
 6,0.00029418,-0.00056635,0.00058420,-0.00000156,-0.00000360,0.00015394
 ,0.00002058,-0.00002463,0.00004053,0.00000124,-0.00001707,0.00006981,-
 0.00008777,-0.00006653,-0.00005167,-0.00019021,-0.00039120,0.00003997,
 -0.00003213,-0.00005984,-0.00003242,-0.00000817,-0.00002997,-0.0000136
 8,-0.00000529,-0.00002637,-0.00000663,-0.00004315,-0.00004674,-0.00003
 499,0.00024293,-0.00009432,-0.00005272,-0.00010662,-0.00000736,0.00002
 623,-0.00006360,-0.00003153,-0.00000115,-0.00012254,-0.00009189,0.0000
 1730,0.00008431,0.00007195,0.00000482,0.00000527,-0.00016816,0.0000604
 5,-0.00001557,0.00002845,-0.00011746,0.00001755,-0.00007434,-0.0000678
 2,0.00009493,-0.00000892,-0.00009118,-0.00005119,-0.00016876,0.0000575
 1,-0.00240398,0.00171754,-0.00272286,-0.00411575,0.08845299,-0.0019658
 0,0.00038424,-0.00161775,-0.00101986,-0.00277699,0.00418865,0.00001042
 ,-0.00002937,0.00037799,-0.00008311,-0.00007283,0.00031382,0.00061159,
 0.00006341,0.00043273,-0.00040666,0.00008031,-0.00047251,0.00004505,0.
 00027801,-0.00039073,-0.00043055,-0.00123516,-0.00119797,0.00013221,0.
 00004609,-0.00024126,-0.00000018,-0.00001159,0.00002548,-0.00000960,0.
 00001958,0.00001757,-0.00207934,0.00142158,-0.00113852,0.00066360,0.00
 114211,-0.00334456,-0.00031702,0.00088786,-0.00031152,-0.00031075,-0.0
 0010607,0.00050354,-0.00019898,-0.00057675,-0.00054853,0.00074256,0.00
 101102,0.00068146,0.00009620,0.00032043,0.00011981,-0.00014379,0.00026
 785,-0.00020291,0.00004261,-0.00010206,0.00012912,0.00000319,0.0000216
 4,-0.00002026,0.00000083,-0.00002410,0.00002941,-0.00001374,0.00004678
 ,0.00005089,0.00040720,-0.00116303,-0.00087970,0.00002616,-0.00011593,
 -0.00000701,0.00006645,0.00000605,0.00004310,-0.00001666,-0.00006507,-
 0.00003533,-0.00003142,-0.00016792,-0.00002996,-0.00059797,0.00020489,
 0.00010172,0.00013695,0.00047682,0.00016012,0.00004276,-0.00001534,-0.
 00000112,0.00002842,-0.00004666,0.00000668,0.00002619,0.00000804,0.000
 01226,-0.00001895,-0.00002628,-0.00005659,-0.00009007,0.00000975,-0.00
 001832,-0.00000909,-0.00016870,0.00011640,-0.00003829,-0.00013274,0.00
 007978,0.00017151,-0.00000470,0.00005180,0.00003445,-0.00006581,0.0001
 1713,0.00046838,-0.00040384,0.00027433,-0.00004609,0.00001277,-0.00001
 967,0.00000351,0.00000526,-0.00001314,-0.00000666,-0.00001516,0.000023
 38,-0.00000053,-0.00000300,-0.00000212,-0.00001507,-0.00001713,0.00002
 810,0.00001102,-0.00001016,-0.00003634,0.00000136,0.00001756,-0.000009
 32,-0.00115713,0.00006742,-0.00086883,0.00004603,0.00008454,0.00009486
 ,-0.00006941,-0.00006636,0.00000048,-0.00002364,0.00007579,0.00000704,
 -0.00009657,-0.00008986,0.00001752,-0.00011246,0.00005905,0.00015967,-
 0.00003468,-0.00000172,0.00000255,0.00001210,-0.00002089,0.00000092,-0
 .00001008,-0.00001655,-0.00000240,0.00000083,-0.00005720,0.00001855,0.
 00014506,-0.00002146,-0.00004193,-0.00005657,-0.00000483,0.00000645,-0
 .00002977,-0.00000780,-0.00000573,-0.00006737,-0.00005565,0.00002522,0
 .00004319,0.00003081,-0.00000418,0.00003580,0.00000177,0.00004049,-0.0
 0000725,0.00000314,-0.00001477,0.00000720,0.00000214,-0.00001690,0.000
 01843,0.00000748,-0.00001831,-0.00003894,-0.00001216,0.00000656,-0.001
 57080,-0.00445278,-0.00292555,0.00815318,0.02271006,0.02397308,-0.0503
 0755,0.01239206,-0.02365904,-0.02482327,-0.00100082,0.00085633,0.00005
 181,-0.00065074,-0.00019369,0.00042989,-0.00020480,-0.00055151,0.00583
 875,-0.00182935,0.00189642,0.00039784,0.00068293,0.00039196,-0.0006737
 0,-0.00012849,0.00103800,0.00264512,0.00536805,0.00334775,-0.00012344,
 0.00044458,0.00042991,0.00001727,-0.00006801,-0.00006654,-0.00000154,-
 0.00001637,-0.00009358,0.00094465,-0.00015416,-0.00149836,-0.00066369,
 -0.00002025,-0.00065558,0.00031235,-0.00018598,0.00007025,-0.00000798,
 0.00001122,0.00000248,0.00010934,-0.00011870,0.00009525,-0.00016898,0.
 00030491,0.00004786,-0.00509948,0.00245874,-0.00593609,-0.00325752,0.0
 0113041,-0.00014787,0.00029731,0.00003403,-0.00005296,-0.00024937,0.00
 034715,-0.00030485,-0.00042145,0.00064454,0.00013468,-0.00089649,-0.00
 055951,0.00126087,0.00262720,-0.00816836,-0.00541238,-0.00078534,-0.00
 149197,-0.00102789,-0.00012582,-0.00003529,-0.00010834,-0.00005216,-0.
 00001262,0.00006969,0.00038138,-0.00099223,-0.00040574,-0.00358232,0.0
 0005601,0.00082140,0.00119355,0.00082207,0.00121364,-0.00026753,0.0005
 8204,0.00019954,0.00011192,0.00020752,-0.00016439,-0.00004835,-0.00006
 499,0.00010121,0.00015146,-0.00000581,0.00000259,-0.00013097,0.0000980
 1,-0.00041957,-0.00090002,-0.00154235,0.00119450,0.00010797,0.00048707
 ,-0.00050376,-0.00005639,0.00034419,-0.00025845,0.00004477,-0.00002431
 ,-0.00018874,-0.00123907,0.00144327,-0.00110798,0.00067679,-0.00077325
 ,0.00022513,0.00000802,0.00000648,0.00002968,0.00000147,0.00002949,-0.
 00002342,-0.00000046,-0.00002914,0.00000318,0.00003682,-0.00000382,0.0
 0001038,0.00002452,0.00000647,-0.00001165,-0.00003215,-0.00001247,-0.0
 0001398,0.00011535,-0.00000422,-0.00034386,-0.00002975,-0.00005255,-0.
 00004542,0.00001178,0.00005298,-0.00003442,-0.00000251,0.00000809,-0.0
 0000359,0.00006643,0.00015144,-0.00005780,-0.00030737,-0.00059257,0.00
 017653,-0.00002593,-0.00004613,0.00000434,-0.00002774,0.00003052,0.000
 01008,-0.00013725,0.00012489,0.00014055,-0.00011410,-0.00002721,-0.000
 11315,0.00006479,-0.00038450,0.00093441,-0.00008424,0.00000910,0.00001
 147,-0.00004194,-0.00000827,0.00003244,-0.00033363,-0.00016918,0.00005
 440,0.00007329,-0.00003185,-0.00014476,-0.00006361,-0.00044224,-0.0000
 7210,0.00000283,-0.00002910,-0.00001556,-0.00001097,-0.00005472,0.0000
 0931,-0.00001905,-0.00001102,-0.00003504,0.00008367,-0.00005951,-0.000
 06909,-0.03592403,0.01594405,-0.02877531,-0.01210159,0.00342111,-0.001
 10963,0.12631044,0.01249131,-0.03296934,0.01174247,-0.00097143,-0.0717
 2781,-0.01946811,-0.00008172,-0.00051362,0.00023506,-0.00012783,-0.000
 13601,-0.00002236,0.00435287,0.00024065,0.00375284,0.00060666,-0.00052
 591,0.00068741,-0.00015458,0.00055178,-0.00017049,-0.00153993,-0.00112
 577,-0.00207298,0.00017794,0.00038144,0.00009340,0.00000579,-0.0000200
 7,-0.00004369,-0.00002109,-0.00007637,-0.00002836,-0.00547108,0.005332
 92,-0.00343169,-0.00055405,0.00003657,0.00112681,-0.00038282,-0.001135
 13,0.00005399,0.00039714,-0.00000191,-0.00041561,-0.00045666,-0.000435
 44,0.00091619,0.00057291,-0.00154853,-0.00205401,0.00284471,0.00087855
 ,0.00237768,-0.00004948,0.00021205,-0.00007738,-0.00040912,0.00005784,
 -0.00025536,0.00015121,-0.00018879,0.00025981,0.00007998,-0.00029488,-
 0.00046663,0.00019948,0.00072067,0.00007339,-0.00045032,-0.00112201,-0
 .00106924,-0.00069474,-0.00086829,-0.00025448,-0.00007971,0.00014819,0
 .00004229,-0.00002929,0.00002581,0.00003928,0.00014468,-0.00004140,-0.
 00009291,-0.00011214,-0.00008394,0.00006931,0.00079820,0.00242881,-0.0
 0097206,-0.00014801,-0.00037756,-0.00020681,-0.00043695,-0.00043125,0.
 00038042,0.00036651,0.00003156,0.00019925,0.00007813,-0.00018501,-0.00
 026324,0.00010179,-0.00001835,0.00026405,-0.00074683,-0.00063741,0.001
 17641,-0.00007673,-0.00036977,0.00062056,0.00025443,-0.00005095,0.0005
 0004,0.00000102,0.00000677,-0.00002091,0.00042185,-0.00058670,0.000171
 59,-0.00009994,0.00023677,-0.00015139,-0.00000528,0.00000685,-0.000008
 80,-0.00000297,0.00000827,0.00001217,0.00000576,-0.00003617,0.00000162
 ,-0.00001411,0.00000691,0.00000293,-0.00000184,0.00003128,0.00000757,-
 0.00001565,-0.00002738,0.00000096,0.00031882,0.00069656,-0.00039497,0.
 00001008,-0.00014901,-0.00009178,0.00000490,0.00010737,-0.00014747,-0.
 00008267,-0.00018762,-0.00018704,-0.00008869,0.00027779,-0.00019246,0.
 00081996,-0.00005117,-0.00033083,0.00000910,0.00002780,0.00000644,0.00
 001716,0.00006781,0.00001652,-0.00002731,-0.00011040,-0.00009084,-0.00
 003272,0.00014504,0.00002590,-0.00066124,-0.00026658,0.00013461,0.0000
 0985,-0.00001385,0.00001373,0.00003515,0.00001569,0.00002513,-0.000052
 21,0.00000051,-0.00001425,-0.00001533,-0.00006877,0.00008928,0.0000773
 4,0.00049481,-0.00003279,-0.00001447,-0.00006373,0.00004647,0.00000826
 ,0.00010201,0.00002493,-0.00003084,-0.00000496,0.00002167,-0.00004629,
 0.00013138,0.00009759,0.01245699,-0.02010275,0.01273077,0.00400263,-0.
 07628306,-0.01761056,-0.02763652,0.19942721,-0.02373853,0.01230677,-0.
 04946548,0.00059470,-0.02048755,-0.03003246,-0.00000224,0.00075709,-0.
 00049385,-0.00007609,0.00024414,-0.00011072,-0.00297708,0.00160349,-0.
 00199003,0.00028182,0.00038914,-0.00003165,0.00049748,-0.00071387,0.00
 034274,0.00126132,0.00381268,0.00445792,-0.00015706,-0.00050143,-0.000
 00145,0.00000905,0.00003456,0.00002998,0.00002844,0.00004662,-0.000004
 80,-0.00324988,0.00056573,-0.00122143,-0.00097472,-0.00021855,-0.00025
 170,0.00028043,0.00025648,0.00022026,-0.00037535,0.00005841,0.00005625
 ,-0.00033501,-0.00034519,-0.00011462,0.00054335,-0.00025557,-0.0010263
 8,0.00230126,-0.00189442,0.00484807,0.00053859,-0.00024776,0.00056159,
 -0.00007976,-0.00001476,0.00013803,0.00010070,-0.00011093,0.00013280,0
 .00022581,-0.00061742,0.00000278,0.00088104,0.00042548,-0.00126554,0.0
 0012241,0.00027072,0.00095336,-0.00008746,0.00026488,-0.00018086,-0.00
 031658,-0.00005502,-0.00021416,-0.00012820,0.00016637,0.00021119,0.000
 40427,0.00003659,-0.00012379,-0.00020166,-0.00045365,0.00016161,-0.001
 94382,-0.00748941,-0.00233707,0.00105483,-0.00065223,-0.00047258,0.000
 13985,0.00117195,-0.00038941,-0.00025134,-0.00008722,-0.00040553,0.000
 01585,0.00061666,0.00032826,-0.00046802,-0.00027419,-0.00081594,0.0001
 5590,0.00080758,-0.00045696,-0.00027113,-0.00029121,0.00045265,-0.0002
 4973,0.00004207,-0.00070744,-0.00011929,0.00012307,-0.00005563,-0.0014
 6417,0.00120156,-0.00068976,-0.00011411,-0.00000935,0.00003201,-0.0000
 0347,-0.00001667,0.00000626,0.00000423,0.00000118,-0.00002109,-0.00000
 070,0.00005080,-0.00000129,0.00001714,0.00000174,-0.00001844,-0.000027
 55,-0.00000908,0.00000637,0.00002558,0.00002199,0.00001541,0.00020225,
 0.00034660,0.00011575,0.00001709,-0.00003559,-0.00002811,-0.00000579,-
 0.00000643,-0.00000673,-0.00002668,-0.00015209,-0.00005388,-0.00006355
 ,0.00002522,-0.00001528,-0.00062273,0.00014976,-0.00002052,-0.00002257
 ,0.00000778,-0.00001332,0.00002004,-0.00001456,-0.00001382,0.00013204,
 -0.00009046,-0.00009401,0.00007383,0.00000894,0.00021389,0.00007765,-0
 .00023914,0.00038324,-0.00004419,-0.00001816,-0.00001200,0.00002013,-0
 .00000790,0.00002341,-0.00003482,0.00002525,-0.00004906,-0.00004385,0.
 00006367,-0.00007344,-0.00016268,-0.00073342,-0.00028933,0.00001316,0.
 00002798,-0.00021005,-0.00002227,-0.00015295,-0.00002847,0.00006918,-0
 .00000303,-0.00007636,0.00011139,-0.00007220,0.00012327,-0.02920231,0.
 01611072,-0.04107607,-0.00116630,-0.01837118,-0.01774494,0.05880986,0.
 01259894,0.13888837\\-0.00000093,-0.00001306,0.00000272,-0.00001713,0.
 00000406,0.00000507,-0.00001230,0.00002068,0.00000945,-0.00001770,-0.0
 0000823,0.00001505,-0.00000317,-0.00000302,0.00001569,0.00000478,0.000
 00257,-0.00001149,0.00001140,0.00001786,0.00000611,0.00001901,-0.00001
 891,0.00000244,0.00000687,-0.00002054,-0.00002271,0.00000230,0.0000046
 7,-0.00000458,-0.00000009,0.00000899,0.00000206,-0.00001465,0.00000337
 ,-0.00000423,0.00000148,-0.00000135,-0.00000364,-0.00000597,0.00000416
 ,0.00000331,0.00000159,0.00000606,0.00000476,0.00000801,-0.00000240,-0
 .00000318,0.00000982,0.00000141,0.00000046,-0.00000154,0.00000260,-0.0
 0000394,0.00000244,0.00000023,-0.00000407,-0.00000278,0.00000132,-0.00
 000427,0.00000620,-0.00000495,-0.00000162,0.00000381,-0.00000582,0.000
 00619,-0.00000160,-0.00000278,0.00000617,0.00000488,0.00000218,-0.0000
 0248,0.00000051,0.00000258,0.00000273,-0.00000598,0.00000678,-0.000000
 56,-0.00000617,-0.00000259,0.00000066,-0.00000068,-0.00000533,-0.00000
 435,0.00000270,-0.00000311,-0.00000212,0.00000377,0.00000421,-0.000000
 74,0.00000229,-0.00000364,0.00000241,-0.00000373,0.00000008,-0.0000069
 3,0.00000053,-0.00000232,-0.00000737,0.00000944,-0.00000356,0.00000398
 ,0.00000013,-0.00000035,0.00000320,-0.00000502,0.00000791,-0.00000408,
 0.00000431,-0.00000334,-0.00000111,0.00000107,-0.00000599,0.00000379,-
 0.00001115,-0.00000301,-0.00000306,0.00000049,0.00000734,0.00000303,-0
 .00000613,0.00000192,-0.00000227,-0.00000668,0.00000078,0.00000281,0.0
 0000013,-0.00000003,-0.00000044,-0.00000193,0.00000457,0.00000235,0.00
 000101,0.00000171,-0.00000299,0.00000278,-0.00000311,0.00000198,-0.000
 00317,0.00000210,0.00000311,0.00000460,0.00000071,0.00000078,0.0000041
 2,-0.00000073,-0.00000384,-0.00000180,-0.00000168,-0.00000449,-0.00000
 418,-0.00000116,-0.00000081,-0.00000200,0.00000218,0.00000440,0.000002
 67,-0.00000451,0.00000287,0.00000067,-0.00000474,0.00000449,-0.0000026
 9,0.00000085,0.00000406,-0.00000330,0.00000178,-0.00000094,0.00000242,
 -0.00000072,-0.00000507,0.00000034,-0.00000190,-0.00000316,0.00000360,
 -0.00000094,-0.00000298,0.00000409,0.00000336,-0.00000077,-0.00000017,
 0.00000533,0.00000128,-0.00000499,0.00000134,0.00000244,0.00000331,-0.
 00000141,-0.00000293,0.00000486,-0.00000207,0.00000289,0.00000096,-0.0
 0000185,0.00000485,-0.00000370,-0.00000212,0.00000187,0.00000049,-0.00
 000339,0.00000327,-0.00000790,0.00000498,-0.00000711,-0.00000092,0.000
 00712,-0.00000345,0.00001625,-0.00000312,-0.00000497\\\@


 A warm smile is the universal language of kindness.
                             -- William Arthur Ward
 Job cpu time:       0 days  6 hours 52 minutes  4.0 seconds.
 File lengths (MBytes):  RWF=   3692 Int=      0 D2E=      0 Chk=    112 Scr=      1
 Normal termination of Gaussian 09 at Tue Nov 16 13:29:55 2021.
