 Entering Gaussian System, Link 0=/uufs/chpc.utah.edu/sys/installdir/gaussian16/B01/E6B/g16/g16
 Input=SSSS-Ph-BIBOP_1.com
 Output=SSSS-Ph-BIBOP_1.log
 Initial command:
 /uufs/chpc.utah.edu/sys/installdir/gaussian16/B01/E6B/g16/l1.exe "/scratch/general/lustre/u1010977/3352302/notchpeak.peaks/Gau-315599.inp" -scrdir="/scratch/general/lustre/u1010977/3352302/notchpeak.peaks/"
 Entering Link 1 = /uufs/chpc.utah.edu/sys/installdir/gaussian16/B01/E6B/g16/l1.exe PID=    315601.
  
 Copyright (c) 1988-2017, Gaussian, Inc.  All Rights Reserved.
  
 This is part of the Gaussian(R) 16 program.  It is based on
 the Gaussian(R) 09 system (copyright 2009, Gaussian, Inc.),
 the Gaussian(R) 03 system (copyright 2003, Gaussian, Inc.),
 the Gaussian(R) 98 system (copyright 1998, Gaussian, Inc.),
 the Gaussian(R) 94 system (copyright 1995, Gaussian, Inc.),
 the Gaussian 92(TM) system (copyright 1992, Gaussian, Inc.),
 the Gaussian 90(TM) system (copyright 1990, Gaussian, Inc.),
 the Gaussian 88(TM) system (copyright 1988, Gaussian, Inc.),
 the Gaussian 86(TM) system (copyright 1986, Carnegie Mellon
 University), and the Gaussian 82(TM) system (copyright 1983,
 Carnegie Mellon University). Gaussian is a federally registered
 trademark of Gaussian, Inc.
  
 This software contains proprietary and confidential information,
 including trade secrets, belonging to Gaussian, Inc.
  
 This software is provided under written license and may be
 used, copied, transmitted, or stored only in accord with that
 written license.
  
 The following legend is applicable only to US Government
 contracts under FAR:
  
                    RESTRICTED RIGHTS LEGEND
  
 Use, reproduction and disclosure by the US Government is
 subject to restrictions as set forth in subparagraphs (a)
 and (c) of the Commercial Computer Software - Restricted
 Rights clause in FAR 52.227-19.
  
 Gaussian, Inc.
 340 Quinnipiac St., Bldg. 40, Wallingford CT 06492
  
  
 ---------------------------------------------------------------
 Warning -- This program may not be used in any manner that
 competes with the business of Gaussian, Inc. or will provide
 assistance to any competitor of Gaussian, Inc.  The licensee
 of this program is prohibited from giving any competitor of
 Gaussian, Inc. access to this program.  By using this program,
 the user acknowledges that Gaussian, Inc. is engaged in the
 business of creating and licensing software in the field of
 computational chemistry and represents and warrants to the
 licensee that it is not a competitor of Gaussian, Inc. and that
 it will not use this program in any manner prohibited above.
 ---------------------------------------------------------------
  

 Cite this work as:
 Gaussian 16, Revision B.01,
 M. J. Frisch, G. W. Trucks, H. B. Schlegel, G. E. Scuseria, 
 M. A. Robb, J. R. Cheeseman, G. Scalmani, V. Barone, 
 G. A. Petersson, H. Nakatsuji, X. Li, M. Caricato, A. V. Marenich, 
 J. Bloino, B. G. Janesko, R. Gomperts, B. Mennucci, H. P. Hratchian, 
 J. V. Ortiz, A. F. Izmaylov, J. L. Sonnenberg, D. Williams-Young, 
 F. Ding, F. Lipparini, F. Egidi, J. Goings, B. Peng, A. Petrone, 
 T. Henderson, D. Ranasinghe, V. G. Zakrzewski, J. Gao, N. Rega, 
 G. Zheng, W. Liang, M. Hada, M. Ehara, K. Toyota, R. Fukuda, 
 J. Hasegawa, M. Ishida, T. Nakajima, Y. Honda, O. Kitao, H. Nakai, 
 T. Vreven, K. Throssell, J. A. Montgomery, Jr., J. E. Peralta, 
 F. Ogliaro, M. J. Bearpark, J. J. Heyd, E. N. Brothers, K. N. Kudin, 
 V. N. Staroverov, T. A. Keith, R. Kobayashi, J. Normand, 
 K. Raghavachari, A. P. Rendell, J. C. Burant, S. S. Iyengar, 
 J. Tomasi, M. Cossi, J. M. Millam, M. Klene, C. Adamo, R. Cammi, 
 J. W. Ochterski, R. L. Martin, K. Morokuma, O. Farkas, 
 J. B. Foresman, and D. J. Fox, Gaussian, Inc., Wallingford CT, 2016.
 
 ******************************************
 Gaussian 16:  ES64L-G16RevB.01 20-Dec-2017
                31-Oct-2021 
 ******************************************
 %NProcShared=52
 Will use up to   52 processors via shared memory.
 %mem=18GB
 %chk=SSSS-Ph-BIBOP_1.chk
 ----------------------------------------------------------------------
 # PBEPBE gen 6D pseudo=read scf=maxcycles=500 denfit int=(grid=ultrafi
 ne) empiricaldispersion=GD3BJ opt freq=noraman
 ----------------------------------------------------------------------
 1/18=20,19=15,26=4,38=1/1,3;
 2/9=110,12=2,17=6,18=5,40=1/2;
 3/5=7,8=2,11=2,16=1,17=8,25=1,30=1,71=1,74=1009,75=-5,82=47,124=41/1,2,3;
 4//1;
 5/5=2,7=500,38=5/2;
 6/7=2,8=2,9=2,10=2,28=1/1;
 7//1,2,3,16;
 1/18=20,19=15,26=4/3(2);
 2/9=110/2;
 99//99;
 2/9=110/2;
 3/5=7,6=1,8=2,11=2,16=1,17=8,25=1,30=1,71=1,74=1009,75=-5,82=7,124=41/1,2,3;
 4/5=5,16=3,69=1/1;
 5/5=2,7=500,38=5/2;
 7//1,2,3,16;
 1/18=20,19=15,26=4/3(-5);
 2/9=110/2;
 6/7=2,8=2,9=2,10=2,19=2,28=1/1;
 99/9=1/99;
 -----
 title
 -----
 Symbolic Z-matrix:
 Charge =  0 Multiplicity = 1
 P                     11.1856  -5.9824    7.3244 
 P                     13.3072  -3.8254    6.2821 
 O                     10.4711  -6.2837    4.7656 
 O                     11.8756  -3.7399    4.0256 
 C                     11.5282  -7.556     6.4278 
 C                     12.1989  -8.7141    6.8781 
 C                     12.2486  -9.8314    6.0143 
 H                     12.75    -10.7324   6.3381 
 C                     11.6675  -9.7831    4.7289 
 H                     11.717   -10.6457   4.0807 
 C                     11.0483  -8.6009    4.2782 
 H                     10.6264  -8.5403    3.2856 
 C                     11.0043  -7.4886    5.1342 
 C                     10.932   -5.2498    5.641 
 H                     10.1791  -4.4637    5.6964 
 C                     12.2515  -4.6896    5.0278 
 H                     12.8226  -5.4941    4.5644 
 C                     11.7526  -2.4938    4.5768 
 C                     11.0504  -1.4477    3.9566 
 H                     10.5977  -1.5964    2.9872 
 C                     10.9313  -0.2153    4.6281 
 H                     10.3881   0.5977    4.169 
 C                     11.4952  -0.0517    5.9117 
 H                     11.37     0.8871    6.4323 
 C                     12.2069  -1.1024    6.5333 
 C                     12.36    -2.3126    5.822 
 C                     9.5129   -6.0789    8.1339 
 C                     9.2316   -4.7049    8.7629 
 H                     8.2609   -4.6897    9.2595 
 H                     9.2264   -3.9152    8.0105 
 H                     9.9827   -4.4458    9.5096 
 C                     8.4175   -6.4319    7.1087 
 H                     8.6171   -7.3842    6.617 
 H                     8.3158   -5.6745    6.3323 
 H                     7.443    -6.5192    7.5898 
 C                     9.524    -7.1816    9.2065 
 H                     8.5502   -7.271     9.6887 
 H                     10.247   -6.9996    9.9952 
 H                     9.7564   -8.1525    8.7689 
 C                     15.0242  -3.7246    5.572 
 C                     15.7765  -2.5451    6.2121 
 H                     15.8843  -2.6436    7.2875 
 H                     16.7831  -2.4526    5.8035 
 H                     15.2639  -1.6025    6.0208 
 C                     14.9844  -3.4858    4.0499 
 H                     15.9907  -3.3953    3.6402 
 H                     14.4542  -2.5667    3.7996 
 H                     14.5012  -4.3019    3.514 
 C                     15.7251  -5.0564    5.8846 
 H                     15.1962  -5.8998    5.4388 
 H                     15.7854  -5.2339    6.9587 
 H                     16.7438  -5.0669    5.4957 
 Pd                    12.9709  -4.831     8.4288 
 Cl                    14.8059  -3.7597    9.3764 
 Cl                    12.4822  -5.7669    10.502 
 C                     14.2185  -8.9193    10.665 
 C                     12.9949  -9.592     10.4845 
 C                     12.3279  -9.5207    9.2459 
 C                     12.8699  -8.7701    8.1817 
 C                     14.0977  -8.1006    8.372 
 C                     14.7721  -8.1748    9.6062 
 H                     14.73    -8.9712    11.6153 
 H                     12.5684  -10.1637   11.2957 
 H                     11.3934  -10.0456   9.1105 
 H                     14.5328  -7.5384    7.5589 
 H                     15.7106  -7.6574    9.7434 
 C                     13.6604  -0.5478    10.5384 
 C                     12.5286  -1.3503    10.3003 
 C                     12.0659  -1.5389    8.9835 
 C                     12.724   -0.9269    7.8952 
 C                     13.8518  -0.1176    8.1451 
 C                     14.3228   0.0682    9.4595 
 H                     14.022   -0.4079    11.547 
 H                     12.0197  -1.8244    11.1272 
 H                     11.1898  -2.1454    8.8073 
 H                     14.3592   0.3642    7.3219 
 H                     15.1916   0.6844    9.6401 
 

 GradGradGradGradGradGradGradGradGradGradGradGradGradGradGradGradGradGrad
 Berny optimization.
 Initialization pass.
                           ----------------------------
                           !    Initial Parameters    !
                           ! (Angstroms and Degrees)  !
 --------------------------                            --------------------------
 ! Name  Definition              Value          Derivative Info.                !
 --------------------------------------------------------------------------------
 ! R1    R(1,5)                  1.8432         estimate D2E/DX2                !
 ! R2    R(1,14)                 1.8533         estimate D2E/DX2                !
 ! R3    R(1,27)                 1.8608         estimate D2E/DX2                !
 ! R4    R(1,53)                 2.3943         estimate D2E/DX2                !
 ! R5    R(2,16)                 1.8533         estimate D2E/DX2                !
 ! R6    R(2,26)                 1.8432         estimate D2E/DX2                !
 ! R7    R(2,40)                 1.8608         estimate D2E/DX2                !
 ! R8    R(2,53)                 2.3943         estimate D2E/DX2                !
 ! R9    R(3,13)                 1.3682         estimate D2E/DX2                !
 ! R10   R(3,14)                 1.431          estimate D2E/DX2                !
 ! R11   R(4,16)                 1.431          estimate D2E/DX2                !
 ! R12   R(4,18)                 1.3681         estimate D2E/DX2                !
 ! R13   R(5,6)                  1.412          estimate D2E/DX2                !
 ! R14   R(5,13)                 1.3973         estimate D2E/DX2                !
 ! R15   R(6,7)                  1.4131         estimate D2E/DX2                !
 ! R16   R(6,59)                 1.4672         estimate D2E/DX2                !
 ! R17   R(7,8)                  1.0808         estimate D2E/DX2                !
 ! R18   R(7,9)                  1.4115         estimate D2E/DX2                !
 ! R19   R(9,10)                 1.0801         estimate D2E/DX2                !
 ! R20   R(9,11)                 1.4086         estimate D2E/DX2                !
 ! R21   R(11,12)                1.0802         estimate D2E/DX2                !
 ! R22   R(11,13)                1.4042         estimate D2E/DX2                !
 ! R23   R(14,15)                1.0899         estimate D2E/DX2                !
 ! R24   R(14,16)                1.5591         estimate D2E/DX2                !
 ! R25   R(16,17)                1.09           estimate D2E/DX2                !
 ! R26   R(18,19)                1.4043         estimate D2E/DX2                !
 ! R27   R(18,26)                1.3972         estimate D2E/DX2                !
 ! R28   R(19,20)                1.0802         estimate D2E/DX2                !
 ! R29   R(19,21)                1.4085         estimate D2E/DX2                !
 ! R30   R(21,22)                1.0802         estimate D2E/DX2                !
 ! R31   R(21,23)                1.4115         estimate D2E/DX2                !
 ! R32   R(23,24)                1.0808         estimate D2E/DX2                !
 ! R33   R(23,25)                1.4131         estimate D2E/DX2                !
 ! R34   R(25,26)                1.4121         estimate D2E/DX2                !
 ! R35   R(25,70)                1.4673         estimate D2E/DX2                !
 ! R36   R(27,28)                1.5371         estimate D2E/DX2                !
 ! R37   R(27,32)                1.5413         estimate D2E/DX2                !
 ! R38   R(27,36)                1.5384         estimate D2E/DX2                !
 ! R39   R(28,29)                1.0905         estimate D2E/DX2                !
 ! R40   R(28,30)                1.0908         estimate D2E/DX2                !
 ! R41   R(28,31)                1.0903         estimate D2E/DX2                !
 ! R42   R(32,33)                1.0902         estimate D2E/DX2                !
 ! R43   R(32,34)                1.0894         estimate D2E/DX2                !
 ! R44   R(32,35)                1.0903         estimate D2E/DX2                !
 ! R45   R(36,37)                1.0903         estimate D2E/DX2                !
 ! R46   R(36,38)                1.0853         estimate D2E/DX2                !
 ! R47   R(36,39)                1.09           estimate D2E/DX2                !
 ! R48   R(40,41)                1.5385         estimate D2E/DX2                !
 ! R49   R(40,45)                1.5412         estimate D2E/DX2                !
 ! R50   R(40,49)                1.5371         estimate D2E/DX2                !
 ! R51   R(41,42)                1.0853         estimate D2E/DX2                !
 ! R52   R(41,43)                1.0903         estimate D2E/DX2                !
 ! R53   R(41,44)                1.0899         estimate D2E/DX2                !
 ! R54   R(45,46)                1.0903         estimate D2E/DX2                !
 ! R55   R(45,47)                1.0902         estimate D2E/DX2                !
 ! R56   R(45,48)                1.0894         estimate D2E/DX2                !
 ! R57   R(49,50)                1.0908         estimate D2E/DX2                !
 ! R58   R(49,51)                1.0903         estimate D2E/DX2                !
 ! R59   R(49,52)                1.0905         estimate D2E/DX2                !
 ! R60   R(53,54)                2.3266         estimate D2E/DX2                !
 ! R61   R(53,55)                2.3266         estimate D2E/DX2                !
 ! R62   R(56,57)                1.4079         estimate D2E/DX2                !
 ! R63   R(56,61)                1.4078         estimate D2E/DX2                !
 ! R64   R(56,62)                1.0805         estimate D2E/DX2                !
 ! R65   R(57,58)                1.4086         estimate D2E/DX2                !
 ! R66   R(57,63)                1.0802         estimate D2E/DX2                !
 ! R67   R(58,59)                1.4106         estimate D2E/DX2                !
 ! R68   R(58,64)                1.0803         estimate D2E/DX2                !
 ! R69   R(59,60)                1.4114         estimate D2E/DX2                !
 ! R70   R(60,61)                1.4084         estimate D2E/DX2                !
 ! R71   R(60,65)                1.0801         estimate D2E/DX2                !
 ! R72   R(61,66)                1.0804         estimate D2E/DX2                !
 ! R73   R(67,68)                1.4077         estimate D2E/DX2                !
 ! R74   R(67,72)                1.4079         estimate D2E/DX2                !
 ! R75   R(67,73)                1.0806         estimate D2E/DX2                !
 ! R76   R(68,69)                1.4084         estimate D2E/DX2                !
 ! R77   R(68,74)                1.0805         estimate D2E/DX2                !
 ! R78   R(69,70)                1.4114         estimate D2E/DX2                !
 ! R79   R(69,75)                1.08           estimate D2E/DX2                !
 ! R80   R(70,71)                1.4104         estimate D2E/DX2                !
 ! R81   R(71,72)                1.4085         estimate D2E/DX2                !
 ! R82   R(71,76)                1.0804         estimate D2E/DX2                !
 ! R83   R(72,77)                1.0803         estimate D2E/DX2                !
 ! A1    A(5,1,14)              85.4729         estimate D2E/DX2                !
 ! A2    A(5,1,27)             109.5373         estimate D2E/DX2                !
 ! A3    A(5,1,53)             119.7571         estimate D2E/DX2                !
 ! A4    A(14,1,27)            107.016          estimate D2E/DX2                !
 ! A5    A(14,1,53)            109.3238         estimate D2E/DX2                !
 ! A6    A(27,1,53)            119.6401         estimate D2E/DX2                !
 ! A7    A(16,2,26)             85.4716         estimate D2E/DX2                !
 ! A8    A(16,2,40)            107.0142         estimate D2E/DX2                !
 ! A9    A(16,2,53)            109.3267         estimate D2E/DX2                !
 ! A10   A(26,2,40)            109.5397         estimate D2E/DX2                !
 ! A11   A(26,2,53)            119.7578         estimate D2E/DX2                !
 ! A12   A(40,2,53)            119.6374         estimate D2E/DX2                !
 ! A13   A(13,3,14)            110.2398         estimate D2E/DX2                !
 ! A14   A(16,4,18)            110.2391         estimate D2E/DX2                !
 ! A15   A(1,5,6)              129.2984         estimate D2E/DX2                !
 ! A16   A(1,5,13)             109.8442         estimate D2E/DX2                !
 ! A17   A(6,5,13)             120.8569         estimate D2E/DX2                !
 ! A18   A(5,6,7)              118.0498         estimate D2E/DX2                !
 ! A19   A(5,6,59)             122.1319         estimate D2E/DX2                !
 ! A20   A(7,6,59)             119.7906         estimate D2E/DX2                !
 ! A21   A(6,7,8)              119.4932         estimate D2E/DX2                !
 ! A22   A(6,7,9)              121.0059         estimate D2E/DX2                !
 ! A23   A(8,7,9)              119.4964         estimate D2E/DX2                !
 ! A24   A(7,9,10)             120.0207         estimate D2E/DX2                !
 ! A25   A(7,9,11)             120.0716         estimate D2E/DX2                !
 ! A26   A(10,9,11)            119.8929         estimate D2E/DX2                !
 ! A27   A(9,11,12)            120.8487         estimate D2E/DX2                !
 ! A28   A(9,11,13)            118.9157         estimate D2E/DX2                !
 ! A29   A(12,11,13)           120.2287         estimate D2E/DX2                !
 ! A30   A(3,13,5)             115.9771         estimate D2E/DX2                !
 ! A31   A(3,13,11)            123.0623         estimate D2E/DX2                !
 ! A32   A(5,13,11)            120.9568         estimate D2E/DX2                !
 ! A33   A(1,14,3)             108.3083         estimate D2E/DX2                !
 ! A34   A(1,14,15)            109.4789         estimate D2E/DX2                !
 ! A35   A(1,14,16)            112.5479         estimate D2E/DX2                !
 ! A36   A(3,14,15)            109.2516         estimate D2E/DX2                !
 ! A37   A(3,14,16)            106.9528         estimate D2E/DX2                !
 ! A38   A(15,14,16)           110.2101         estimate D2E/DX2                !
 ! A39   A(2,16,4)             108.3108         estimate D2E/DX2                !
 ! A40   A(2,16,14)            112.5476         estimate D2E/DX2                !
 ! A41   A(2,16,17)            109.4779         estimate D2E/DX2                !
 ! A42   A(4,16,14)            106.9536         estimate D2E/DX2                !
 ! A43   A(4,16,17)            109.2521         estimate D2E/DX2                !
 ! A44   A(14,16,17)           110.2078         estimate D2E/DX2                !
 ! A45   A(4,18,19)            123.0599         estimate D2E/DX2                !
 ! A46   A(4,18,26)            115.9819         estimate D2E/DX2                !
 ! A47   A(19,18,26)           120.9542         estimate D2E/DX2                !
 ! A48   A(18,19,20)           120.2229         estimate D2E/DX2                !
 ! A49   A(18,19,21)           118.9153         estimate D2E/DX2                !
 ! A50   A(20,19,21)           120.8548         estimate D2E/DX2                !
 ! A51   A(19,21,22)           119.8966         estimate D2E/DX2                !
 ! A52   A(19,21,23)           120.0775         estimate D2E/DX2                !
 ! A53   A(22,21,23)           120.011          estimate D2E/DX2                !
 ! A54   A(21,23,24)           119.5014         estimate D2E/DX2                !
 ! A55   A(21,23,25)           121.0004         estimate D2E/DX2                !
 ! A56   A(24,23,25)           119.4936         estimate D2E/DX2                !
 ! A57   A(23,25,26)           118.0514         estimate D2E/DX2                !
 ! A58   A(23,25,70)           119.7913         estimate D2E/DX2                !
 ! A59   A(26,25,70)           122.1298         estimate D2E/DX2                !
 ! A60   A(2,26,18)            109.841          estimate D2E/DX2                !
 ! A61   A(2,26,25)            129.2998         estimate D2E/DX2                !
 ! A62   A(18,26,25)           120.8587         estimate D2E/DX2                !
 ! A63   A(1,27,28)            107.2279         estimate D2E/DX2                !
 ! A64   A(1,27,32)            111.1851         estimate D2E/DX2                !
 ! A65   A(1,27,36)            109.5122         estimate D2E/DX2                !
 ! A66   A(28,27,32)           110.2953         estimate D2E/DX2                !
 ! A67   A(28,27,36)           110.9007         estimate D2E/DX2                !
 ! A68   A(32,27,36)           107.7421         estimate D2E/DX2                !
 ! A69   A(27,28,29)           111.2063         estimate D2E/DX2                !
 ! A70   A(27,28,30)           111.455          estimate D2E/DX2                !
 ! A71   A(27,28,31)           111.5057         estimate D2E/DX2                !
 ! A72   A(29,28,30)           107.4456         estimate D2E/DX2                !
 ! A73   A(29,28,31)           107.339          estimate D2E/DX2                !
 ! A74   A(30,28,31)           107.676          estimate D2E/DX2                !
 ! A75   A(27,32,33)           111.7124         estimate D2E/DX2                !
 ! A76   A(27,32,34)           112.4059         estimate D2E/DX2                !
 ! A77   A(27,32,35)           111.1039         estimate D2E/DX2                !
 ! A78   A(33,32,34)           107.6359         estimate D2E/DX2                !
 ! A79   A(33,32,35)           107.021          estimate D2E/DX2                !
 ! A80   A(34,32,35)           106.661          estimate D2E/DX2                !
 ! A81   A(27,36,37)           111.1424         estimate D2E/DX2                !
 ! A82   A(27,36,38)           113.0347         estimate D2E/DX2                !
 ! A83   A(27,36,39)           111.106          estimate D2E/DX2                !
 ! A84   A(37,36,38)           106.6986         estimate D2E/DX2                !
 ! A85   A(37,36,39)           107.1537         estimate D2E/DX2                !
 ! A86   A(38,36,39)           107.4022         estimate D2E/DX2                !
 ! A87   A(2,40,41)            109.5095         estimate D2E/DX2                !
 ! A88   A(2,40,45)            111.1888         estimate D2E/DX2                !
 ! A89   A(2,40,49)            107.2302         estimate D2E/DX2                !
 ! A90   A(41,40,45)           107.7423         estimate D2E/DX2                !
 ! A91   A(41,40,49)           110.8965         estimate D2E/DX2                !
 ! A92   A(45,40,49)           110.2958         estimate D2E/DX2                !
 ! A93   A(40,41,42)           113.0333         estimate D2E/DX2                !
 ! A94   A(40,41,43)           111.1354         estimate D2E/DX2                !
 ! A95   A(40,41,44)           111.1032         estimate D2E/DX2                !
 ! A96   A(42,41,43)           106.6992         estimate D2E/DX2                !
 ! A97   A(42,41,44)           107.406          estimate D2E/DX2                !
 ! A98   A(43,41,44)           107.1615         estimate D2E/DX2                !
 ! A99   A(40,45,46)           111.1088         estimate D2E/DX2                !
 ! A100  A(40,45,47)           111.7112         estimate D2E/DX2                !
 ! A101  A(40,45,48)           112.409          estimate D2E/DX2                !
 ! A102  A(46,45,47)           107.0152         estimate D2E/DX2                !
 ! A103  A(46,45,48)           106.6622         estimate D2E/DX2                !
 ! A104  A(47,45,48)           107.6332         estimate D2E/DX2                !
 ! A105  A(40,49,50)           111.4519         estimate D2E/DX2                !
 ! A106  A(40,49,51)           111.5067         estimate D2E/DX2                !
 ! A107  A(40,49,52)           111.2105         estimate D2E/DX2                !
 ! A108  A(50,49,51)           107.6713         estimate D2E/DX2                !
 ! A109  A(50,49,52)           107.4439         estimate D2E/DX2                !
 ! A110  A(51,49,52)           107.3433         estimate D2E/DX2                !
 ! A111  A(1,53,2)              83.8659         estimate D2E/DX2                !
 ! A112  A(1,53,55)             93.4948         estimate D2E/DX2                !
 ! A113  A(2,53,54)             93.4973         estimate D2E/DX2                !
 ! A114  A(54,53,55)            89.3102         estimate D2E/DX2                !
 ! A115  A(57,56,61)           119.8689         estimate D2E/DX2                !
 ! A116  A(57,56,62)           120.0815         estimate D2E/DX2                !
 ! A117  A(61,56,62)           120.0492         estimate D2E/DX2                !
 ! A118  A(56,57,58)           120.0048         estimate D2E/DX2                !
 ! A119  A(56,57,63)           119.9831         estimate D2E/DX2                !
 ! A120  A(58,57,63)           120.0121         estimate D2E/DX2                !
 ! A121  A(57,58,59)           120.5568         estimate D2E/DX2                !
 ! A122  A(57,58,64)           119.6838         estimate D2E/DX2                !
 ! A123  A(59,58,64)           119.7593         estimate D2E/DX2                !
 ! A124  A(6,59,58)            120.9907         estimate D2E/DX2                !
 ! A125  A(6,59,60)            119.9695         estimate D2E/DX2                !
 ! A126  A(58,59,60)           119.0103         estimate D2E/DX2                !
 ! A127  A(59,60,61)           120.646          estimate D2E/DX2                !
 ! A128  A(59,60,65)           119.7271         estimate D2E/DX2                !
 ! A129  A(61,60,65)           119.6199         estimate D2E/DX2                !
 ! A130  A(56,61,60)           119.9106         estimate D2E/DX2                !
 ! A131  A(56,61,66)           119.9565         estimate D2E/DX2                !
 ! A132  A(60,61,66)           120.1321         estimate D2E/DX2                !
 ! A133  A(68,67,72)           119.8725         estimate D2E/DX2                !
 ! A134  A(68,67,73)           120.0486         estimate D2E/DX2                !
 ! A135  A(72,67,73)           120.0785         estimate D2E/DX2                !
 ! A136  A(67,68,69)           119.908          estimate D2E/DX2                !
 ! A137  A(67,68,74)           119.9575         estimate D2E/DX2                !
 ! A138  A(69,68,74)           120.1337         estimate D2E/DX2                !
 ! A139  A(68,69,70)           120.6423         estimate D2E/DX2                !
 ! A140  A(68,69,75)           119.6189         estimate D2E/DX2                !
 ! A141  A(70,69,75)           119.7319         estimate D2E/DX2                !
 ! A142  A(25,70,69)           119.9673         estimate D2E/DX2                !
 ! A143  A(25,70,71)           120.9892         estimate D2E/DX2                !
 ! A144  A(69,70,71)           119.0139         estimate D2E/DX2                !
 ! A145  A(70,71,72)           120.5574         estimate D2E/DX2                !
 ! A146  A(70,71,76)           119.763          estimate D2E/DX2                !
 ! A147  A(72,71,76)           119.6796         estimate D2E/DX2                !
 ! A148  A(67,72,71)           120.0032         estimate D2E/DX2                !
 ! A149  A(67,72,77)           119.9871         estimate D2E/DX2                !
 ! A150  A(71,72,77)           120.0096         estimate D2E/DX2                !
 ! A151  L(1,53,54,55,-1)      182.805          estimate D2E/DX2                !
 ! A152  L(2,53,55,54,-1)      182.8074         estimate D2E/DX2                !
 ! A153  L(1,53,54,55,-2)      176.9711         estimate D2E/DX2                !
 ! A154  L(2,53,55,54,-2)      176.9717         estimate D2E/DX2                !
 ! D1    D(14,1,5,6)           160.8726         estimate D2E/DX2                !
 ! D2    D(14,1,5,13)          -19.393          estimate D2E/DX2                !
 ! D3    D(27,1,5,6)           -92.6646         estimate D2E/DX2                !
 ! D4    D(27,1,5,13)           87.0698         estimate D2E/DX2                !
 ! D5    D(53,1,5,6)            51.1726         estimate D2E/DX2                !
 ! D6    D(53,1,5,13)         -129.0929         estimate D2E/DX2                !
 ! D7    D(5,1,14,3)            28.7519         estimate D2E/DX2                !
 ! D8    D(5,1,14,15)          147.7915         estimate D2E/DX2                !
 ! D9    D(5,1,14,16)          -89.2779         estimate D2E/DX2                !
 ! D10   D(27,1,14,3)          -80.3103         estimate D2E/DX2                !
 ! D11   D(27,1,14,15)          38.7293         estimate D2E/DX2                !
 ! D12   D(27,1,14,16)         161.6599         estimate D2E/DX2                !
 ! D13   D(53,1,14,3)          148.741          estimate D2E/DX2                !
 ! D14   D(53,1,14,15)         -92.2193         estimate D2E/DX2                !
 ! D15   D(53,1,14,16)          30.7113         estimate D2E/DX2                !
 ! D16   D(5,1,27,28)         -175.3365         estimate D2E/DX2                !
 ! D17   D(5,1,27,32)          -54.6957         estimate D2E/DX2                !
 ! D18   D(5,1,27,36)           64.2561         estimate D2E/DX2                !
 ! D19   D(14,1,27,28)         -84.1325         estimate D2E/DX2                !
 ! D20   D(14,1,27,32)          36.5082         estimate D2E/DX2                !
 ! D21   D(14,1,27,36)         155.46           estimate D2E/DX2                !
 ! D22   D(53,1,27,28)          40.7776         estimate D2E/DX2                !
 ! D23   D(53,1,27,32)         161.4183         estimate D2E/DX2                !
 ! D24   D(53,1,27,36)         -79.6299         estimate D2E/DX2                !
 ! D25   D(5,1,53,2)            86.6368         estimate D2E/DX2                !
 ! D26   D(5,1,53,55)          -96.5484         estimate D2E/DX2                !
 ! D27   D(14,1,53,2)           -9.3403         estimate D2E/DX2                !
 ! D28   D(14,1,53,55)         167.4745         estimate D2E/DX2                !
 ! D29   D(27,1,53,2)         -133.1423         estimate D2E/DX2                !
 ! D30   D(27,1,53,55)          43.6725         estimate D2E/DX2                !
 ! D31   D(26,2,16,4)           28.7516         estimate D2E/DX2                !
 ! D32   D(26,2,16,14)         -89.2805         estimate D2E/DX2                !
 ! D33   D(26,2,16,17)         147.7928         estimate D2E/DX2                !
 ! D34   D(40,2,16,4)          -80.3127         estimate D2E/DX2                !
 ! D35   D(40,2,16,14)         161.6552         estimate D2E/DX2                !
 ! D36   D(40,2,16,17)          38.7286         estimate D2E/DX2                !
 ! D37   D(53,2,16,4)          148.7414         estimate D2E/DX2                !
 ! D38   D(53,2,16,14)          30.7092         estimate D2E/DX2                !
 ! D39   D(53,2,16,17)         -92.2174         estimate D2E/DX2                !
 ! D40   D(16,2,26,18)         -19.4            estimate D2E/DX2                !
 ! D41   D(16,2,26,25)         160.8667         estimate D2E/DX2                !
 ! D42   D(40,2,26,18)          87.0605         estimate D2E/DX2                !
 ! D43   D(40,2,26,25)         -92.6727         estimate D2E/DX2                !
 ! D44   D(53,2,26,18)        -129.1026         estimate D2E/DX2                !
 ! D45   D(53,2,26,25)          51.1641         estimate D2E/DX2                !
 ! D46   D(16,2,40,41)         155.4617         estimate D2E/DX2                !
 ! D47   D(16,2,40,45)          36.5091         estimate D2E/DX2                !
 ! D48   D(16,2,40,49)         -84.136          estimate D2E/DX2                !
 ! D49   D(26,2,40,41)          64.2591         estimate D2E/DX2                !
 ! D50   D(26,2,40,45)         -54.6935         estimate D2E/DX2                !
 ! D51   D(26,2,40,49)        -175.3386         estimate D2E/DX2                !
 ! D52   D(53,2,40,41)         -79.6279         estimate D2E/DX2                !
 ! D53   D(53,2,40,45)         161.4196         estimate D2E/DX2                !
 ! D54   D(53,2,40,49)          40.7744         estimate D2E/DX2                !
 ! D55   D(16,2,53,1)           -9.3377         estimate D2E/DX2                !
 ! D56   D(16,2,53,54)         167.4767         estimate D2E/DX2                !
 ! D57   D(26,2,53,1)           86.6399         estimate D2E/DX2                !
 ! D58   D(26,2,53,54)         -96.5458         estimate D2E/DX2                !
 ! D59   D(40,2,53,1)         -133.1377         estimate D2E/DX2                !
 ! D60   D(40,2,53,54)          43.6767         estimate D2E/DX2                !
 ! D61   D(14,3,13,5)           17.641          estimate D2E/DX2                !
 ! D62   D(14,3,13,11)        -161.6604         estimate D2E/DX2                !
 ! D63   D(13,3,14,1)          -32.0719         estimate D2E/DX2                !
 ! D64   D(13,3,14,15)        -151.255          estimate D2E/DX2                !
 ! D65   D(13,3,14,16)          89.4693         estimate D2E/DX2                !
 ! D66   D(18,4,16,2)          -32.0635         estimate D2E/DX2                !
 ! D67   D(18,4,16,14)          89.4792         estimate D2E/DX2                !
 ! D68   D(18,4,16,17)        -151.2472         estimate D2E/DX2                !
 ! D69   D(16,4,18,19)        -161.6454         estimate D2E/DX2                !
 ! D70   D(16,4,18,26)          17.6255         estimate D2E/DX2                !
 ! D71   D(1,5,6,7)            175.6965         estimate D2E/DX2                !
 ! D72   D(1,5,6,59)            -6.2231         estimate D2E/DX2                !
 ! D73   D(13,5,6,7)            -4.0126         estimate D2E/DX2                !
 ! D74   D(13,5,6,59)          174.0678         estimate D2E/DX2                !
 ! D75   D(1,5,13,3)             5.3482         estimate D2E/DX2                !
 ! D76   D(1,5,13,11)         -175.3346         estimate D2E/DX2                !
 ! D77   D(6,5,13,3)          -174.8912         estimate D2E/DX2                !
 ! D78   D(6,5,13,11)            4.426          estimate D2E/DX2                !
 ! D79   D(5,6,7,8)           -179.5739         estimate D2E/DX2                !
 ! D80   D(5,6,7,9)              1.2008         estimate D2E/DX2                !
 ! D81   D(59,6,7,8)             2.2992         estimate D2E/DX2                !
 ! D82   D(59,6,7,9)          -176.9261         estimate D2E/DX2                !
 ! D83   D(5,6,59,58)          107.6959         estimate D2E/DX2                !
 ! D84   D(5,6,59,60)          -74.2981         estimate D2E/DX2                !
 ! D85   D(7,6,59,58)          -74.2562         estimate D2E/DX2                !
 ! D86   D(7,6,59,60)          103.7498         estimate D2E/DX2                !
 ! D87   D(6,7,9,10)           179.8438         estimate D2E/DX2                !
 ! D88   D(6,7,9,11)             1.2472         estimate D2E/DX2                !
 ! D89   D(8,7,9,10)             0.6185         estimate D2E/DX2                !
 ! D90   D(8,7,9,11)          -177.9781         estimate D2E/DX2                !
 ! D91   D(7,9,11,12)          178.1098         estimate D2E/DX2                !
 ! D92   D(7,9,11,13)           -0.9311         estimate D2E/DX2                !
 ! D93   D(10,9,11,12)          -0.4886         estimate D2E/DX2                !
 ! D94   D(10,9,11,13)        -179.5295         estimate D2E/DX2                !
 ! D95   D(9,11,13,3)          177.3917         estimate D2E/DX2                !
 ! D96   D(9,11,13,5)           -1.8759         estimate D2E/DX2                !
 ! D97   D(12,11,13,3)          -1.6553         estimate D2E/DX2                !
 ! D98   D(12,11,13,5)         179.0771         estimate D2E/DX2                !
 ! D99   D(1,14,16,2)          -39.7911         estimate D2E/DX2                !
 ! D100  D(1,14,16,4)         -158.6201         estimate D2E/DX2                !
 ! D101  D(1,14,16,17)          82.7256         estimate D2E/DX2                !
 ! D102  D(3,14,16,2)         -158.6167         estimate D2E/DX2                !
 ! D103  D(3,14,16,4)           82.5544         estimate D2E/DX2                !
 ! D104  D(3,14,16,17)         -36.1            estimate D2E/DX2                !
 ! D105  D(15,14,16,2)          82.7288         estimate D2E/DX2                !
 ! D106  D(15,14,16,4)         -36.1002         estimate D2E/DX2                !
 ! D107  D(15,14,16,17)       -154.7545         estimate D2E/DX2                !
 ! D108  D(4,18,19,20)          -1.6667         estimate D2E/DX2                !
 ! D109  D(4,18,19,21)         177.3765         estimate D2E/DX2                !
 ! D110  D(26,18,19,20)        179.0976         estimate D2E/DX2                !
 ! D111  D(26,18,19,21)         -1.8592         estimate D2E/DX2                !
 ! D112  D(4,18,26,2)            5.3624         estimate D2E/DX2                !
 ! D113  D(4,18,26,25)        -174.878          estimate D2E/DX2                !
 ! D114  D(19,18,26,2)        -175.3502         estimate D2E/DX2                !
 ! D115  D(19,18,26,25)          4.4094         estimate D2E/DX2                !
 ! D116  D(18,19,21,22)       -179.5316         estimate D2E/DX2                !
 ! D117  D(18,19,21,23)         -0.9359         estimate D2E/DX2                !
 ! D118  D(20,19,21,22)         -0.4946         estimate D2E/DX2                !
 ! D119  D(20,19,21,23)        178.1011         estimate D2E/DX2                !
 ! D120  D(19,21,23,24)       -177.9733         estimate D2E/DX2                !
 ! D121  D(19,21,23,25)          1.2396         estimate D2E/DX2                !
 ! D122  D(22,21,23,24)          0.6208         estimate D2E/DX2                !
 ! D123  D(22,21,23,25)        179.8337         estimate D2E/DX2                !
 ! D124  D(21,23,25,26)          1.2087         estimate D2E/DX2                !
 ! D125  D(21,23,25,70)       -176.9277         estimate D2E/DX2                !
 ! D126  D(24,23,25,26)       -179.5783         estimate D2E/DX2                !
 ! D127  D(24,23,25,70)          2.2853         estimate D2E/DX2                !
 ! D128  D(23,25,26,2)         175.6991         estimate D2E/DX2                !
 ! D129  D(23,25,26,18)         -4.0087         estimate D2E/DX2                !
 ! D130  D(70,25,26,2)          -6.2108         estimate D2E/DX2                !
 ! D131  D(70,25,26,18)        174.0815         estimate D2E/DX2                !
 ! D132  D(23,25,70,69)        103.7409         estimate D2E/DX2                !
 ! D133  D(23,25,70,71)        -74.2618         estimate D2E/DX2                !
 ! D134  D(26,25,70,69)        -74.317          estimate D2E/DX2                !
 ! D135  D(26,25,70,71)        107.6803         estimate D2E/DX2                !
 ! D136  D(1,27,28,29)        -179.9238         estimate D2E/DX2                !
 ! D137  D(1,27,28,30)          60.2082         estimate D2E/DX2                !
 ! D138  D(1,27,28,31)         -60.1567         estimate D2E/DX2                !
 ! D139  D(32,27,28,29)         58.873          estimate D2E/DX2                !
 ! D140  D(32,27,28,30)        -60.9951         estimate D2E/DX2                !
 ! D141  D(32,27,28,31)        178.64           estimate D2E/DX2                !
 ! D142  D(36,27,28,29)        -60.4028         estimate D2E/DX2                !
 ! D143  D(36,27,28,30)        179.7291         estimate D2E/DX2                !
 ! D144  D(36,27,28,31)         59.3642         estimate D2E/DX2                !
 ! D145  D(1,27,32,33)          58.7662         estimate D2E/DX2                !
 ! D146  D(1,27,32,34)         -62.3587         estimate D2E/DX2                !
 ! D147  D(1,27,32,35)         178.1996         estimate D2E/DX2                !
 ! D148  D(28,27,32,33)        177.5822         estimate D2E/DX2                !
 ! D149  D(28,27,32,34)         56.4572         estimate D2E/DX2                !
 ! D150  D(28,27,32,35)        -62.9845         estimate D2E/DX2                !
 ! D151  D(36,27,32,33)        -61.241          estimate D2E/DX2                !
 ! D152  D(36,27,32,34)        177.634          estimate D2E/DX2                !
 ! D153  D(36,27,32,35)         58.1923         estimate D2E/DX2                !
 ! D154  D(1,27,36,37)        -179.1704         estimate D2E/DX2                !
 ! D155  D(1,27,36,38)          60.8828         estimate D2E/DX2                !
 ! D156  D(1,27,36,39)         -59.9462         estimate D2E/DX2                !
 ! D157  D(28,27,36,37)         62.6867         estimate D2E/DX2                !
 ! D158  D(28,27,36,38)        -57.2601         estimate D2E/DX2                !
 ! D159  D(28,27,36,39)       -178.0891         estimate D2E/DX2                !
 ! D160  D(32,27,36,37)        -58.1112         estimate D2E/DX2                !
 ! D161  D(32,27,36,38)       -178.058          estimate D2E/DX2                !
 ! D162  D(32,27,36,39)         61.113          estimate D2E/DX2                !
 ! D163  D(2,40,41,42)          60.8843         estimate D2E/DX2                !
 ! D164  D(2,40,41,43)        -179.1742         estimate D2E/DX2                !
 ! D165  D(2,40,41,44)         -59.9465         estimate D2E/DX2                !
 ! D166  D(45,40,41,42)       -178.0534         estimate D2E/DX2                !
 ! D167  D(45,40,41,43)        -58.1119         estimate D2E/DX2                !
 ! D168  D(45,40,41,44)         61.1157         estimate D2E/DX2                !
 ! D169  D(49,40,41,42)        -57.2572         estimate D2E/DX2                !
 ! D170  D(49,40,41,43)         62.6843         estimate D2E/DX2                !
 ! D171  D(49,40,41,44)       -178.088          estimate D2E/DX2                !
 ! D172  D(2,40,45,46)         178.1945         estimate D2E/DX2                !
 ! D173  D(2,40,45,47)          58.7659         estimate D2E/DX2                !
 ! D174  D(2,40,45,48)         -62.3568         estimate D2E/DX2                !
 ! D175  D(41,40,45,46)         58.1881         estimate D2E/DX2                !
 ! D176  D(41,40,45,47)        -61.2404         estimate D2E/DX2                !
 ! D177  D(41,40,45,48)        177.6369         estimate D2E/DX2                !
 ! D178  D(49,40,45,46)        -62.984          estimate D2E/DX2                !
 ! D179  D(49,40,45,47)        177.5874         estimate D2E/DX2                !
 ! D180  D(49,40,45,48)         56.4647         estimate D2E/DX2                !
 ! D181  D(2,40,49,50)          60.2089         estimate D2E/DX2                !
 ! D182  D(2,40,49,51)         -60.1485         estimate D2E/DX2                !
 ! D183  D(2,40,49,52)        -179.9245         estimate D2E/DX2                !
 ! D184  D(41,40,49,50)        179.7257         estimate D2E/DX2                !
 ! D185  D(41,40,49,51)         59.3682         estimate D2E/DX2                !
 ! D186  D(41,40,49,52)        -60.4077         estimate D2E/DX2                !
 ! D187  D(45,40,49,50)        -61.0006         estimate D2E/DX2                !
 ! D188  D(45,40,49,51)        178.6419         estimate D2E/DX2                !
 ! D189  D(45,40,49,52)         58.8659         estimate D2E/DX2                !
 ! D190  D(61,56,57,58)          0.0782         estimate D2E/DX2                !
 ! D191  D(61,56,57,63)       -179.9935         estimate D2E/DX2                !
 ! D192  D(62,56,57,58)        179.8529         estimate D2E/DX2                !
 ! D193  D(62,56,57,63)         -0.2188         estimate D2E/DX2                !
 ! D194  D(57,56,61,60)          0.2682         estimate D2E/DX2                !
 ! D195  D(57,56,61,66)        179.9523         estimate D2E/DX2                !
 ! D196  D(62,56,61,60)       -179.5067         estimate D2E/DX2                !
 ! D197  D(62,56,61,66)          0.1775         estimate D2E/DX2                !
 ! D198  D(56,57,58,59)         -0.5024         estimate D2E/DX2                !
 ! D199  D(56,57,58,64)        179.4943         estimate D2E/DX2                !
 ! D200  D(63,57,58,59)        179.5693         estimate D2E/DX2                !
 ! D201  D(63,57,58,64)         -0.4339         estimate D2E/DX2                !
 ! D202  D(57,58,59,6)         178.5949         estimate D2E/DX2                !
 ! D203  D(57,58,59,60)          0.5701         estimate D2E/DX2                !
 ! D204  D(64,58,59,6)          -1.4018         estimate D2E/DX2                !
 ! D205  D(64,58,59,60)       -179.4266         estimate D2E/DX2                !
 ! D206  D(6,59,60,61)        -178.2664         estimate D2E/DX2                !
 ! D207  D(6,59,60,65)           0.766          estimate D2E/DX2                !
 ! D208  D(58,59,60,61)         -0.221          estimate D2E/DX2                !
 ! D209  D(58,59,60,65)        178.8114         estimate D2E/DX2                !
 ! D210  D(59,60,61,56)         -0.1961         estimate D2E/DX2                !
 ! D211  D(59,60,61,66)       -179.8797         estimate D2E/DX2                !
 ! D212  D(65,60,61,56)       -179.2296         estimate D2E/DX2                !
 ! D213  D(65,60,61,66)          1.0869         estimate D2E/DX2                !
 ! D214  D(72,67,68,69)          0.2634         estimate D2E/DX2                !
 ! D215  D(72,67,68,74)        179.9467         estimate D2E/DX2                !
 ! D216  D(73,67,68,69)       -179.5163         estimate D2E/DX2                !
 ! D217  D(73,67,68,74)          0.167          estimate D2E/DX2                !
 ! D218  D(68,67,72,71)          0.0824         estimate D2E/DX2                !
 ! D219  D(68,67,72,77)       -179.996          estimate D2E/DX2                !
 ! D220  D(73,67,72,71)        179.862          estimate D2E/DX2                !
 ! D221  D(73,67,72,77)         -0.2164         estimate D2E/DX2                !
 ! D222  D(67,68,69,70)         -0.192          estimate D2E/DX2                !
 ! D223  D(67,68,69,75)       -179.2343         estimate D2E/DX2                !
 ! D224  D(74,68,69,70)       -179.8747         estimate D2E/DX2                !
 ! D225  D(74,68,69,75)          1.083          estimate D2E/DX2                !
 ! D226  D(68,69,70,25)       -178.266          estimate D2E/DX2                !
 ! D227  D(68,69,70,71)         -0.224          estimate D2E/DX2                !
 ! D228  D(75,69,70,25)          0.7752         estimate D2E/DX2                !
 ! D229  D(75,69,70,71)        178.8173         estimate D2E/DX2                !
 ! D230  D(25,70,71,72)        178.594          estimate D2E/DX2                !
 ! D231  D(25,70,71,76)         -1.405          estimate D2E/DX2                !
 ! D232  D(69,70,71,72)          0.5726         estimate D2E/DX2                !
 ! D233  D(69,70,71,76)       -179.4264         estimate D2E/DX2                !
 ! D234  D(70,71,72,67)         -0.5055         estimate D2E/DX2                !
 ! D235  D(70,71,72,77)        179.5729         estimate D2E/DX2                !
 ! D236  D(76,71,72,67)        179.4935         estimate D2E/DX2                !
 ! D237  D(76,71,72,77)         -0.4281         estimate D2E/DX2                !
 --------------------------------------------------------------------------------
 Trust Radius=3.00D-01 FncErr=1.00D-07 GrdErr=1.00D-06 EigMax=2.50D+02 EigMin=1.00D-04
 Number of steps in this run=    462 maximum allowed number of steps=    462.
 GradGradGradGradGradGradGradGradGradGradGradGradGradGradGradGradGradGrad

 Stoichiometry    C34H36Cl2O2P2Pd
 Framework group  C1[X(C34H36Cl2O2P2Pd)]
 Deg. of freedom   225
 Full point group                 C1      NOp   1
 Largest Abelian subgroup         C1      NOp   1
 Largest concise Abelian subgroup C1      NOp   1
                         Standard orientation:                         
 ---------------------------------------------------------------------
 Center     Atomic      Atomic             Coordinates (Angstroms)
 Number     Number       Type             X           Y           Z
 ---------------------------------------------------------------------
      1         15           0        1.283229   -0.668649    0.955743
      2         15           0       -1.283197   -0.668693   -0.955719
      3          8           0        1.399764   -3.306813    0.537103
      4          8           0       -1.399721   -3.306837   -0.537152
      5          6           0        2.671721   -1.411904   -0.001934
      6          6           0        3.754316   -0.775501   -0.647521
      7          6           0        4.744624   -1.589300   -1.242501
      8          1           0        5.587056   -1.126693   -1.736822
      9          6           0        4.642002   -2.996774   -1.215120
     10          1           0        5.406943   -3.603477   -1.677147
     11          6           0        3.527666   -3.611608   -0.611491
     12          1           0        3.421363   -4.686608   -0.610096
     13          6           0        2.540486   -2.802814   -0.025648
     14          6           0        0.412786   -2.278149    0.661313
     15          1           0       -0.234507   -2.501688    1.509207
     16          6           0       -0.412798   -2.278146   -0.661309
     17          1           0        0.234602   -2.501658   -1.509266
     18          6           0       -2.540466   -2.802871    0.025375
     19          6           0       -3.527555   -3.611722    0.611441
     20          1           0       -3.421053   -4.686636    0.610136
     21          6           0       -4.641797   -2.996942    1.215111
     22          1           0       -5.406728   -3.603628    1.677301
     23          6           0       -4.744596   -1.589441    1.242528
     24          1           0       -5.586967   -1.126864    1.736975
     25          6           0       -3.754319   -0.775637    0.647593
     26          6           0       -2.671697   -1.412002    0.001884
     27          6           0        1.731373   -0.614207    2.760938
     28          6           0        0.498726   -0.098398    3.520655
     29          1           0        0.691983   -0.039406    4.592230
     30          1           0       -0.360774   -0.754875    3.379032
     31          1           0        0.211952    0.899166    3.186781
     32          6           0        2.132449   -2.009822    3.277603
     33          1           0        2.979719   -2.416314    2.724990
     34          1           0        1.316997   -2.728774    3.207311
     35          1           0        2.425107   -1.970713    4.327151
     36          6           0        2.933437    0.324091    2.963870
     37          1           0        3.228170    0.364403    4.012824
     38          1           0        2.731475    1.345402    2.657219
     39          1           0        3.799977   -0.020448    2.399467
     40          6           0       -1.731190   -0.614225   -2.760941
     41          6           0       -2.933313    0.324182   -2.963909
     42          1           0       -2.731316    1.345435   -2.657238
     43          1           0       -3.227852    0.364507   -4.012896
     44          1           0       -3.799753   -0.020357   -2.399618
     45          6           0       -2.132233   -2.009749   -3.277733
     46          1           0       -2.424888   -1.970632   -4.327260
     47          1           0       -2.979569   -2.416253   -2.725209
     48          1           0       -1.316883   -2.728741   -3.207413
     49          6           0       -0.498538   -0.098309   -3.520593
     50          1           0        0.360980   -0.754779   -3.378915
     51          1           0       -0.211752    0.899206   -3.186601
     52          1           0       -0.691671   -0.039296   -4.592190
     53         46           0       -0.000040    1.112516    0.000029
     54         17           0       -1.230306    2.767523   -1.077122
     55         17           0        1.230202    2.767508    1.077248
     56          6           0        4.070279    3.493596   -1.016956
     57          6           0        4.901057    2.803652   -0.113580
     58          6           0        4.794615    1.404890    0.013839
     59          6           0        3.852508    0.684835   -0.750125
     60          6           0        3.025326    1.385300   -1.654038
     61          6           0        3.132957    2.782938   -1.790393
     62          1           0        4.149233    4.566793   -1.113964
     63          1           0        5.620831    3.347110    0.480866
     64          1           0        5.440313    0.879743    0.702634
     65          1           0        2.313313    0.843218   -2.258765
     66          1           0        2.494197    3.311049   -2.483497
     67          6           0       -4.070545    3.493402    1.016882
     68          6           0       -3.133310    2.782924    1.790496
     69          6           0       -3.025574    1.385265    1.654233
     70          6           0       -3.852581    0.684773    0.750128
     71          6           0       -4.794522    1.404671   -0.013967
     72          6           0       -4.901081    2.803401    0.113354
     73          1           0       -4.149718    4.566676    1.113915
     74          1           0       -2.494630    3.311185    2.483708
     75          1           0       -2.313580    0.843301    2.259029
     76          1           0       -5.440101    0.879492   -0.702922
     77          1           0       -5.620951    3.346809   -0.481312
 ---------------------------------------------------------------------
 Rotational constants (GHZ):           0.1064945           0.0712453           0.0590508
 General basis read from cards:  (6D, 7F)
 ======================================================================================================
                                       Pseudopotential Parameters
 ======================================================================================================
  Center     Atomic      Valence      Angular      Power
  Number     Number     Electrons     Momentum     of R      Exponent        Coefficient   SO-Coeffient
 ======================================================================================================
    1         15
                                   No pseudopotential on this center.
    2         15
                                   No pseudopotential on this center.
    3          8
                                   No pseudopotential on this center.
    4          8
                                   No pseudopotential on this center.
    5          6
                                   No pseudopotential on this center.
    6          6
                                   No pseudopotential on this center.
    7          6
                                   No pseudopotential on this center.
    8          1
                                   No pseudopotential on this center.
    9          6
                                   No pseudopotential on this center.
   10          1
                                   No pseudopotential on this center.
   11          6
                                   No pseudopotential on this center.
   12          1
                                   No pseudopotential on this center.
   13          6
                                   No pseudopotential on this center.
   14          6
                                   No pseudopotential on this center.
   15          1
                                   No pseudopotential on this center.
   16          6
                                   No pseudopotential on this center.
   17          1
                                   No pseudopotential on this center.
   18          6
                                   No pseudopotential on this center.
   19          6
                                   No pseudopotential on this center.
   20          1
                                   No pseudopotential on this center.
   21          6
                                   No pseudopotential on this center.
   22          1
                                   No pseudopotential on this center.
   23          6
                                   No pseudopotential on this center.
   24          1
                                   No pseudopotential on this center.
   25          6
                                   No pseudopotential on this center.
   26          6
                                   No pseudopotential on this center.
   27          6
                                   No pseudopotential on this center.
   28          6
                                   No pseudopotential on this center.
   29          1
                                   No pseudopotential on this center.
   30          1
                                   No pseudopotential on this center.
   31          1
                                   No pseudopotential on this center.
   32          6
                                   No pseudopotential on this center.
   33          1
                                   No pseudopotential on this center.
   34          1
                                   No pseudopotential on this center.
   35          1
                                   No pseudopotential on this center.
   36          6
                                   No pseudopotential on this center.
   37          1
                                   No pseudopotential on this center.
   38          1
                                   No pseudopotential on this center.
   39          1
                                   No pseudopotential on this center.
   40          6
                                   No pseudopotential on this center.
   41          6
                                   No pseudopotential on this center.
   42          1
                                   No pseudopotential on this center.
   43          1
                                   No pseudopotential on this center.
   44          1
                                   No pseudopotential on this center.
   45          6
                                   No pseudopotential on this center.
   46          1
                                   No pseudopotential on this center.
   47          1
                                   No pseudopotential on this center.
   48          1
                                   No pseudopotential on this center.
   49          6
                                   No pseudopotential on this center.
   50          1
                                   No pseudopotential on this center.
   51          1
                                   No pseudopotential on this center.
   52          1
                                   No pseudopotential on this center.
   53         46           18
                                      F and up 
                                                     0      598.3336444       -0.05631770    0.00000000
                                                     1      162.4298290      -20.12880360    0.00000000
                                                     2       51.5714771     -105.81979230    0.00000000
                                                     2       16.4888260      -42.57333450    0.00000000
                                                     2        5.8287656       -3.61650860    0.00000000
                                      S - F
                                                     0       73.3806304        3.00036510    0.00000000
                                                     1       14.7550438       32.43500930    0.00000000
                                                     2       17.8350204      459.08303830    0.00000000
                                                     2       12.7111477     -868.06290290    0.00000000
                                                     2        9.3292063      514.47260980    0.00000000
                                      P - F
                                                     0       55.6689877        4.95930990    0.00000000
                                                     1       64.2337771       21.17110290    0.00000000
                                                     2       17.6254952      605.05600920    0.00000000
                                                     2       11.9058155     -726.96418460    0.00000000
                                                     2        8.5100832      396.32748830    0.00000000
                                      D - F
                                                     0       49.9994728        3.05087450    0.00000000
                                                     1       39.7477547       22.25065800    0.00000000
                                                     2       11.4321366      674.83576980    0.00000000
                                                     2        9.1790080    -1040.85540480    0.00000000
                                                     2        7.5624429      505.93751470    0.00000000
   54         17
                                   No pseudopotential on this center.
   55         17
                                   No pseudopotential on this center.
   56          6
                                   No pseudopotential on this center.
   57          6
                                   No pseudopotential on this center.
   58          6
                                   No pseudopotential on this center.
   59          6
                                   No pseudopotential on this center.
   60          6
                                   No pseudopotential on this center.
   61          6
                                   No pseudopotential on this center.
   62          1
                                   No pseudopotential on this center.
   63          1
                                   No pseudopotential on this center.
   64          1
                                   No pseudopotential on this center.
   65          1
                                   No pseudopotential on this center.
   66          1
                                   No pseudopotential on this center.
   67          6
                                   No pseudopotential on this center.
   68          6
                                   No pseudopotential on this center.
   69          6
                                   No pseudopotential on this center.
   70          6
                                   No pseudopotential on this center.
   71          6
                                   No pseudopotential on this center.
   72          6
                                   No pseudopotential on this center.
   73          1
                                   No pseudopotential on this center.
   74          1
                                   No pseudopotential on this center.
   75          1
                                   No pseudopotential on this center.
   76          1
                                   No pseudopotential on this center.
   77          1
                                   No pseudopotential on this center.
 ======================================================================================================
 There are   712 symmetry adapted cartesian basis functions of A   symmetry.
 There are   712 symmetry adapted basis functions of A   symmetry.
   712 basis functions,  1409 primitive gaussians,   712 cartesian basis functions
   169 alpha electrons      169 beta electrons
       nuclear repulsion energy      6681.6747378249 Hartrees.
 NAtoms=   77 NActive=   77 NUniq=   77 SFac= 1.00D+00 NAtFMM=   60 NAOKFM=T Big=T
 Integral buffers will be    131072 words long.
 Raffenetti 2 integral format.
 Two-electron integral symmetry is turned on.
 Nuclear repulsion after empirical dispersion term =     6681.5234120291 Hartrees.
 Standard density basis: Auto (5D, 7F)
  3104 Density fitting functions
 There are  3104 symmetry adapted density basis functions of A   symmetry.
 One-electron integrals computed using PRISM.
   1 Symmetry operations used in ECPInt.
 ECPInt:  NShTT=   29890 NPrTT=  196526 LenC2=   24021 LenP2D=   81585.
 LDataN:  DoStor=T MaxTD1= 5 Len=  102
 Number of processors reduced to  48 by ecpmxn.
 NBasis=   712 RedAO= T EigKep=  4.19D-04  NBF=   712
 NBsUse=   712 1.00D-06 EigRej= -1.00D+00 NBFU=   712
 NBasis=      712 NBas6D=      712 NTT=      253828   NTT6D=   253828
 NDBShl=      632 NDBF=       3104 NDBF6D=     3660  NNucDB=        0
 IDenFi=        2 ISolve=        0 FullAP=F BlkAPC=T NucTyp=        0
 TolInv= 1.00D-06 TolIt=  1.00D-10 IR12=0.
 FoFCou: FMM=F IPFlag=           0 FMFlag=           0 FMFlg1=           0
         NFxFlg=           0 DoJE=F BraDBF=T KetDBF=T FulRan=T
         wScrn=  0.000000 ICntrl=       600 IOpCl=  3 I1Cent=           6 NGrid=           0
         NMat0=    1 NMatS0=   3660 NMatT0=    0 NMatD0=    1 NMtDS0=    0 NMtDT0=    0
 Petite list used in FoFCou.
 DBF EigKep=  3.47D-06 EigRej=  6.72D-07
 NDBF=   3104  NBFD=  3104
 NRank=  3103 NBFDU=  3103
 S*AI*S=  11.8854976283    
 Defaulting to unpruned grid for atomic number  46.
 ExpMin= 2.62D-02 ExpMax= 2.52D+04 ExpMxC= 3.78D+03 IAcc=3 IRadAn=         5 AccDes= 0.00D+00
 Harris functional with IExCor= 1009 and IRadAn=       5 diagonalized for initial guess.
 HarFok:  IExCor= 1009 AccDes= 0.00D+00 IRadAn=         5 IDoV= 1 UseB2=F ITyADJ=14
 ICtDFT=  3500011 ScaDFX=  1.000000  1.000000  1.000000  1.000000
 Defaulting to unpruned grid for atomic number  46.
 FoFCou: FMM=F IPFlag=           0 FMFlag=      100000 FMFlg1=        2001
         NFxFlg=           0 DoJE=T BraDBF=F KetDBF=T FulRan=T
         wScrn=  0.000000 ICntrl=       500 IOpCl=  0 I1Cent=   200000004 NGrid=           0
         NMat0=    1 NMatS0=      1 NMatT0=    0 NMatD0=    1 NMtDS0=    0 NMtDT0=    0
 Petite list used in FoFCou.
 Requested convergence on RMS density matrix=1.00D-08 within 500 cycles.
 Requested convergence on MAX density matrix=1.00D-06.
 Requested convergence on             energy=1.00D-06.
 No special actions if energy rises.
 FoFCou: FMM=F IPFlag=           0 FMFlag=      100000 FMFlg1=        2001
         NFxFlg=           0 DoJE=T BraDBF=T KetDBF=F FulRan=T
         wScrn=  0.000000 ICntrl=       500 IOpCl=  0 I1Cent=           5 NGrid=           0
         NMat0=    1 NMatS0=      1 NMatT0=    0 NMatD0=    1 NMtDS0=    0 NMtDT0=    0
 Symmetry not used in FoFCou.
 Defaulting to unpruned grid for atomic number  46.
 Defaulting to unpruned grid for atomic number  46.
 Defaulting to unpruned grid for atomic number  46.
 Defaulting to unpruned grid for atomic number  46.
 Defaulting to unpruned grid for atomic number  46.
 Defaulting to unpruned grid for atomic number  46.
 Defaulting to unpruned grid for atomic number  46.
 Defaulting to unpruned grid for atomic number  46.
 Defaulting to unpruned grid for atomic number  46.
 Defaulting to unpruned grid for atomic number  46.
 Defaulting to unpruned grid for atomic number  46.
 Defaulting to unpruned grid for atomic number  46.
 Defaulting to unpruned grid for atomic number  46.
 Defaulting to unpruned grid for atomic number  46.
 Defaulting to unpruned grid for atomic number  46.
 Defaulting to unpruned grid for atomic number  46.
 Defaulting to unpruned grid for atomic number  46.
 Defaulting to unpruned grid for atomic number  46.
 Defaulting to unpruned grid for atomic number  46.
 Defaulting to unpruned grid for atomic number  46.
 Defaulting to unpruned grid for atomic number  46.
 Defaulting to unpruned grid for atomic number  46.
 Defaulting to unpruned grid for atomic number  46.
 Defaulting to unpruned grid for atomic number  46.
 Defaulting to unpruned grid for atomic number  46.
 Defaulting to unpruned grid for atomic number  46.
 Defaulting to unpruned grid for atomic number  46.
 Defaulting to unpruned grid for atomic number  46.
 Defaulting to unpruned grid for atomic number  46.
 Defaulting to unpruned grid for atomic number  46.
 Defaulting to unpruned grid for atomic number  46.
 Defaulting to unpruned grid for atomic number  46.
 Defaulting to unpruned grid for atomic number  46.
 Defaulting to unpruned grid for atomic number  46.
 Defaulting to unpruned grid for atomic number  46.
 Defaulting to unpruned grid for atomic number  46.
 Defaulting to unpruned grid for atomic number  46.
 Defaulting to unpruned grid for atomic number  46.
 Defaulting to unpruned grid for atomic number  46.
 Defaulting to unpruned grid for atomic number  46.
 Defaulting to unpruned grid for atomic number  46.
 Defaulting to unpruned grid for atomic number  46.
 Defaulting to unpruned grid for atomic number  46.
 Defaulting to unpruned grid for atomic number  46.
 Defaulting to unpruned grid for atomic number  46.
 Defaulting to unpruned grid for atomic number  46.
 Defaulting to unpruned grid for atomic number  46.
 Defaulting to unpruned grid for atomic number  46.
 Defaulting to unpruned grid for atomic number  46.
 Defaulting to unpruned grid for atomic number  46.
 Defaulting to unpruned grid for atomic number  46.
 Defaulting to unpruned grid for atomic number  46.
 EnCoef did     9 forward-backward iterations
 EnCoef did   100 forward-backward iterations
 Problem detected with inexpensive integrals.
 Switching to full accuracy and repeating last cycle.
 EnCoef did   100 forward-backward iterations
 EnCoef did   100 forward-backward iterations
 EnCoef did     6 forward-backward iterations
 EnCoef did     3 forward-backward iterations
 EnCoef did     5 forward-backward iterations
 EnCoef did     2 forward-backward iterations
 EnCoef did     6 forward-backward iterations
 EnCoef did     4 forward-backward iterations
 EnCoef did     3 forward-backward iterations
 EnCoef did     5 forward-backward iterations
 EnCoef did     3 forward-backward iterations
 Restarting incremental Fock formation.
 SCF Done:  E(RPBE-PBE) =  -3195.25057842     A.U. after   34 cycles
            NFock= 34  Conv=0.92D-08     -V/T= 2.0325

 **********************************************************************

            Population analysis using the SCF Density.

 **********************************************************************

 Orbital symmetries:
       Occupied  (A) (A) (A) (A) (A) (A) (A) (A) (A) (A) (A) (A)
                 (A) (A) (A) (A) (A) (A) (A) (A) (A) (A) (A) (A)
                 (A) (A) (A) (A) (A) (A) (A) (A) (A) (A) (A) (A)
                 (A) (A) (A) (A) (A) (A) (A) (A) (A) (A) (A) (A)
                 (A) (A) (A) (A) (A) (A) (A) (A) (A) (A) (A) (A)
                 (A) (A) (A) (A) (A) (A) (A) (A) (A) (A) (A) (A)
                 (A) (A) (A) (A) (A) (A) (A) (A) (A) (A) (A) (A)
                 (A) (A) (A) (A) (A) (A) (A) (A) (A) (A) (A) (A)
                 (A) (A) (A) (A) (A) (A) (A) (A) (A) (A) (A) (A)
                 (A) (A) (A) (A) (A) (A) (A) (A) (A) (A) (A) (A)
                 (A) (A) (A) (A) (A) (A) (A) (A) (A) (A) (A) (A)
                 (A) (A) (A) (A) (A) (A) (A) (A) (A) (A) (A) (A)
                 (A) (A) (A) (A) (A) (A) (A) (A) (A) (A) (A) (A)
                 (A) (A) (A) (A) (A) (A) (A) (A) (A) (A) (A) (A)
                 (A)
       Virtual   (A) (A) (A) (A) (A) (A) (A) (A) (A) (A) (A) (A)
                 (A) (A) (A) (A) (A) (A) (A) (A) (A) (A) (A) (A)
                 (A) (A) (A) (A) (A) (A) (A) (A) (A) (A) (A) (A)
                 (A) (A) (A) (A) (A) (A) (A) (A) (A) (A) (A) (A)
                 (A) (A) (A) (A) (A) (A) (A) (A) (A) (A) (A) (A)
                 (A) (A) (A) (A) (A) (A) (A) (A) (A) (A) (A) (A)
                 (A) (A) (A) (A) (A) (A) (A) (A) (A) (A) (A) (A)
                 (A) (A) (A) (A) (A) (A) (A) (A) (A) (A) (A) (A)
                 (A) (A) (A) (A) (A) (A) (A) (A) (A) (A) (A) (A)
                 (A) (A) (A) (A) (A) (A) (A) (A) (A) (A) (A) (A)
                 (A) (A) (A) (A) (A) (A) (A) (A) (A) (A) (A) (A)
                 (A) (A) (A) (A) (A) (A) (A) (A) (A) (A) (A) (A)
                 (A) (A) (A) (A) (A) (A) (A) (A) (A) (A) (A) (A)
                 (A) (A) (A) (A) (A) (A) (A) (A) (A) (A) (A) (A)
                 (A) (A) (A) (A) (A) (A) (A) (A) (A) (A) (A) (A)
                 (A) (A) (A) (A) (A) (A) (A) (A) (A) (A) (A) (A)
                 (A) (A) (A) (A) (A) (A) (A) (A) (A) (A) (A) (A)
                 (A) (A) (A) (A) (A) (A) (A) (A) (A) (A) (A) (A)
                 (A) (A) (A) (A) (A) (A) (A) (A) (A) (A) (A) (A)
                 (A) (A) (A) (A) (A) (A) (A) (A) (A) (A) (A) (A)
                 (A) (A) (A) (A) (A) (A) (A) (A) (A) (A) (A) (A)
                 (A) (A) (A) (A) (A) (A) (A) (A) (A) (A) (A) (A)
                 (A) (A) (A) (A) (A) (A) (A) (A) (A) (A) (A) (A)
                 (A) (A) (A) (A) (A) (A) (A) (A) (A) (A) (A) (A)
                 (A) (A) (A) (A) (A) (A) (A) (A) (A) (A) (A) (A)
                 (A) (A) (A) (A) (A) (A) (A) (A) (A) (A) (A) (A)
                 (A) (A) (A) (A) (A) (A) (A) (A) (A) (A) (A) (A)
                 (A) (A) (A) (A) (A) (A) (A) (A) (A) (A) (A) (A)
                 (A) (A) (A) (A) (A) (A) (A) (A) (A) (A) (A) (A)
                 (A) (A) (A) (A) (A) (A) (A) (A) (A) (A) (A) (A)
                 (A) (A) (A) (A) (A) (A) (A) (A) (A) (A) (A) (A)
                 (A) (A) (A) (A) (A) (A) (A) (A) (A) (A) (A) (A)
                 (A) (A) (A) (A) (A) (A) (A) (A) (A) (A) (A) (A)
                 (A) (A) (A) (A) (A) (A) (A) (A) (A) (A) (A) (A)
                 (A) (A) (A) (A) (A) (A) (A) (A) (A) (A) (A) (A)
                 (A) (A) (A) (A) (A) (A) (A) (A) (A) (A) (A) (A)
                 (A) (A) (A) (A) (A) (A) (A) (A) (A) (A) (A) (A)
                 (A) (A) (A) (A) (A) (A) (A) (A) (A) (A) (A) (A)
                 (A) (A) (A) (A) (A) (A) (A) (A) (A) (A) (A) (A)
                 (A) (A) (A) (A) (A) (A) (A) (A) (A) (A) (A) (A)
                 (A) (A) (A) (A) (A) (A) (A) (A) (A) (A) (A) (A)
                 (A) (A) (A) (A) (A) (A) (A) (A) (A) (A) (A) (A)
                 (A) (A) (A) (A) (A) (A) (A) (A) (A) (A) (A) (A)
                 (A) (A) (A) (A) (A) (A) (A) (A) (A) (A) (A) (A)
                 (A) (A) (A) (A) (A) (A) (A) (A) (A) (A) (A) (A)
                 (A) (A) (A)
 The electronic state is 1-A.
 Alpha  occ. eigenvalues -- -100.59186-100.59185 -76.37318 -76.37317 -18.83087
 Alpha  occ. eigenvalues --  -18.83086  -9.98719  -9.98711  -9.97801  -9.97801
 Alpha  occ. eigenvalues --   -9.93894  -9.93894  -9.92939  -9.92939  -9.92600
 Alpha  occ. eigenvalues --   -9.92600  -9.92296  -9.92296  -9.91890  -9.91889
 Alpha  occ. eigenvalues --   -9.91111  -9.91110  -9.90293  -9.90293  -9.89684
 Alpha  occ. eigenvalues --   -9.89683  -9.89351  -9.89350  -9.89250  -9.89250
 Alpha  occ. eigenvalues --   -9.89114  -9.89114  -9.89031  -9.89030  -9.88744
 Alpha  occ. eigenvalues --   -9.88744  -9.88680  -9.88679  -9.88059  -9.88058
 Alpha  occ. eigenvalues --   -9.08715  -9.08714  -6.91065  -6.91064  -6.90300
 Alpha  occ. eigenvalues --   -6.90300  -6.90257  -6.90256  -6.35377  -6.35376
 Alpha  occ. eigenvalues --   -4.57221  -4.57220  -4.57100  -4.57099  -4.56872
 Alpha  occ. eigenvalues --   -4.56872  -3.20373  -1.97395  -1.97017  -1.93223
 Alpha  occ. eigenvalues --   -1.01503  -1.00267  -0.79444  -0.79305  -0.76175
 Alpha  occ. eigenvalues --   -0.75729  -0.75648  -0.75397  -0.72928  -0.70760
 Alpha  occ. eigenvalues --   -0.69831  -0.69152  -0.68906  -0.66142  -0.65625
 Alpha  occ. eigenvalues --   -0.65604  -0.64710  -0.64445  -0.63882  -0.63329
 Alpha  occ. eigenvalues --   -0.62901  -0.62897  -0.62094  -0.62078  -0.59409
 Alpha  occ. eigenvalues --   -0.57650  -0.56108  -0.55536  -0.55339  -0.54175
 Alpha  occ. eigenvalues --   -0.52981  -0.52936  -0.51989  -0.51200  -0.49717
 Alpha  occ. eigenvalues --   -0.48801  -0.48086  -0.46978  -0.45726  -0.45512
 Alpha  occ. eigenvalues --   -0.44484  -0.43883  -0.43802  -0.42959  -0.42866
 Alpha  occ. eigenvalues --   -0.41624  -0.41021  -0.40464  -0.40189  -0.39999
 Alpha  occ. eigenvalues --   -0.39939  -0.39576  -0.39214  -0.38650  -0.38516
 Alpha  occ. eigenvalues --   -0.38173  -0.37400  -0.37076  -0.36461  -0.36431
 Alpha  occ. eigenvalues --   -0.36018  -0.35700  -0.35655  -0.35289  -0.35145
 Alpha  occ. eigenvalues --   -0.34886  -0.34815  -0.34343  -0.34288  -0.33183
 Alpha  occ. eigenvalues --   -0.32768  -0.32442  -0.32206  -0.32102  -0.32035
 Alpha  occ. eigenvalues --   -0.31664  -0.30658  -0.30483  -0.30412  -0.30188
 Alpha  occ. eigenvalues --   -0.30183  -0.29645  -0.29596  -0.29422  -0.28995
 Alpha  occ. eigenvalues --   -0.28835  -0.28811  -0.28483  -0.28171  -0.28041
 Alpha  occ. eigenvalues --   -0.27948  -0.26756  -0.25254  -0.24729  -0.24211
 Alpha  occ. eigenvalues --   -0.23853  -0.23284  -0.23274  -0.21510  -0.21351
 Alpha  occ. eigenvalues --   -0.20671  -0.20544  -0.20170  -0.20063  -0.18394
 Alpha  occ. eigenvalues --   -0.18278  -0.17825  -0.17642  -0.17215
 Alpha virt. eigenvalues --   -0.09865  -0.06714  -0.06157  -0.04633  -0.04226
 Alpha virt. eigenvalues --   -0.02780  -0.02043  -0.01839  -0.01693  -0.01465
 Alpha virt. eigenvalues --   -0.00822   0.02372   0.02767   0.03602   0.04524
 Alpha virt. eigenvalues --    0.05049   0.05294   0.05761   0.06106   0.06464
 Alpha virt. eigenvalues --    0.07403   0.07473   0.08350   0.08567   0.08592
 Alpha virt. eigenvalues --    0.09173   0.09438   0.09634   0.10613   0.11037
 Alpha virt. eigenvalues --    0.11403   0.11631   0.11671   0.11738   0.12143
 Alpha virt. eigenvalues --    0.12443   0.12471   0.12750   0.13139   0.13437
 Alpha virt. eigenvalues --    0.14079   0.14522   0.14874   0.15115   0.15205
 Alpha virt. eigenvalues --    0.15334   0.15411   0.15913   0.16367   0.16565
 Alpha virt. eigenvalues --    0.16726   0.17018   0.17121   0.17750   0.18048
 Alpha virt. eigenvalues --    0.18304   0.18518   0.18616   0.18624   0.18950
 Alpha virt. eigenvalues --    0.19215   0.19848   0.20040   0.20769   0.20858
 Alpha virt. eigenvalues --    0.21218   0.21459   0.22007   0.22241   0.22772
 Alpha virt. eigenvalues --    0.22983   0.23329   0.23999   0.25180   0.25244
 Alpha virt. eigenvalues --    0.25474   0.25542   0.27162   0.27646   0.27759
 Alpha virt. eigenvalues --    0.28161   0.28195   0.28328   0.28871   0.30122
 Alpha virt. eigenvalues --    0.30233   0.30934   0.31034   0.33799   0.33806
 Alpha virt. eigenvalues --    0.35199   0.35388   0.35870   0.37302   0.37574
 Alpha virt. eigenvalues --    0.38241   0.38616   0.39157   0.39595   0.40513
 Alpha virt. eigenvalues --    0.41547   0.43731   0.44188   0.44364   0.44516
 Alpha virt. eigenvalues --    0.45211   0.45629   0.46066   0.46383   0.46518
 Alpha virt. eigenvalues --    0.47492   0.48037   0.48426   0.48695   0.49104
 Alpha virt. eigenvalues --    0.49697   0.49922   0.50205   0.50514   0.51055
 Alpha virt. eigenvalues --    0.51271   0.51616   0.51928   0.52111   0.52268
 Alpha virt. eigenvalues --    0.52595   0.52890   0.53179   0.53213   0.53267
[...]
 0.00000320,0.00000172,-0.00000105,0.00000077,0.00001801,0.00000103,-0.
 00000258,0.00001916,-0.00001577,-0.00000229,0.00001209,-0.00000999,-0.
 00001073,-0.00000525,0.00000214,0.00000314,-0.00000148,0.00000171,-0.0
 0000063,-0.00000269,0.00000182,0.00000125,-0.00001536,-0.00001235,-0.0
 0000079,-0.00001408,-0.00000474,-0.00000122,-0.00228585,0.00122428,-0.
 00475391,-0.01858518,-0.02195378,-0.00221679,-0.03756364,-0.03514817,-
 0.06251620,0.01388529,0.01599540,0.00627980,0.00026287,0.00296182,-0.0
 0296575,0.00007184,0.00033533,-0.00100951,-0.00097472,-0.00126233,-0.0
 0024976,0.00081276,-0.00055940,0.00072296,0.04149290,0.03864135,0.0660
 5125,0.00005900,0.00000776,0.00007748,0.00013489,-0.00014658,0.0002376
 8,-0.00001457,0.00003833,-0.00002571,-0.00011206,0.00040334,0.00008866
 ,-0.00002334,0.00000661,-0.00002297,0.00000496,0.00000286,0.00000626,-
 0.00000373,-0.00000027,-0.00000841,-0.00000006,0.00000063,0.00000041,0
 .00000265,-0.00000501,0.00000570,0.00000004,0.00000005,-0.00000052,-0.
 00000289,0.00001288,-0.00000477,-0.00000016,-0.00000225,-0.00000142,0.
 00001734,-0.00004506,0.00002109,-0.00001078,-0.00002719,-0.00003133,-0
 .00001378,-0.00000494,0.00000722,0.00003939,-0.00009692,0.00012809,0.0
 0000529,0.00002134,-0.00000112,0.00011486,-0.00012433,-0.00009085,-0.0
 0004832,0.00013886,0.00005432,-0.00000502,0.00004422,0.00002986,0.0000
 1393,0.00035229,-0.00022890,-0.00005115,-0.00002272,-0.00002322,0.0000
 6083,-0.00056930,-0.00049948,-0.00095583,0.00031533,-0.00020766,-0.001
 55884,0.00171648,0.00116104,0.00027002,0.00015085,0.00018051,-0.000019
 54,0.00000487,-0.00002472,0.00000564,-0.00000504,0.00001300,-0.0000049
 8,-0.00000734,-0.00000294,0.00000810,0.00000199,0.00000672,0.00000702,
 0.00001345,-0.00001352,-0.00000249,-0.00000903,0.00001068,-0.00000104,
 -0.00000110,-0.00000198,-0.00000073,0.00000170,-0.00000223,-0.00000203
 ,0.00000009,-0.00000217,0.00000605,-0.00000271,-0.00000368,-0.00000155
 ,0.00000197,-0.00000185,0.00000384,0.00000340,-0.00000186,0.00000042,-
 0.00000208,0.,0.00005735,0.00004033,-0.00003654,-0.00007856,0.00000294
 ,-0.00004543,-0.00000144,0.00003666,-0.00004106,-0.00000975,-0.0000013
 5,-0.00000378,0.00007869,0.00002937,0.00012482,-0.00000267,-0.00002653
 ,0.00000110,-0.00001266,0.00000940,0.00000426,0.00001849,0.00001214,-0
 .00000797,-0.00000246,-0.00001102,-0.00001525,-0.00005643,-0.00003205,
 -0.00000546,0.00000536,-0.00001982,-0.00000204,-0.00000126,0.00001064,
 0.00000247,-0.00000957,0.00001699,-0.00000018,-0.00006609,0.00010277,-
 0.00000557,0.00000882,-0.00004328,0.00000162,0.00001214,-0.00004701,0.
 00000635,-0.00000115,-0.00000053,-0.00000190,0.,-0.00000012,-0.0000006
 2,-0.00000198,-0.00000118,-0.00000005,0.00000133,-0.00000146,0.0000045
 5,0.00000414,0.00000062,-0.00000563,-0.00000056,0.00000011,0.00000144,
 0.00000002,0.00000066,-0.00000006,-0.00000051,-0.00000064,0.00000015,-
 0.00000120,-0.00000113,0.00000044,0.00000173,-0.00000006,0.00000227,-0
 .00000139,0.00000070,-0.00000131,0.00343967,-0.00339879,-0.00310277,-0
 .00055359,0.00018297,-0.00027542,0.00123526,-0.00486685,-0.00295544,-0
 .00287373,-0.01097003,0.01491055,-0.06475173,-0.06140572,0.05536758,0.
 00547892,0.00752574,-0.00835688,0.00032197,0.00024117,-0.00050625,-0.0
 0068182,0.00057543,0.00030557,0.00015691,-0.00082869,0.00072147,0.0622
 2393,0.00002718,-0.00001329,0.00008684,-0.00016865,-0.00002431,0.00022
 766,0.00000543,0.00004823,-0.00001867,-0.00007865,0.00018028,-0.000065
 95,-0.00001133,0.00000646,-0.00002997,0.00000011,0.00000305,0.00000137
 ,-0.00000111,0.00000045,-0.00000877,-0.00000105,-0.00000057,0.00000042
 ,0.00000324,-0.00000622,0.00000397,-0.00000115,-0.00000044,-0.00000010
 ,-0.00000107,0.00001304,-0.00000612,-0.00000183,-0.00000258,-0.0000011
 6,0.00001716,-0.00004951,0.00002387,-0.00000881,-0.00001208,0.00000551
 ,-0.00000111,-0.00000622,0.00000689,0.00007248,-0.00001567,0.00001320,
 -0.00001292,-0.00000039,-0.00000902,0.00017315,-0.00041047,0.00038999,
 -0.00013118,0.00040322,-0.00000282,-0.00002650,0.00001164,0.00001326,-
 0.00008522,-0.00013246,-0.00050763,0.00003148,-0.00000093,-0.00000614,
 0.00047786,0.00045818,0.00006353,-0.00013212,0.00009347,0.00019411,0.0
 0249377,-0.00091892,0.00172885,-0.00018336,-0.00038761,-0.00080553,-0.
 00002689,0.00001472,-0.00000769,0.00001277,-0.00000447,0.00000459,-0.0
 0000453,-0.00001111,-0.00000277,0.00001452,0.00000096,0.00002195,-0.00
 000284,0.00002737,-0.00001991,0.00000600,-0.00001164,-0.00000104,-0.00
 000357,-0.00000515,-0.00000386,-0.00000242,0.00000335,0.00000069,0.000
 00127,0.00000219,-0.00000055,0.00000839,-0.00000767,-0.00000891,0.0000
 0119,0.00000395,-0.00000253,0.00000066,0.00000430,0.00000142,-0.000000
 98,-0.00000589,0.00000101,-0.00023935,0.00007907,-0.00008084,0.0002748
 6,-0.00023552,0.00016196,-0.00004517,-0.00003470,0.00008521,-0.0000254
 2,0.00008350,0.00000079,-0.00007530,-0.00006101,-0.00030025,0.00009178
 ,0.00001043,0.00001041,0.00000242,-0.00000264,-0.00003401,-0.00002136,
 -0.00000466,-0.00001944,0.00000274,0.00002167,0.00002507,0.00009231,0.
 00005947,0.00003888,-0.00001228,0.00005327,0.00000899,-0.00001652,-0.0
 0000332,0.00001090,0.00001040,-0.00001602,-0.00000636,-0.00004689,0.00
 010616,-0.00002808,0.00009963,-0.00000415,-0.00003250,0.00003524,-0.00
 003865,-0.00005828,-0.00000162,-0.00000256,-0.00000095,0.00000146,-0.0
 0000029,0.00000184,-0.00000131,0.00000084,-0.00000094,0.00000455,-0.00
 000318,0.00000342,0.00000903,-0.00000947,-0.00000428,0.00000130,-0.000
 00238,-0.00000251,-0.00000114,0.00000063,0.00000022,0.,0.,0.,-0.000000
 70,0.00000040,0.00000086,-0.00000941,-0.00000042,0.00000781,-0.0000011
 7,0.00000185,0.00000019,-0.00290035,0.00337299,-0.00027329,-0.00005899
 ,-0.00029855,-0.00083667,-0.00517870,-0.00055604,-0.00178393,-0.006071
 15,-0.01115386,0.01647497,-0.06040787,-0.14808127,0.12202897,0.0012980
 0,0.00478990,-0.00393082,-0.00009423,0.00027287,-0.00020368,0.00062625
 ,-0.00036427,-0.00008161,-0.00059296,-0.00038902,0.00108846,0.06864433
 ,0.15406092,-0.00003852,-0.00003440,-0.00002244,0.00006087,-0.00008322
 ,-0.00005726,-0.00000011,0.00002537,0.00000845,0.00001659,0.00008761,0
 .00001171,0.00001153,0.00000714,0.00000538,0.00000313,-0.00000606,0.00
 000477,-0.00000144,0.00000212,0.00000355,-0.00000025,0.00000102,-0.000
 00067,0.00000048,-0.00000030,-0.00000013,0.00000035,0.00000178,0.00000
 079,-0.00000157,0.00000505,0.00000222,0.00000017,0.00000017,0.00000120
 ,0.00000569,-0.00000905,-0.00000005,-0.00000264,-0.00000270,-0.0000222
 3,-0.00000529,-0.00000135,0.00000206,-0.00001589,-0.00002604,0.0000301
 5,0.00000393,0.00000779,0.00000196,0.00004204,-0.00014220,0.00010537,-
 0.00000586,0.00022083,0.00002145,-0.00000878,-0.00000523,-0.00000286,0
 .00000624,-0.00026094,-0.00030940,-0.00001928,-0.00001228,0.00005585,-
 0.00005431,0.00027985,0.00038648,-0.00013278,-0.00016947,-0.00001292,0
 .00017841,-0.00103454,0.00057476,-0.00001936,-0.00002427,0.00007563,-0
 .00000200,0.00000654,0.00001231,-0.00000134,0.00000301,0.00000131,0.00
 000146,0.00000119,-0.00000182,-0.00000135,0.00000064,0.00000153,-0.000
 00466,-0.00000121,-0.00000213,0.00000543,0.00000015,-0.00000759,-0.000
 00130,0.00000073,0.00000098,-0.00000205,-0.00000046,0.00000059,0.00000
 384,0.00000128,0.00000035,0.00000673,-0.00000017,0.00000056,0.00000224
 ,0.00000120,-0.00000169,-0.00000449,-0.00000541,0.00000013,-0.00000016
 ,0.00000137,0.00000195,0.00007181,0.00001893,0.00000446,-0.00007009,-0
 .00003207,-0.00006095,0.00001143,0.00004681,-0.00002191,-0.00001750,0.
 00000534,0.00001111,0.00006774,0.00000649,0.00007087,-0.00001528,-0.00
 001439,-0.00000202,-0.00000873,0.00000522,0.00001005,0.00000747,0.0000
 0482,-0.00000556,0.00000032,-0.00000104,-0.00000768,-0.00003283,-0.000
 02414,0.00000067,0.00000251,-0.00001150,-0.00000149,0.00000704,-0.0000
 0115,-0.00000717,-0.00000975,0.00000870,0.00000490,0.00000803,-0.00000
 074,0.00001675,-0.00003112,0.00002253,0.00002643,0.00000498,0.00001761
 ,0.00001113,0.00000118,0.00000137,0.00000291,-0.00000153,-0.00000004,-
 0.00000022,-0.00000064,-0.00000158,-0.00000080,-0.00000366,0.00000204,
 -0.00000232,-0.00000526,0.00000587,0.00000491,-0.00000190,0.00000227,-
 0.00000035,0.00000068,-0.00000134,-0.00000154,0.00000076,0.00000110,-0
 .00000148,0.00000154,0.,0.00000047,0.00000504,-0.00000149,-0.00000700,
 0.00000317,-0.00000337,0.00000034,-0.00405581,-0.00145495,-0.00345321,
 -0.00042136,-0.00071504,-0.00022554,-0.00192798,-0.00070406,0.00092802
 ,-0.00266527,-0.00471631,0.00589474,0.05552625,0.12300881,-0.19454946,
 0.01022314,0.01880596,-0.01592682,0.00050542,0.00108918,-0.00095790,0.
 00029715,-0.00007903,-0.00001696,-0.00026315,-0.00021347,0.00041268,-0
 .05788104,-0.13318415,0.20614642,-0.00000022,0.00005487,0.00001726,-0.
 00003473,0.00009299,-0.00002496,-0.00000174,-0.00003851,-0.00000697,-0
 .00002632,-0.00007381,-0.00006112,-0.00000028,-0.00000756,0.00000546,-
 0.00000351,0.00000628,-0.00000602,0.00000078,-0.00000459,-0.00000098,0
 .00000092,-0.00000090,0.00000021,-0.00000028,0.00000098,0.00000005,0.0
 0000042,-0.00000162,-0.00000086,0.00000063,-0.00000727,-0.00000035,0.0
 0000028,0.00000047,-0.00000069,-0.00000903,0.00002219,-0.00000583,0.00
 000755,0.00001488,0.00001056,0.00000393,0.00000261,-0.00000052,0.00001
 930,0.00001515,-0.00000867,-0.00000500,-0.00000638,-0.00000581,0.00004
 935,-0.00000429,-0.00000202,0.00000691,-0.00000145,-0.00001086,-0.0000
 1606,-0.00000421,0.00000173,0.00000850,0.00000577,-0.00002694,-0.00000
 546,0.00000329,-0.00001907,-0.00006981,-0.00005452,-0.00000786,-0.0000
 2399,-0.00002145,-0.00001526,0.00014846,-0.00062710,0.00011139,-0.0001
 7613,0.00005932,-0.00022435,-0.00000551,-0.00001147,-0.00000708,0.0000
 0559,0.00000087,-0.00000296,-0.00000625,-0.00000608,0.00000054,0.00000
 747,-0.00000081,0.00000615,0.00000618,0.00000692,-0.00000525,-0.000002
 38,-0.00000158,0.00000590,0.00000020,-0.00000098,-0.00000146,0.0000022
 7,0.00000016,0.,-0.00000373,-0.00000109,0.00000040,-0.00000383,-0.0000
 0002,-0.00000130,-0.00000380,-0.00000076,0.00000064,0.00000761,0.00000
 601,-0.00000174,0.00000017,-0.00000244,-0.00000083,-0.00001684,-0.0000
 2107,0.00001080,-0.00000021,0.00000678,-0.00000010,-0.00000197,0.00001
 117,-0.00000536,0.00000719,-0.00000719,-0.00000258,-0.00000882,-0.0000
 1205,0.00001422,0.00000577,0.00000021,-0.00000053,0.00000570,-0.000001
 41,-0.00000107,-0.00000549,-0.00000081,0.00000537,-0.00000352,-0.00000
 057,-0.00000165,0.00001065,0.00000148,-0.00001271,-0.00000227,-0.00000
 241,-0.00000127,-0.00000138,0.00000591,0.00000392,0.00000494,-0.000002
 53,0.00000017,0.00004505,-0.00003662,0.00004837,-0.00004023,-0.0000288
 8,-0.00003131,-0.00001490,-0.00007357,-0.00000185,0.00000185,-0.000002
 17,-0.00000265,0.00000134,0.00000084,-0.00000210,0.00000164,0.00000026
 ,0.00000103,-0.00000068,-0.00000039,0.00000242,-0.00000002,-0.00000071
 ,-0.00000148,-0.00000020,-0.00000198,0.00000109,-0.00000020,0.00000126
 ,0.00000077,-0.00000128,-0.00000113,0.00000139,-0.00000146,-0.00000010
 ,-0.00000073,0.00000031,0.00000269,0.00000021,-0.00000394,0.00000371,-
 0.00000061,-0.00284242,-0.00500097,-0.00327965,0.00436649,-0.00328083,
 0.00070820,-0.00007275,0.00068335,0.00017665,0.00446861,-0.00225627,-0
 .00276727,-0.00443384,-0.00747141,-0.00015363,-0.15165568,-0.13876811,
 -0.03919574,-0.00178009,0.00198644,0.00080923,-0.00016900,-0.00026970,
 -0.00028338,-0.00072048,0.00050206,0.00016030,-0.00185756,0.00214821,0
 .00064154,0.15483720,0.00005904,0.00002858,0.00002602,-0.00009298,0.00
 007771,0.00005610,0.00000179,-0.00003088,-0.00000434,0.00002862,-0.000
 08653,-0.00002319,-0.00001465,-0.00001077,-0.00000421,-0.00000772,0.00
 000744,-0.00001433,0.00000523,-0.00000224,-0.00000067,0.00000045,-0.00
 000199,0.00000020,-0.00000172,0.00000085,-0.00000201,-0.00000062,-0.00
 000206,-0.00000082,0.00000324,-0.00000751,-0.00000365,0.00000008,-0.00
 000033,-0.00000122,-0.00000757,0.00001003,0.00000158,0.00000963,0.0000
 1274,0.00002240,0.00000645,0.00000219,-0.00000106,0.00000019,0.0000243
 4,-0.00003600,-0.00000456,-0.00000876,-0.00000325,-0.00002698,0.000075
 15,0.00003316,-0.00000982,-0.00007513,-0.00004081,0.00000489,-0.000003
 44,-0.00000386,0.00003526,0.00004716,0.00007741,-0.00001146,0.00000210
 ,-0.00000433,-0.00001033,0.00000216,-0.00018430,0.00002809,-0.00000620
 ,0.00004096,-0.00013202,0.00005868,0.00042978,0.00000508,-0.00002273,-
 0.00000112,-0.00000125,-0.00000415,-0.00000628,0.00000721,0.00000176,0
 .00000194,-0.00000458,-0.00000321,0.00000059,0.00000255,-0.00000139,0.
 00000246,0.00000394,0.00000667,-0.00000007,-0.00000203,-0.00000056,0.0
 0000116,0.00000032,-0.00000155,-0.00000196,0.00000127,0.00000094,0.000
 00065,-0.00000239,-0.00000044,0.00000068,-0.00000409,-0.00000085,-0.00
 000030,-0.00000291,-0.00000011,0.00000045,0.00000599,0.00000753,-0.000
 00098,-0.00000074,-0.00000267,-0.00000119,-0.00002584,-0.00002850,0.00
 002429,0.00002885,0.00003310,-0.00002367,-0.00004101,-0.00003655,0.000
 01438,0.00002250,-0.00000957,-0.00002519,-0.00002423,-0.00000059,0.000
 00984,0.00001900,0.00001344,0.00000521,0.00000888,-0.00000215,-0.00001
 022,-0.00000898,-0.00000389,0.00000537,-0.00000067,0.00000356,0.000007
 99,0.00002219,0.00001683,-0.00000856,-0.00000139,0.00000632,0.00000455
 ,-0.00001211,-0.00000157,0.00000487,0.00001057,-0.00000780,-0.00000801
 ,-0.00009536,0.00002979,-0.00000590,0.00014156,-0.00000896,0.00001954,
 0.00000726,-0.00004592,-0.00003962,-0.00000046,-0.00000099,-0.00000432
 ,0.00000211,-0.00000185,0.00000267,0.00000108,0.00000569,0.00000090,0.
 00000653,-0.00000400,0.00000766,0.00001169,-0.00001005,-0.00001042,0.0
 0000010,-0.00001092,-0.00000063,-0.00000128,-0.00000006,0.00000340,-0.
 00000056,-0.00000126,0.00000116,-0.00000130,-0.00000007,-0.00000032,-0
 .00001019,0.00000090,0.00000855,-0.00000464,0.00000408,-0.00000167,-0.
 01188658,-0.01071241,-0.00604400,-0.00294889,0.00113019,0.00454642,0.0
 0069904,-0.00005881,0.00052502,-0.00249269,0.00386945,0.00004283,-0.00
 107173,0.00018967,0.00074556,-0.13860370,-0.19532943,-0.03843257,0.002
 09696,-0.00068349,-0.00057862,-0.00072125,-0.00052039,-0.00036369,0.00
 047518,-0.00042540,-0.00022977,0.00205579,-0.00089931,-0.00072871,0.15
 247264,0.20340837,0.00002124,0.00001372,-0.00003706,-0.00012715,0.0001
 3707,-0.00002905,0.00000311,-0.00002816,0.00000766,0.00000378,-0.00013
 518,-0.00005626,-0.00000516,-0.00000711,0.00000766,-0.00000316,0.00000
 133,-0.00000794,0.00000322,-0.00000049,0.00000261,0.00000028,-0.000000
 97,0.,-0.00000171,0.00000221,-0.00000288,-0.00000025,-0.00000092,0.000
 00003,0.00000274,-0.00000740,0.00000044,0.00000019,0.00000053,-0.00000
 003,-0.00000918,0.00001923,-0.00000805,0.00000475,0.00001628,0.0000136
 0,0.00000721,0.00000287,-0.00000330,0.00000252,0.00002604,-0.00004339,
 -0.00000638,-0.00001022,-0.00000353,0.00008709,0.00001795,-0.00001046,
 -0.00001179,-0.00006883,-0.00004029,-0.00000087,-0.00000298,-0.0000032
 1,0.00003512,0.00005177,0.00005653,-0.00001869,0.00000275,-0.00001323,
 0.00004658,-0.00002388,-0.00016289,-0.00002142,0.00001125,0.00004577,-
 0.00069146,-0.00117325,0.00049386,-0.00014667,0.00002550,-0.00030299,0
 .00000915,-0.00000448,0.00000476,-0.00000577,0.00000458,-0.00000481,-0
 .00000116,-0.00000029,0.00000170,0.00000181,-0.00000160,0.00000098,-0.
 00000195,-0.00000477,-0.00000163,-0.00000157,0.00000358,-0.00000092,0.
 00000115,0.00000072,0.00000051,0.00000146,-0.00000050,0.00000102,-0.00
 000116,-0.00000072,0.00000082,-0.00000266,0.00000268,0.00000052,-0.000
 00020,-0.00000155,0.00000180,-0.00000231,-0.00000234,0.00000064,0.0000
 0070,0.00000097,0.00000058,-0.00001778,-0.00003844,0.00003217,0.000033
 00,0.00001363,-0.00000731,-0.00001595,-0.00001554,0.00000746,0.0000179
 7,-0.00001129,-0.00001160,-0.00003615,-0.00000719,0.00000021,0.0000044
 1,0.00001071,0.00000239,0.00000892,-0.00000553,-0.00000403,-0.00001254
 ,-0.00000535,0.00000573,-0.00000016,0.00000524,0.00000581,0.00002883,0
 .00001822,-0.00000719,-0.00000267,0.00000735,0.00000256,-0.00000278,-0
 .00000415,-0.00000139,0.00000787,-0.00001011,-0.00000166,-0.00001061,-
 0.00001296,-0.00004518,0.00003007,0.00002487,0.00001553,-0.00000952,0.
 00005867,0.00005853,-0.00000065,-0.00000010,0.00000206,0.00000099,-0.0
 0000082,0.00000134,0.00000038,0.00000263,-0.00000019,-0.00000087,-0.00
 000171,0.00000215,0.00000311,-0.00000129,-0.00000358,-0.00000101,-0.00
 000152,-0.00000013,0.00000010,-0.00000022,0.00000079,0.00000045,-0.000
 00023,0.00000028,-0.00000003,-0.00000003,-0.00000047,-0.00000344,-0.00
 000048,0.00000180,0.00000098,-0.00000028,0.00000046,0.01500064,0.01681
 812,0.00838647,-0.00019183,0.00350138,-0.00287460,0.00018085,0.0003861
 2,-0.00113762,-0.00232282,0.00129296,-0.00471856,-0.01865854,-0.022113
 36,-0.00224416,-0.03909752,-0.03829634,-0.06549432,0.00049254,-0.00093
 743,0.00066950,0.00080196,0.00085425,0.00040886,0.00018235,-0.00020894
 ,0.00013591,0.00096857,-0.00036634,0.00083325,0.04344947,0.04018010,0.
 06606916\\-0.00000800,0.00001020,-0.00000018,0.00000609,-0.00000633,-0
 .00000389,0.00000229,0.00000421,-0.00000021,-0.00000081,-0.00000449,0.
 00000101,-0.00000086,0.00000076,0.00000708,0.00000148,0.00000119,-0.00
 000650,-0.00000206,0.00000188,0.00000364,-0.00000166,-0.00000046,0.000
 00118,-0.00000105,0.00000207,0.00000008,-0.00000110,-0.00000023,0.0000
 0038,-0.00000340,0.00000212,-0.00000060,-0.00000149,-0.00000037,0.0000
 0080,0.00000810,-0.00000664,0.00000028,-0.00000941,-0.00000552,0.00000
 712,0.00000084,0.00000080,-0.00000242,0.00000901,0.00000618,-0.0000038
 4,-0.00000231,-0.00000027,-0.00000112,-0.00000268,0.00000761,0.0000060
 9,0.00000086,-0.00000206,-0.00000211,0.00000160,0.00000025,-0.00000064
 ,0.00000126,-0.00000217,-0.00000200,0.00000045,0.00000007,-0.00000042,
 0.00000371,-0.00000164,0.00000267,0.00000227,0.00000015,-0.00000037,-0
 .00000468,-0.00000290,-0.00000721,0.00000502,0.00000003,0.00000230,0.0
 0001359,-0.00000306,-0.00000567,0.00000077,0.00000848,0.00000353,-0.00
 000158,-0.00000012,-0.00000118,-0.00000028,0.00000062,0.00000075,0.000
 00111,-0.00000178,-0.00000346,-0.00000666,0.00000194,-0.00000063,-0.00
 000015,0.00000037,0.00000136,-0.00000035,-0.00000028,0.00000110,0.0000
 0094,0.00000110,-0.00000008,-0.00000548,0.00000039,0.00000853,0.000000
 26,0.00000129,-0.00000284,-0.00000067,0.00000105,-0.00000306,0.0000006
 3,-0.00000177,-0.00000086,-0.00001325,0.00000182,0.00000606,0.00000916
 ,0.00000085,0.00000116,-0.00000193,-0.00000053,-0.00000273,-0.00000173
 ,-0.00000198,-0.00000188,0.00000069,0.00000013,-0.00000009,0.00000300,
 -0.00000157,-0.00000405,-0.00000058,-0.00000128,0.00000047,0.00000076,
 0.00000004,0.00000093,0.00000025,-0.00000049,0.00000086,0.00000382,-0.
 00000893,0.00000204,0.00000042,-0.00000033,-0.00000026,-0.00000204,0.0
 0000169,-0.00000275,0.00000018,-0.00000055,-0.00000173,-0.00000135,0.0
 0000216,0.00000227,-0.00000139,0.00000007,0.00000254,0.00000101,0.0000
 0120,-0.00000094,-0.00000235,0.00000226,-0.00000093,-0.00000040,0.0000
 0183,-0.00000259,0.00000023,-0.00000012,-0.00000050,-0.00000482,0.0000
 0030,0.00000765,-0.00000459,-0.00000083,-0.00000284,0.,-0.00000317,0.0
 0000502,-0.00000102,-0.00000172,0.00000037,-0.00000176,0.00000069,0.00
 000112,-0.00000096,0.00000044,-0.00000005,0.00000193,-0.00000115,-0.00
 000056,0.00000006,0.00000042,-0.00000168,0.00000094,-0.00000281,-0.000
 00196,0.00000345,0.00000243,0.00000126,-0.00000210,-0.00000209,-0.0000
 0609,0.00000684,0.00000134,0.00000638,-0.00000028,-0.00000033,-0.00000
 044,-0.00000160,-0.00000190,-0.00000210,0.00000085,0.00000160,-0.00000
 059,-0.00000094,-0.00000010,-0.00000070,0.00000153,-0.00000111,0.00000
 011,0.00000041,-0.00000019,-0.00000079,0.00000197,-0.00000076,-0.00000
 057\\\@


 LIFE CAN ONLY BE UNDERSTOOD BACKWARD, BUT MUST
 BE LIVED FORWARD. -- KIRKEGAARD
 Job cpu time:       0 days  9 hours 40 minutes 36.6 seconds.
 Elapsed time:       0 days  0 hours 11 minutes 16.7 seconds.
 File lengths (MBytes):  RWF=   4416 Int=      0 D2E=      0 Chk=    119 Scr=      1
 Normal termination of Gaussian 16 at Sun Oct 31 12:52:26 2021.
