 Entering Gaussian System, Link 0=/uufs/chpc.utah.edu/sys/installdir/gaussian16/B01/E6B/g16/g16
 Input=SSSS-Ph-BIBOP_1_SPE_NoPd.com
 Output=SSSS-Ph-BIBOP_1_SPE_NoPd.log
 Initial command:
 /uufs/chpc.utah.edu/sys/installdir/gaussian16/B01/E6B/g16/l1.exe "/scratch/general/lustre/u1010977/3356311/notchpeak.peaks/Gau-21749.inp" -scrdir="/scratch/general/lustre/u1010977/3356311/notchpeak.peaks/"
 Entering Link 1 = /uufs/chpc.utah.edu/sys/installdir/gaussian16/B01/E6B/g16/l1.exe PID=     21751.
  
 Copyright (c) 1988-2017, Gaussian, Inc.  All Rights Reserved.
  
 This is part of the Gaussian(R) 16 program.  It is based on
 the Gaussian(R) 09 system (copyright 2009, Gaussian, Inc.),
 the Gaussian(R) 03 system (copyright 2003, Gaussian, Inc.),
 the Gaussian(R) 98 system (copyright 1998, Gaussian, Inc.),
 the Gaussian(R) 94 system (copyright 1995, Gaussian, Inc.),
 the Gaussian 92(TM) system (copyright 1992, Gaussian, Inc.),
 the Gaussian 90(TM) system (copyright 1990, Gaussian, Inc.),
 the Gaussian 88(TM) system (copyright 1988, Gaussian, Inc.),
 the Gaussian 86(TM) system (copyright 1986, Carnegie Mellon
 University), and the Gaussian 82(TM) system (copyright 1983,
 Carnegie Mellon University). Gaussian is a federally registered
 trademark of Gaussian, Inc.
  
 This software contains proprietary and confidential information,
 including trade secrets, belonging to Gaussian, Inc.
  
 This software is provided under written license and may be
 used, copied, transmitted, or stored only in accord with that
 written license.
  
 The following legend is applicable only to US Government
 contracts under FAR:
  
                    RESTRICTED RIGHTS LEGEND
  
 Use, reproduction and disclosure by the US Government is
 subject to restrictions as set forth in subparagraphs (a)
 and (c) of the Commercial Computer Software - Restricted
 Rights clause in FAR 52.227-19.
  
 Gaussian, Inc.
 340 Quinnipiac St., Bldg. 40, Wallingford CT 06492
  
  
 ---------------------------------------------------------------
 Warning -- This program may not be used in any manner that
 competes with the business of Gaussian, Inc. or will provide
 assistance to any competitor of Gaussian, Inc.  The licensee
 of this program is prohibited from giving any competitor of
 Gaussian, Inc. access to this program.  By using this program,
 the user acknowledges that Gaussian, Inc. is engaged in the
 business of creating and licensing software in the field of
 computational chemistry and represents and warrants to the
 licensee that it is not a competitor of Gaussian, Inc. and that
 it will not use this program in any manner prohibited above.
 ---------------------------------------------------------------
  

 Cite this work as:
 Gaussian 16, Revision B.01,
 M. J. Frisch, G. W. Trucks, H. B. Schlegel, G. E. Scuseria, 
 M. A. Robb, J. R. Cheeseman, G. Scalmani, V. Barone, 
 G. A. Petersson, H. Nakatsuji, X. Li, M. Caricato, A. V. Marenich, 
 J. Bloino, B. G. Janesko, R. Gomperts, B. Mennucci, H. P. Hratchian, 
 J. V. Ortiz, A. F. Izmaylov, J. L. Sonnenberg, D. Williams-Young, 
 F. Ding, F. Lipparini, F. Egidi, J. Goings, B. Peng, A. Petrone, 
 T. Henderson, D. Ranasinghe, V. G. Zakrzewski, J. Gao, N. Rega, 
 G. Zheng, W. Liang, M. Hada, M. Ehara, K. Toyota, R. Fukuda, 
 J. Hasegawa, M. Ishida, T. Nakajima, Y. Honda, O. Kitao, H. Nakai, 
 T. Vreven, K. Throssell, J. A. Montgomery, Jr., J. E. Peralta, 
 F. Ogliaro, M. J. Bearpark, J. J. Heyd, E. N. Brothers, K. N. Kudin, 
 V. N. Staroverov, T. A. Keith, R. Kobayashi, J. Normand, 
 K. Raghavachari, A. P. Rendell, J. C. Burant, S. S. Iyengar, 
 J. Tomasi, M. Cossi, J. M. Millam, M. Klene, C. Adamo, R. Cammi, 
 J. W. Ochterski, R. L. Martin, K. Morokuma, O. Farkas, 
 J. B. Foresman, and D. J. Fox, Gaussian, Inc., Wallingford CT, 2016.
 
 ******************************************
 Gaussian 16:  ES64L-G16RevB.01 20-Dec-2017
                 2-Nov-2021 
 ******************************************
 %NProcShared=32
 Will use up to   32 processors via shared memory.
 %mem=18GB
 %chk=SSSS-Ph-BIBOP_1_SPE_NoPd.chk
 ----------------------------------------------------------------------
 # PBE1PBE/def2TZVP int=(grid=ultrafine) empiricaldispersion=GD3BJ nmr=
 giao
 ----------------------------------------------------------------------
 1/38=1,172=1/1;
 2/12=2,17=6,18=5,40=1/2;
 3/5=44,7=101,11=2,25=1,30=1,74=-13,75=-5,124=41/1,2,3,8;
 4//1;
 5/5=2,38=5/2;
 8/6=1,10=90,11=11/1;
 10/13=100,45=16/2;
 6/7=2,8=2,9=2,10=2,28=1/1;
 99/9=1/99;
 -----
 title
 -----
 Symbolic Z-matrix:
 Charge =  0 Multiplicity = 1
 P                     11.21959  -5.98725   7.26377 
 P                     13.2395  -3.8239    6.2665 
 O                     10.5045  -6.40051   4.69325 
 O                     11.79572  -3.62771   3.99346 
 C                     11.5778  -7.59569   6.46831 
 C                     12.13311  -8.78798   6.99096 
 C                     12.05539  -9.95125   6.19518 
 H                     12.49727  -10.87575   6.57822 
 C                     11.47442  -9.92498   4.91976 
 H                     11.44233  -10.84202   4.32289 
 C                     10.96338  -8.73829   4.37805 
 H                     10.52729  -8.69466   3.37674 
 C                     11.02646  -7.58388   5.16526 
 C                     10.9165  -5.29868   5.53304 
 H                     10.09728  -4.56188   5.53261 
 C                     12.18022  -4.64945   4.94067 
 H                     12.75254  -5.41107   4.38715 
 C                     11.75749  -2.39571   4.60691 
 C                     11.17674  -1.30604   3.94989 
 H                     10.72656  -1.43876   2.96276 
 C                     11.19741  -0.06591   4.60143 
 H                     10.74513   0.80242   4.11185 
 C                     11.75471   0.07478   5.87993 
 H                     11.71256   1.03943   6.39406 
 C                     12.33232  -1.0226    6.55418 
 C                     12.35565  -2.26834   5.88287 
 C                     9.50282  -6.16571   8.0572 
 C                     9.16658  -4.79315   8.66889 
 H                     8.16294  -4.84245   9.1292 
 H                     9.14174  -3.99554   7.90334 
 H                     9.89763  -4.52045   9.44751 
 C                     8.44772  -6.57073   7.01154 
 H                     8.68985  -7.53216   6.52972 
 H                     8.30362  -5.81073   6.22605 
 H                     7.48255  -6.69328   7.53615 
 C                     9.59727  -7.25792   9.13993 
 H                     8.62139  -7.32216   9.65554 
 H                     10.37437  -7.02627   9.88455 
 H                     9.80991  -8.24382   8.69314 
 C                     14.97126  -3.6439    5.50672 
 C                     15.67567  -2.47144   6.21617 
 H                     15.71631  -2.62095   7.30612 
 H                     16.70927  -2.40142   5.83007 
 H                     15.1689  -1.51509   6.00309 
 C                     14.88729  -3.35326   3.99703 
 H                     15.91847  -3.22408   3.62048 
 H                     14.33559  -2.42293   3.78438 
 H                     14.42573  -4.17409   3.42382 
 C                     15.69604  -4.97742   5.76659 
 H                     15.17077  -5.83029   5.298 
 H                     15.79416  -5.16686   6.84804 
 H                     16.70764  -4.9273    5.32413 
 C                     14.12846  -8.93532   10.796 
 C                     13.14071  -9.88252   10.48347 
 C                     12.48867  -9.83768   9.24601 
 C                     12.81298  -8.83609   8.30737 
 C                     13.81922  -7.90288   8.6262 
 C                     14.46728  -7.94494   9.86545 
 H                     14.62382  -8.96236   11.77178 
 H                     12.86644  -10.65169   11.21296 
 H                     11.69979  -10.56046   9.00986 
 H                     14.10124  -7.13651   7.89489 
 H                     15.2099  -7.1773    10.10181 
 C                     13.81706  -0.52558   10.55792 
 C                     12.93263  -1.57096   10.26372 
 C                     12.44766  -1.72686   8.96065 
 C                     12.85307  -0.85384   7.93179 
 C                     13.73342   0.20379   8.24132 
 C                     14.2143   0.36246   9.54595 
 H                     14.2091  -0.40938   11.57333 
 H                     12.63687  -2.29383   11.02961 
 H                     11.7417  -2.53599   8.74022 
 H                     14.0618   0.88043   7.44456 
 H                     14.91367   1.17447   9.7707 
 
 Stoichiometry    C34H36O2P2
 Framework group  C1[X(C34H36O2P2)]
 Deg. of freedom   216
 Full point group                 C1      NOp   1
 Largest Abelian subgroup         C1      NOp   1
 Largest concise Abelian subgroup C1      NOp   1
                         Standard orientation:                         
 ---------------------------------------------------------------------
 Center     Atomic      Atomic             Coordinates (Angstroms)
 Number     Number       Type             X           Y           Z
 ---------------------------------------------------------------------
      1         15           0       -1.280067   -0.213722   -0.894317
      2         15           0        1.280198   -0.213872    0.894466
      3          8           0       -1.502998   -2.867454   -0.449632
      4          8           0        1.503237   -2.867498    0.449203
      5          6           0       -2.707253   -0.859877    0.051072
      6          6           0       -3.847167   -0.205860    0.576388
      7          6           0       -4.907968   -1.011364    1.043671
      8          1           0       -5.787467   -0.519928    1.469871
      9          6           0       -4.828173   -2.410572    1.016135
     10          1           0       -5.663267   -3.005903    1.398814
     11          6           0       -3.684431   -3.064215    0.539193
     12          1           0       -3.596022   -4.153627    0.531127
     13          6           0       -2.633673   -2.272852    0.063820
     14          6           0       -0.453812   -1.888357   -0.621650
     15          1           0        0.136881   -2.191738   -1.500873
     16          6           0        0.454009   -1.888482    0.621434
     17          1           0       -0.136668   -2.192086    1.500590
     18          6           0        2.633857   -2.272733   -0.064184
     19          6           0        3.684612   -3.063934   -0.539830
     20          1           0        3.596264   -4.153352   -0.531993
     21          6           0        4.828264   -2.410122   -1.016758
     22          1           0        5.663347   -3.005324   -1.399664
     23          6           0        4.907962   -1.010902   -1.044037
     24          1           0        5.787370   -0.519323   -1.470258
     25          6           0        3.847158   -0.205563   -0.576475
     26          6           0        2.707357   -0.859758   -0.051146
     27          6           0       -1.822424   -0.195073   -2.714803
     28          6           0       -0.601694    0.282642   -3.522721
     29          1           0       -0.864418    0.292568   -4.596265
     30          1           0        0.264614   -0.393489   -3.399334
     31          1           0       -0.306928    1.301717   -3.223321
     32          6           0       -2.268101   -1.595058   -3.175330
     33          1           0       -3.115949   -1.975692   -2.582555
     34          1           0       -1.455512   -2.339432   -3.144090
     35          1           0       -2.603871   -1.513800   -4.225310
     36          6           0       -3.002980    0.786786   -2.842922
     37          1           0       -3.282272    0.857864   -3.910280
     38          1           0       -2.737123    1.791874   -2.480822
     39          1           0       -3.883603    0.425129   -2.285658
     40          6           0        1.822593   -0.195663    2.714946
     41          6           0        3.003039    0.786292    2.843329
     42          1           0        2.737076    1.791447    2.481493
     43          1           0        3.282316    0.857116    3.910708
     44          1           0        3.883705    0.424880    2.285977
     45          6           0        2.268434   -1.595734    3.175051
     46          1           0        2.604200   -1.514756    4.225055
     47          1           0        3.116322   -1.976091    2.582155
     48          1           0        1.455928   -2.340189    3.143585
     49          6           0        0.601825    0.281669    3.523036
     50          1           0       -0.264407   -0.394525    3.399458
     51          1           0        0.306937    1.300804    3.223961
     52          1           0        0.864567    0.291295    4.596578
     53          6           0       -4.110743    4.072255    0.907606
     54          6           0       -5.161755    3.346552    0.325184
     55          6           0       -5.079556    1.953841    0.215252
     56          6           0       -3.937220    1.270077    0.681023
     57          6           0       -2.897667    2.008482    1.280325
     58          6           0       -2.977995    3.401317    1.385434
     59          1           0       -4.170418    5.163146    0.975779
     60          1           0       -6.044060    3.869297   -0.058585
     61          1           0       -5.887470    1.387910   -0.261715
     62          1           0       -2.016652    1.487114    1.672309
     63          1           0       -2.133560    3.950460    1.812028
     64          6           0        4.110227    4.072627   -0.907105
     65          6           0        2.977447    3.401644   -1.384795
     66          6           0        2.897290    2.008785   -1.279886
     67          6           0        3.937050    1.270400   -0.680917
     68          6           0        5.079409    1.954211   -0.215275
     69          6           0        5.161439    3.346948   -0.325014
     70          1           0        4.169769    5.163535   -0.975124
     71          1           0        2.132862    3.950765   -1.811117
     72          1           0        2.016232    1.487387   -1.671734
     73          1           0        5.887482    1.388292    0.261438
     74          1           0        6.043767    3.869729    0.058654
 ---------------------------------------------------------------------
 Rotational constants (GHZ):           0.1345724           0.0713921           0.0628859
 Standard basis: def2TZVP (5D, 7F)
 There are  1596 symmetry adapted cartesian basis functions of A   symmetry.
 There are  1406 symmetry adapted basis functions of A   symmetry.
  1406 basis functions,  2262 primitive gaussians,  1596 cartesian basis functions
   143 alpha electrons      143 beta electrons
       nuclear repulsion energy      4780.9266501842 Hartrees.
 NAtoms=   74 NActive=   74 NUniq=   74 SFac= 1.00D+00 NAtFMM=   60 NAOKFM=T Big=T
 Integral buffers will be    131072 words long.
 Raffenetti 2 integral format.
 Two-electron integral symmetry is turned on.
 Nuclear repulsion after empirical dispersion term =     4780.8168119252 Hartrees.
 One-electron integrals computed using PRISM.
   1 Symmetry operations used in ECPInt.
 ECPInt:  NShTT=  160461 NPrTT=  491517 LenC2=  127461 LenP2D=  259535.
 LDataN:  DoStor=T MaxTD1= 6 Len=  172
 Number of processors reduced to  26 by ecpmxn.
 NBasis=  1406 RedAO= T EigKep=  6.18D-06  NBF=  1406
 NBsUse=  1406 1.00D-06 EigRej= -1.00D+00 NBFU=  1406
 ExpMin= 9.04D-02 ExpMax= 5.24D+04 ExpMxC= 1.79D+03 IAcc=3 IRadAn=         5 AccDes= 0.00D+00
 Harris functional with IExCor= 1009 and IRadAn=       5 diagonalized for initial guess.
 HarFok:  IExCor= 1009 AccDes= 0.00D+00 IRadAn=         5 IDoV= 1 UseB2=F ITyADJ=14
 ICtDFT=  3500011 ScaDFX=  1.000000  1.000000  1.000000  1.000000
 FoFCou: FMM=F IPFlag=           0 FMFlag=      100000 FMFlg1=        2001
         NFxFlg=           0 DoJE=T BraDBF=F KetDBF=T FulRan=T
         wScrn=  0.000000 ICntrl=       500 IOpCl=  0 I1Cent=   200000004 NGrid=           0
         NMat0=    1 NMatS0=      1 NMatT0=    0 NMatD0=    1 NMtDS0=    0 NMtDT0=    0
 Petite list used in FoFCou.
 Requested convergence on RMS density matrix=1.00D-08 within 128 cycles.
 Requested convergence on MAX density matrix=1.00D-06.
 Requested convergence on             energy=1.00D-06.
 No special actions if energy rises.
 Integral accuracy reduced to 1.0D-05 until final iterations.
 Problem detected with inexpensive integrals.
 Switching to full accuracy and repeating last cycle.
 SCF Done:  E(RPBE1PBE) =  -2149.10503682     A.U. after   14 cycles
            NFock= 14  Conv=0.59D-08     -V/T= 2.0047
 DoSCS=F DFT=T ScalE2(SS,OS)=  1.000000  1.000000
 Range of M.O.s used for correlation:     1  1406
 NBasis=  1406 NAE=   143 NBE=   143 NFC=     0 NFV=     0
 NROrb=   1406 NOA=   143 NOB=   143 NVA=  1263 NVB=  1263

 **** Warning!!: The largest alpha MO coefficient is  0.46128652D+02

          Differentiating once with respect to magnetic field using GIAOs.
          Electric field/nuclear overlap derivatives assumed to be zero.
 FoFCou: FMM=F IPFlag=           0 FMFlag=      100000 FMFlg1=        2001
         NFxFlg=           0 DoJE=F BraDBF=F KetDBF=T FulRan=T
         wScrn=  0.000000 ICntrl=      6100 IOpCl=  0 I1Cent=           7 NGrid=          74
         NMat0=    1 NMatS0=      1 NMatT0=    0 NMatD0=    1 NMtDS0=    0 NMtDT0=    0
 Symmetry not used in FoFCou.
   1 Symmetry operations used in ECPInt.
 ECPInt:  NShTT=  160461 NPrTT=  491517 LenC2=  160462 LenP2D=  491517.
 LDataN:  DoStor=T MaxTD1= 7 Len=  274
 Number of processors reduced to  17 by ecpmxn.
 FoFJK:  IHMeth= 1 ICntrl=    6127 DoSepK=F KAlg= 0 I1Cent=           0 FoldK=F
 IRaf=         1 NMat=       1 IRICut=       1 DoRegI=T DoRafI=F ISym2E= 0 IDoP0=0 IntGTp=1.
          There are     3 degrees of freedom in the 1st order CPHF.  IDoFFX=0 NUNeed=     3.
      3 vectors produced by pass  0 Test12= 6.02D-12 3.33D-08 XBig12= 2.76D+02 3.80D+00.
 AX will form     3 AO Fock derivatives at one time.
      3 vectors produced by pass  1 Test12= 6.02D-12 3.33D-08 XBig12= 1.38D+00 3.33D-01.
      3 vectors produced by pass  2 Test12= 6.02D-12 3.33D-08 XBig12= 6.17D-03 1.20D-02.
      3 vectors produced by pass  3 Test12= 6.02D-12 3.33D-08 XBig12= 1.60D-05 8.35D-04.
      3 vectors produced by pass  4 Test12= 6.02D-12 3.33D-08 XBig12= 8.38D-08 8.15D-05.
      3 vectors produced by pass  5 Test12= 6.02D-12 3.33D-08 XBig12= 4.48D-10 4.50D-06.
      3 vectors produced by pass  6 Test12= 6.02D-12 3.33D-08 XBig12= 1.63D-12 2.67D-07.
 InvSVY:  IOpt=1 It=  1 EMax= 7.11D-15
 Solved reduced A of dimension    21 with     3 vectors.
 Calculating GIAO nuclear magnetic shielding tensors.
 SCF GIAO Magnetic shielding tensor (ppm):
      1  P    Isotropic =   272.7876   Anisotropy =   111.0895
   XX=   313.5817   YX=   -15.8199   ZX=    55.9835
   XY=     2.5271   YY=   253.3948   ZY=    93.9173
   XZ=    49.4726   YZ=    -6.6728   ZZ=   251.3862
   Eigenvalues:   192.5972   278.9182   346.8473
      2  P    Isotropic =   272.7901   Anisotropy =   111.1099
   XX=   313.5933   YX=    15.8079   ZX=    55.9987
   XY=    -2.5371   YY=   253.4153   ZY=   -93.9209
   XZ=    49.4815   YZ=     6.6711   ZZ=   251.3616
   Eigenvalues:   192.5878   278.9192   346.8633
      3  O    Isotropic =   148.8980   Anisotropy =    90.0940
   XX=   134.6264   YX=   -13.5004   ZX=     7.4464
   XY=   -53.4804   YY=   126.5811   ZY=    -1.4038
   XZ=   -49.9005   YZ=    50.7369   ZZ=   185.4865
   Eigenvalues:    96.6133   141.1200   208.9607
      4  O    Isotropic =   148.8968   Anisotropy =    90.0962
   XX=   134.6207   YX=    13.4953   ZX=     7.4531
   XY=    53.4907   YY=   126.5919   ZY=     1.3881
   XZ=   -49.8813   YZ=   -50.7603   ZZ=   185.4777
   Eigenvalues:    96.6119   141.1175   208.9609
      5  C    Isotropic =    58.4823   Anisotropy =   135.7222
   XX=    32.6006   YX=    -2.3311   ZX=    72.5719
   XY=   -14.8780   YY=    29.6974   ZY=    11.3598
   XZ=    55.5725   YZ=    14.0545   ZZ=   113.1487
   Eigenvalues:    -7.8301    34.3131   148.9638
      6  C    Isotropic =    29.0275   Anisotropy =   192.2278
   XX=    31.6494   YX=     8.0524   ZX=    60.1234
   XY=     8.6111   YY=   -60.4438   ZY=    -8.1526
   XZ=    83.7250   YZ=     7.5647   ZZ=   115.8769
   Eigenvalues:   -61.5592    -8.5376   157.1793
      7  C    Isotropic =    57.4442   Anisotropy =   157.0435
   XX=    12.4626   YX=    33.8575   ZX=    72.0759
   XY=    32.1642   YY=    36.8725   ZY=   -15.8578
   XZ=    79.4680   YZ=     1.6702   ZZ=   122.9974
   Eigenvalues:   -39.9860    50.1788   162.1398
      8  H    Isotropic =    24.1945   Anisotropy =     8.0166
   XX=    24.3672   YX=     2.3307   ZX=    -0.9105
   XY=     1.9927   YY=    27.1094   ZY=    -1.0899
   XZ=    -3.4225   YZ=    -3.8759   ZZ=    21.1068
   Eigenvalues:    19.7504    23.2942    29.5388
      9  C    Isotropic =    47.9724   Anisotropy =   185.3624
   XX=     4.9193   YX=   -38.5232   ZX=    75.0707
   XY=   -42.5795   YY=     1.2255   ZY=    21.4734
   XZ=    74.9562   YZ=    13.2214   ZZ=   137.7723
   Eigenvalues:   -60.4060    32.7758   171.5473
     10  H    Isotropic =    23.7551   Anisotropy =     4.0941
   XX=    24.9623   YX=    -0.6662   ZX=    -1.6340
   XY=    -1.1248   YY=    25.6264   ZY=     0.4196
   XZ=    -1.6226   YZ=    -0.0140   ZZ=    20.6765
   Eigenvalues:    20.1264    24.6543    26.4845
     11  C    Isotropic =    69.5552   Anisotropy =   149.7104
   XX=    74.0031   YX=     7.0813   ZX=    40.5727
   XY=     2.3857   YY=   -17.6164   ZY=     2.1108
   XZ=    40.0230   YZ=     0.2203   ZZ=   152.2790
   Eigenvalues:   -17.8658    57.1693   169.3622
     12  H    Isotropic =    24.1575   Anisotropy =     6.7856
   XX=    26.9043   YX=     1.6655   ZX=    -2.5629
   XY=     1.4228   YY=    24.6035   ZY=    -0.8710
   XZ=    -2.6540   YZ=    -1.1181   ZZ=    20.9648
   Eigenvalues:    19.9468    23.8445    28.6813
     13  C    Isotropic =    12.3741   Anisotropy =   121.8320
   XX=   -28.6455   YX=    31.2710   ZX=    52.7496
   XY=    49.7931   YY=     1.9768   ZY=   -21.3940
   XZ=    65.3069   YZ=     2.4172   ZZ=    63.7910
   Eigenvalues:   -78.1037    21.6306    93.5955
     14  C    Isotropic =    92.6324   Anisotropy =    55.5645
   XX=   114.2591   YX=    13.0242   ZX=     2.0031
   XY=    24.1938   YY=   105.6070   ZY=    -4.9992
   XZ=    23.9075   YZ=    -6.5234   ZZ=    58.0312
   Eigenvalues:    53.2582    94.9637   129.6754
     15  H    Isotropic =    26.4149   Anisotropy =     7.2368
   XX=    30.3988   YX=    -0.6044   ZX=     0.9701
   XY=     0.5317   YY=    24.1381   ZY=    -0.5203
   XZ=     3.7142   YZ=     1.1360   ZZ=    24.7078
   Eigenvalues:    23.6719    24.3334    31.2394
     16  C    Isotropic =    92.6303   Anisotropy =    55.5642
   XX=   114.2605   YX=   -13.0232   ZX=     1.9968
   XY=   -24.1974   YY=   105.6006   ZY=     5.0100
   XZ=    23.9020   YZ=     6.5358   ZZ=    58.0298
   Eigenvalues:    53.2552    94.9626   129.6731
     17  H    Isotropic =    26.4149   Anisotropy =     7.2364
   XX=    30.3984   YX=     0.6044   ZX=     0.9700
   XY=    -0.5322   YY=    24.1383   ZY=     0.5202
   XZ=     3.7142   YZ=    -1.1358   ZZ=    24.7079
   Eigenvalues:    23.6721    24.3335    31.2391
     18  C    Isotropic =    12.3742   Anisotropy =   121.8340
   XX=   -28.6337   YX=   -31.2867   ZX=    52.7478
   XY=   -49.8076   YY=     1.9685   ZY=    21.3848
   XZ=    65.3026   YZ=    -2.4319   ZZ=    63.7878
   Eigenvalues:   -78.1034    21.6291    93.5968
     19  C    Isotropic =    69.5552   Anisotropy =   149.7104
   XX=    74.0115   YX=    -7.0883   ZX=    40.5793
   XY=    -2.3899   YY=   -17.6164   ZY=    -2.1449
   XZ=    40.0298   YZ=    -0.2595   ZZ=   152.2704
   Eigenvalues:   -17.8659    57.1693   169.3621
     20  H    Isotropic =    24.1575   Anisotropy =     6.7856
   XX=    26.9039   YX=    -1.6648   ZX=    -2.5637
   XY=    -1.4222   YY=    24.6029   ZY=     0.8716
   XZ=    -2.6550   YZ=     1.1188   ZZ=    20.9658
   Eigenvalues:    19.9470    23.8444    28.6813
     21  C    Isotropic =    47.9720   Anisotropy =   185.3628
   XX=     4.9327   YX=    38.5056   ZX=    75.0956
   XY=    42.5615   YY=     1.2374   ZY=   -21.5016
   XZ=    74.9840   YZ=   -13.2501   ZZ=   137.7459
   Eigenvalues:   -60.4061    32.7749   171.5472
     22  H    Isotropic =    23.7551   Anisotropy =     4.0942
   XX=    24.9620   YX=     0.6664   ZX=    -1.6341
   XY=     1.1250   YY=    25.6265   ZY=    -0.4190
   XZ=    -1.6227   YZ=     0.0147   ZZ=    20.6766
   Eigenvalues:    20.1264    24.6543    26.4845
     23  C    Isotropic =    57.4445   Anisotropy =   157.0445
   XX=    12.4894   YX=   -33.8716   ZX=    72.0809
   XY=   -32.1786   YY=    36.8649   ZY=    15.8504
   XZ=    79.4818   YZ=    -1.6766   ZZ=   122.9791
   Eigenvalues:   -39.9852    50.1778   162.1408
     24  H    Isotropic =    24.1944   Anisotropy =     8.0164
   XX=    24.3671   YX=    -2.3298   ZX=    -0.9111
   XY=    -1.9922   YY=    27.1083   ZY=     1.0911
   XZ=    -3.4236   YZ=     3.8769   ZZ=    21.1079
   Eigenvalues:    19.7502    23.2944    29.5387
     25  C    Isotropic =    29.0274   Anisotropy =   192.2276
   XX=    31.6690   YX=    -8.0543   ZX=    60.1320
   XY=    -8.6146   YY=   -60.4452   ZY=     8.1312
   XZ=    83.7352   YZ=    -7.5847   ZZ=   115.8584
   Eigenvalues:   -61.5589    -8.5380   157.1791
     26  C    Isotropic =    58.4836   Anisotropy =   135.7208
   XX=    32.6115   YX=     2.3206   ZX=    72.5829
   XY=    14.8678   YY=    29.7044   ZY=   -11.3733
   XZ=    55.5782   YZ=   -14.0602   ZZ=   113.1348
   Eigenvalues:    -7.8287    34.3153   148.9641
     27  C    Isotropic =   147.2772   Anisotropy =    16.4666
   XX=   148.1907   YX=    -7.7813   ZX=     2.2874
   XY=    -2.1212   YY=   135.6829   ZY=     2.7717
   XZ=    -5.4441   YZ=    -2.3302   ZZ=   157.9581
   Eigenvalues:   133.9562   149.6205   158.2550
     28  C    Isotropic =   157.3860   Anisotropy =    38.4077
   XX=   166.4090   YX=    13.6000   ZX=   -12.3955
   XY=    13.7001   YY=   147.6552   ZY=    -2.9259
   XZ=   -16.2816   YZ=    -8.1787   ZZ=   158.0937
   Eigenvalues:   140.1867   148.9802   182.9911
     29  H    Isotropic =    30.7627   Anisotropy =    10.4884
   XX=    28.0094   YX=     0.3729   ZX=    -1.4704
   XY=     0.6633   YY=    26.8757   ZY=    -1.4829
   XZ=    -0.6058   YZ=    -1.6435   ZZ=    37.4030
   Eigenvalues:    26.5506    27.9825    37.7549
     30  H    Isotropic =    30.5373   Anisotropy =     6.9846
   XX=    34.4899   YX=    -2.9662   ZX=    -0.7079
   XY=    -1.6418   YY=    27.1261   ZY=    -1.1073
   XZ=    -0.8159   YZ=    -0.8497   ZZ=    29.9959
   Eigenvalues:    26.1208    30.2974    35.1937
     31  H    Isotropic =    30.2658   Anisotropy =     7.8793
   XX=    30.3289   YX=     4.1587   ZX=     0.3911
   XY=     3.5919   YY=    32.4452   ZY=    -0.3256
   XZ=    -0.4488   YZ=    -1.9530   ZZ=    28.0235
   Eigenvalues:    26.9230    28.3558    35.5187
     32  C    Isotropic =   158.5936   Anisotropy =    37.9543
   XX=   146.5798   YX=     6.8977   ZX=     8.7498
   XY=     7.6108   YY=   178.8498   ZY=     8.2455
   XZ=     3.5939   YZ=    11.1057   ZZ=   150.3512
   Eigenvalues:   142.0118   149.8726   183.8964
     33  H    Isotropic =    30.7790   Anisotropy =     4.4661
   XX=    29.6647   YX=     3.8869   ZX=     1.1058
   XY=     4.3073   YY=    29.5061   ZY=    -1.3800
   XZ=    -1.0966   YZ=     0.7802   ZZ=    33.1661
   Eigenvalues:    25.4814    33.0991    33.7564
     34  H    Isotropic =    30.4487   Anisotropy =     6.5509
   XX=    27.7554   YX=    -2.3028   ZX=     1.8815
   XY=    -3.5639   YY=    32.9416   ZY=     1.3869
   XZ=     0.4331   YZ=     2.8044   ZZ=    30.6492
   Eigenvalues:    25.6602    30.8700    34.8160
     35  H    Isotropic =    31.0732   Anisotropy =    11.4899
   XX=    27.9142   YX=     0.8019   ZX=     4.4668
   XY=     1.5049   YY=    29.1054   ZY=     3.2793
   XZ=     3.1961   YZ=     2.5910   ZZ=    36.2000
   Eigenvalues:    26.4140    28.0724    38.7331
     36  C    Isotropic =   159.6975   Anisotropy =    37.5051
   XX=   167.4517   YX=   -21.3630   ZX=     0.5643
   XY=   -17.5239   YY=   162.7600   ZY=     1.0909
   XZ=     2.6892   YZ=     0.7158   ZZ=   148.8809
   Eigenvalues:   144.7702   149.6214   184.7009
     37  H    Isotropic =    31.2113   Anisotropy =    10.5062
   XX=    30.2152   YX=    -2.9405   ZX=     4.0496
   XY=    -2.3329   YY=    28.2511   ZY=    -2.6097
   XZ=     3.2220   YZ=    -2.1191   ZZ=    35.1676
   Eigenvalues:    26.4163    29.0022    38.2154
     38  H    Isotropic =    31.1914   Anisotropy =     7.5675
   XX=    28.0764   YX=    -4.1594   ZX=    -1.2687
   XY=    -1.2522   YY=    34.7939   ZY=     1.2426
   XZ=    -1.2910   YZ=     1.3190   ZZ=    30.7041
   Eigenvalues:    26.9455    30.3923    36.2365
     39  H    Isotropic =    31.0681   Anisotropy =     7.6426
   XX=    34.2369   YX=    -3.3159   ZX=    -2.5147
   XY=    -2.0527   YY=    26.4234   ZY=    -0.6562
   XZ=    -2.0992   YZ=    -1.2407   ZZ=    32.5439
   Eigenvalues:    25.2260    31.8151    36.1631
     40  C    Isotropic =   147.2785   Anisotropy =    16.4644
   XX=   148.1926   YX=     7.7816   ZX=     2.2912
   XY=     2.1227   YY=   135.6849   ZY=    -2.7765
   XZ=    -5.4436   YZ=     2.3225   ZZ=   157.9579
   Eigenvalues:   133.9578   149.6229   158.2548
     41  C    Isotropic =   159.6994   Anisotropy =    37.5055
   XX=   167.4492   YX=    21.3631   ZX=     0.5730
   XY=    17.5238   YY=   162.7671   ZY=    -1.0862
   XZ=     2.6961   YZ=    -0.7103   ZZ=   148.8818
   Eigenvalues:   144.7718   149.6233   184.7030
     42  H    Isotropic =    31.1912   Anisotropy =     7.5669
   XX=    28.0751   YX=     4.1583   ZX=    -1.2660
   XY=     1.2515   YY=    34.7953   ZY=    -1.2414
   XZ=    -1.2896   YZ=    -1.3176   ZZ=    30.7031
   Eigenvalues:    26.9457    30.3921    36.2357
     43  H    Isotropic =    31.2112   Anisotropy =    10.5066
   XX=    30.2147   YX=     2.9395   ZX=     4.0507
   XY=     2.3322   YY=    28.2503   ZY=     2.6086
   XZ=     3.2225   YZ=     2.1178   ZZ=    35.1686
   Eigenvalues:    26.4163    29.0016    38.2156
     44  H    Isotropic =    31.0682   Anisotropy =     7.6418
   XX=    34.2370   YX=     3.3164   ZX=    -2.5131
   XY=     2.0539   YY=    26.4237   ZY=     0.6548
   XZ=    -2.0984   YZ=     1.2390   ZZ=    32.5439
   Eigenvalues:    25.2266    31.8152    36.1627
     45  C    Isotropic =   158.5925   Anisotropy =    37.9538
   XX=   146.5809   YX=    -6.9032   ZX=     8.7495
   XY=    -7.6164   YY=   178.8524   ZY=    -8.2358
   XZ=     3.5918   YZ=   -11.0969   ZZ=   150.3441
   Eigenvalues:   142.0111   149.8713   183.8950
     46  H    Isotropic =    31.0731   Anisotropy =    11.4900
   XX=    27.9145   YX=    -0.8036   ZX=     4.4674
   XY=    -1.5061   YY=    29.1067   ZY=    -3.2808
   XZ=     3.1960   YZ=    -2.5926   ZZ=    36.1980
   Eigenvalues:    26.4139    28.0723    38.7331
     47  H    Isotropic =    30.7788   Anisotropy =     4.4661
   XX=    29.6655   YX=    -3.8872   ZX=     1.1051
   XY=    -4.3069   YY=    29.5046   ZY=     1.3796
   XZ=    -1.0976   YZ=    -0.7808   ZZ=    33.1663
   Eigenvalues:    25.4811    33.0991    33.7562
     48  H    Isotropic =    30.4485   Anisotropy =     6.5502
   XX=    27.7542   YX=     2.3015   ZX=     1.8826
   XY=     3.5630   YY=    32.9430   ZY=    -1.3857
   XZ=     0.4345   YZ=    -2.8035   ZZ=    30.6482
   Eigenvalues:    25.6599    30.8702    34.8153
     49  C    Isotropic =   157.3874   Anisotropy =    38.4080
   XX=   166.4137   YX=   -13.5936   ZX=   -12.3999
   XY=   -13.6923   YY=   147.6498   ZY=     2.9231
   XZ=   -16.2868   YZ=     8.1744   ZZ=   158.0989
   Eigenvalues:   140.1887   148.9808   182.9928
     50  H    Isotropic =    30.5373   Anisotropy =     6.9841
   XX=    34.4889   YX=     2.9672   ZX=    -0.7073
   XY=     1.6431   YY=    27.1261   ZY=     1.1067
   XZ=    -0.8160   YZ=     0.8489   ZZ=    29.9968
   Eigenvalues:    26.1206    30.2978    35.1933
     51  H    Isotropic =    30.2659   Anisotropy =     7.8794
   XX=    30.3291   YX=    -4.1593   ZX=     0.3897
   XY=    -3.5919   YY=    32.4440   ZY=     0.3271
   XZ=    -0.4504   YZ=     1.9543   ZZ=    28.0246
   Eigenvalues:    26.9230    28.3559    35.5188
     52  H    Isotropic =    30.7626   Anisotropy =    10.4886
   XX=    28.0092   YX=    -0.3724   ZX=    -1.4703
   XY=    -0.6629   YY=    26.8747   ZY=     1.4797
   XZ=    -0.6061   YZ=     1.6403   ZZ=    37.4040
   Eigenvalues:    26.5506    27.9823    37.7550
     53  C    Isotropic =    52.9485   Anisotropy =   185.8052
   XX=    64.3949   YX=     7.7477   ZX=   -53.5698
   XY=     9.7022   YY=   -56.5418   ZY=   -16.4219
   XZ=   -50.6222   YZ=   -15.1006   ZZ=   150.9922
   Eigenvalues:   -57.9410    39.9678   176.8186
     54  C    Isotropic =    51.7431   Anisotropy =   185.3246
   XX=     3.5788   YX=    42.5855   ZX=   -81.2930
   XY=    43.0914   YY=    18.9705   ZY=     6.2491
   XZ=   -87.0999   YZ=     7.9380   ZZ=   132.6799
   Eigenvalues:   -60.0159    39.9522   175.2928
     55  C    Isotropic =    50.6902   Anisotropy =   173.4148
   XX=    14.9746   YX=   -30.5003   ZX=   -82.0456
   XY=   -29.3430   YY=    21.5845   ZY=   -30.7884
   XZ=   -92.4870   YZ=   -19.7682   ZZ=   115.5117
   Eigenvalues:   -54.9452    40.7158   166.3001
     56  C    Isotropic =    35.8528   Anisotropy =   193.4059
   XX=    41.0822   YX=    10.5926   ZX=   -59.8367
   XY=    10.4612   YY=   -55.9444   ZY=   -20.7163
   XZ=   -79.7073   YZ=   -18.9221   ZZ=   122.4207
   Eigenvalues:   -58.2327     1.0011   164.7901
     57  C    Isotropic =    47.4070   Anisotropy =   178.5453
   XX=     0.7905   YX=    36.6440   ZX=   -83.3487
   XY=    33.8535   YY=    18.9183   ZY=     4.3879
   XZ=   -82.8330   YZ=    -4.4877   ZZ=   122.5122
   Eigenvalues:   -54.9237    30.7074   166.4372
     58  C    Isotropic =    51.6826   Anisotropy =   185.5283
   XX=     7.2240   YX=   -33.6820   ZX=   -82.8237
   XY=   -34.4891   YY=    15.1817   ZY=   -29.5367
   XZ=   -84.4513   YZ=   -30.6183   ZZ=   132.6420
   Eigenvalues:   -60.3576    40.0372   175.3681
     59  H    Isotropic =    23.8290   Anisotropy =     4.6548
   XX=    26.0158   YX=    -0.7738   ZX=     2.0895
   XY=    -0.6933   YY=    23.9493   ZY=     0.6273
   XZ=     2.1475   YZ=     0.5472   ZZ=    21.5219
   Eigenvalues:    20.4863    24.0685    26.9322
     60  H    Isotropic =    23.7231   Anisotropy =     4.9243
   XX=    23.9813   YX=     0.1294   ZX=     0.8893
   XY=     0.3235   YY=    26.6483   ZY=     1.3621
   XZ=     0.5930   YZ=     1.4535   ZZ=    20.5396
   Eigenvalues:    20.1123    24.0510    27.0059
     61  H    Isotropic =    23.6759   Anisotropy =     8.5616
   XX=    24.5042   YX=    -3.6412   ZX=    -0.6536
   XY=    -3.5029   YY=    26.3118   ZY=    -0.5960
   XZ=     1.3973   YZ=    -2.9479   ZZ=    20.2119
   Eigenvalues:    19.6302    22.0139    29.3837
     62  H    Isotropic =    23.2539   Anisotropy =     7.6486
   XX=    23.3849   YX=     0.3326   ZX=     0.5385
   XY=     0.0613   YY=    26.1834   ZY=     2.9699
   XZ=     1.4416   YZ=     5.2491   ZZ=    20.1934
   Eigenvalues:    17.9860    23.4228    28.3530
     63  H    Isotropic =    23.7121   Anisotropy =     7.1742
   XX=    23.6966   YX=    -2.7260   ZX=     0.9743
   XY=    -2.6591   YY=    26.9786   ZY=     0.4217
   XZ=     0.3044   YZ=     0.7093   ZZ=    20.4610
   Eigenvalues:    20.1199    22.5214    28.4949
     64  C    Isotropic =    52.9482   Anisotropy =   185.8049
   XX=    64.3749   YX=    -7.7224   ZX=   -53.5543
   XY=    -9.6782   YY=   -56.5493   ZY=    16.3867
   XZ=   -50.6063   YZ=    15.0626   ZZ=   151.0191
   Eigenvalues:   -57.9417    39.9682   176.8182
     65  C    Isotropic =    51.6828   Anisotropy =   185.5276
   XX=     7.1804   YX=    33.7012   ZX=   -82.7941
   XY=    34.5078   YY=    15.1801   ZY=    29.5021
   XZ=   -84.4212   YZ=    30.5833   ZZ=   132.6880
   Eigenvalues:   -60.3573    40.0378   175.3679
     66  C    Isotropic =    47.4058   Anisotropy =   178.5460
   XX=     0.7596   YX=   -36.6316   ZX=   -83.3260
   XY=   -33.8422   YY=    18.9100   ZY=    -4.4032
   XZ=   -82.8125   YZ=     4.4760   ZZ=   122.5478
   Eigenvalues:   -54.9233    30.7042   166.4364
     67  C    Isotropic =    35.8537   Anisotropy =   193.4029
   XX=    41.0579   YX=   -10.5704   ZX=   -59.8212
   XY=   -10.4342   YY=   -55.9510   ZY=    20.6871
   XZ=   -79.6936   YZ=    18.8922   ZZ=   122.4541
   Eigenvalues:   -58.2316     1.0037   164.7889
     68  C    Isotropic =    50.6923   Anisotropy =   173.4126
   XX=    14.9352   YX=    30.5152   ZX=   -82.0216
   XY=    29.3634   YY=    21.5855   ZY=    30.7602
   XZ=   -92.4637   YZ=    19.7403   ZZ=   115.5561
   Eigenvalues:   -54.9428    40.7189   166.3007
     69  C    Isotropic =    51.7430   Anisotropy =   185.3239
   XX=     3.5536   YX=   -42.5764   ZX=   -81.2717
   XY=   -43.0811   YY=    18.9634   ZY=    -6.2660
   XZ=   -87.0793   YZ=    -7.9560   ZZ=   132.7118
   Eigenvalues:   -60.0156    39.9522   175.2923
     70  H    Isotropic =    23.8290   Anisotropy =     4.6553
   XX=    26.0168   YX=     0.7737   ZX=     2.0889
   XY=     0.6932   YY=    23.9495   ZY=    -0.6267
   XZ=     2.1469   YZ=    -0.5468   ZZ=    21.5208
   Eigenvalues:    20.4862    24.0684    26.9326
     71  H    Isotropic =    23.7121   Anisotropy =     7.1750
   XX=    23.6968   YX=     2.7258   ZX=     0.9744
   XY=     2.6590   YY=    26.9795   ZY=    -0.4208
   XZ=     0.3044   YZ=    -0.7083   ZZ=    20.4602
   Eigenvalues:    20.1196    22.5214    28.4955
     72  H    Isotropic =    23.2536   Anisotropy =     7.6482
   XX=    23.3856   YX=    -0.3335   ZX=     0.5392
   XY=    -0.0621   YY=    26.1843   ZY=    -2.9686
   XZ=     1.4422   YZ=    -5.2480   ZZ=    20.1908
   Eigenvalues:    17.9850    23.4234    28.3524
     73  H    Isotropic =    23.6758   Anisotropy =     8.5615
   XX=    24.5035   YX=     3.6412   ZX=    -0.6533
   XY=     3.5023   YY=    26.3120   ZY=     0.5964
   XZ=     1.3972   YZ=     2.9482   ZZ=    20.2119
   Eigenvalues:    19.6301    22.0139    29.3835
     74  H    Isotropic =    23.7231   Anisotropy =     4.9241
   XX=    23.9817   YX=    -0.1303   ZX=     0.8890
   XY=    -0.3242   YY=    26.6486   ZY=    -1.3608
   XZ=     0.5926   YZ=    -1.4523   ZZ=    20.5389
   Eigenvalues:    20.1122    24.0511    27.0058
 End of Minotr F.D. properties file   721 does not exist.
 End of Minotr F.D. properties file   722 does not exist.
 End of Minotr F.D. properties file   788 does not exist.

 **********************************************************************

            Population analysis using the SCF Density.

 **********************************************************************

 Orbital symmetries:
       Occupied  (A) (A) (A) (A) (A) (A) (A) (A) (A) (A) (A) (A)
                 (A) (A) (A) (A) (A) (A) (A) (A) (A) (A) (A) (A)
                 (A) (A) (A) (A) (A) (A) (A) (A) (A) (A) (A) (A)
                 (A) (A) (A) (A) (A) (A) (A) (A) (A) (A) (A) (A)
                 (A) (A) (A) (A) (A) (A) (A) (A) (A) (A) (A) (A)
                 (A) (A) (A) (A) (A) (A) (A) (A) (A) (A) (A) (A)
                 (A) (A) (A) (A) (A) (A) (A) (A) (A) (A) (A) (A)
                 (A) (A) (A) (A) (A) (A) (A) (A) (A) (A) (A) (A)
                 (A) (A) (A) (A) (A) (A) (A) (A) (A) (A) (A) (A)
                 (A) (A) (A) (A) (A) (A) (A) (A) (A) (A) (A) (A)
                 (A) (A) (A) (A) (A) (A) (A) (A) (A) (A) (A) (A)
                 (A) (A) (A) (A) (A) (A) (A) (A) (A) (A) (A)
       Virtual   (A) (A) (A) (A) (A) (A) (A) (A) (A) (A) (A) (A)
                 (A) (A) (A) (A) (A) (A) (A) (A) (A) (A) (A) (A)
                 (A) (A) (A) (A) (A) (A) (A) (A) (A) (A) (A) (A)
                 (A) (A) (A) (A) (A) (A) (A) (A) (A) (A) (A) (A)
                 (A) (A) (A) (A) (A) (A) (A) (A) (A) (A) (A) (A)
                 (A) (A) (A) (A) (A) (A) (A) (A) (A) (A) (A) (A)
                 (A) (A) (A) (A) (A) (A) (A) (A) (A) (A) (A) (A)
                 (A) (A) (A) (A) (A) (A) (A) (A) (A) (A) (A) (A)
                 (A) (A) (A) (A) (A) (A) (A) (A) (A) (A) (A) (A)
                 (A) (A) (A) (A) (A) (A) (A) (A) (A) (A) (A) (A)
                 (A) (A) (A) (A) (A) (A) (A) (A) (A) (A) (A) (A)
                 (A) (A) (A) (A) (A) (A) (A) (A) (A) (A) (A) (A)
                 (A) (A) (A) (A) (A) (A) (A) (A) (A) (A) (A) (A)
                 (A) (A) (A) (A) (A) (A) (A) (A) (A) (A) (A) (A)
                 (A) (A) (A) (A) (A) (A) (A) (A) (A) (A) (A) (A)
                 (A) (A) (A) (A) (A) (A) (A) (A) (A) (A) (A) (A)
                 (A) (A) (A) (A) (A) (A) (A) (A) (A) (A) (A) (A)
                 (A) (A) (A) (A) (A) (A) (A) (A) (A) (A) (A) (A)
                 (A) (A) (A) (A) (A) (A) (A) (A) (A) (A) (A) (A)
                 (A) (A) (A) (A) (A) (A) (A) (A) (A) (A) (A) (A)
                 (A) (A) (A) (A) (A) (A) (A) (A) (A) (A) (A) (A)
                 (A) (A) (A) (A) (A) (A) (A) (A) (A) (A) (A) (A)
                 (A) (A) (A) (A) (A) (A) (A) (A) (A) (A) (A) (A)
                 (A) (A) (A) (A) (A) (A) (A) (A) (A) (A) (A) (A)
                 (A) (A) (A) (A) (A) (A) (A) (A) (A) (A) (A) (A)
                 (A) (A) (A) (A) (A) (A) (A) (A) (A) (A) (A) (A)
                 (A) (A) (A) (A) (A) (A) (A) (A) (A) (A) (A) (A)
                 (A) (A) (A) (A) (A) (A) (A) (A) (A) (A) (A) (A)
                 (A) (A) (A) (A) (A) (A) (A) (A) (A) (A) (A) (A)
                 (A) (A) (A) (A) (A) (A) (A) (A) (A) (A) (A) (A)
                 (A) (A) (A) (A) (A) (A) (A) (A) (A) (A) (A) (A)
                 (A) (A) (A) (A) (A) (A) (A) (A) (A) (A) (A) (A)
                 (A) (A) (A) (A) (A) (A) (A) (A) (A) (A) (A) (A)
                 (A) (A) (A) (A) (A) (A) (A) (A) (A) (A) (A) (A)
                 (A) (A) (A) (A) (A) (A) (A) (A) (A) (A) (A) (A)
                 (A) (A) (A) (A) (A) (A) (A) (A) (A) (A) (A) (A)
                 (A) (A) (A) (A) (A) (A) (A) (A) (A) (A) (A) (A)
                 (A) (A) (A) (A) (A) (A) (A) (A) (A) (A) (A) (A)
                 (A) (A) (A) (A) (A) (A) (A) (A) (A) (A) (A) (A)
                 (A) (A) (A) (A) (A) (A) (A) (A) (A) (A) (A) (A)
                 (A) (A) (A) (A) (A) (A) (A) (A) (A) (A) (A) (A)
                 (A) (A) (A) (A) (A) (A) (A) (A) (A) (A) (A) (A)
                 (A) (A) (A) (A) (A) (A) (A) (A) (A) (A) (A) (A)
                 (A) (A) (A) (A) (A) (A) (A) (A) (A) (A) (A) (A)
                 (A) (A) (A) (A) (A) (A) (A) (A) (A) (A) (A) (A)
                 (A) (A) (A) (A) (A) (A) (A) (A) (A) (A) (A) (A)
                 (A) (A) (A) (A) (A) (A) (A) (A) (A) (A) (A) (A)
                 (A) (A) (A) (A) (A) (A) (A) (A) (A) (A) (A) (A)
                 (A) (A) (A) (A) (A) (A) (A) (A) (A) (A) (A) (A)
                 (A) (A) (A) (A) (A) (A) (A) (A) (A) (A) (A) (A)
                 (A) (A) (A) (A) (A) (A) (A) (A) (A) (A) (A) (A)
                 (A) (A) (A) (A) (A) (A) (A) (A) (A) (A) (A) (A)
                 (A) (A) (A) (A) (A) (A) (A) (A) (A) (A) (A) (A)
                 (A) (A) (A) (A) (A) (A) (A) (A) (A) (A) (A) (A)
                 (A) (A) (A) (A) (A) (A) (A) (A) (A) (A) (A) (A)
                 (A) (A) (A) (A) (A) (A) (A) (A) (A) (A) (A) (A)
                 (A) (A) (A) (A) (A) (A) (A) (A) (A) (A) (A) (A)
                 (A) (A) (A) (A) (A) (A) (A) (A) (A) (A) (A) (A)
                 (A) (A) (A) (A) (A) (A) (A) (A) (A) (A) (A) (A)
                 (A) (A) (A) (A) (A) (A) (A) (A) (A) (A) (A) (A)
                 (A) (A) (A) (A) (A) (A) (A) (A) (A) (A) (A) (A)
                 (A) (A) (A) (A) (A) (A) (A) (A) (A) (A) (A) (A)
                 (A) (A) (A) (A) (A) (A) (A) (A) (A) (A) (A) (A)
                 (A) (A) (A) (A) (A) (A) (A) (A) (A) (A) (A) (A)
                 (A) (A) (A) (A) (A) (A) (A) (A) (A) (A) (A) (A)
                 (A) (A) (A) (A) (A) (A) (A) (A) (A) (A) (A) (A)
                 (A) (A) (A) (A) (A) (A) (A) (A) (A) (A) (A) (A)
                 (A) (A) (A) (A) (A) (A) (A) (A) (A) (A) (A) (A)
                 (A) (A) (A) (A) (A) (A) (A) (A) (A) (A) (A) (A)
                 (A) (A) (A) (A) (A) (A) (A) (A) (A) (A) (A) (A)
                 (A) (A) (A) (A) (A) (A) (A) (A) (A) (A) (A) (A)
                 (A) (A) (A) (A) (A) (A) (A) (A) (A) (A) (A) (A)
                 (A) (A) (A) (A) (A) (A) (A) (A) (A) (A) (A) (A)
                 (A) (A) (A) (A) (A) (A) (A) (A) (A) (A) (A) (A)
                 (A) (A) (A) (A) (A) (A) (A) (A) (A) (A) (A) (A)
                 (A) (A) (A) (A) (A) (A) (A) (A) (A) (A) (A) (A)
                 (A) (A) (A) (A) (A) (A) (A) (A) (A) (A) (A) (A)
                 (A) (A) (A) (A) (A) (A) (A) (A) (A) (A) (A) (A)
                 (A) (A) (A) (A) (A) (A) (A) (A) (A) (A) (A) (A)
                 (A) (A) (A) (A) (A) (A) (A) (A) (A) (A) (A) (A)
                 (A) (A) (A) (A) (A) (A) (A) (A) (A) (A) (A) (A)
                 (A) (A) (A) (A) (A) (A) (A) (A) (A) (A) (A) (A)
                 (A) (A) (A) (A) (A) (A) (A) (A) (A) (A) (A) (A)
                 (A) (A) (A) (A) (A) (A) (A) (A) (A) (A) (A) (A)
                 (A) (A) (A) (A) (A) (A) (A) (A) (A) (A) (A) (A)
                 (A) (A) (A) (A) (A) (A) (A) (A) (A) (A) (A) (A)
                 (A) (A) (A) (A) (A) (A) (A) (A) (A) (A) (A) (A)
                 (A) (A) (A) (A) (A) (A) (A) (A) (A) (A) (A) (A)
                 (A) (A) (A) (A) (A) (A) (A) (A) (A) (A) (A) (A)
                 (A) (A) (A) (A) (A) (A) (A) (A) (A) (A) (A) (A)
                 (A) (A) (A) (A) (A) (A) (A) (A) (A) (A) (A) (A)
                 (A) (A) (A) (A) (A) (A) (A) (A) (A) (A) (A) (A)
                 (A) (A) (A) (A) (A) (A) (A) (A) (A) (A) (A) (A)
                 (A) (A) (A) (A) (A) (A) (A) (A) (A) (A) (A) (A)
                 (A) (A) (A) (A) (A) (A) (A) (A) (A) (A) (A) (A)
                 (A) (A) (A) (A) (A) (A) (A) (A) (A) (A) (A) (A)
                 (A) (A) (A) (A) (A) (A) (A) (A) (A) (A) (A) (A)
                 (A) (A) (A) (A) (A) (A) (A) (A) (A) (A) (A) (A)
                 (A) (A) (A) (A) (A) (A) (A) (A) (A) (A) (A) (A)
                 (A) (A) (A) (A) (A) (A) (A) (A) (A) (A) (A) (A)
                 (A) (A) (A) (A) (A) (A) (A) (A) (A) (A) (A) (A)
                 (A) (A) (A) (A) (A) (A) (A) (A) (A) (A) (A) (A)
                 (A) (A) (A) (A) (A) (A) (A) (A) (A) (A) (A) (A)
                 (A) (A) (A) (A) (A) (A) (A) (A) (A) (A) (A) (A)
                 (A) (A) (A) (A) (A) (A) (A) (A) (A) (A) (A) (A)
                 (A) (A) (A)
 The electronic state is 1-A.
 Alpha  occ. eigenvalues --  -77.19559 -77.19558 -19.24369 -19.24369 -10.29351
 Alpha  occ. eigenvalues --  -10.29351 -10.29240 -10.29217 -10.25330 -10.25329
 Alpha  occ. eigenvalues --  -10.24777 -10.24776 -10.24381 -10.24381 -10.24000
 Alpha  occ. eigenvalues --  -10.24000 -10.23884 -10.23884 -10.23368 -10.23368
 Alpha  occ. eigenvalues --  -10.23305 -10.23305 -10.23272 -10.23272 -10.23235
 Alpha  occ. eigenvalues --  -10.23235 -10.23139 -10.23139 -10.23078 -10.23078
 Alpha  occ. eigenvalues --  -10.23024 -10.23024 -10.21953 -10.21953 -10.21463
 Alpha  occ. eigenvalues --  -10.21463 -10.21060 -10.21060  -6.59206  -6.59206
 Alpha  occ. eigenvalues --   -4.72821  -4.72820  -4.72732  -4.72731  -4.72329
 Alpha  occ. eigenvalues --   -4.72329  -1.10458  -1.09369  -0.89534  -0.89478
 Alpha  occ. eigenvalues --   -0.87219  -0.87099  -0.83937  -0.83691  -0.81249
 Alpha  occ. eigenvalues --   -0.80411  -0.78750  -0.77365  -0.77238  -0.76674
 Alpha  occ. eigenvalues --   -0.76597  -0.75005  -0.73913  -0.70779  -0.70778
 Alpha  occ. eigenvalues --   -0.70523  -0.70217  -0.69685  -0.66101  -0.64959
 Alpha  occ. eigenvalues --   -0.63149  -0.62790  -0.62668  -0.61498  -0.60999
 Alpha  occ. eigenvalues --   -0.60112  -0.59249  -0.58502  -0.55930  -0.55004
 Alpha  occ. eigenvalues --   -0.52990  -0.52773  -0.52376  -0.52008  -0.50555
 Alpha  occ. eigenvalues --   -0.49678  -0.49344  -0.48676  -0.47734  -0.47348
 Alpha  occ. eigenvalues --   -0.46803  -0.46733  -0.46516  -0.45799  -0.45772
 Alpha  occ. eigenvalues --   -0.45259  -0.45114  -0.44948  -0.44616  -0.44038
 Alpha  occ. eigenvalues --   -0.43810  -0.43353  -0.43296  -0.43182  -0.41814
 Alpha  occ. eigenvalues --   -0.41647  -0.40595  -0.40213  -0.39765  -0.39588
 Alpha  occ. eigenvalues --   -0.39291  -0.39214  -0.39067  -0.38452  -0.38371
 Alpha  occ. eigenvalues --   -0.37973  -0.37794  -0.37693  -0.37652  -0.37026
 Alpha  occ. eigenvalues --   -0.35925  -0.35874  -0.35504  -0.35247  -0.34916
 Alpha  occ. eigenvalues --   -0.34789  -0.34714  -0.34574  -0.34554  -0.32486
 Alpha  occ. eigenvalues --   -0.32238  -0.31159  -0.31045  -0.28756  -0.28453
 Alpha  occ. eigenvalues --   -0.27338  -0.26832  -0.26503  -0.26144  -0.23997
 Alpha  occ. eigenvalues --   -0.23868  -0.23023  -0.19960
 Alpha virt. eigenvalues --   -0.04265  -0.03978  -0.01676  -0.01604  -0.01233
 Alpha virt. eigenvalues --   -0.01114   0.01048   0.01192   0.02498   0.03379
 Alpha virt. eigenvalues --    0.03426   0.04002   0.05565   0.05726   0.06179
 Alpha virt. eigenvalues --    0.06439   0.06702   0.07375   0.07642   0.08016
 Alpha virt. eigenvalues --    0.08111   0.08389   0.08520   0.08853   0.09066
 Alpha virt. eigenvalues --    0.09576   0.09914   0.10043   0.10663   0.10680
 Alpha virt. eigenvalues --    0.10792   0.10963   0.11216   0.11519   0.12095
 Alpha virt. eigenvalues --    0.12203   0.12614   0.12645   0.12817   0.12951
 Alpha virt. eigenvalues --    0.13333   0.13553   0.13740   0.13991   0.14113
 Alpha virt. eigenvalues --    0.14269   0.14738   0.14847   0.14978   0.15396
 Alpha virt. eigenvalues --    0.15565   0.16044   0.16608   0.16877   0.16938
 Alpha virt. eigenvalues --    0.17091   0.17430   0.17658   0.17976   0.18612
 Alpha virt. eigenvalues --    0.18787   0.18796   0.19002   0.19386   0.19623
 Alpha virt. eigenvalues --    0.19767   0.20473   0.20706   0.20931   0.20977
 Alpha virt. eigenvalues --    0.21470   0.21778   0.22230   0.22534   0.22549
 Alpha virt. eigenvalues --    0.22875   0.22988   0.23196   0.23539   0.23956
 Alpha virt. eigenvalues --    0.24104   0.24760   0.25062   0.25073   0.25325
 Alpha virt. eigenvalues --    0.25495   0.25937   0.25966   0.26087   0.26286
 Alpha virt. eigenvalues --    0.26429   0.26505   0.26982   0.27176   0.27448
 Alpha virt. eigenvalues --    0.27474   0.27570   0.28071   0.28728   0.28994
 Alpha virt. eigenvalues --    0.29335   0.29552   0.29790   0.29855   0.30027
 Alpha virt. eigenvalues --    0.30310   0.30702   0.30872   0.31111   0.31594
 Alpha virt. eigenvalues --    0.31720   0.31905   0.32075   0.32570   0.32728
 Alpha virt. eigenvalues --    0.33115   0.33599   0.33807   0.34065   0.34302
 Alpha virt. eigenvalues --    0.34551   0.34927   0.35097   0.35738   0.35981
 Alpha virt. eigenvalues --    0.36236   0.36479   0.36721   0.36725   0.36956
 Alpha virt. eigenvalues --    0.36957   0.37133   0.37523   0.37766   0.37795
 Alpha virt. eigenvalues --    0.38401   0.38807   0.38836   0.39019   0.39206
 Alpha virt. eigenvalues --    0.39279   0.39317   0.39869   0.40222   0.40319
 Alpha virt. eigenvalues --    0.40554   0.40854   0.41221   0.41872   0.41905
 Alpha virt. eigenvalues --    0.42185   0.42303   0.42351   0.42706   0.43107
 Alpha virt. eigenvalues --    0.43312   0.43599   0.43782   0.43851   0.43935
 Alpha virt. eigenvalues --    0.44325   0.44429   0.44607   0.44841   0.44846
 Alpha virt. eigenvalues --    0.45241   0.45494   0.45617   0.45819   0.46434
 Alpha virt. eigenvalues --    0.46565   0.46691   0.46876   0.46942   0.47308
 Alpha virt. eigenvalues --    0.47390   0.47675   0.47753   0.47994   0.48496
 Alpha virt. eigenvalues --    0.48596   0.48759   0.48979   0.49391   0.49459
 Alpha virt. eigenvalues --    0.49566   0.49920   0.49944   0.50111   0.50512
 Alpha virt. eigenvalues --    0.50821   0.51423   0.51592   0.51837   0.51866
 Alpha virt. eigenvalues --    0.52161   0.52299   0.52595   0.52672   0.53070
 Alpha virt. eigenvalues --    0.53136   0.53472   0.53525   0.53772   0.53810
 Alpha virt. eigenvalues --    0.54751   0.55184   0.55407   0.55618   0.56219
 Alpha virt. eigenvalues --    0.56250   0.56587   0.56737   0.57490   0.57810
 Alpha virt. eigenvalues --    0.58097   0.58140   0.58416   0.58630   0.58991
 Alpha virt. eigenvalues --    0.59244   0.60348   0.60454   0.61048   0.61291
 Alpha virt. eigenvalues --    0.61598   0.61624   0.62589   0.63106   0.63451
 Alpha virt. eigenvalues --    0.63896   0.64192   0.64870   0.65119   0.65681
 Alpha virt. eigenvalues --    0.65931   0.66309   0.66534   0.66882   0.66995
 Alpha virt. eigenvalues --    0.67394   0.67703   0.67993   0.68325   0.68727
 Alpha virt. eigenvalues --    0.69318   0.69444   0.69766   0.70024   0.70370
 Alpha virt. eigenvalues --    0.70470   0.70574   0.71225   0.71426   0.71844
 Alpha virt. eigenvalues --    0.71972   0.72229   0.72257   0.72489   0.73341
 Alpha virt. eigenvalues --    0.73518   0.74190   0.74403   0.74833   0.75165
 Alpha virt. eigenvalues --    0.75388   0.75772   0.76312   0.76317   0.76826
 Alpha virt. eigenvalues --    0.77535   0.77678   0.78300   0.78723   0.78756
 Alpha virt. eigenvalues --    0.79048   0.79432   0.79850   0.80487   0.80516
 Alpha virt. eigenvalues --    0.80872   0.81017   0.81122   0.82427   0.82611
 Alpha virt. eigenvalues --    0.82904   0.83301   0.83335   0.83711   0.83725
 Alpha virt. eigenvalues --    0.84378   0.85343   0.85738   0.86382   0.86421
 Alpha virt. eigenvalues --    0.87174   0.87194   0.87712   0.87781   0.88087
 Alpha virt. eigenvalues --    0.88217   0.88335   0.88802   0.88945   0.89292
 Alpha virt. eigenvalues --    0.89347   0.89512   0.89976   0.90394   0.90528
 Alpha virt. eigenvalues --    0.90943   0.91220   0.91879   0.92440   0.92494
 Alpha virt. eigenvalues --    0.92703   0.93266   0.93317   0.93948   0.94066
 Alpha virt. eigenvalues --    0.94884   0.95080   0.95445   0.95618   0.96071
 Alpha virt. eigenvalues --    0.96358   0.96518   0.96988   0.97703   0.98927
 Alpha virt. eigenvalues --    0.99339   0.99413   1.00259   1.00631   1.00997
 Alpha virt. eigenvalues --    1.01798   1.01930   1.02113   1.02712   1.03242
 Alpha virt. eigenvalues --    1.03776   1.03781   1.04077   1.04716   1.05430
 Alpha virt. eigenvalues --    1.05754   1.06355   1.06812   1.07380   1.07719
 Alpha virt. eigenvalues --    1.08331   1.08469   1.09458   1.09493   1.09835
 Alpha virt. eigenvalues --    1.09956   1.11297   1.11417   1.12090   1.12157
 Alpha virt. eigenvalues --    1.12587   1.12822   1.13264   1.13521   1.14034
 Alpha virt. eigenvalues --    1.14293   1.14540   1.15404   1.15502   1.16128
 Alpha virt. eigenvalues --    1.16455   1.16659   1.16790   1.17282   1.17829
 Alpha virt. eigenvalues --    1.18010   1.18138   1.18432   1.18652   1.19446
 Alpha virt. eigenvalues --    1.19468   1.19809   1.20419   1.21468   1.21810
 Alpha virt. eigenvalues --    1.22861   1.23022   1.23163   1.23712   1.24033
 Alpha virt. eigenvalues --    1.24060   1.25142   1.25204   1.25222   1.25925
 Alpha virt. eigenvalues --    1.25998   1.26655   1.27075   1.27153   1.27181
 Alpha virt. eigenvalues --    1.28136   1.28341   1.28396   1.28951   1.29035
 Alpha virt. eigenvalues --    1.29703   1.30680   1.31524   1.31558   1.32087
 Alpha virt. eigenvalues --    1.32205   1.32983   1.32994   1.33594   1.33776
 Alpha virt. eigenvalues --    1.33814   1.34492   1.34731   1.35124   1.35281
 Alpha virt. eigenvalues --    1.35818   1.36629   1.36659   1.37604   1.38417
 Alpha virt. eigenvalues --    1.38861   1.39438   1.39977   1.40513   1.41285
 Alpha virt. eigenvalues --    1.41812   1.42125   1.42552   1.43263   1.43288
 Alpha virt. eigenvalues --    1.44029   1.44355   1.44651   1.45354   1.45953
 Alpha virt. eigenvalues --    1.46100   1.46637   1.47157   1.47369   1.47584
 Alpha virt. eigenvalues --    1.47889   1.48486   1.49074   1.49326   1.49647
 Alpha virt. eigenvalues --    1.49688   1.50861   1.50950   1.51765   1.52052
 Alpha virt. eigenvalues --    1.52323   1.52348   1.52766   1.53103   1.53584
 Alpha virt. eigenvalues --    1.53922   1.54050   1.54720   1.55108   1.55401
 Alpha virt. eigenvalues --    1.55683   1.56111   1.56760   1.57548   1.57561
 Alpha virt. eigenvalues --    1.58184   1.58264   1.58884   1.59052   1.59295
 Alpha virt. eigenvalues --    1.59531   1.60291   1.60334   1.60341   1.60910
 Alpha virt. eigenvalues --    1.60934   1.61932   1.62340   1.62628   1.63126
 Alpha virt. eigenvalues --    1.63247   1.63757   1.64286   1.64427   1.64899
 Alpha virt. eigenvalues --    1.64992   1.65431   1.65451   1.66215   1.66268
 Alpha virt. eigenvalues --    1.66386   1.66467   1.66541   1.67315   1.67612
 Alpha virt. eigenvalues --    1.67836   1.68183   1.68322   1.68601   1.68651
 Alpha virt. eigenvalues --    1.69373   1.69836   1.70249   1.70433   1.70785
 Alpha virt. eigenvalues --    1.70807   1.72050   1.72065   1.72507   1.72727
 Alpha virt. eigenvalues --    1.73067   1.73368   1.73374   1.73646   1.74028
 Alpha virt. eigenvalues --    1.75207   1.75310   1.75579   1.75859   1.76542
 Alpha virt. eigenvalues --    1.76814   1.77131   1.77325   1.78112   1.78563
 Alpha virt. eigenvalues --    1.79263   1.79922   1.80113   1.80702   1.80734
 Alpha virt. eigenvalues --    1.81381   1.81792   1.82189   1.82545   1.82669
 Alpha virt. eigenvalues --    1.84049   1.84211   1.84808   1.85239   1.85790
 Alpha virt. eigenvalues --    1.86162   1.86320   1.87270   1.87605   1.88246
 Alpha virt. eigenvalues --    1.88353   1.88362   1.89206   1.89971   1.90141
 Alpha virt. eigenvalues --    1.91148   1.91235   1.92269   1.92336   1.92473
 Alpha virt. eigenvalues --    1.92692   1.93792   1.94149   1.94356   1.94807
 Alpha virt. eigenvalues --    1.96274   1.96670   1.96860   1.97465   1.97626
 Alpha virt. eigenvalues --    1.98270   1.98795   1.99395   1.99807   2.00208
 Alpha virt. eigenvalues --    2.00461   2.00851   2.01228   2.01642   2.01682
 Alpha virt. eigenvalues --    2.02829   2.03295   2.03598   2.04488   2.04618
 Alpha virt. eigenvalues --    2.05193   2.05399   2.05940   2.06528   2.07478
 Alpha virt. eigenvalues --    2.07507   2.08684   2.09693   2.09694   2.09856
 Alpha virt. eigenvalues --    2.10898   2.11225   2.11385   2.12047   2.12062
 Alpha virt. eigenvalues --    2.13093   2.13406   2.13584   2.13709   2.15420
 Alpha virt. eigenvalues --    2.15787   2.16600   2.16603   2.17859   2.18362
 Alpha virt. eigenvalues --    2.18650   2.18795   2.19396   2.19601   2.19873
 Alpha virt. eigenvalues --    2.20676   2.20792   2.21283   2.21438   2.21664
 Alpha virt. eigenvalues --    2.21793   2.22088   2.23135   2.23698   2.24007
 Alpha virt. eigenvalues --    2.24224   2.24282   2.25108   2.25236   2.25673
 Alpha virt. eigenvalues --    2.25687   2.26630   2.26658   2.27235   2.27543
 Alpha virt. eigenvalues --    2.28421   2.28450   2.29626   2.30124   2.30513
 Alpha virt. eigenvalues --    2.31242   2.31586   2.31613   2.32683   2.32878
 Alpha virt. eigenvalues --    2.34220   2.34649   2.34684   2.35481   2.36227
 Alpha virt. eigenvalues --    2.36326   2.36938   2.37466   2.38349   2.38862
 Alpha virt. eigenvalues --    2.39185   2.40105   2.40488   2.40563   2.41068
 Alpha virt. eigenvalues --    2.42342   2.42943   2.43002   2.44739   2.45030
 Alpha virt. eigenvalues --    2.45484   2.45787   2.46162   2.46585   2.46710
 Alpha virt. eigenvalues --    2.47765   2.48075   2.48119   2.48385   2.48959
 Alpha virt. eigenvalues --    2.49677   2.49718   2.50194   2.50333   2.50733
 Alpha virt. eigenvalues --    2.51223   2.51458   2.51745   2.52286   2.52776
 Alpha virt. eigenvalues --    2.53407   2.54820   2.55091   2.55906   2.55975
 Alpha virt. eigenvalues --    2.56822   2.57025   2.57549   2.58065   2.58265
 Alpha virt. eigenvalues --    2.58318   2.58613   2.58744   2.59426   2.59671
 Alpha virt. eigenvalues --    2.59876   2.60023   2.60318   2.60670   2.60912
 Alpha virt. eigenvalues --    2.61320   2.61454   2.62011   2.62045   2.62487
 Alpha virt. eigenvalues --    2.62679   2.62733   2.63024   2.63143   2.63681
 Alpha virt. eigenvalues --    2.63938   2.64072   2.64738   2.65105   2.65106
 Alpha virt. eigenvalues --    2.65399   2.65674   2.65879   2.65984   2.66211
 Alpha virt. eigenvalues --    2.66970   2.67187   2.67280   2.68078   2.68291
 Alpha virt. eigenvalues --    2.68428   2.68559   2.69088   2.69318   2.70239
 Alpha virt. eigenvalues --    2.70407   2.71076   2.71523   2.72139   2.72436
 Alpha virt. eigenvalues --    2.72590   2.72833   2.72984   2.73502   2.74465
 Alpha virt. eigenvalues --    2.74817   2.75221   2.75289   2.75645   2.76188
 Alpha virt. eigenvalues --    2.76253   2.77247   2.77289   2.77648   2.78010
 Alpha virt. eigenvalues --    2.78034   2.78107   2.78622   2.79262   2.79275
 Alpha virt. eigenvalues --    2.79854   2.80173   2.80399   2.80461   2.80836
 Alpha virt. eigenvalues --    2.81272   2.81905   2.82465   2.82657   2.83023
 Alpha virt. eigenvalues --    2.83057   2.83315   2.83454   2.83823   2.84501
 Alpha virt. eigenvalues --    2.85015   2.85511   2.85806   2.86003   2.86479
 Alpha virt. eigenvalues --    2.86645   2.86984   2.87032   2.87606   2.88026
 Alpha virt. eigenvalues --    2.88185   2.88847   2.88981   2.89140   2.89632
 Alpha virt. eigenvalues --    2.89716   2.90020   2.90142   2.90407   2.91238
 Alpha virt. eigenvalues --    2.91423   2.92833   2.93248   2.94055   2.94431
 Alpha virt. eigenvalues --    2.95224   2.96229   2.96675   2.97473   2.98334
 Alpha virt. eigenvalues --    2.98375   2.99035   2.99196   3.00690   3.00782
 Alpha virt. eigenvalues --    3.01806   3.02376   3.03594   3.03672   3.03944
 Alpha virt. eigenvalues --    3.04001   3.04890   3.06155   3.06272   3.07286
 Alpha virt. eigenvalues --    3.07449   3.07939   3.08572   3.08704   3.08899
 Alpha virt. eigenvalues --    3.09518   3.09946   3.10011   3.10354   3.10899
 Alpha virt. eigenvalues --    3.11802   3.12829   3.13519   3.13849   3.14076
 Alpha virt. eigenvalues --    3.14357   3.14419   3.14747   3.14958   3.15285
 Alpha virt. eigenvalues --    3.15455   3.15572   3.16135   3.16209   3.16800
 Alpha virt. eigenvalues --    3.16834   3.17159   3.17249   3.17772   3.17896
 Alpha virt. eigenvalues --    3.18606   3.18697   3.18934   3.19203   3.19801
 Alpha virt. eigenvalues --    3.20430   3.20444   3.20662   3.20666   3.21292
 Alpha virt. eigenvalues --    3.21904   3.22080   3.22462   3.22889   3.23097
 Alpha virt. eigenvalues --    3.23379   3.23594   3.23908   3.24760   3.25055
 Alpha virt. eigenvalues --    3.25888   3.26355   3.27054   3.27340   3.27541
 Alpha virt. eigenvalues --    3.28027   3.28332   3.28738   3.28802   3.29221
 Alpha virt. eigenvalues --    3.29654   3.29737   3.30464   3.30493   3.30718
 Alpha virt. eigenvalues --    3.31035   3.31981   3.32396   3.32917   3.33524
 Alpha virt. eigenvalues --    3.33798   3.34023   3.34031   3.34334   3.34438
 Alpha virt. eigenvalues --    3.34746   3.35396   3.35507   3.35573   3.35725
 Alpha virt. eigenvalues --    3.35956   3.35957   3.36848   3.36863   3.37604
 Alpha virt. eigenvalues --    3.37821   3.38125   3.38848   3.38895   3.39153
 Alpha virt. eigenvalues --    3.39481   3.39630   3.39981   3.40058   3.40369
 Alpha virt. eigenvalues --    3.40458   3.40911   3.41243   3.41599   3.41905
 Alpha virt. eigenvalues --    3.41927   3.42393   3.42589   3.42859   3.43703
 Alpha virt. eigenvalues --    3.44192   3.44251   3.44507   3.45166   3.45657
 Alpha virt. eigenvalues --    3.46230   3.46256   3.46383   3.46488   3.46802
 Alpha virt. eigenvalues --    3.46824   3.47649   3.47657   3.48131   3.48162
 Alpha virt. eigenvalues --    3.48619   3.48845   3.49532   3.50028   3.50386
 Alpha virt. eigenvalues --    3.50722   3.51212   3.51280   3.51364   3.51756
 Alpha virt. eigenvalues --    3.52580   3.52713   3.52716   3.53252   3.53586
 Alpha virt. eigenvalues --    3.53687   3.54138   3.54183   3.54958   3.55634
 Alpha virt. eigenvalues --    3.55695   3.55947   3.56288   3.56410   3.57330
 Alpha virt. eigenvalues --    3.58174   3.58542   3.58582   3.59339   3.59587
 Alpha virt. eigenvalues --    3.59877   3.59943   3.61381   3.62399   3.62470
 Alpha virt. eigenvalues --    3.63360   3.65010   3.65143   3.65938   3.66022
 Alpha virt. eigenvalues --    3.66389   3.67210   3.67478   3.67923   3.68387
 Alpha virt. eigenvalues --    3.68690   3.69414   3.70056   3.70158   3.70774
 Alpha virt. eigenvalues --    3.71998   3.72037   3.72143   3.72722   3.72984
 Alpha virt. eigenvalues --    3.73591   3.73987   3.74671   3.74758   3.75641
 Alpha virt. eigenvalues --    3.75939   3.76880   3.77554   3.78037   3.78530
 Alpha virt. eigenvalues --    3.79101   3.80383   3.80432   3.81621   3.82392
 Alpha virt. eigenvalues --    3.82773   3.83737   3.83961   3.84562   3.85126
 Alpha virt. eigenvalues --    3.86481   3.87050   3.89009   3.89644   3.90344
 Alpha virt. eigenvalues --    3.91055   3.92224   3.92865   3.94619   3.94749
 Alpha virt. eigenvalues --    3.95618   3.95885   3.98053   3.99289   3.99385
 Alpha virt. eigenvalues --    4.00729   4.00765   4.01542   4.02017   4.02187
 Alpha virt. eigenvalues --    4.03281   4.03711   4.04700   4.04952   4.05053
 Alpha virt. eigenvalues --    4.06656   4.07592   4.07931   4.08453   4.08576
 Alpha virt. eigenvalues --    4.08764   4.09019   4.09541   4.10049   4.10349
 Alpha virt. eigenvalues --    4.10529   4.10585   4.11234   4.11422   4.12150
 Alpha virt. eigenvalues --    4.12225   4.13077   4.13360   4.13698   4.13924
 Alpha virt. eigenvalues --    4.13951   4.14522   4.15331   4.15437   4.15920
 Alpha virt. eigenvalues --    4.16506   4.17378   4.17546   4.19021   4.19615
 Alpha virt. eigenvalues --    4.20307   4.21133   4.21295   4.21350   4.22006
 Alpha virt. eigenvalues --    4.23039   4.23319   4.23522   4.23716   4.24047
 Alpha virt. eigenvalues --    4.24194   4.24570   4.25118   4.25571   4.25727
 Alpha virt. eigenvalues --    4.25840   4.28200   4.28760   4.29052   4.29171
 Alpha virt. eigenvalues --    4.31262   4.32298   4.32446   4.33009   4.33408
 Alpha virt. eigenvalues --    4.33447   4.33559   4.34386   4.35015   4.36030
 Alpha virt. eigenvalues --    4.36315   4.38277   4.39370   4.41588   4.42283
 Alpha virt. eigenvalues --    4.43534   4.43646   4.44037   4.44440   4.44800
 Alpha virt. eigenvalues --    4.45317   4.46389   4.47028   4.48170   4.48254
 Alpha virt. eigenvalues --    4.49307   4.50340   4.51785   4.52229   4.53411
 Alpha virt. eigenvalues --    4.54694   4.56095   4.58327   4.58389   4.58902
 Alpha virt. eigenvalues --    4.59264   4.60180   4.60357   4.61688   4.61761
 Alpha virt. eigenvalues --    4.62774   4.63032   4.63367   4.63647   4.66984
 Alpha virt. eigenvalues --    4.68001   4.68325   4.68646   4.72350   4.72505
 Alpha virt. eigenvalues --    4.74735   4.75128   4.77488   4.77622   4.78890
 Alpha virt. eigenvalues --    4.79425   4.80774   4.82977   4.83693   4.85470
 Alpha virt. eigenvalues --    4.85704   4.85931   4.88710   4.89693   4.91429
 Alpha virt. eigenvalues --    4.92783   4.95989   4.96683   4.96703   4.97674
 Alpha virt. eigenvalues --    4.97902   4.98320   4.99717   5.01736   5.02642
 Alpha virt. eigenvalues --    5.02992   5.06019   5.06530   5.10001   5.11497
 Alpha virt. eigenvalues --    5.12243   5.14060   5.15736   5.15829   5.16739
 Alpha virt. eigenvalues --    5.20976   5.21016   5.22499   5.22571   5.25150
 Alpha virt. eigenvalues --    5.25285   5.37493   5.37662   5.40400   5.41258
 Alpha virt. eigenvalues --    5.43858   5.44343   5.49950   5.50173   5.51344
 Alpha virt. eigenvalues --    5.51674   5.55586   5.55870   5.59655   5.60124
 Alpha virt. eigenvalues --    5.65322   5.66088   5.71226   5.71491   5.80020
 Alpha virt. eigenvalues --    5.83859   5.86007   5.88612   6.00462   6.00658
 Alpha virt. eigenvalues --    6.32909   6.34373   6.39434   6.43540   6.74659
 Alpha virt. eigenvalues --    6.75141   6.88054   6.90010   6.96631   6.97171
 Alpha virt. eigenvalues --    7.24446   7.31728   7.44319   7.45286   7.81142
 Alpha virt. eigenvalues --    7.81306   7.91870   7.97001   8.07720   8.08877
 Alpha virt. eigenvalues --   15.66967  15.76813  22.19437  22.19940  22.37485
 Alpha virt. eigenvalues --   22.37782  22.46703  22.48492  22.50425  22.50497
 Alpha virt. eigenvalues --   22.53101  22.54151  22.62042  22.62056  22.63213
 Alpha virt. eigenvalues --   22.63416  22.64806  22.70716  22.72734  22.73040
 Alpha virt. eigenvalues --   22.74825  22.74838  22.75395  22.77247  22.81343
 Alpha virt. eigenvalues --   22.83343  22.87470  22.87805  22.97516  22.97835
 Alpha virt. eigenvalues --   23.08117  23.09183  23.25110  23.25794  23.46174
 Alpha virt. eigenvalues --   23.48782  44.52679  44.52858
          Condensed to atoms (all electrons):
 Mulliken charges:
               1
     1  P   -0.028569
     2  P   -0.028552
     3  O   -0.234035
     4  O   -0.234037
     5  C   -0.111973
     6  C    0.135194
     7  C   -0.274720
     8  H    0.132660
     9  C   -0.062321
    10  H    0.119274
    11  C   -0.332524
    12  H    0.120802
    13  C    0.227277
    14  C    0.086200
    15  H    0.119581
    16  C    0.086170
    17  H    0.119585
    18  C    0.227284
    19  C   -0.332529
    20  H    0.120803
    21  C   -0.062320
    22  H    0.119275
    23  C   -0.274732
    24  H    0.132661
    25  C    0.135218
    26  C   -0.111992
    27  C    0.061312
    28  C   -0.381576
    29  H    0.127411
    30  H    0.127124
    31  H    0.134205
    32  C   -0.368794
    33  H    0.138776
    34  H    0.123907
    35  H    0.113063
    36  C   -0.396375
    37  H    0.123041
    38  H    0.136102
    39  H    0.135682
    40  C    0.061285
    41  C   -0.396378
    42  H    0.136102
    43  H    0.123041
    44  H    0.135687
    45  C   -0.368791
    46  H    0.113061
    47  H    0.138772
    48  H    0.123912
    49  C   -0.381572
    50  H    0.127120
    51  H    0.134203
    52  H    0.127412
    53  C   -0.113739
    54  C   -0.119511
    55  C   -0.213441
    56  C    0.160963
    57  C   -0.182049
    58  C   -0.137830
    59  H    0.117153
    60  H    0.116822
    61  H    0.132839
    62  H    0.149883
    63  H    0.118197
    64  C   -0.113726
    65  C   -0.137857
    66  C   -0.182018
    67  C    0.160960
    68  C   -0.213430
    69  C   -0.119524
    70  H    0.117153
    71  H    0.118197
    72  H    0.149887
    73  H    0.132838
    74  H    0.116821
 Sum of Mulliken charges =  -0.00000
 Mulliken charges with hydrogens summed into heavy atoms:
               1
     1  P   -0.028569
     2  P   -0.028552
     3  O   -0.234035
     4  O   -0.234037
     5  C   -0.111973
     6  C    0.135194
     7  C   -0.142060
     9  C    0.056954
    11  C   -0.211721
    13  C    0.227277
    14  C    0.205781
    16  C    0.205756
    18  C    0.227284
    19  C   -0.211727
    21  C    0.056955
    23  C   -0.142071
    25  C    0.135218
    26  C   -0.111992
    27  C    0.061312
    28  C    0.007163
    32  C    0.006951
    36  C   -0.001551
    40  C    0.061285
    41  C   -0.001549
    45  C    0.006955
    49  C    0.007163
    53  C    0.003415
    54  C   -0.002689
    55  C   -0.080602
    56  C    0.160963
    57  C   -0.032166
    58  C   -0.019633
    64  C    0.003426
    65  C   -0.019660
    66  C   -0.032130
    67  C    0.160960
    68  C   -0.080593
    69  C   -0.002702
 Electronic spatial extent (au):  <R**2>=          18973.6121
 Charge=              0.0000 electrons
 Dipole moment (field-independent basis, Debye):
    X=             -0.0001    Y=              0.9627    Z=             -0.0000  Tot=              0.9627
 Quadrupole moment (field-independent basis, Debye-Ang):
   XX=           -223.0714   YY=           -231.6737   ZZ=           -238.5870
   XY=             -0.0003   XZ=              3.0178   YZ=              0.0009
 Traceless Quadrupole moment (field-independent basis, Debye-Ang):
   XX=              8.0393   YY=             -0.5630   ZZ=             -7.4763
   XY=             -0.0003   XZ=              3.0178   YZ=              0.0009
 Octapole moment (field-independent basis, Debye-Ang**2):
  XXX=              0.0060  YYY=             36.4928  ZZZ=              0.0031  XYY=             -0.0113
  XXY=            -11.4615  XXZ=             -0.0175  XZZ=              0.0066  YZZ=            -14.0608
  YYZ=              0.0054  XYZ=             32.5994
 Hexadecapole moment (field-independent basis, Debye-Ang**3):
 XXXX=         -14761.1924 YYYY=          -6159.5389 ZZZZ=          -4325.0896 XXXY=              0.0379
 XXXZ=             18.3343 YYYX=              0.0228 YYYZ=              0.0600 ZZZX=            161.3022
 ZZZY=              0.0017 XXYY=          -3377.6202 XXZZ=          -3493.1832 YYZZ=          -1885.2408
 XXYZ=              0.0320 YYXZ=            -66.1359 ZZXY=             -0.0502
 N-N= 4.780816811925D+03 E-N=-1.459355888662D+04  KE= 2.138958892560D+03
 1\1\GINC-NOTCH077\SP\RPBE1PBE\def2TZVP\C34H36O2P2\U1010977\02-Nov-2021
 \0\\# PBE1PBE/def2TZVP int=(grid=ultrafine) empiricaldispersion=GD3BJ 
 nmr=giao\\title\\0,1\P,0,11.2195918776,-5.9872549894,7.2637737982\P,0,
 13.2395018649,-3.8238971229,6.2665034446\O,0,10.5044998872,-6.40050598
 08,4.6932483076\O,0,11.7957201357,-3.6277098865,3.993456248\C,0,11.577
 8008542,-7.5956904738,6.4683139447\C,0,12.1331117751,-8.7879849309,6.9
 909623827\C,0,12.0553884571,-9.9512495844,6.1951831625\H,0,12.49727221
 03,-10.8757463624,6.5782214017\C,0,11.4744182086,-9.9249843329,4.91976
 43527\H,0,11.4423337512,-10.8420214856,4.3228909223\C,0,10.9633790652,
 -8.7382862369,4.3780496849\H,0,10.5272888323,-8.6946643844,3.376739665
 9\C,0,11.026462572,-7.5838802031,5.1652554008\C,0,10.9164978602,-5.298
 6794319,5.5330385975\H,0,10.0972797453,-4.5618801703,5.5326115246\C,0,
 12.1802233248,-4.6494545332,4.9406680888\H,0,12.7525386406,-5.41107453
 47,4.3871516126\C,0,11.7574936582,-2.3957099063,4.606911846\C,0,11.176
 7414904,-1.3060433732,3.9498900494\H,0,10.7265602116,-1.4387618121,2.9
 627619242\C,0,11.1974096168,-0.0659089013,4.6014342225\H,0,10.74512889
 83,0.8024208485,4.1118525832\C,0,11.7547055372,0.0747771171,5.87992598
 77\H,0,11.7125564592,1.0394335416,6.3940607798\C,0,12.332322582,-1.022
 5958933,6.5541824003\C,0,12.3556466287,-2.2683400442,5.8828655845\C,0,
 9.5028209029,-6.1657062243,8.0571986335\C,0,9.1665821978,-4.7931525237
 ,8.6688888896\H,0,8.1629364259,-4.842453331,9.1291965582\H,0,9.1417355
 564,-3.995539284,7.9033422642\H,0,9.8976251805,-4.5204527129,9.4475120
 41\C,0,8.4477234405,-6.5707349571,7.0115438731\H,0,8.6898500313,-7.532
 1559333,6.5297186406\H,0,8.3036239521,-5.8107339682,6.2260486195\H,0,7
 .4825451117,-6.6932796409,7.5361549663\C,0,9.5972680279,-7.25792172,9.
 1399348492\H,0,8.621393339,-7.3221571696,9.6555413153\H,0,10.37436746,
 -7.0262705357,9.8845501895\H,0,9.8099103679,-8.2438183735,8.6931378062
 \C,0,14.9712625111,-3.6438980501,5.506715592\C,0,15.6756692857,-2.4714
 43025,6.2161731884\H,0,15.7163057418,-2.6209511554,7.306124458\H,0,16.
 7092688473,-2.4014169144,5.8300671363\H,0,15.1688997273,-1.5150897723,
 6.0030870195\C,0,14.8872933864,-3.3532601127,3.9970307335\H,0,15.91846
 96621,-3.2240832275,3.6204768389\H,0,14.335588173,-2.4229317486,3.7843
 763715\H,0,14.4257337407,-4.1740887365,3.4238182387\C,0,15.6960429171,
 -4.9774231103,5.7665900871\H,0,15.1707738394,-5.830288463,5.2979972923
 \H,0,15.7941627687,-5.1668609142,6.8480372112\H,0,16.7076410383,-4.927
 303445,5.3241253167\C,0,14.1284561721,-8.9353241965,10.7960040975\C,0,
 13.1407149705,-9.8825184137,10.4834701809\C,0,12.488670726,-9.83768028
 55,9.2460076084\C,0,12.8129764152,-8.8360893989,8.3073660165\C,0,13.81
 92230153,-7.902875298,8.6261983003\C,0,14.4672813777,-7.9449398909,9.8
 654491637\H,0,14.6238195481,-8.9623554408,11.7717779412\H,0,12.8664419
 611,-10.6516862035,11.2129623072\H,0,11.6997931793,-10.5604562001,9.00
 98576209\H,0,14.101237254,-7.1365058703,7.8948912029\H,0,15.2098955849
 ,-7.1773015644,10.1018062759\C,0,13.8170620543,-0.5255754807,10.557924
 3528\C,0,12.9326302175,-1.5709552798,10.2637171461\C,0,12.4476628603,-
 1.7268589342,8.9606486077\C,0,12.8530703874,-0.8538371646,7.9317880537
 \C,0,13.7334228407,0.2037897788,8.241318551\C,0,14.2142970441,0.362459
 6139,9.5459528016\H,0,14.2090993862,-0.4093815084,11.5733336494\H,0,12
 .6368726842,-2.2938313098,11.0296064416\H,0,11.741697663,-2.535987519,
 8.7402216036\H,0,14.0618023944,0.8804326272,7.4445616488\H,0,14.913671
 7049,1.1744733124,9.7707024736\\Version=ES64L-G16RevB.01\State=1-A\HF=
 -2149.1050368\RMSD=5.863e-09\Dipole=0.1540099,0.0154532,0.3457008\Quad
 rupole=-3.7621163,4.6825021,-0.9203858,3.8098484,1.319552,-1.92684\PG=
 C01 [X(C34H36O2P2)]\\@


 YOU CANNOT THROW TO THE GROUND THE LETTERS OF
 THE GREEK ALPHABET AND PICK UP THE ILIAD.
        - RUFUS CHOATE, 1799-1859
 Job cpu time:       0 days 20 hours  3 minutes 12.8 seconds.
 Elapsed time:       0 days  0 hours 42 minutes 13.7 seconds.
 File lengths (MBytes):  RWF=   1155 Int=      0 D2E=      0 Chk=    152 Scr=      1
 Normal termination of Gaussian 16 at Tue Nov  2 12:34:35 2021.
 Initial command:
 /uufs/chpc.utah.edu/sys/installdir/gaussian16/B01/E6B/g16/l1.exe "/scratch/general/lustre/u1010977/3356311/notchpeak.peaks/Gau-21749.inp" -scrdir="/scratch/general/lustre/u1010977/3356311/notchpeak.peaks/"
 Entering Link 1 = /uufs/chpc.utah.edu/sys/installdir/gaussian16/B01/E6B/g16/l1.exe PID=     26219.
  
 Copyright (c) 1988-2017, Gaussian, Inc.  All Rights Reserved.
  
 This is part of the Gaussian(R) 16 program.  It is based on
 the Gaussian(R) 09 system (copyright 2009, Gaussian, Inc.),
 the Gaussian(R) 03 system (copyright 2003, Gaussian, Inc.),
 the Gaussian(R) 98 system (copyright 1998, Gaussian, Inc.),
 the Gaussian(R) 94 system (copyright 1995, Gaussian, Inc.),
 the Gaussian 92(TM) system (copyright 1992, Gaussian, Inc.),
 the Gaussian 90(TM) system (copyright 1990, Gaussian, Inc.),
 the Gaussian 88(TM) system (copyright 1988, Gaussian, Inc.),
 the Gaussian 86(TM) system (copyright 1986, Carnegie Mellon
 University), and the Gaussian 82(TM) system (copyright 1983,
 Carnegie Mellon University). Gaussian is a federally registered
 trademark of Gaussian, Inc.
  
 This software contains proprietary and confidential information,
 including trade secrets, belonging to Gaussian, Inc.
  
 This software is provided under written license and may be
 used, copied, transmitted, or stored only in accord with that
 written license.
  
 The following legend is applicable only to US Government
 contracts under FAR:
  
                    RESTRICTED RIGHTS LEGEND
  
 Use, reproduction and disclosure by the US Government is
 subject to restrictions as set forth in subparagraphs (a)
 and (c) of the Commercial Computer Software - Restricted
 Rights clause in FAR 52.227-19.
  
 Gaussian, Inc.
 340 Quinnipiac St., Bldg. 40, Wallingford CT 06492
  
  
 ---------------------------------------------------------------
 Warning -- This program may not be used in any manner that
 competes with the business of Gaussian, Inc. or will provide
 assistance to any competitor of Gaussian, Inc.  The licensee
 of this program is prohibited from giving any competitor of
 Gaussian, Inc. access to this program.  By using this program,
 the user acknowledges that Gaussian, Inc. is engaged in the
 business of creating and licensing software in the field of
 computational chemistry and represents and warrants to the
 licensee that it is not a competitor of Gaussian, Inc. and that
 it will not use this program in any manner prohibited above.
 ---------------------------------------------------------------
  

 Cite this work as:
 Gaussian 16, Revision B.01,
 M. J. Frisch, G. W. Trucks, H. B. Schlegel, G. E. Scuseria, 
[...]
  1182. RY*(  22) C  65                  0.00000     3.41595   
  1183. RY*(  23) C  65                  0.00000     3.50722   
  1184. RY*(  24) C  65                  0.00000     3.40537   
  1185. RY*(  25) C  65                  0.00001     3.70930   
  1186. RY*(  26) C  65                  0.00000     3.63903   
  1187. RY*(   1) C  66                  0.00478     1.63219   
  1188. RY*(   2) C  66                  0.00178     1.47964   
  1189. RY*(   3) C  66                  0.00128     0.73392   
  1190. RY*(   4) C  66                  0.00090     1.65480   
  1191. RY*(   5) C  66                  0.00060     1.69002   
  1192. RY*(   6) C  66                  0.00039     2.55695   
  1193. RY*(   7) C  66                  0.00035     2.20369   
  1194. RY*(   8) C  66                  0.00020     1.43992   
  1195. RY*(   9) C  66                  0.00011     1.76533   
  1196. RY*(  10) C  66                  0.00008     2.93248   
  1197. RY*(  11) C  66                  0.00006     2.18908   
  1198. RY*(  12) C  66                  0.00003     2.81387   
  1199. RY*(  13) C  66                  0.00004     2.34836   
  1200. RY*(  14) C  66                  0.00004     1.99017   
  1201. RY*(  15) C  66                  0.00003     2.99408   
  1202. RY*(  16) C  66                  0.00002     2.82053   
  1203. RY*(  17) C  66                  0.00000     3.19504   
  1204. RY*(  18) C  66                  0.00000    20.91037   
  1205. RY*(  19) C  66                  0.00000     3.27252   
  1206. RY*(  20) C  66                  0.00000     3.60481   
  1207. RY*(  21) C  66                  0.00000     3.35044   
  1208. RY*(  22) C  66                  0.00000     3.51256   
  1209. RY*(  23) C  66                  0.00000     3.38759   
  1210. RY*(  24) C  66                  0.00000     3.45628   
  1211. RY*(  25) C  66                  0.00001     3.02953   
  1212. RY*(  26) C  66                  0.00000     3.41887   
  1213. RY*(   1) C  67                  0.00723     1.37149   
  1214. RY*(   2) C  67                  0.00375     1.07895   
  1215. RY*(   3) C  67                  0.00168     1.38807   
  1216. RY*(   4) C  67                  0.00152     1.07571   
  1217. RY*(   5) C  67                  0.00131     2.49099   
  1218. RY*(   6) C  67                  0.00061     2.34121   
  1219. RY*(   7) C  67                  0.00049     2.67712   
  1220. RY*(   8) C  67                  0.00046     1.92313   
  1221. RY*(   9) C  67                  0.00036     2.09946   
  1222. RY*(  10) C  67                  0.00031     1.90971   
  1223. RY*(  11) C  67                  0.00021     2.45551   
  1224. RY*(  12) C  67                  0.00019     2.10492   
  1225. RY*(  13) C  67                  0.00012     2.92195   
  1226. RY*(  14) C  67                  0.00008     2.33542   
  1227. RY*(  15) C  67                  0.00006     3.15155   
  1228. RY*(  16) C  67                  0.00004     2.02249   
  1229. RY*(  17) C  67                  0.00004     2.73942   
  1230. RY*(  18) C  67                  0.00001     3.80430   
  1231. RY*(  19) C  67                  0.00001     3.48246   
  1232. RY*(  20) C  67                  0.00001     3.48459   
  1233. RY*(  21) C  67                  0.00000     3.39095   
  1234. RY*(  22) C  67                  0.00001     3.70923   
  1235. RY*(  23) C  67                  0.00000    21.50722   
  1236. RY*(  24) C  67                  0.00001     3.70970   
  1237. RY*(  25) C  67                  0.00001     3.88895   
  1238. RY*(  26) C  67                  0.00001     3.53880   
  1239. RY*(   1) C  68                  0.00492     1.53001   
  1240. RY*(   2) C  68                  0.00175     1.36353   
  1241. RY*(   3) C  68                  0.00125     0.66560   
  1242. RY*(   4) C  68                  0.00086     1.51823   
  1243. RY*(   5) C  68                  0.00055     1.81748   
  1244. RY*(   6) C  68                  0.00040     3.03454   
  1245. RY*(   7) C  68                  0.00026     1.65596   
  1246. RY*(   8) C  68                  0.00012     1.38907   
  1247. RY*(   9) C  68                  0.00007     1.75988   
  1248. RY*(  10) C  68                  0.00007     3.41000   
  1249. RY*(  11) C  68                  0.00006     1.65993   
  1250. RY*(  12) C  68                  0.00003     2.35734   
  1251. RY*(  13) C  68                  0.00002     2.30357   
  1252. RY*(  14) C  68                  0.00002     3.24636   
  1253. RY*(  15) C  68                  0.00002     3.23383   
  1254. RY*(  16) C  68                  0.00002     3.85581   
  1255. RY*(  17) C  68                  0.00000     3.39420   
  1256. RY*(  18) C  68                  0.00000    18.99329   
  1257. RY*(  19) C  68                  0.00000     3.31453   
  1258. RY*(  20) C  68                  0.00000     3.52338   
  1259. RY*(  21) C  68                  0.00000     3.19428   
  1260. RY*(  22) C  68                  0.00000     3.54362   
  1261. RY*(  23) C  68                  0.00000     3.72662   
  1262. RY*(  24) C  68                  0.00000     3.44976   
  1263. RY*(  25) C  68                  0.00001     3.38364   
  1264. RY*(  26) C  68                  0.00001     2.72609   
  1265. RY*(   1) C  69                  0.00502     1.57033   
  1266. RY*(   2) C  69                  0.00206     1.57812   
  1267. RY*(   3) C  69                  0.00120     0.52924   
  1268. RY*(   4) C  69                  0.00082     1.49160   
  1269. RY*(   5) C  69                  0.00060     1.31194   
  1270. RY*(   6) C  69                  0.00033     3.18973   
  1271. RY*(   7) C  69                  0.00021     1.76671   
  1272. RY*(   8) C  69                  0.00008     2.03847   
  1273. RY*(   9) C  69                  0.00005     1.79227   
  1274. RY*(  10) C  69                  0.00004     1.52119   
  1275. RY*(  11) C  69                  0.00003     2.63544   
  1276. RY*(  12) C  69                  0.00002     2.12650   
  1277. RY*(  13) C  69                  0.00000     3.27766   
  1278. RY*(  14) C  69                  0.00001     2.15295   
  1279. RY*(  15) C  69                  0.00001     2.74174   
  1280. RY*(  16) C  69                  0.00000    21.23068   
  1281. RY*(  17) C  69                  0.00001     1.57021   
  1282. RY*(  18) C  69                  0.00000     1.73028   
  1283. RY*(  19) C  69                  0.00000     3.03227   
  1284. RY*(  20) C  69                  0.00000     3.47255   
  1285. RY*(  21) C  69                  0.00000     3.30671   
  1286. RY*(  22) C  69                  0.00000     3.47599   
  1287. RY*(  23) C  69                  0.00001     3.56385   
  1288. RY*(  24) C  69                  0.00000     3.64366   
  1289. RY*(  25) C  69                  0.00001     3.62150   
  1290. RY*(  26) C  69                  0.00000     3.93494   
  1291. RY*(   1) H  70                  0.00033     0.89502   
  1292. RY*(   2) H  70                  0.00019     1.85215   
  1293. RY*(   3) H  70                  0.00012     2.15542   
  1294. RY*(   4) H  70                  0.00008     2.75010   
  1295. RY*(   5) H  70                  0.00002     3.09458   
  1296. RY*(   1) H  71                  0.00040     1.02629   
  1297. RY*(   2) H  71                  0.00019     1.86588   
  1298. RY*(   3) H  71                  0.00011     2.16267   
  1299. RY*(   4) H  71                  0.00008     2.75028   
  1300. RY*(   5) H  71                  0.00001     3.07973   
  1301. RY*(   1) H  72                  0.00143     1.00529   
  1302. RY*(   2) H  72                  0.00026     2.40650   
  1303. RY*(   3) H  72                  0.00012     2.70586   
  1304. RY*(   4) H  72                  0.00013     2.34335   
  1305. RY*(   5) H  72                  0.00002     3.19204   
  1306. RY*(   1) H  73                  0.00047     1.39030   
  1307. RY*(   2) H  73                  0.00017     1.62137   
  1308. RY*(   3) H  73                  0.00015     2.18677   
  1309. RY*(   4) H  73                  0.00013     2.78402   
  1310. RY*(   5) H  73                  0.00002     3.08243   
  1311. RY*(   1) H  74                  0.00034     0.92752   
  1312. RY*(   2) H  74                  0.00019     1.82665   
  1313. RY*(   3) H  74                  0.00011     2.15576   
  1314. RY*(   4) H  74                  0.00008     2.75552   
  1315. RY*(   5) H  74                  0.00002     3.09364   
  1316. BD*(   1) P   1 - C   5          0.03406     0.22735   
  1317. BD*(   1) P   1 - C  14          0.04933     0.17746   
  1318. BD*(   1) P   1 - C  27          0.07665     0.17950   
  1319. BD*(   1) P   2 - C  16          0.04933     0.17746   
  1320. BD*(   1) P   2 - C  26          0.03406     0.22735   
  1321. BD*(   1) P   2 - C  40          0.07665     0.17950   
  1322. BD*(   1) O   3 - C  13          0.03083     0.34135   
  1323. BD*(   1) O   3 - C  14          0.04578     0.24518   
  1324. BD*(   1) O   4 - C  16          0.04578     0.24518   
  1325. BD*(   1) O   4 - C  18          0.03091     0.34131   
  1326. BD*(   1) C   5 - C   6          0.03271     0.52273   
  1327. BD*(   1) C   5 - C  13          0.04564     0.49458   
  1328. BD*(   2) C   5 - C  13          0.42324     0.01553  1336(v),1330(v),1318(v)
                                                    368(v),399(g)
  1329. BD*(   1) C   6 - C   7          0.02462     0.52164   
  1330. BD*(   2) C   6 - C   7          0.36077     0.03136  1336(v),1389(v),1328(v)
                                                    305(g),1386(v),1388(v)
  1331. BD*(   1) C   6 - C  56          0.02789     0.44881   
  1332. BD*(   1) C   7 - H   8          0.01343     0.40478   
  1333. BD*(   1) C   7 - C   9          0.01307     0.54004   
  1334. BD*(   1) C   9 - H  10          0.01242     0.40460   
  1335. BD*(   1) C   9 - C  11          0.01206     0.53830   
  1336. BD*(   2) C   9 - C  11          0.34338     0.02291  1328(v),1330(v),337(g)
                                                    368(g)
  1337. BD*(   1) C  11 - H  12          0.01343     0.39716   
  1338. BD*(   1) C  11 - C  13          0.02695     0.52419   
  1339. BD*(   1) C  14 - H  15          0.02291     0.35175   
  1340. BD*(   1) C  14 - C  16          0.04925     0.30952   
  1341. BD*(   1) C  16 - H  17          0.02291     0.35176   
  1342. BD*(   1) C  18 - C  19          0.02694     0.52423   
  1343. BD*(   2) C  18 - C  19          0.37830     0.02154  1349(v),1353(v),513(g)
  1344. BD*(   1) C  18 - C  26          0.04568     0.49459   
  1345. BD*(   1) C  19 - H  20          0.01342     0.39716   
  1346. BD*(   1) C  19 - C  21          0.01203     0.53834   
  1347. BD*(   1) C  21 - H  22          0.01242     0.40460   
  1348. BD*(   1) C  21 - C  23          0.01308     0.54002   
  1349. BD*(   2) C  21 - C  23          0.34705     0.02510  1353(v),1343(v),544(g)
                                                    574(g)
  1350. BD*(   1) C  23 - H  24          0.01346     0.40474   
  1351. BD*(   1) C  23 - C  25          0.02472     0.52170   
  1352. BD*(   1) C  25 - C  26          0.03268     0.52263   
  1353. BD*(   2) C  25 - C  26          0.41823     0.02598  1349(v),1343(v),1400(v)
                                                    1321(v),1399(v),1402(v)
                                                    574(v),605(g),606(g),632(g)
  1354. BD*(   1) C  25 - C  67          0.02790     0.44873   
  1355. BD*(   1) C  27 - C  28          0.02333     0.33198   
  1356. BD*(   1) C  27 - C  32          0.03055     0.33740   
  1357. BD*(   1) C  27 - C  36          0.02241     0.33348   
  1358. BD*(   1) C  28 - H  29          0.01161     0.37076   
  1359. BD*(   1) C  28 - H  30          0.00724     0.37054   
  1360. BD*(   1) C  28 - H  31          0.00734     0.37772   
  1361. BD*(   1) C  32 - H  33          0.00787     0.38990   
  1362. BD*(   1) C  32 - H  34          0.00766     0.38545   
  1363. BD*(   1) C  32 - H  35          0.01417     0.37605   
  1364. BD*(   1) C  36 - H  37          0.01099     0.37117   
  1365. BD*(   1) C  36 - H  38          0.00741     0.38563   
  1366. BD*(   1) C  36 - H  39          0.00698     0.38586   
  1367. BD*(   1) C  40 - C  41          0.02241     0.33348   
  1368. BD*(   1) C  40 - C  45          0.03055     0.33741   
  1369. BD*(   1) C  40 - C  49          0.02333     0.33198   
  1370. BD*(   1) C  41 - H  42          0.00741     0.38563   
  1371. BD*(   1) C  41 - H  43          0.01099     0.37116   
  1372. BD*(   1) C  41 - H  44          0.00698     0.38586   
  1373. BD*(   1) C  45 - H  46          0.01417     0.37605   
  1374. BD*(   1) C  45 - H  47          0.00787     0.38990   
  1375. BD*(   1) C  45 - H  48          0.00766     0.38545   
  1376. BD*(   1) C  49 - H  50          0.00724     0.37054   
  1377. BD*(   1) C  49 - H  51          0.00734     0.37772   
  1378. BD*(   1) C  49 - H  52          0.01161     0.37076   
  1379. BD*(   1) C  53 - C  54          0.01461     0.53606   
  1380. BD*(   1) C  53 - C  58          0.01464     0.54104   
  1381. BD*(   2) C  53 - C  58          0.33488     0.02823  1384(v),1389(v),956(g)
                                                    1086(g)
  1382. BD*(   1) C  53 - H  59          0.01305     0.40602   
  1383. BD*(   1) C  54 - C  55          0.01354     0.54506   
  1384. BD*(   2) C  54 - C  55          0.32911     0.02800  1381(v),1389(v),982(g)
                                                    1008(g)
  1385. BD*(   1) C  54 - H  60          0.01323     0.40420   
  1386. BD*(   1) C  55 - C  56          0.02393     0.52551   
  1387. BD*(   1) C  55 - H  61          0.01359     0.40461   
  1388. BD*(   1) C  56 - C  57          0.02455     0.53094   
  1389. BD*(   2) C  56 - C  57          0.35329     0.03560  1381(v),1384(v),1330(v)
                                                    1060(g),1326(v),1329(v)
  1390. BD*(   1) C  57 - C  58          0.01344     0.54882   
  1391. BD*(   1) C  57 - H  62          0.01380     0.41318   
  1392. BD*(   1) C  58 - H  63          0.01330     0.40710   
  1393. BD*(   1) C  64 - C  65          0.01464     0.54104   
  1394. BD*(   2) C  64 - C  65          0.33488     0.02824  1404(v),1400(v),1137(g)
                                                    1163(g)
  1395. BD*(   1) C  64 - C  69          0.01461     0.53606   
  1396. BD*(   1) C  64 - H  70          0.01305     0.40602   
  1397. BD*(   1) C  65 - C  66          0.01344     0.54883   
  1398. BD*(   1) C  65 - H  71          0.01330     0.40710   
  1399. BD*(   1) C  66 - C  67          0.02455     0.53094   
  1400. BD*(   2) C  66 - C  67          0.35329     0.03561  1394(v),1404(v),1353(v)
                                                    1189(g),1352(v),1351(v)
  1401. BD*(   1) C  66 - H  72          0.01380     0.41318   
  1402. BD*(   1) C  67 - C  68          0.02393     0.52551   
  1403. BD*(   1) C  68 - C  69          0.01354     0.54506   
  1404. BD*(   2) C  68 - C  69          0.32911     0.02800  1394(v),1400(v),1267(g)
                                                    1241(g)
  1405. BD*(   1) C  68 - H  73          0.01359     0.40461   
  1406. BD*(   1) C  69 - H  74          0.01323     0.40420   
       -------------------------------
              Total Lewis  279.51313  ( 97.7319%)
        Valence non-Lewis    5.97703  (  2.0899%)
        Rydberg non-Lewis    0.50984  (  0.1783%)
       -------------------------------
            Total unit  1  286.00000  (100.0000%)
           Charge unit  1    0.00000
 1\1\GINC-NOTCH077\SP\RPBE1PBE\def2TZVP\C34H36O2P2\U1010977\02-Nov-2021
 \0\\# PBE1PBE/def2TZVP int=(grid=ultrafine) empiricaldispersion=GD3BJ 
 pop=nbo guess=read geom=check\\title\\0,1\P,0,11.2195918776,-5.9872549
 894,7.2637737982\P,0,13.2395018649,-3.8238971229,6.2665034446\O,0,10.5
 044998872,-6.4005059808,4.6932483076\O,0,11.7957201357,-3.6277098865,3
 .993456248\C,0,11.5778008542,-7.5956904738,6.4683139447\C,0,12.1331117
 751,-8.7879849309,6.9909623827\C,0,12.0553884571,-9.9512495844,6.19518
 31625\H,0,12.4972722103,-10.8757463624,6.5782214017\C,0,11.4744182086,
 -9.9249843329,4.9197643527\H,0,11.4423337512,-10.8420214856,4.32289092
 23\C,0,10.9633790652,-8.7382862369,4.3780496849\H,0,10.5272888323,-8.6
 946643844,3.3767396659\C,0,11.026462572,-7.5838802031,5.1652554008\C,0
 ,10.9164978602,-5.2986794319,5.5330385975\H,0,10.0972797453,-4.5618801
 703,5.5326115246\C,0,12.1802233248,-4.6494545332,4.9406680888\H,0,12.7
 525386406,-5.4110745347,4.3871516126\C,0,11.7574936582,-2.3957099063,4
 .606911846\C,0,11.1767414904,-1.3060433732,3.9498900494\H,0,10.7265602
 116,-1.4387618121,2.9627619242\C,0,11.1974096168,-0.0659089013,4.60143
 42225\H,0,10.7451288983,0.8024208485,4.1118525832\C,0,11.7547055372,0.
 0747771171,5.8799259877\H,0,11.7125564592,1.0394335416,6.3940607798\C,
 0,12.332322582,-1.0225958933,6.5541824003\C,0,12.3556466287,-2.2683400
 442,5.8828655845\C,0,9.5028209029,-6.1657062243,8.0571986335\C,0,9.166
 5821978,-4.7931525237,8.6688888896\H,0,8.1629364259,-4.842453331,9.129
 1965582\H,0,9.1417355564,-3.995539284,7.9033422642\H,0,9.8976251805,-4
 .5204527129,9.447512041\C,0,8.4477234405,-6.5707349571,7.0115438731\H,
 0,8.6898500313,-7.5321559333,6.5297186406\H,0,8.3036239521,-5.81073396
 82,6.2260486195\H,0,7.4825451117,-6.6932796409,7.5361549663\C,0,9.5972
 680279,-7.25792172,9.1399348492\H,0,8.621393339,-7.3221571696,9.655541
 3153\H,0,10.37436746,-7.0262705357,9.8845501895\H,0,9.8099103679,-8.24
 38183735,8.6931378062\C,0,14.9712625111,-3.6438980501,5.506715592\C,0,
 15.6756692857,-2.471443025,6.2161731884\H,0,15.7163057418,-2.620951155
 4,7.306124458\H,0,16.7092688473,-2.4014169144,5.8300671363\H,0,15.1688
 997273,-1.5150897723,6.0030870195\C,0,14.8872933864,-3.3532601127,3.99
 70307335\H,0,15.9184696621,-3.2240832275,3.6204768389\H,0,14.335588173
 ,-2.4229317486,3.7843763715\H,0,14.4257337407,-4.1740887365,3.42381823
 87\C,0,15.6960429171,-4.9774231103,5.7665900871\H,0,15.1707738394,-5.8
 30288463,5.2979972923\H,0,15.7941627687,-5.1668609142,6.8480372112\H,0
 ,16.7076410383,-4.927303445,5.3241253167\C,0,14.1284561721,-8.93532419
 65,10.7960040975\C,0,13.1407149705,-9.8825184137,10.4834701809\C,0,12.
 488670726,-9.8376802855,9.2460076084\C,0,12.8129764152,-8.8360893989,8
 .3073660165\C,0,13.8192230153,-7.902875298,8.6261983003\C,0,14.4672813
 777,-7.9449398909,9.8654491637\H,0,14.6238195481,-8.9623554408,11.7717
 779412\H,0,12.8664419611,-10.6516862035,11.2129623072\H,0,11.699793179
 3,-10.5604562001,9.0098576209\H,0,14.101237254,-7.1365058703,7.8948912
 029\H,0,15.2098955849,-7.1773015644,10.1018062759\C,0,13.8170620543,-0
 .5255754807,10.5579243528\C,0,12.9326302175,-1.5709552798,10.263717146
 1\C,0,12.4476628603,-1.7268589342,8.9606486077\C,0,12.8530703874,-0.85
 38371646,7.9317880537\C,0,13.7334228407,0.2037897788,8.241318551\C,0,1
 4.2142970441,0.3624596139,9.5459528016\H,0,14.2090993862,-0.4093815084
 ,11.5733336494\H,0,12.6368726842,-2.2938313098,11.0296064416\H,0,11.74
 1697663,-2.535987519,8.7402216036\H,0,14.0618023944,0.8804326272,7.444
 5616488\H,0,14.9136717049,1.1744733124,9.7707024736\\Version=ES64L-G16
 RevB.01\State=1-A\HF=-2149.1050368\RMSD=4.197e-09\Dipole=0.154005,0.01
 54527,0.3456899\Quadrupole=-3.7621787,4.682603,-0.9204243,3.8099339,1.
 3195594,-1.9268843\PG=C01 [X(C34H36O2P2)]\\@


 A people that values its privileges above its principles soon loses both.
 -- Dwight D. Eisenhower
 Job cpu time:       0 days  1 hours  6 minutes 54.2 seconds.
 Elapsed time:       0 days  0 hours  2 minutes  6.2 seconds.
 File lengths (MBytes):  RWF=   1011 Int=      0 D2E=      0 Chk=    152 Scr=      1
 Normal termination of Gaussian 16 at Tue Nov  2 12:36:44 2021.
