 Entering Gaussian System, Link 0=/uufs/chpc.utah.edu/sys/installdir/gaussian16/B01/E6B/g16/g16
 Input=SSSS-Ph-BIBOP_1_SPE.com
 Output=SSSS-Ph-BIBOP_1_SPE.log
 Initial command:
 /uufs/chpc.utah.edu/sys/installdir/gaussian16/B01/E6B/g16/l1.exe "/scratch/general/lustre/u1010977/3356310/notchpeak.peaks/Gau-259659.inp" -scrdir="/scratch/general/lustre/u1010977/3356310/notchpeak.peaks/"
 Entering Link 1 = /uufs/chpc.utah.edu/sys/installdir/gaussian16/B01/E6B/g16/l1.exe PID=    259661.
  
 Copyright (c) 1988-2017, Gaussian, Inc.  All Rights Reserved.
  
 This is part of the Gaussian(R) 16 program.  It is based on
 the Gaussian(R) 09 system (copyright 2009, Gaussian, Inc.),
 the Gaussian(R) 03 system (copyright 2003, Gaussian, Inc.),
 the Gaussian(R) 98 system (copyright 1998, Gaussian, Inc.),
 the Gaussian(R) 94 system (copyright 1995, Gaussian, Inc.),
 the Gaussian 92(TM) system (copyright 1992, Gaussian, Inc.),
 the Gaussian 90(TM) system (copyright 1990, Gaussian, Inc.),
 the Gaussian 88(TM) system (copyright 1988, Gaussian, Inc.),
 the Gaussian 86(TM) system (copyright 1986, Carnegie Mellon
 University), and the Gaussian 82(TM) system (copyright 1983,
 Carnegie Mellon University). Gaussian is a federally registered
 trademark of Gaussian, Inc.
  
 This software contains proprietary and confidential information,
 including trade secrets, belonging to Gaussian, Inc.
  
 This software is provided under written license and may be
 used, copied, transmitted, or stored only in accord with that
 written license.
  
 The following legend is applicable only to US Government
 contracts under FAR:
  
                    RESTRICTED RIGHTS LEGEND
  
 Use, reproduction and disclosure by the US Government is
 subject to restrictions as set forth in subparagraphs (a)
 and (c) of the Commercial Computer Software - Restricted
 Rights clause in FAR 52.227-19.
  
 Gaussian, Inc.
 340 Quinnipiac St., Bldg. 40, Wallingford CT 06492
  
  
 ---------------------------------------------------------------
 Warning -- This program may not be used in any manner that
 competes with the business of Gaussian, Inc. or will provide
 assistance to any competitor of Gaussian, Inc.  The licensee
 of this program is prohibited from giving any competitor of
 Gaussian, Inc. access to this program.  By using this program,
 the user acknowledges that Gaussian, Inc. is engaged in the
 business of creating and licensing software in the field of
 computational chemistry and represents and warrants to the
 licensee that it is not a competitor of Gaussian, Inc. and that
 it will not use this program in any manner prohibited above.
 ---------------------------------------------------------------
  

 Cite this work as:
 Gaussian 16, Revision B.01,
 M. J. Frisch, G. W. Trucks, H. B. Schlegel, G. E. Scuseria, 
 M. A. Robb, J. R. Cheeseman, G. Scalmani, V. Barone, 
 G. A. Petersson, H. Nakatsuji, X. Li, M. Caricato, A. V. Marenich, 
 J. Bloino, B. G. Janesko, R. Gomperts, B. Mennucci, H. P. Hratchian, 
 J. V. Ortiz, A. F. Izmaylov, J. L. Sonnenberg, D. Williams-Young, 
 F. Ding, F. Lipparini, F. Egidi, J. Goings, B. Peng, A. Petrone, 
 T. Henderson, D. Ranasinghe, V. G. Zakrzewski, J. Gao, N. Rega, 
 G. Zheng, W. Liang, M. Hada, M. Ehara, K. Toyota, R. Fukuda, 
 J. Hasegawa, M. Ishida, T. Nakajima, Y. Honda, O. Kitao, H. Nakai, 
 T. Vreven, K. Throssell, J. A. Montgomery, Jr., J. E. Peralta, 
 F. Ogliaro, M. J. Bearpark, J. J. Heyd, E. N. Brothers, K. N. Kudin, 
 V. N. Staroverov, T. A. Keith, R. Kobayashi, J. Normand, 
 K. Raghavachari, A. P. Rendell, J. C. Burant, S. S. Iyengar, 
 J. Tomasi, M. Cossi, J. M. Millam, M. Klene, C. Adamo, R. Cammi, 
 J. W. Ochterski, R. L. Martin, K. Morokuma, O. Farkas, 
 J. B. Foresman, and D. J. Fox, Gaussian, Inc., Wallingford CT, 2016.
 
 ******************************************
 Gaussian 16:  ES64L-G16RevB.01 20-Dec-2017
                 2-Nov-2021 
 ******************************************
 %NProcShared=32
 Will use up to   32 processors via shared memory.
 %mem=18GB
 %chk=SSSS-Ph-BIBOP_1_SPE.chk
 ----------------------------------------------------------------------
 # PBE1PBE gen pseudo=read int=(grid=ultrafine) empiricaldispersion=GD3
 BJ nmr=giao
 ----------------------------------------------------------------------
 1/38=1,172=1/1;
 2/12=2,17=6,18=5,40=1/2;
 3/5=7,11=2,16=1,17=8,25=1,30=1,74=-13,75=-5,124=41/1,2,3,8;
 4//1;
 5/5=2,38=5/2;
 8/6=1,10=90,11=11/1;
 10/13=100,45=16/2;
 6/7=2,8=2,9=2,10=2,28=1/1;
 99/9=1/99;
 -----
 title
 -----
 Symbolic Z-matrix:
 Charge =  0 Multiplicity = 1
 P                     11.21959  -5.98725   7.26377 
 P                     13.2395  -3.8239    6.2665 
 O                     10.5045  -6.40051   4.69325 
 O                     11.79572  -3.62771   3.99346 
 C                     11.5778  -7.59569   6.46831 
 C                     12.13311  -8.78798   6.99096 
 C                     12.05539  -9.95125   6.19518 
 H                     12.49727  -10.87575   6.57822 
 C                     11.47442  -9.92498   4.91976 
 H                     11.44233  -10.84202   4.32289 
 C                     10.96338  -8.73829   4.37805 
 H                     10.52729  -8.69466   3.37674 
 C                     11.02646  -7.58388   5.16526 
 C                     10.9165  -5.29868   5.53304 
 H                     10.09728  -4.56188   5.53261 
 C                     12.18022  -4.64945   4.94067 
 H                     12.75254  -5.41107   4.38715 
 C                     11.75749  -2.39571   4.60691 
 C                     11.17674  -1.30604   3.94989 
 H                     10.72656  -1.43876   2.96276 
 C                     11.19741  -0.06591   4.60143 
 H                     10.74513   0.80242   4.11185 
 C                     11.75471   0.07478   5.87993 
 H                     11.71256   1.03943   6.39406 
 C                     12.33232  -1.0226    6.55418 
 C                     12.35565  -2.26834   5.88287 
 C                     9.50282  -6.16571   8.0572 
 C                     9.16658  -4.79315   8.66889 
 H                     8.16294  -4.84245   9.1292 
 H                     9.14174  -3.99554   7.90334 
 H                     9.89763  -4.52045   9.44751 
 C                     8.44772  -6.57073   7.01154 
 H                     8.68985  -7.53216   6.52972 
 H                     8.30362  -5.81073   6.22605 
 H                     7.48255  -6.69328   7.53615 
 C                     9.59727  -7.25792   9.13993 
 H                     8.62139  -7.32216   9.65554 
 H                     10.37437  -7.02627   9.88455 
 H                     9.80991  -8.24382   8.69314 
 C                     14.97126  -3.6439    5.50672 
 C                     15.67567  -2.47144   6.21617 
 H                     15.71631  -2.62095   7.30612 
 H                     16.70927  -2.40142   5.83007 
 H                     15.1689  -1.51509   6.00309 
 C                     14.88729  -3.35326   3.99703 
 H                     15.91847  -3.22408   3.62048 
 H                     14.33559  -2.42293   3.78438 
 H                     14.42573  -4.17409   3.42382 
 C                     15.69604  -4.97742   5.76659 
 H                     15.17077  -5.83029   5.298 
 H                     15.79416  -5.16686   6.84804 
 H                     16.70764  -4.9273    5.32413 
 Pd                    12.90758  -4.83742   8.28633 
 Cl                    15.02004  -4.16721   9.19454 
 Cl                    12.19081  -5.36736   10.50936 
 C                     14.12846  -8.93532   10.796 
 C                     13.14071  -9.88252   10.48347 
 C                     12.48867  -9.83768   9.24601 
 C                     12.81298  -8.83609   8.30737 
 C                     13.81922  -7.90288   8.6262 
 C                     14.46728  -7.94494   9.86545 
 H                     14.62382  -8.96236   11.77178 
 H                     12.86644  -10.65169   11.21296 
 H                     11.69979  -10.56046   9.00986 
 H                     14.10124  -7.13651   7.89489 
 H                     15.2099  -7.1773    10.10181 
 C                     13.81706  -0.52558   10.55792 
 C                     12.93263  -1.57096   10.26372 
 C                     12.44766  -1.72686   8.96065 
 C                     12.85307  -0.85384   7.93179 
 C                     13.73342   0.20379   8.24132 
 C                     14.2143   0.36246   9.54595 
 H                     14.2091  -0.40938   11.57333 
 H                     12.63687  -2.29383   11.02961 
 H                     11.7417  -2.53599   8.74022 
 H                     14.0618   0.88043   7.44456 
 H                     14.91367   1.17447   9.7707 
 
 Stoichiometry    C34H36Cl2O2P2Pd
 Framework group  C1[X(C34H36Cl2O2P2Pd)]
 Deg. of freedom   225
 Full point group                 C1      NOp   1
 Largest Abelian subgroup         C1      NOp   1
 Largest concise Abelian subgroup C1      NOp   1
                         Standard orientation:                         
 ---------------------------------------------------------------------
 Center     Atomic      Atomic             Coordinates (Angstroms)
 Number     Number       Type             X           Y           Z
 ---------------------------------------------------------------------
      1         15           0        1.297170    0.690759   -0.869353
      2         15           0       -1.297309    0.690784    0.869434
      3          8           0        1.511423    3.344462   -0.420256
      4          8           0       -1.511681    3.344439    0.420100
      5          6           0        2.705748    1.336856    0.103581
      6          6           0        3.835261    0.682809    0.650866
      7          6           0        4.886796    1.488285    1.138689
      8          1           0        5.757865    0.996824    1.581835
      9          6           0        4.807544    2.887495    1.109701
     10          1           0        5.635056    3.482803    1.508545
     11          6           0        3.673265    3.541165    0.610707
     12          1           0        3.585025    4.630577    0.600999
     13          6           0        2.631929    2.749830    0.114991
     14          6           0        0.465775    2.365374   -0.612655
     15          1           0       -0.107755    2.668810   -1.503150
     16          6           0       -0.465987    2.365415    0.612587
     17          1           0        0.107526    2.668964    1.503054
     18          6           0       -2.632128    2.749704   -0.115158
     19          6           0       -3.673462    3.540933   -0.611044
     20          1           0       -3.585288    4.630351   -0.601423
     21          6           0       -4.807647    2.887149   -1.110107
     22          1           0       -5.635148    3.482373   -1.509099
     23          6           0       -4.886794    1.487931   -1.139018
     24          1           0       -5.757768    0.996377   -1.582247
     25          6           0       -3.835256    0.682564   -0.651021
     26          6           0       -2.705861    1.336729   -0.103640
     27          6           0        1.874736    0.672229   -2.678979
     28          6           0        0.669907    0.194564   -3.510454
     29          1           0        0.953404    0.184709   -4.578700
     30          1           0       -0.198633    0.870684   -3.403848
     31          1           0        0.369393   -0.824532   -3.216893
     32          6           0        2.329255    2.072246   -3.130684
     33          1           0        3.165445    2.452844   -2.521551
     34          1           0        1.516210    2.816616   -3.115162
     35          1           0        2.685328    1.991058   -4.173959
     36          6           0        3.057558   -0.309618   -2.784240
     37          1           0        3.357500   -0.380625   -3.845984
     38          1           0        2.784732   -1.314730   -2.427429
     39          1           0        3.927206    0.052006   -2.209977
     40          6           0       -1.874913    0.672456    2.679050
     41          6           0       -3.057622   -0.309511    2.784449
     42          1           0       -2.784686   -1.314641    2.427774
     43          1           0       -3.357550   -0.380406    3.846205
     44          1           0       -3.927314    0.051935    2.210143
     45          6           0       -2.329600    2.072495    3.130512
     46          1           0       -2.685667    1.991448    4.173800
     47          1           0       -3.165830    2.452889    2.521306
     48          1           0       -1.516639    2.816954    3.114859
     49          6           0       -0.670045    0.195075    3.510635
     50          1           0        0.198417    0.871279    3.403925
     51          1           0       -0.369408   -0.824040    3.217269
     52          1           0       -0.953561    0.185378    4.578877
     53         46           0       -0.000023   -0.976081    0.000128
     54         17           0       -0.918604   -2.691579    1.396468
     55         17           0        0.918694   -2.691658   -1.396020
     56          6           0        4.092381   -3.595328    0.986856
     57          6           0        5.154489   -2.869583    0.424976
     58          6           0        5.074432   -1.476865    0.313561
     59          6           0        3.923274   -0.793135    0.757132
     60          6           0        2.872296   -1.531582    1.336109
     61          6           0        2.950575   -2.924424    1.442667
     62          1           0        4.150727   -4.686222    1.056103
     63          1           0        6.044074   -3.392301    0.058359
     64          1           0        5.891443   -0.910901   -0.147609
     65          1           0        1.983841   -1.010242    1.710966
     66          1           0        2.098027   -3.473597    1.852766
     67          6           0       -4.091844   -3.595605   -0.986969
     68          6           0       -2.950014   -2.924587   -1.442554
     69          6           0       -2.871914   -1.531735   -1.336019
     70          6           0       -3.923099   -0.793393   -0.757282
     71          6           0       -5.074272   -1.477237   -0.313929
     72          6           0       -5.154151   -2.869967   -0.425329
     73          1           0       -4.150051   -4.686508   -1.056200
     74          1           0       -2.097317   -3.473678   -1.852450
     75          1           0       -1.983423   -1.010309   -1.710671
     76          1           0       -5.891441   -0.911352    0.147057
     77          1           0       -6.043753   -3.392775   -0.058882
 ---------------------------------------------------------------------
 Rotational constants (GHZ):           0.1090671           0.0694747           0.0572366
 General basis read from cards:  (5D, 7F)
 ======================================================================================================
                                       Pseudopotential Parameters
 ======================================================================================================
  Center     Atomic      Valence      Angular      Power
  Number     Number     Electrons     Momentum     of R      Exponent        Coefficient   SO-Coeffient
 ======================================================================================================
    1         15
                                   No pseudopotential on this center.
    2         15
                                   No pseudopotential on this center.
    3          8
                                   No pseudopotential on this center.
    4          8
                                   No pseudopotential on this center.
    5          6
                                   No pseudopotential on this center.
    6          6
                                   No pseudopotential on this center.
    7          6
                                   No pseudopotential on this center.
    8          1
                                   No pseudopotential on this center.
    9          6
                                   No pseudopotential on this center.
   10          1
                                   No pseudopotential on this center.
   11          6
                                   No pseudopotential on this center.
   12          1
                                   No pseudopotential on this center.
   13          6
                                   No pseudopotential on this center.
   14          6
                                   No pseudopotential on this center.
   15          1
                                   No pseudopotential on this center.
   16          6
                                   No pseudopotential on this center.
   17          1
                                   No pseudopotential on this center.
   18          6
                                   No pseudopotential on this center.
   19          6
                                   No pseudopotential on this center.
   20          1
                                   No pseudopotential on this center.
   21          6
                                   No pseudopotential on this center.
   22          1
                                   No pseudopotential on this center.
   23          6
                                   No pseudopotential on this center.
   24          1
                                   No pseudopotential on this center.
   25          6
                                   No pseudopotential on this center.
   26          6
                                   No pseudopotential on this center.
   27          6
                                   No pseudopotential on this center.
   28          6
                                   No pseudopotential on this center.
   29          1
                                   No pseudopotential on this center.
   30          1
                                   No pseudopotential on this center.
   31          1
                                   No pseudopotential on this center.
   32          6
                                   No pseudopotential on this center.
   33          1
                                   No pseudopotential on this center.
   34          1
                                   No pseudopotential on this center.
   35          1
                                   No pseudopotential on this center.
   36          6
                                   No pseudopotential on this center.
   37          1
                                   No pseudopotential on this center.
   38          1
                                   No pseudopotential on this center.
   39          1
                                   No pseudopotential on this center.
   40          6
                                   No pseudopotential on this center.
   41          6
                                   No pseudopotential on this center.
   42          1
                                   No pseudopotential on this center.
   43          1
                                   No pseudopotential on this center.
   44          1
                                   No pseudopotential on this center.
   45          6
                                   No pseudopotential on this center.
   46          1
                                   No pseudopotential on this center.
   47          1
                                   No pseudopotential on this center.
   48          1
                                   No pseudopotential on this center.
   49          6
                                   No pseudopotential on this center.
   50          1
                                   No pseudopotential on this center.
   51          1
                                   No pseudopotential on this center.
   52          1
                                   No pseudopotential on this center.
   53         46           18
                                      G and up 
                                                     2        1.0000000        0.00000000    0.00000000
                                      S - G
                                                     2       12.4300000      240.22904000    0.00000000
                                                     2        6.1707590       35.17194300    0.00000000
                                      P - G
                                                     2       11.0800000      170.41727600    0.00000000
                                                     2        5.8295540       28.47213300    0.00000000
                                      D - G
                                                     2        9.5100000       69.01384500    0.00000000
                                                     2        4.1397810       11.75086200    0.00000000
                                      F - G
                                                     2       13.2700000      -31.92955400    0.00000000
                                                     2        6.6300000       -5.39821700    0.00000000
   54         17
                                   No pseudopotential on this center.
   55         17
                                   No pseudopotential on this center.
   56          6
                                   No pseudopotential on this center.
   57          6
                                   No pseudopotential on this center.
   58          6
                                   No pseudopotential on this center.
   59          6
                                   No pseudopotential on this center.
   60          6
                                   No pseudopotential on this center.
   61          6
                                   No pseudopotential on this center.
   62          1
                                   No pseudopotential on this center.
   63          1
                                   No pseudopotential on this center.
   64          1
                                   No pseudopotential on this center.
   65          1
                                   No pseudopotential on this center.
   66          1
                                   No pseudopotential on this center.
   67          6
                                   No pseudopotential on this center.
   68          6
                                   No pseudopotential on this center.
   69          6
                                   No pseudopotential on this center.
   70          6
                                   No pseudopotential on this center.
   71          6
                                   No pseudopotential on this center.
   72          6
                                   No pseudopotential on this center.
   73          1
                                   No pseudopotential on this center.
   74          1
                                   No pseudopotential on this center.
   75          1
                                   No pseudopotential on this center.
   76          1
                                   No pseudopotential on this center.
   77          1
                                   No pseudopotential on this center.
 ======================================================================================================
 There are  1719 symmetry adapted cartesian basis functions of A   symmetry.
 There are  1516 symmetry adapted basis functions of A   symmetry.
  1516 basis functions,  2465 primitive gaussians,  1719 cartesian basis functions
   169 alpha electrons      169 beta electrons
       nuclear repulsion energy      6665.8557251194 Hartrees.
 NAtoms=   77 NActive=   77 NUniq=   77 SFac= 1.00D+00 NAtFMM=   60 NAOKFM=T Big=T
 Integral buffers will be    131072 words long.
 Raffenetti 2 integral format.
 Two-electron integral symmetry is turned on.
 Nuclear repulsion after empirical dispersion term =     6665.7143746529 Hartrees.
 One-electron integrals computed using PRISM.
   1 Symmetry operations used in ECPInt.
 ECPInt:  NShTT=  183921 NPrTT=  568700 LenC2=  149254 LenP2D=  307585.
 LDataN:  DoStor=T MaxTD1= 7 Len=  274
 Number of processors reduced to  24 by ecpmxn.
 NBasis=  1516 RedAO= T EigKep=  5.62D-06  NBF=  1516
 NBsUse=  1516 1.00D-06 EigRej= -1.00D+00 NBFU=  1516
 Defaulting to unpruned grid for atomic number  46.
 ExpMin= 1.60D-02 ExpMax= 6.95D+04 ExpMxC= 2.37D+03 IAcc=3 IRadAn=         5 AccDes= 0.00D+00
 Harris functional with IExCor= 1009 and IRadAn=       5 diagonalized for initial guess.
 HarFok:  IExCor= 1009 AccDes= 0.00D+00 IRadAn=         5 IDoV= 1 UseB2=F ITyADJ=14
 ICtDFT=  3500011 ScaDFX=  1.000000  1.000000  1.000000  1.000000
 Defaulting to unpruned grid for atomic number  46.
 FoFCou: FMM=F IPFlag=           0 FMFlag=      100000 FMFlg1=        2001
         NFxFlg=           0 DoJE=T BraDBF=F KetDBF=T FulRan=T
         wScrn=  0.000000 ICntrl=       500 IOpCl=  0 I1Cent=   200000004 NGrid=           0
         NMat0=    1 NMatS0=      1 NMatT0=    0 NMatD0=    1 NMtDS0=    0 NMtDT0=    0
 Petite list used in FoFCou.
 Requested convergence on RMS density matrix=1.00D-08 within 128 cycles.
 Requested convergence on MAX density matrix=1.00D-06.
 Requested convergence on             energy=1.00D-06.
 No special actions if energy rises.
 Defaulting to unpruned grid for atomic number  46.
 Defaulting to unpruned grid for atomic number  46.
 Defaulting to unpruned grid for atomic number  46.
 Defaulting to unpruned grid for atomic number  46.
 Defaulting to unpruned grid for atomic number  46.
 Defaulting to unpruned grid for atomic number  46.
 Defaulting to unpruned grid for atomic number  46.
 Defaulting to unpruned grid for atomic number  46.
 Defaulting to unpruned grid for atomic number  46.
 Defaulting to unpruned grid for atomic number  46.
 Defaulting to unpruned grid for atomic number  46.
 Defaulting to unpruned grid for atomic number  46.
 Defaulting to unpruned grid for atomic number  46.
 Defaulting to unpruned grid for atomic number  46.
 Defaulting to unpruned grid for atomic number  46.
 Defaulting to unpruned grid for atomic number  46.
 Defaulting to unpruned grid for atomic number  46.
 Defaulting to unpruned grid for atomic number  46.
 Defaulting to unpruned grid for atomic number  46.
 Defaulting to unpruned grid for atomic number  46.
 Defaulting to unpruned grid for atomic number  46.
 Defaulting to unpruned grid for atomic number  46.
 Defaulting to unpruned grid for atomic number  46.
 Defaulting to unpruned grid for atomic number  46.
 Defaulting to unpruned grid for atomic number  46.
 Defaulting to unpruned grid for atomic number  46.
 Defaulting to unpruned grid for atomic number  46.
 Defaulting to unpruned grid for atomic number  46.
 Defaulting to unpruned grid for atomic number  46.
 Defaulting to unpruned grid for atomic number  46.
 Defaulting to unpruned grid for atomic number  46.
 Defaulting to unpruned grid for atomic number  46.
 EnCoef did     4 forward-backward iterations
 EnCoef did   100 forward-backward iterations
 EnCoef did   100 forward-backward iterations
 EnCoef did     7 forward-backward iterations
 EnCoef did     1 forward-backward iterations
 Restarting incremental Fock formation.
 SCF Done:  E(RPBE1PBE) =  -3197.29433626     A.U. after   21 cycles
            NFock= 21  Conv=0.45D-08     -V/T= 2.0295
 DoSCS=F DFT=T ScalE2(SS,OS)=  1.000000  1.000000
 Range of M.O.s used for correlation:     1  1516
 NBasis=  1516 NAE=   169 NBE=   169 NFC=     0 NFV=     0
 NROrb=   1516 NOA=   169 NOB=   169 NVA=  1347 NVB=  1347

 **** Warning!!: The largest alpha MO coefficient is  0.41038251D+02

          Differentiating once with respect to magnetic field using GIAOs.
          Electric field/nuclear overlap derivatives assumed to be zero.
 Defaulting to unpruned grid for atomic number  46.
 FoFCou: FMM=F IPFlag=           0 FMFlag=      100000 FMFlg1=        2001
         NFxFlg=           0 DoJE=F BraDBF=F KetDBF=T FulRan=T
         wScrn=  0.000000 ICntrl=      6100 IOpCl=  0 I1Cent=           7 NGrid=          77
         NMat0=    1 NMatS0=      1 NMatT0=    0 NMatD0=    1 NMtDS0=    0 NMtDT0=    0
 Symmetry not used in FoFCou.
   1 Symmetry operations used in ECPInt.
 ECPInt:  NShTT=  183921 NPrTT=  568700 LenC2=  183922 LenP2D=  568700.
 LDataN:  DoStor=T MaxTD1= 8 Len=  415
 Number of processors reduced to  16 by ecpmxn.
 FoFJK:  IHMeth= 1 ICntrl=    6127 DoSepK=F KAlg= 0 I1Cent=           0 FoldK=F
 IRaf=         1 NMat=       1 IRICut=       1 DoRegI=T DoRafI=F ISym2E= 0 IDoP0=0 IntGTp=1.
 Defaulting to unpruned grid for atomic number  46.
 Defaulting to unpruned grid for atomic number  46.
 Defaulting to unpruned grid for atomic number  46.
 Defaulting to unpruned grid for atomic number  46.
 Defaulting to unpruned grid for atomic number  46.
 Defaulting to unpruned grid for atomic number  46.
 Defaulting to unpruned grid for atomic number  46.
 Defaulting to unpruned grid for atomic number  46.
 Defaulting to unpruned grid for atomic number  46.
 Defaulting to unpruned grid for atomic number  46.
 Defaulting to unpruned grid for atomic number  46.
 Defaulting to unpruned grid for atomic number  46.
 Defaulting to unpruned grid for atomic number  46.
 Defaulting to unpruned grid for atomic number  46.
 Defaulting to unpruned grid for atomic number  46.
 Defaulting to unpruned grid for atomic number  46.
 Defaulting to unpruned grid for atomic number  46.
 Defaulting to unpruned grid for atomic number  46.
 Defaulting to unpruned grid for atomic number  46.
 Defaulting to unpruned grid for atomic number  46.
 Defaulting to unpruned grid for atomic number  46.
 Defaulting to unpruned grid for atomic number  46.
 Defaulting to unpruned grid for atomic number  46.
 Defaulting to unpruned grid for atomic number  46.
 Defaulting to unpruned grid for atomic number  46.
 Defaulting to unpruned grid for atomic number  46.
 Defaulting to unpruned grid for atomic number  46.
 Defaulting to unpruned grid for atomic number  46.
 Defaulting to unpruned grid for atomic number  46.
 Defaulting to unpruned grid for atomic number  46.
 Defaulting to unpruned grid for atomic number  46.
 Defaulting to unpruned grid for atomic number  46.
          There are     3 degrees of freedom in the 1st order CPHF.  IDoFFX=0 NUNeed=     3.
      3 vectors produced by pass  0 Test12= 7.59D-12 3.33D-08 XBig12= 2.89D+02 4.00D+00.
 AX will form     3 AO Fock derivatives at one time.
      3 vectors produced by pass  1 Test12= 7.59D-12 3.33D-08 XBig12= 1.63D+00 3.78D-01.
      3 vectors produced by pass  2 Test12= 7.59D-12 3.33D-08 XBig12= 1.18D-02 3.00D-02.
      3 vectors produced by pass  3 Test12= 7.59D-12 3.33D-08 XBig12= 2.33D-04 6.36D-03.
      3 vectors produced by pass  4 Test12= 7.59D-12 3.33D-08 XBig12= 1.90D-06 3.81D-04.
      3 vectors produced by pass  5 Test12= 7.59D-12 3.33D-08 XBig12= 2.12D-08 5.40D-05.
      3 vectors produced by pass  6 Test12= 7.59D-12 3.33D-08 XBig12= 2.24D-10 3.95D-06.
      3 vectors produced by pass  7 Test12= 7.59D-12 3.33D-08 XBig12= 1.35D-12 2.69D-07.
 InvSVY:  IOpt=1 It=  1 EMax= 3.55D-15
 Solved reduced A of dimension    24 with     3 vectors.
 Calculating GIAO nuclear magnetic shielding tensors.
 SCF GIAO Magnetic shielding tensor (ppm):
      1  P    Isotropic =   203.0395   Anisotropy =   158.5748
   XX=   226.1520   YX=    14.6299   ZX=   -85.4097
   XY=    52.6762   YY=   229.3992   ZY=   -64.0491
   XZ=   -55.2203   YZ=   -36.8779   ZZ=   153.5672
   Eigenvalues:   104.5790   195.7834   308.7560
      2  P    Isotropic =   203.0408   Anisotropy =   158.5883
   XX=   226.1649   YX=   -14.6421   ZX=   -85.4207
   XY=   -52.6839   YY=   229.4064   ZY=    64.0354
   XZ=   -55.2245   YZ=    36.8698   ZZ=   153.5512
   Eigenvalues:   104.5704   195.7857   308.7664
      3  O    Isotropic =   163.8103   Anisotropy =    55.2449
   XX=   164.2107   YX=   -18.3653   ZX=    -6.7884
   XY=   -38.4675   YY=   134.2954   ZY=    -1.2550
   XZ=    -1.6642   YZ=   -41.0708   ZZ=   192.9247
   Eigenvalues:   111.9983   178.7923   200.6402
      4  O    Isotropic =   163.8080   Anisotropy =    55.2520
   XX=   164.2031   YX=    18.3616   ZX=    -6.7940
   XY=    38.4692   YY=   134.2994   ZY=     1.2617
   XZ=    -1.6695   YZ=    41.0839   ZZ=   192.9216
   Eigenvalues:   111.9946   178.7868   200.6427
      5  C    Isotropic =    63.5250   Anisotropy =   117.3726
   XX=    42.1778   YX=   -10.6901   ZX=   -63.7416
   XY=   -19.3864   YY=    46.0601   ZY=   -14.3982
   XZ=   -61.5633   YZ=    -1.5545   ZZ=   102.3371
   Eigenvalues:    -3.1046    51.9063   141.7734
      6  C    Isotropic =    25.1248   Anisotropy =   199.1194
   XX=    24.5098   YX=     5.9712   ZX=   -68.1805
   XY=    11.8818   YY=   -61.0212   ZY=     9.7004
   XZ=   -88.3996   YZ=    -3.8871   ZZ=   111.8857
   Eigenvalues:   -63.0605   -19.4363   157.8710
      7  C    Isotropic =    55.5123   Anisotropy =   159.7584
   XX=    15.2537   YX=    33.2755   ZX=   -74.3610
   XY=    30.8116   YY=    32.8090   ZY=    16.2711
   XZ=   -84.2483   YZ=    -0.0225   ZZ=   118.4741
   Eigenvalues:   -41.6111    46.1301   162.0178
      8  H    Isotropic =    23.9936   Anisotropy =     8.7225
   XX=    24.4151   YX=     2.5899   ZX=     1.1496
   XY=     2.3139   YY=    26.8705   ZY=     1.2209
   XZ=     3.6994   YZ=     4.2248   ZZ=    20.6953
   Eigenvalues:    19.1861    22.9861    29.8086
      9  C    Isotropic =    44.9819   Anisotropy =   190.3090
   XX=     4.1046   YX=   -36.1944   ZX=   -79.4781
   XY=   -39.7815   YY=    -2.7901   ZY=   -21.7768
   XZ=   -80.6643   YZ=   -15.9771   ZZ=   133.6313
   Eigenvalues:   -63.6676    26.7588   171.8546
     10  H    Isotropic =    23.6078   Anisotropy =     3.8497
   XX=    24.8022   YX=    -0.5198   ZX=     1.7232
   XY=    -0.8129   YY=    25.5489   ZY=    -0.3639
   XZ=     1.7008   YZ=    -0.0478   ZZ=    20.4722
   Eigenvalues:    19.8770    24.7721    26.1742
     11  C    Isotropic =    69.6173   Anisotropy =   148.3460
   XX=    75.4463   YX=     8.6507   ZX=   -42.3568
   XY=     3.9971   YY=   -16.5831   ZY=    -2.1254
   XZ=   -40.4434   YZ=    -1.2514   ZZ=   149.9886
   Eigenvalues:   -17.0244    57.3616   168.5146
     12  H    Isotropic =    24.2036   Anisotropy =     7.1184
   XX=    26.6781   YX=     1.9888   ZX=     2.5544
   XY=     1.8962   YY=    24.8777   ZY=     0.9894
   XZ=     2.7407   YZ=     1.2893   ZZ=    21.0549
   Eigenvalues:    19.9770    23.6846    28.9491
     13  C    Isotropic =    15.3464   Anisotropy =   116.4840
   XX=   -20.3259   YX=    36.1330   ZX=   -53.3876
   XY=    42.4868   YY=     3.6616   ZY=    20.0678
   XZ=   -61.0106   YZ=    -1.1920   ZZ=    62.7034
   Eigenvalues:   -70.4828    23.5195    93.0024
     14  C    Isotropic =    92.2000   Anisotropy =    57.1093
   XX=   110.2635   YX=    12.5028   ZX=    -6.4611
   XY=    26.3810   YY=   108.9333   ZY=     6.4792
   XZ=   -24.5062   YZ=    -0.8130   ZZ=    57.4032
   Eigenvalues:    52.0175    94.3095   130.2729
     15  H    Isotropic =    26.3853   Anisotropy =     5.4284
   XX=    28.9720   YX=    -1.0524   ZX=    -1.1828
   XY=     0.3722   YY=    25.7917   ZY=    -0.5127
   XZ=    -3.6005   YZ=    -2.1411   ZZ=    24.3923
   Eigenvalues:    22.7643    26.3873    30.0043
     16  C    Isotropic =    92.1975   Anisotropy =    57.1081
   XX=   110.2642   YX=   -12.5019   ZX=    -6.4573
   XY=   -26.3820   YY=   108.9288   ZY=    -6.4843
   XZ=   -24.5033   YZ=     0.8056   ZZ=    57.3995
   Eigenvalues:    52.0143    94.3086   130.2696
     17  H    Isotropic =    26.3853   Anisotropy =     5.4280
   XX=    28.9715   YX=     1.0524   ZX=    -1.1828
   XY=    -0.3723   YY=    25.7920   ZY=     0.5125
   XZ=    -3.6006   YZ=     2.1406   ZZ=    24.3922
   Eigenvalues:    22.7645    26.3873    30.0039
     18  C    Isotropic =    15.3467   Anisotropy =   116.4863
   XX=   -20.3136   YX=   -36.1414   ZX=   -53.3886
   XY=   -42.4924   YY=     3.6555   ZY=   -20.0665
   XZ=   -61.0133   YZ=     1.1974   ZZ=    62.6982
   Eigenvalues:   -70.4822    23.5180    93.0043
     19  C    Isotropic =    69.6176   Anisotropy =   148.3455
   XX=    75.4548   YX=    -8.6525   ZX=   -42.3640
   XY=    -3.9959   YY=   -16.5825   ZY=     2.1368
   XZ=   -40.4490   YZ=     1.2688   ZZ=   149.9805
   Eigenvalues:   -17.0236    57.3618   168.5146
     20  H    Isotropic =    24.2036   Anisotropy =     7.1183
   XX=    26.6778   YX=    -1.9885   ZX=     2.5550
   XY=    -1.8959   YY=    24.8773   ZY=    -0.9897
   XZ=     2.7415   YZ=    -1.2895   ZZ=    21.0558
   Eigenvalues:    19.9773    23.6845    28.9491
     21  C    Isotropic =    44.9815   Anisotropy =   190.3073
   XX=     4.1191   YX=    36.1861   ZX=   -79.4973
   XY=    39.7724   YY=    -2.7819   ZY=    21.7864
   XZ=   -80.6845   YZ=    15.9868   ZZ=   133.6072
   Eigenvalues:   -63.6669    26.7583   171.8530
     22  H    Isotropic =    23.6079   Anisotropy =     3.8496
   XX=    24.8019   YX=     0.5198   ZX=     1.7234
   XY=     0.8129   YY=    25.5490   ZY=     0.3639
   XZ=     1.7010   YZ=     0.0478   ZZ=    20.4727
   Eigenvalues:    19.8774    24.7720    26.1743
     23  C    Isotropic =    55.5136   Anisotropy =   159.7605
   XX=    15.2825   YX=   -33.2788   ZX=   -74.3695
   XY=   -30.8144   YY=    32.8036   ZY=   -16.2747
   XZ=   -84.2659   YZ=     0.0168   ZZ=   118.4547
   Eigenvalues:   -41.6089    46.1291   162.0206
     24  H    Isotropic =    23.9936   Anisotropy =     8.7223
   XX=    24.4150   YX=    -2.5892   ZX=     1.1500
   XY=    -2.3139   YY=    26.8699   ZY=    -1.2213
   XZ=     3.7003   YZ=    -4.2250   ZZ=    20.6958
   Eigenvalues:    19.1860    22.9862    29.8085
     25  C    Isotropic =    25.1242   Anisotropy =   199.1169
   XX=    24.5308   YX=    -5.9652   ZX=   -68.1900
   XY=   -11.8737   YY=   -61.0225   ZY=    -9.7029
   XZ=   -88.4093   YZ=     3.8836   ZZ=   111.8643
   Eigenvalues:   -63.0595   -19.4366   157.8688
     26  C    Isotropic =    63.5259   Anisotropy =   117.3712
   XX=    42.1870   YX=    10.6901   ZX=   -63.7508
   XY=    19.3817   YY=    46.0649   ZY=    14.4011
   XZ=   -61.5662   YZ=     1.5455   ZZ=   102.3258
   Eigenvalues:    -3.1037    51.9080   141.7734
     27  C    Isotropic =   136.7908   Anisotropy =    30.4404
   XX=   125.2661   YX=    -4.4857   ZX=   -10.2146
   XY=     0.9475   YY=   129.4265   ZY=    -2.6124
   XZ=    -3.1307   YZ=     1.1106   ZZ=   155.6798
   Eigenvalues:   123.2871   130.0010   157.0844
     28  C    Isotropic =   160.4277   Anisotropy =    30.8707
   XX=   168.2765   YX=    10.4504   ZX=     9.1945
   XY=    10.6184   YY=   150.2674   ZY=     2.1150
   XZ=    13.0203   YZ=     6.9951   ZZ=   162.7393
   Eigenvalues:   145.3920   154.8830   181.0082
     29  H    Isotropic =    30.7340   Anisotropy =    11.6126
   XX=    27.2885   YX=     0.2768   ZX=     0.7793
   XY=     0.7094   YY=    26.5054   ZY=     0.6753
   XZ=     0.0870   YZ=     0.8468   ZZ=    38.4080
   Eigenvalues:    26.2463    27.4799    38.4757
     30  H    Isotropic =    30.7092   Anisotropy =     6.3479
   XX=    33.6484   YX=    -3.3756   ZX=     0.9935
   XY=    -1.9291   YY=    27.3893   ZY=    -0.5204
   XZ=     0.9155   YZ=    -0.7166   ZZ=    31.0900
   Eigenvalues:    26.4026    30.7840    34.9412
     31  H    Isotropic =    28.1653   Anisotropy =     8.5087
   XX=    24.3555   YX=     3.3444   ZX=     0.0468
   XY=     3.1868   YY=    31.0135   ZY=    -3.7315
   XZ=     0.8302   YZ=    -2.2174   ZZ=    29.1268
   Eigenvalues:    22.6185    28.0396    33.8377
     32  C    Isotropic =   157.5008   Anisotropy =    41.9962
   XX=   145.6249   YX=     8.3986   ZX=    -7.6163
   XY=     7.8693   YY=   180.4100   ZY=    -8.7613
   XZ=    -4.0948   YZ=   -11.7309   ZZ=   146.4676
   Eigenvalues:   140.1348   146.8694   185.4983
     33  H    Isotropic =    30.7308   Anisotropy =     5.4742
   XX=    29.6909   YX=     4.1076   ZX=    -1.3595
   XY=     5.0598   YY=    29.8715   ZY=     1.0369
   XZ=     0.9039   YZ=    -1.0373   ZZ=    32.6301
   Eigenvalues:    25.1931    32.6191    34.3803
     34  H    Isotropic =    30.4514   Anisotropy =     7.5800
   XX=    27.4694   YX=    -1.9702   ZX=    -2.0448
   XY=    -3.3717   YY=    33.6063   ZY=    -2.2687
   XZ=    -0.7308   YZ=    -3.1436   ZZ=    30.2785
   Eigenvalues:    25.3423    30.5071    35.5047
     35  H    Isotropic =    30.8322   Anisotropy =    11.8078
   XX=    27.8128   YX=     1.0718   ZX=    -4.5416
   XY=     1.7794   YY=    28.8997   ZY=    -3.4242
   XZ=    -3.4847   YZ=    -2.9714   ZZ=    35.7842
   Eigenvalues:    26.1379    27.6547    38.7041
     36  C    Isotropic =   160.6285   Anisotropy =    32.5470
   XX=   166.7820   YX=   -19.2069   ZX=    -2.5597
   XY=   -15.4216   YY=   162.7879   ZY=    -0.9420
   XZ=    -4.2772   YZ=    -1.2292   ZZ=   152.3156
   Eigenvalues:   145.8603   153.6987   182.3265
     37  H    Isotropic =    31.1496   Anisotropy =    11.5303
   XX=    30.4592   YX=    -2.5504   ZX=    -5.1970
   XY=    -1.9314   YY=    27.7820   ZY=     1.9510
   XZ=    -4.3252   YZ=     1.7146   ZZ=    35.2075
   Eigenvalues:    26.3706    28.2417    38.8364
     38  H    Isotropic =    28.6050   Anisotropy =     8.5710
   XX=    27.4886   YX=    -0.5806   ZX=    -2.9466
   XY=     2.2199   YY=    31.9814   ZY=    -3.6309
   XZ=    -2.7396   YZ=    -3.4856   ZZ=    26.3450
   Eigenvalues:    23.3384    28.1576    34.3190
     39  H    Isotropic =    31.0556   Anisotropy =     6.7201
   XX=    34.6225   YX=    -2.5110   ZX=     1.7457
   XY=    -1.2925   YY=    26.2433   ZY=     0.2014
   XZ=     1.0497   YZ=     0.7867   ZZ=    32.3011
   Eigenvalues:    25.7371    31.8941    35.5357
     40  C    Isotropic =   136.7913   Anisotropy =    30.4408
   XX=   125.2664   YX=     4.4840   ZX=   -10.2173
   XY=    -0.9499   YY=   129.4278   ZY=     2.6148
   XZ=    -3.1322   YZ=    -1.1059   ZZ=   155.6797
   Eigenvalues:   123.2874   130.0013   157.0852
     41  C    Isotropic =   160.6306   Anisotropy =    32.5469
   XX=   166.7801   YX=    19.2065   ZX=    -2.5641
   XY=    15.4212   YY=   162.7945   ZY=     0.9397
   XZ=    -4.2813   YZ=     1.2259   ZZ=   152.3173
   Eigenvalues:   145.8624   153.7009   182.3286
     42  H    Isotropic =    28.6045   Anisotropy =     8.5727
   XX=    27.4875   YX=     0.5789   ZX=    -2.9487
   XY=    -2.2212   YY=    31.9824   ZY=     3.6299
   XZ=    -2.7407   YZ=     3.4845   ZZ=    26.3437
   Eigenvalues:    23.3370    28.1570    34.3197
     43  H    Isotropic =    31.1495   Anisotropy =    11.5307
   XX=    30.4587   YX=     2.5497   ZX=    -5.1978
   XY=     1.9311   YY=    27.7819   ZY=    -1.9509
   XZ=    -4.3253   YZ=    -1.7142   ZZ=    35.2078
   Eigenvalues:    26.3707    28.2412    38.8366
     44  H    Isotropic =    31.0558   Anisotropy =     6.7196
   XX=    34.6227   YX=     2.5111   ZX=     1.7447
   XY=     1.2935   YY=    26.2438   ZY=    -0.2009
   XZ=     1.0491   YZ=    -0.7858   ZZ=    32.3007
   Eigenvalues:    25.7376    31.8942    35.5355
     45  C    Isotropic =   157.5000   Anisotropy =    41.9952
   XX=   145.6262   YX=    -8.4039   ZX=    -7.6157
   XY=    -7.8750   YY=   180.4101   ZY=     8.7540
   XZ=    -4.0936   YZ=    11.7245   ZZ=   146.4638
   Eigenvalues:   140.1351   146.8682   185.4968
     46  H    Isotropic =    30.8322   Anisotropy =    11.8078
   XX=    27.8132   YX=    -1.0729   ZX=    -4.5421
   XY=    -1.7802   YY=    28.9004   ZY=     3.4247
   XZ=    -3.4848   YZ=     2.9720   ZZ=    35.7829
   Eigenvalues:    26.1378    27.6547    38.7040
     47  H    Isotropic =    30.7307   Anisotropy =     5.4740
   XX=    29.6917   YX=    -4.1078   ZX=    -1.3592
   XY=    -5.0596   YY=    29.8701   ZY=    -1.0372
   XZ=     0.9044   YZ=     1.0373   ZZ=    32.6302
   Eigenvalues:    25.1928    32.6192    34.3800
     48  H    Isotropic =    30.4511   Anisotropy =     7.5794
   XX=    27.4682   YX=     1.9690   ZX=    -2.0457
   XY=     3.3707   YY=    33.6074   ZY=     2.2676
   XZ=    -0.7317   YZ=     3.1426   ZZ=    30.2778
   Eigenvalues:    25.3420    30.5073    35.5041
     49  C    Isotropic =   160.4284   Anisotropy =    30.8724
   XX=   168.2802   YX=   -10.4463   ZX=     9.1971
   XY=   -10.6142   YY=   150.2635   ZY=    -2.1130
   XZ=    13.0238   YZ=    -6.9923   ZZ=   162.7414
   Eigenvalues:   145.3926   154.8826   181.0100
     50  H    Isotropic =    30.7091   Anisotropy =     6.3477
   XX=    33.6473   YX=     3.3764   ZX=     0.9930
   XY=     1.9301   YY=    27.3900   ZY=     0.5208
   XZ=     0.9156   YZ=     0.7170   ZZ=    31.0901
   Eigenvalues:    26.4024    30.7841    34.9409
     51  H    Isotropic =    28.1660   Anisotropy =     8.5066
   XX=    24.3572   YX=    -3.3456   ZX=     0.0470
   XY=    -3.1875   YY=    31.0139   ZY=     3.7298
   XZ=     0.8308   YZ=     2.2158   ZZ=    29.1268
   Eigenvalues:    22.6193    28.0416    33.8371
     52  H    Isotropic =    30.7339   Anisotropy =    11.6128
   XX=    27.2883   YX=    -0.2767   ZX=     0.7791
   XY=    -0.7093   YY=    26.5051   ZY=    -0.6734
   XZ=     0.0871   YZ=    -0.8448   ZZ=    38.4083
   Eigenvalues:    26.2462    27.4797    38.4757
     53  Pd   Isotropic =  -185.7455   Anisotropy =   264.6120
   XX=  -247.9754   YX=    -0.0186   ZX=  -203.1764
   XY=    -0.0212   YY=    -9.3375   ZY=    -0.0186
   XZ=  -213.8119   YZ=    -0.0221   ZZ=  -299.9236
   Eigenvalues:  -484.0553   -63.8436    -9.3375
     54  Cl   Isotropic =   918.3649   Anisotropy =   579.0264
   XX=   966.6834   YX=   155.5195   ZX=   256.9662
   XY=    84.8996   YY=   795.8705   ZY=  -159.8035
   XZ=   391.9836   YZ=   -59.5279   ZZ=   992.5409
   Eigenvalues:   548.0866   902.6257  1304.3825
     55  Cl   Isotropic =   918.3600   Anisotropy =   578.9939
   XX=   966.6935   YX=  -155.4609   ZX=   256.9428
   XY=   -84.8433   YY=   795.8677   ZY=   159.8210
   XZ=   391.9689   YZ=    59.5577   ZZ=   992.5187
   Eigenvalues:   548.1185   902.6055  1304.3559
     56  C    Isotropic =    49.0872   Anisotropy =   192.5474
   XX=    58.6388   YX=     5.3537   ZX=    55.3541
   XY=     7.2889   YY=   -62.4655   ZY=    18.0346
   XZ=    53.1384   YZ=    15.3125   ZZ=   151.0882
   Eigenvalues:   -63.8002    33.6096   177.4521
     57  C    Isotropic =    51.8833   Anisotropy =   185.4208
   XX=     1.6269   YX=    42.6792   ZX=    79.0589
   XY=    41.5973   YY=    17.9709   ZY=    -4.3848
   XZ=    83.5853   YZ=    -6.2151   ZZ=   136.0521
   Eigenvalues:   -58.2640    38.4166   175.4971
     58  C    Isotropic =    53.2218   Anisotropy =   169.6251
   XX=    14.0953   YX=   -29.0200   ZX=    80.2372
   XY=   -29.7398   YY=    25.3604   ZY=    29.7899
   XZ=    86.7064   YZ=    15.5827   ZZ=   120.2098
   Eigenvalues:   -49.7070    43.0673   166.3052
     59  C    Isotropic =    40.4105   Anisotropy =   186.0786
   XX=    45.8238   YX=    10.8717   ZX=    54.6131
   XY=    10.9046   YY=   -50.6443   ZY=    20.3424
   XZ=    74.9431   YZ=    18.8051   ZZ=   126.0519
   Eigenvalues:   -52.9766     9.7451   164.4629
     60  C    Isotropic =    45.0087   Anisotropy =   184.2962
   XX=    -1.1929   YX=    35.5349   ZX=    84.8275
   XY=    33.0503   YY=    14.1145   ZY=    -2.0775
   XZ=    83.9942   YZ=    13.9645   ZZ=   122.1045
   Eigenvalues:   -55.5538    22.7071   167.8729
     61  C    Isotropic =    44.2728   Anisotropy =   205.3326
   XX=    -0.7525   YX=   -31.1977   ZX=    87.4111
   XY=   -28.5983   YY=    -4.6545   ZY=    28.0508
   XZ=    87.8894   YZ=    23.3288   ZZ=   138.2254
   Eigenvalues:   -66.6769    18.3341   181.1612
     62  H    Isotropic =    23.6484   Anisotropy =     5.7210
   XX=    26.7156   YX=    -1.6255   ZX=    -1.5310
   XY=    -1.3544   YY=    23.2786   ZY=    -1.0563
   XZ=    -1.5162   YZ=    -0.9629   ZZ=    20.9509
   Eigenvalues:    19.9918    23.4909    27.4624
     63  H    Isotropic =    23.7598   Anisotropy =     4.3720
   XX=    24.6854   YX=    -0.1799   ZX=    -0.7053
   XY=    -0.0269   YY=    26.3848   ZY=    -1.4175
   XZ=    -0.4055   YZ=    -1.3188   ZZ=    20.2090
   Eigenvalues:    19.8535    24.7513    26.6744
     64  H    Isotropic =    23.8522   Anisotropy =     8.1452
   XX=    25.6885   YX=    -3.4327   ZX=     0.6328
   XY=    -3.1443   YY=    25.9031   ZY=     0.4783
   XZ=    -1.2084   YZ=     2.7051   ZZ=    19.9650
   Eigenvalues:    19.5063    22.7679    29.2824
     65  H    Isotropic =    22.1789   Anisotropy =     6.4323
   XX=    25.3818   YX=     2.3637   ZX=     3.6219
   XY=     1.0400   YY=    21.7557   ZY=    -2.5433
   XZ=     1.8525   YZ=    -4.8809   ZZ=    19.3993
   Eigenvalues:    15.6236    24.4460    26.4671
     66  H    Isotropic =    22.9710   Anisotropy =    10.3454
   XX=    24.8450   YX=    -4.6450   ZX=     1.1813
   XY=    -4.5907   YY=    24.8690   ZY=    -1.6962
   XZ=     1.7031   YZ=    -1.2112   ZZ=    19.1990
   Eigenvalues:    18.8060    20.2391    29.8679
     67  C    Isotropic =    49.0867   Anisotropy =   192.5484
   XX=    58.6175   YX=    -5.3343   ZX=    55.3371
   XY=    -7.2703   YY=   -62.4694   ZY=   -18.0260
   XZ=    53.1205   YZ=   -15.3010   ZZ=   151.1121
   Eigenvalues:   -63.8019    33.6098   177.4523
     68  C    Isotropic =    44.2707   Anisotropy =   205.3367
   XX=    -0.7981   YX=    31.2053   ZX=    87.3841
   XY=    28.6046   YY=    -4.6546   ZY=   -28.0311
   XZ=    87.8627   YZ=   -23.3045   ZZ=   138.2647
   Eigenvalues:   -66.6778    18.3280   181.1618
     69  C    Isotropic =    45.0090   Anisotropy =   184.2934
   XX=    -1.2209   YX=   -35.5314   ZX=    84.7983
   XY=   -33.0492   YY=    14.1082   ZY=     2.0799
   XZ=    83.9692   YZ=   -13.9667   ZZ=   122.1397
   Eigenvalues:   -55.5503    22.7060   167.8713
     70  C    Isotropic =    40.4102   Anisotropy =   186.0780
   XX=    45.8001   YX=   -10.8566   ZX=    54.5972
   XY=   -10.8887   YY=   -50.6457   ZY=   -20.3365
   XZ=    74.9340   YZ=   -18.7955   ZZ=   126.0762
   Eigenvalues:   -52.9750     9.7434   164.4622
     71  C    Isotropic =    53.2252   Anisotropy =   169.6254
   XX=    14.0573   YX=    29.0220   ZX=    80.2159
   XY=    29.7464   YY=    25.3690   ZY=   -29.7730
   XZ=    86.6868   YZ=   -15.5671   ZZ=   120.2493
   Eigenvalues:   -49.7033    43.0702   166.3088
     72  C    Isotropic =    51.8833   Anisotropy =   185.4206
   XX=     1.6033   YX=   -42.6806   ZX=    79.0313
   XY=   -41.5979   YY=    17.9611   ZY=     4.3871
   XZ=    83.5571   YZ=     6.2175   ZZ=   136.0856
   Eigenvalues:   -58.2631    38.4160   175.4971
     73  H    Isotropic =    23.6483   Anisotropy =     5.7220
   XX=    26.7163   YX=     1.6258   ZX=    -1.5303
   XY=     1.3547   YY=    23.2787   ZY=     1.0563
   XZ=    -1.5155   YZ=     0.9629   ZZ=    20.9498
   Eigenvalues:    19.9913    23.4906    27.4629
     74  H    Isotropic =    22.9706   Anisotropy =    10.3476
   XX=    24.8452   YX=     4.6458   ZX=     1.1819
   XY=     4.5914   YY=    24.8691   ZY=     1.6969
   XZ=     1.7038   YZ=     1.2114   ZZ=    19.1975
   Eigenvalues:    18.8042    20.2386    29.8690
     75  H    Isotropic =    22.1779   Anisotropy =     6.4353
   XX=    25.3824   YX=    -2.3644   ZX=     3.6229
   XY=    -1.0403   YY=    21.7534   ZY=     2.5431
   XZ=     1.8533   YZ=     4.8810   ZZ=    19.3979
   Eigenvalues:    15.6216    24.4440    26.4681
     76  H    Isotropic =    23.8521   Anisotropy =     8.1450
   XX=    25.6879   YX=     3.4326   ZX=     0.6332
   XY=     3.1441   YY=    25.9038   ZY=    -0.4778
   XZ=    -1.2076   YZ=    -2.7045   ZZ=    19.9645
   Eigenvalues:    19.5061    22.7680    29.2821
     77  H    Isotropic =    23.7598   Anisotropy =     4.3717
   XX=    24.6858   YX=     0.1792   ZX=    -0.7048
   XY=     0.0264   YY=    26.3848   ZY=     1.4170
   XZ=    -0.4050   YZ=     1.3184   ZZ=    20.2088
   Eigenvalues:    19.8536    24.7515    26.6743
 End of Minotr F.D. properties file   721 does not exist.
 End of Minotr F.D. properties file   722 does not exist.
 End of Minotr F.D. properties file   788 does not exist.

 **********************************************************************

            Population analysis using the SCF Density.

 **********************************************************************

 Orbital symmetries:
       Occupied  (A) (A) (A) (A) (A) (A) (A) (A) (A) (A) (A) (A)
                 (A) (A) (A) (A) (A) (A) (A) (A) (A) (A) (A) (A)
                 (A) (A) (A) (A) (A) (A) (A) (A) (A) (A) (A) (A)
                 (A) (A) (A) (A) (A) (A) (A) (A) (A) (A) (A) (A)
                 (A) (A) (A) (A) (A) (A) (A) (A) (A) (A) (A) (A)
                 (A) (A) (A) (A) (A) (A) (A) (A) (A) (A) (A) (A)
                 (A) (A) (A) (A) (A) (A) (A) (A) (A) (A) (A) (A)
                 (A) (A) (A) (A) (A) (A) (A) (A) (A) (A) (A) (A)
                 (A) (A) (A) (A) (A) (A) (A) (A) (A) (A) (A) (A)
                 (A) (A) (A) (A) (A) (A) (A) (A) (A) (A) (A) (A)
                 (A) (A) (A) (A) (A) (A) (A) (A) (A) (A) (A) (A)
                 (A) (A) (A) (A) (A) (A) (A) (A) (A) (A) (A) (A)
                 (A) (A) (A) (A) (A) (A) (A) (A) (A) (A) (A) (A)
                 (A) (A) (A) (A) (A) (A) (A) (A) (A) (A) (A) (A)
                 (A)
       Virtual   (A) (A) (A) (A) (A) (A) (A) (A) (A) (A) (A) (A)
                 (A) (A) (A) (A) (A) (A) (A) (A) (A) (A) (A) (A)
                 (A) (A) (A) (A) (A) (A) (A) (A) (A) (A) (A) (A)
                 (A) (A) (A) (A) (A) (A) (A) (A) (A) (A) (A) (A)
                 (A) (A) (A) (A) (A) (A) (A) (A) (A) (A) (A) (A)
                 (A) (A) (A) (A) (A) (A) (A) (A) (A) (A) (A) (A)
                 (A) (A) (A) (A) (A) (A) (A) (A) (A) (A) (A) (A)
                 (A) (A) (A) (A) (A) (A) (A) (A) (A) (A) (A) (A)
                 (A) (A) (A) (A) (A) (A) (A) (A) (A) (A) (A) (A)
                 (A) (A) (A) (A) (A) (A) (A) (A) (A) (A) (A) (A)
                 (A) (A) (A) (A) (A) (A) (A) (A) (A) (A) (A) (A)
                 (A) (A) (A) (A) (A) (A) (A) (A) (A) (A) (A) (A)
                 (A) (A) (A) (A) (A) (A) (A) (A) (A) (A) (A) (A)
                 (A) (A) (A) (A) (A) (A) (A) (A) (A) (A) (A) (A)
                 (A) (A) (A) (A) (A) (A) (A) (A) (A) (A) (A) (A)
                 (A) (A) (A) (A) (A) (A) (A) (A) (A) (A) (A) (A)
                 (A) (A) (A) (A) (A) (A) (A) (A) (A) (A) (A) (A)
                 (A) (A) (A) (A) (A) (A) (A) (A) (A) (A) (A) (A)
                 (A) (A) (A) (A) (A) (A) (A) (A) (A) (A) (A) (A)
                 (A) (A) (A) (A) (A) (A) (A) (A) (A) (A) (A) (A)
                 (A) (A) (A) (A) (A) (A) (A) (A) (A) (A) (A) (A)
                 (A) (A) (A) (A) (A) (A) (A) (A) (A) (A) (A) (A)
                 (A) (A) (A) (A) (A) (A) (A) (A) (A) (A) (A) (A)
                 (A) (A) (A) (A) (A) (A) (A) (A) (A) (A) (A) (A)
                 (A) (A) (A) (A) (A) (A) (A) (A) (A) (A) (A) (A)
                 (A) (A) (A) (A) (A) (A) (A) (A) (A) (A) (A) (A)
                 (A) (A) (A) (A) (A) (A) (A) (A) (A) (A) (A) (A)
                 (A) (A) (A) (A) (A) (A) (A) (A) (A) (A) (A) (A)
                 (A) (A) (A) (A) (A) (A) (A) (A) (A) (A) (A) (A)
                 (A) (A) (A) (A) (A) (A) (A) (A) (A) (A) (A) (A)
                 (A) (A) (A) (A) (A) (A) (A) (A) (A) (A) (A) (A)
                 (A) (A) (A) (A) (A) (A) (A) (A) (A) (A) (A) (A)
                 (A) (A) (A) (A) (A) (A) (A) (A) (A) (A) (A) (A)
                 (A) (A) (A) (A) (A) (A) (A) (A) (A) (A) (A) (A)
                 (A) (A) (A) (A) (A) (A) (A) (A) (A) (A) (A) (A)
                 (A) (A) (A) (A) (A) (A) (A) (A) (A) (A) (A) (A)
                 (A) (A) (A) (A) (A) (A) (A) (A) (A) (A) (A) (A)
                 (A) (A) (A) (A) (A) (A) (A) (A) (A) (A) (A) (A)
                 (A) (A) (A) (A) (A) (A) (A) (A) (A) (A) (A) (A)
                 (A) (A) (A) (A) (A) (A) (A) (A) (A) (A) (A) (A)
                 (A) (A) (A) (A) (A) (A) (A) (A) (A) (A) (A) (A)
                 (A) (A) (A) (A) (A) (A) (A) (A) (A) (A) (A) (A)
                 (A) (A) (A) (A) (A) (A) (A) (A) (A) (A) (A) (A)
                 (A) (A) (A) (A) (A) (A) (A) (A) (A) (A) (A) (A)
                 (A) (A) (A) (A) (A) (A) (A) (A) (A) (A) (A) (A)
                 (A) (A) (A) (A) (A) (A) (A) (A) (A) (A) (A) (A)
                 (A) (A) (A) (A) (A) (A) (A) (A) (A) (A) (A) (A)
                 (A) (A) (A) (A) (A) (A) (A) (A) (A) (A) (A) (A)
                 (A) (A) (A) (A) (A) (A) (A) (A) (A) (A) (A) (A)
                 (A) (A) (A) (A) (A) (A) (A) (A) (A) (A) (A) (A)
                 (A) (A) (A) (A) (A) (A) (A) (A) (A) (A) (A) (A)
                 (A) (A) (A) (A) (A) (A) (A) (A) (A) (A) (A) (A)
                 (A) (A) (A) (A) (A) (A) (A) (A) (A) (A) (A) (A)
                 (A) (A) (A) (A) (A) (A) (A) (A) (A) (A) (A) (A)
                 (A) (A) (A) (A) (A) (A) (A) (A) (A) (A) (A) (A)
                 (A) (A) (A) (A) (A) (A) (A) (A) (A) (A) (A) (A)
                 (A) (A) (A) (A) (A) (A) (A) (A) (A) (A) (A) (A)
                 (A) (A) (A) (A) (A) (A) (A) (A) (A) (A) (A) (A)
                 (A) (A) (A) (A) (A) (A) (A) (A) (A) (A) (A) (A)
                 (A) (A) (A) (A) (A) (A) (A) (A) (A) (A) (A) (A)
                 (A) (A) (A) (A) (A) (A) (A) (A) (A) (A) (A) (A)
                 (A) (A) (A) (A) (A) (A) (A) (A) (A) (A) (A) (A)
                 (A) (A) (A) (A) (A) (A) (A) (A) (A) (A) (A) (A)
                 (A) (A) (A) (A) (A) (A) (A) (A) (A) (A) (A) (A)
                 (A) (A) (A) (A) (A) (A) (A) (A) (A) (A) (A) (A)
                 (A) (A) (A) (A) (A) (A) (A) (A) (A) (A) (A) (A)
                 (A) (A) (A) (A) (A) (A) (A) (A) (A) (A) (A) (A)
                 (A) (A) (A) (A) (A) (A) (A) (A) (A) (A) (A) (A)
                 (A) (A) (A) (A) (A) (A) (A) (A) (A) (A) (A) (A)
                 (A) (A) (A) (A) (A) (A) (A) (A) (A) (A) (A) (A)
                 (A) (A) (A) (A) (A) (A) (A) (A) (A) (A) (A) (A)
                 (A) (A) (A) (A) (A) (A) (A) (A) (A) (A) (A) (A)
                 (A) (A) (A) (A) (A) (A) (A) (A) (A) (A) (A) (A)
                 (A) (A) (A) (A) (A) (A) (A) (A) (A) (A) (A) (A)
                 (A) (A) (A) (A) (A) (A) (A) (A) (A) (A) (A) (A)
                 (A) (A) (A) (A) (A) (A) (A) (A) (A) (A) (A) (A)
                 (A) (A) (A) (A) (A) (A) (A) (A) (A) (A) (A) (A)
                 (A) (A) (A) (A) (A) (A) (A) (A) (A) (A) (A) (A)
                 (A) (A) (A) (A) (A) (A) (A) (A) (A) (A) (A) (A)
                 (A) (A) (A) (A) (A) (A) (A) (A) (A) (A) (A) (A)
                 (A) (A) (A) (A) (A) (A) (A) (A) (A) (A) (A) (A)
                 (A) (A) (A) (A) (A) (A) (A) (A) (A) (A) (A) (A)
                 (A) (A) (A) (A) (A) (A) (A) (A) (A) (A) (A) (A)
                 (A) (A) (A) (A) (A) (A) (A) (A) (A) (A) (A) (A)
                 (A) (A) (A) (A) (A) (A) (A) (A) (A) (A) (A) (A)
                 (A) (A) (A) (A) (A) (A) (A) (A) (A) (A) (A) (A)
                 (A) (A) (A) (A) (A) (A) (A) (A) (A) (A) (A) (A)
                 (A) (A) (A) (A) (A) (A) (A) (A) (A) (A) (A) (A)
                 (A) (A) (A) (A) (A) (A) (A) (A) (A) (A) (A) (A)
                 (A) (A) (A) (A) (A) (A) (A) (A) (A) (A) (A) (A)
                 (A) (A) (A) (A) (A) (A) (A) (A) (A) (A) (A) (A)
                 (A) (A) (A) (A) (A) (A) (A) (A) (A) (A) (A) (A)
                 (A) (A) (A) (A) (A) (A) (A) (A) (A) (A) (A) (A)
                 (A) (A) (A) (A) (A) (A) (A) (A) (A) (A) (A) (A)
                 (A) (A) (A) (A) (A) (A) (A) (A) (A) (A) (A) (A)
                 (A) (A) (A) (A) (A) (A) (A) (A) (A) (A) (A) (A)
                 (A) (A) (A) (A) (A) (A) (A) (A) (A) (A) (A) (A)
                 (A) (A) (A) (A) (A) (A) (A) (A) (A) (A) (A) (A)
                 (A) (A) (A) (A) (A) (A) (A) (A) (A) (A) (A) (A)
                 (A) (A) (A) (A) (A) (A) (A) (A) (A) (A) (A) (A)
                 (A) (A) (A) (A) (A) (A) (A) (A) (A) (A) (A) (A)
                 (A) (A) (A) (A) (A) (A) (A) (A) (A) (A) (A) (A)
                 (A) (A) (A) (A) (A) (A) (A) (A) (A) (A) (A) (A)
                 (A) (A) (A) (A) (A) (A) (A) (A) (A) (A) (A) (A)
                 (A) (A) (A) (A) (A) (A) (A) (A) (A) (A) (A) (A)
                 (A) (A) (A) (A) (A) (A) (A) (A) (A) (A) (A) (A)
                 (A) (A) (A) (A) (A) (A) (A) (A) (A) (A) (A) (A)
                 (A) (A) (A) (A) (A) (A) (A) (A) (A) (A) (A) (A)
                 (A) (A) (A) (A) (A) (A) (A) (A) (A) (A) (A) (A)
                 (A) (A) (A) (A) (A) (A) (A) (A) (A) (A) (A) (A)
                 (A) (A) (A) (A) (A) (A) (A) (A) (A) (A) (A) (A)
                 (A) (A) (A) (A) (A) (A) (A) (A) (A) (A) (A) (A)
                 (A) (A) (A)
 The electronic state is 1-A.
 Alpha  occ. eigenvalues -- -101.61909-101.61908 -77.27222 -77.27222 -19.27267
 Alpha  occ. eigenvalues --  -19.27267 -10.32546 -10.32523 -10.31936 -10.31936
 Alpha  occ. eigenvalues --  -10.27393 -10.27393 -10.27203 -10.27203 -10.26636
 Alpha  occ. eigenvalues --  -10.26636 -10.25914 -10.25914 -10.25208 -10.25208
 Alpha  occ. eigenvalues --  -10.24634 -10.24634 -10.24405 -10.24405 -10.23187
 Alpha  occ. eigenvalues --  -10.23187 -10.23174 -10.23174 -10.22845 -10.22845
 Alpha  occ. eigenvalues --  -10.22779 -10.22778 -10.22516 -10.22516 -10.22372
 Alpha  occ. eigenvalues --  -10.22371 -10.22116 -10.22115 -10.21554 -10.21554
 Alpha  occ. eigenvalues --   -9.44435  -9.44435  -7.17629  -7.17629  -7.17157
 Alpha  occ. eigenvalues --   -7.17157  -7.17114  -7.17114  -6.66495  -6.66495
 Alpha  occ. eigenvalues --   -4.80136  -4.80136  -4.79986  -4.79986  -4.79824
 Alpha  occ. eigenvalues --   -4.79824  -3.53423  -2.21211  -2.20961  -2.17696
 Alpha  occ. eigenvalues --   -1.13371  -1.12256  -0.90990  -0.90863  -0.87608
 Alpha  occ. eigenvalues --   -0.87466  -0.86233  -0.85661  -0.83339  -0.81543
 Alpha  occ. eigenvalues --   -0.80457  -0.79525  -0.79282  -0.76401  -0.76342
 Alpha  occ. eigenvalues --   -0.76049  -0.74924  -0.74800  -0.74130  -0.72687
 Alpha  occ. eigenvalues --   -0.71883  -0.71873  -0.71217  -0.71211  -0.68499
 Alpha  occ. eigenvalues --   -0.66487  -0.64849  -0.64408  -0.63839  -0.63116
 Alpha  occ. eigenvalues --   -0.61625  -0.61378  -0.60357  -0.59723  -0.57557
 Alpha  occ. eigenvalues --   -0.56469  -0.55464  -0.54429  -0.53660  -0.53362
 Alpha  occ. eigenvalues --   -0.51905  -0.51575  -0.51397  -0.50524  -0.50135
 Alpha  occ. eigenvalues --   -0.48835  -0.48140  -0.47625  -0.47230  -0.46856
 Alpha  occ. eigenvalues --   -0.46846  -0.46404  -0.46303  -0.46109  -0.45933
 Alpha  occ. eigenvalues --   -0.45217  -0.44560  -0.44395  -0.43742  -0.43739
 Alpha  occ. eigenvalues --   -0.43055  -0.42887  -0.42800  -0.42048  -0.41663
 Alpha  occ. eigenvalues --   -0.41128  -0.41054  -0.40835  -0.40746  -0.39869
 Alpha  occ. eigenvalues --   -0.39669  -0.39032  -0.38849  -0.38653  -0.38531
 Alpha  occ. eigenvalues --   -0.38465  -0.38205  -0.37639  -0.36959  -0.36789
 Alpha  occ. eigenvalues --   -0.36403  -0.36069  -0.35816  -0.35791  -0.35620
 Alpha  occ. eigenvalues --   -0.35361  -0.35354  -0.35268  -0.34815  -0.34688
 Alpha  occ. eigenvalues --   -0.34017  -0.33161  -0.32689  -0.32335  -0.30230
 Alpha  occ. eigenvalues --   -0.30189  -0.29240  -0.29196  -0.28154  -0.26940
 Alpha  occ. eigenvalues --   -0.26625  -0.26138  -0.25548  -0.24884  -0.24867
 Alpha  occ. eigenvalues --   -0.24795  -0.24400  -0.23907  -0.23899
 Alpha virt. eigenvalues --   -0.08936  -0.05774  -0.05428  -0.03377  -0.03314
 Alpha virt. eigenvalues --   -0.01975  -0.00953  -0.00284   0.00561   0.00657
 Alpha virt. eigenvalues --    0.00694   0.01337   0.02510   0.03900   0.04036
 Alpha virt. eigenvalues --    0.04859   0.05051   0.05387   0.05430   0.06054
 Alpha virt. eigenvalues --    0.06134   0.06568   0.06793   0.07096   0.07505
 Alpha virt. eigenvalues --    0.07744   0.08497   0.08679   0.08909   0.09153
 Alpha virt. eigenvalues --    0.09250   0.09701   0.09936   0.10495   0.10601
 Alpha virt. eigenvalues --    0.10786   0.10821   0.11124   0.11287   0.11498
 Alpha virt. eigenvalues --    0.12008   0.12096   0.12493   0.12863   0.13065
 Alpha virt. eigenvalues --    0.13083   0.13534   0.13612   0.13778   0.14068
 Alpha virt. eigenvalues --    0.14685   0.15228   0.15428   0.15470   0.15842
 Alpha virt. eigenvalues --    0.15926   0.15990   0.16356   0.16384   0.16614
 Alpha virt. eigenvalues --    0.17088   0.17117   0.17618   0.17677   0.17746
 Alpha virt. eigenvalues --    0.18043   0.18221   0.18644   0.18807   0.19511
 Alpha virt. eigenvalues --    0.19587   0.19673   0.19777   0.20701   0.20720
 Alpha virt. eigenvalues --    0.20885   0.20975   0.21767   0.21860   0.21880
 Alpha virt. eigenvalues --    0.22446   0.22526   0.22829   0.22925   0.23355
 Alpha virt. eigenvalues --    0.23391   0.23701   0.24147   0.24276   0.24399
 Alpha virt. eigenvalues --    0.24592   0.24605   0.25111   0.25125   0.25427
 Alpha virt. eigenvalues --    0.25685   0.26045   0.26183   0.26518   0.26858
 Alpha virt. eigenvalues --    0.27222   0.27240   0.27488   0.27854   0.28087
 Alpha virt. eigenvalues --    0.28306   0.28517   0.28948   0.29127   0.29233
 Alpha virt. eigenvalues --    0.29351   0.29634   0.29850   0.29984   0.30081
 Alpha virt. eigenvalues --    0.30430   0.30459   0.30738   0.30872   0.31193
 Alpha virt. eigenvalues --    0.31601   0.31663   0.32391   0.32638   0.32738
 Alpha virt. eigenvalues --    0.32864   0.33382   0.33705   0.33833   0.34103
 Alpha virt. eigenvalues --    0.34692   0.34881   0.35102   0.35120   0.35430
 Alpha virt. eigenvalues --    0.35768   0.36044   0.36107   0.36308   0.36456
 Alpha virt. eigenvalues --    0.36721   0.36843   0.37103   0.37607   0.37656
 Alpha virt. eigenvalues --    0.37862   0.38028   0.38039   0.38281   0.38524
 Alpha virt. eigenvalues --    0.38743   0.38798   0.39210   0.39387   0.40263
 Alpha virt. eigenvalues --    0.40392   0.40776   0.41186   0.41204   0.41401
 Alpha virt. eigenvalues --    0.41471   0.41637   0.41759   0.41953   0.42455
 Alpha virt. eigenvalues --    0.42575   0.42591   0.43033   0.43101   0.43386
 Alpha virt. eigenvalues --    0.43577   0.43642   0.43650   0.43875   0.44347
 Alpha virt. eigenvalues --    0.44570   0.44734   0.44904   0.45213   0.45454
 Alpha virt. eigenvalues --    0.45620   0.45708   0.46062   0.46107   0.46521
 Alpha virt. eigenvalues --    0.46731   0.46891   0.47135   0.47335   0.47530
 Alpha virt. eigenvalues --    0.47688   0.47751   0.48021   0.48131   0.48382
 Alpha virt. eigenvalues --    0.48668   0.48821   0.48981   0.49244   0.49336
 Alpha virt. eigenvalues --    0.49540   0.49642   0.50014   0.50026   0.50376
 Alpha virt. eigenvalues --    0.50461   0.50830   0.50850   0.51399   0.51696
 Alpha virt. eigenvalues --    0.51990   0.52089   0.52401   0.52656   0.52736
 Alpha virt. eigenvalues --    0.53583   0.53680   0.54016   0.54666   0.54721
 Alpha virt. eigenvalues --    0.54753   0.54984   0.55344   0.55366   0.55733
 Alpha virt. eigenvalues --    0.56151   0.56513   0.56829   0.57037   0.57170
 Alpha virt. eigenvalues --    0.57306   0.57450   0.58424   0.58905   0.59450
 Alpha virt. eigenvalues --    0.59703   0.59710   0.59824   0.60469   0.60750
 Alpha virt. eigenvalues --    0.60925   0.61045   0.61330   0.61784   0.61915
 Alpha virt. eigenvalues --    0.62263   0.62332   0.62823   0.63047   0.63440
 Alpha virt. eigenvalues --    0.63739   0.64020   0.64689   0.64797   0.64805
 Alpha virt. eigenvalues --    0.65170   0.65189   0.65879   0.66047   0.66710
 Alpha virt. eigenvalues --    0.66839   0.67637   0.67989   0.68022   0.68141
 Alpha virt. eigenvalues --    0.68721   0.68820   0.68991   0.69714   0.69852
 Alpha virt. eigenvalues --    0.70236   0.70427   0.70589   0.70654   0.70959
 Alpha virt. eigenvalues --    0.71021   0.71296   0.71688   0.71937   0.72262
 Alpha virt. eigenvalues --    0.72320   0.72417   0.72632   0.73491   0.73654
 Alpha virt. eigenvalues --    0.74462   0.74617   0.74885   0.75176   0.75842
 Alpha virt. eigenvalues --    0.76244   0.76583   0.76725   0.77049   0.77087
 Alpha virt. eigenvalues --    0.77374   0.77676   0.78050   0.78552   0.78832
 Alpha virt. eigenvalues --    0.79140   0.79682   0.79876   0.80179   0.80409
 Alpha virt. eigenvalues --    0.80711   0.80721   0.81098   0.81877   0.82056
 Alpha virt. eigenvalues --    0.82259   0.82514   0.82957   0.83250   0.83536
 Alpha virt. eigenvalues --    0.84255   0.84623   0.84746   0.85197   0.85883
 Alpha virt. eigenvalues --    0.86179   0.86316   0.86841   0.87170   0.87254
 Alpha virt. eigenvalues --    0.87742   0.87871   0.88186   0.88198   0.88642
 Alpha virt. eigenvalues --    0.88921   0.88959   0.89548   0.89922   0.90209
 Alpha virt. eigenvalues --    0.90368   0.90839   0.90863   0.91338   0.91741
 Alpha virt. eigenvalues --    0.91769   0.92251   0.92533   0.92990   0.93355
 Alpha virt. eigenvalues --    0.94149   0.94475   0.94541   0.94825   0.95322
 Alpha virt. eigenvalues --    0.95349   0.95714   0.96048   0.96211   0.96830
 Alpha virt. eigenvalues --    0.97038   0.97165   0.97910   0.98527   0.98534
 Alpha virt. eigenvalues --    0.99173   0.99814   1.00430   1.00947   1.01288
 Alpha virt. eigenvalues --    1.01415   1.01775   1.01971   1.02868   1.04019
 Alpha virt. eigenvalues --    1.04089   1.04490   1.04792   1.05553   1.05803
 Alpha virt. eigenvalues --    1.06051   1.06625   1.06965   1.07285   1.07626
 Alpha virt. eigenvalues --    1.07923   1.08000   1.08455   1.08679   1.08960
 Alpha virt. eigenvalues --    1.09354   1.10314   1.10446   1.11293   1.11347
 Alpha virt. eigenvalues --    1.11654   1.12122   1.12944   1.13362   1.13415
 Alpha virt. eigenvalues --    1.14365   1.14799   1.15177   1.15190   1.15403
 Alpha virt. eigenvalues --    1.15730   1.15740   1.16556   1.16849   1.16852
 Alpha virt. eigenvalues --    1.17329   1.17576   1.17672   1.18027   1.19049
 Alpha virt. eigenvalues --    1.19065   1.19329   1.19689   1.20273   1.21031
 Alpha virt. eigenvalues --    1.21461   1.22031   1.22078   1.22289   1.22564
 Alpha virt. eigenvalues --    1.22675   1.23320   1.23477   1.24692   1.24942
 Alpha virt. eigenvalues --    1.24964   1.25042   1.25224   1.25403   1.26531
 Alpha virt. eigenvalues --    1.27050   1.27147   1.27312   1.27934   1.27990
 Alpha virt. eigenvalues --    1.28769   1.28953   1.29190   1.29524   1.29638
 Alpha virt. eigenvalues --    1.30424   1.30871   1.31029   1.31137   1.31468
 Alpha virt. eigenvalues --    1.31922   1.32262   1.32646   1.32975   1.33165
 Alpha virt. eigenvalues --    1.33421   1.33820   1.34054   1.34702   1.35005
 Alpha virt. eigenvalues --    1.35628   1.35868   1.35959   1.36039   1.36913
 Alpha virt. eigenvalues --    1.37545   1.37976   1.38257   1.39536   1.39672
 Alpha virt. eigenvalues --    1.40321   1.40915   1.41302   1.41745   1.41865
 Alpha virt. eigenvalues --    1.42418   1.42880   1.42935   1.44179   1.44665
 Alpha virt. eigenvalues --    1.44930   1.45236   1.45404   1.46115   1.46185
 Alpha virt. eigenvalues --    1.46725   1.47376   1.47826   1.48662   1.48844
 Alpha virt. eigenvalues --    1.49211   1.49506   1.50174   1.50597   1.51241
 Alpha virt. eigenvalues --    1.51550   1.51744   1.52425   1.52850   1.53115
 Alpha virt. eigenvalues --    1.53318   1.53491   1.54232   1.54309   1.54593
 Alpha virt. eigenvalues --    1.55328   1.56012   1.56148   1.56353   1.56387
 Alpha virt. eigenvalues --    1.56718   1.57529   1.57801   1.58077   1.58703
 Alpha virt. eigenvalues --    1.59395   1.59560   1.59748   1.60448   1.60521
 Alpha virt. eigenvalues --    1.60968   1.61026   1.61067   1.61494   1.61823
 Alpha virt. eigenvalues --    1.62033   1.62377   1.62496   1.63538   1.63810
 Alpha virt. eigenvalues --    1.64114   1.64406   1.64578   1.64856   1.65185
 Alpha virt. eigenvalues --    1.65742   1.65775   1.65998   1.66569   1.66843
 Alpha virt. eigenvalues --    1.66897   1.67422   1.67722   1.67924   1.68277
 Alpha virt. eigenvalues --    1.68540   1.68657   1.69039   1.69605   1.69670
 Alpha virt. eigenvalues --    1.69957   1.70603   1.70824   1.70929   1.71195
 Alpha virt. eigenvalues --    1.71808   1.72034   1.72673   1.72957   1.73661
 Alpha virt. eigenvalues --    1.74164   1.74660   1.74941   1.74989   1.75412
 Alpha virt. eigenvalues --    1.75741   1.75865   1.76085   1.76521   1.76649
 Alpha virt. eigenvalues --    1.77558   1.77683   1.78346   1.78552   1.78988
 Alpha virt. eigenvalues --    1.79319   1.79956   1.80576   1.80888   1.81155
 Alpha virt. eigenvalues --    1.81533   1.82600   1.83130   1.83322   1.83326
 Alpha virt. eigenvalues --    1.84146   1.84188   1.84821   1.84916   1.86425
 Alpha virt. eigenvalues --    1.86623   1.87200   1.87698   1.88263   1.89000
 Alpha virt. eigenvalues --    1.89118   1.89162   1.89658   1.90367   1.90456
 Alpha virt. eigenvalues --    1.90582   1.91143   1.92256   1.92406   1.92834
 Alpha virt. eigenvalues --    1.93220   1.94161   1.94610   1.95337   1.95803
 Alpha virt. eigenvalues --    1.95918   1.96086   1.96451   1.96791   1.97141
 Alpha virt. eigenvalues --    1.97322   1.97435   1.98459   1.98542   1.99073
 Alpha virt. eigenvalues --    1.99281   1.99474   2.00323   2.00793   2.01650
 Alpha virt. eigenvalues --    2.01707   2.02282   2.02448   2.02592   2.03268
 Alpha virt. eigenvalues --    2.03440   2.04049   2.04088   2.05312   2.05445
 Alpha virt. eigenvalues --    2.05955   2.06579   2.06788   2.07546   2.07571
 Alpha virt. eigenvalues --    2.07826   2.08276   2.08667   2.08671   2.09621
 Alpha virt. eigenvalues --    2.09844   2.10063   2.10687   2.11160   2.11268
 Alpha virt. eigenvalues --    2.11839   2.12753   2.12798   2.13128   2.13226
 Alpha virt. eigenvalues --    2.13414   2.14370   2.14842   2.15252   2.15785
 Alpha virt. eigenvalues --    2.15893   2.16347   2.16427   2.16755   2.16778
 Alpha virt. eigenvalues --    2.17358   2.17863   2.18531   2.18559   2.19225
 Alpha virt. eigenvalues --    2.19461   2.20120   2.20244   2.20311   2.20581
 Alpha virt. eigenvalues --    2.20862   2.20916   2.21633   2.21730   2.22227
 Alpha virt. eigenvalues --    2.22394   2.22752   2.23368   2.23692   2.23769
 Alpha virt. eigenvalues --    2.24152   2.24612   2.25249   2.25773   2.25789
 Alpha virt. eigenvalues --    2.26078   2.26249   2.26827   2.27158   2.27315
 Alpha virt. eigenvalues --    2.27730   2.28053   2.28621   2.29027   2.29467
 Alpha virt. eigenvalues --    2.29541   2.30172   2.30598   2.31337   2.31586
 Alpha virt. eigenvalues --    2.31756   2.31858   2.33615   2.33844   2.34446
 Alpha virt. eigenvalues --    2.34848   2.34958   2.34959   2.35087   2.35397
 Alpha virt. eigenvalues --    2.35657   2.37336   2.37354   2.37568   2.38046
 Alpha virt. eigenvalues --    2.38057   2.39203   2.39279   2.39858   2.40100
 Alpha virt. eigenvalues --    2.41255   2.41694   2.42639   2.42813   2.43960
 Alpha virt. eigenvalues --    2.44236   2.44266   2.45088   2.45820   2.45908
 Alpha virt. eigenvalues --    2.46476   2.47172   2.47566   2.47723   2.48787
 Alpha virt. eigenvalues --    2.48860   2.49322   2.49566   2.49709   2.49764
 Alpha virt. eigenvalues --    2.50330   2.50487   2.50998   2.51530   2.52212
 Alpha virt. eigenvalues --    2.52671   2.52747   2.53393   2.53508   2.54221
 Alpha virt. eigenvalues --    2.54309   2.54717   2.55288   2.55830   2.56269
 Alpha virt. eigenvalues --    2.56507   2.57065   2.57514   2.57749   2.58385
 Alpha virt. eigenvalues --    2.58395   2.58715   2.59210   2.59506   2.59569
 Alpha virt. eigenvalues --    2.59732   2.60119   2.60420   2.60653   2.60969
 Alpha virt. eigenvalues --    2.61136   2.61202   2.61516   2.61615   2.62523
 Alpha virt. eigenvalues --    2.62797   2.62867   2.62913   2.63060   2.63448
 Alpha virt. eigenvalues --    2.63670   2.63972   2.64233   2.64367   2.64852
 Alpha virt. eigenvalues --    2.64858   2.64952   2.65247   2.65798   2.65833
 Alpha virt. eigenvalues --    2.66057   2.66757   2.66995   2.67265   2.67806
 Alpha virt. eigenvalues --    2.67833   2.68395   2.68965   2.69115   2.70001
 Alpha virt. eigenvalues --    2.70084   2.70255   2.70361   2.70746   2.71115
 Alpha virt. eigenvalues --    2.71397   2.72190   2.72230   2.72599   2.72611
 Alpha virt. eigenvalues --    2.72952   2.73468   2.73773   2.74072   2.74427
 Alpha virt. eigenvalues --    2.74841   2.75058   2.76009   2.76117   2.76698
 Alpha virt. eigenvalues --    2.76853   2.77074   2.77737   2.78113   2.78339
 Alpha virt. eigenvalues --    2.78806   2.79166   2.79358   2.79451   2.79921
 Alpha virt. eigenvalues --    2.80799   2.80854   2.80997   2.81352   2.81464
 Alpha virt. eigenvalues --    2.81703   2.82568   2.82969   2.83045   2.83669
 Alpha virt. eigenvalues --    2.83861   2.84876   2.84897   2.85347   2.85349
 Alpha virt. eigenvalues --    2.85832   2.86088   2.86301   2.86489   2.87065
 Alpha virt. eigenvalues --    2.87739   2.87761   2.88358   2.88411   2.88754
 Alpha virt. eigenvalues --    2.89093   2.89522   2.90180   2.90285   2.90645
 Alpha virt. eigenvalues --    2.91024   2.91160   2.91367   2.91408   2.92211
 Alpha virt. eigenvalues --    2.92324   2.92963   2.93285   2.94308   2.95352
 Alpha virt. eigenvalues --    2.95363   2.95707   2.96109   2.96851   2.97076
 Alpha virt. eigenvalues --    2.98249   2.98659   2.98935   2.99179   3.00502
 Alpha virt. eigenvalues --    3.00576   3.02173   3.02413   3.02668   3.03550
 Alpha virt. eigenvalues --    3.04979   3.05136   3.05409   3.05643   3.05981
 Alpha virt. eigenvalues --    3.07203   3.07649   3.08236   3.08545   3.09394
 Alpha virt. eigenvalues --    3.09742   3.09751   3.10085   3.10902   3.11636
 Alpha virt. eigenvalues --    3.12129   3.12340   3.13365   3.13741   3.14397
 Alpha virt. eigenvalues --    3.14535   3.14757   3.15154   3.15582   3.15997
 Alpha virt. eigenvalues --    3.16067   3.16568   3.16593   3.16851   3.17201
 Alpha virt. eigenvalues --    3.17483   3.17556   3.17731   3.18048   3.18197
 Alpha virt. eigenvalues --    3.18222   3.18954   3.19074   3.19827   3.20275
 Alpha virt. eigenvalues --    3.20495   3.21321   3.21623   3.21727   3.22090
 Alpha virt. eigenvalues --    3.22469   3.22838   3.23544   3.23586   3.23896
 Alpha virt. eigenvalues --    3.24038   3.24147   3.24439   3.24676   3.25844
 Alpha virt. eigenvalues --    3.25931   3.26564   3.26597   3.27201   3.27365
 Alpha virt. eigenvalues --    3.27909   3.28539   3.28683   3.29264   3.29341
 Alpha virt. eigenvalues --    3.29464   3.30108   3.30113   3.30528   3.30741
 Alpha virt. eigenvalues --    3.31411   3.31644   3.31945   3.32566   3.32924
 Alpha virt. eigenvalues --    3.33417   3.33490   3.33657   3.34326   3.34578
 Alpha virt. eigenvalues --    3.34674   3.35227   3.35490   3.35835   3.35869
 Alpha virt. eigenvalues --    3.36114   3.36479   3.36557   3.37002   3.37271
 Alpha virt. eigenvalues --    3.37911   3.38002   3.38599   3.38805   3.38923
 Alpha virt. eigenvalues --    3.38995   3.39251   3.39465   3.39815   3.40303
 Alpha virt. eigenvalues --    3.40397   3.40798   3.41242   3.41578   3.41738
 Alpha virt. eigenvalues --    3.41968   3.42151   3.42514   3.42647   3.43010
 Alpha virt. eigenvalues --    3.43552   3.43650   3.44086   3.44770   3.45108
 Alpha virt. eigenvalues --    3.45271   3.45437   3.45751   3.46276   3.46425
 Alpha virt. eigenvalues --    3.46734   3.46896   3.47590   3.47718   3.48195
 Alpha virt. eigenvalues --    3.48344   3.49339   3.49412   3.49884   3.50003
 Alpha virt. eigenvalues --    3.50343   3.50598   3.50969   3.50992   3.51590
 Alpha virt. eigenvalues --    3.51597   3.51975   3.52458   3.53266   3.53511
 Alpha virt. eigenvalues --    3.54059   3.54219   3.54693   3.54765   3.54860
 Alpha virt. eigenvalues --    3.54911   3.55133   3.56151   3.56289   3.56631
 Alpha virt. eigenvalues --    3.57480   3.57732   3.58208   3.58763   3.58961
 Alpha virt. eigenvalues --    3.59115   3.59652   3.59655   3.60668   3.61249
 Alpha virt. eigenvalues --    3.61639   3.61874   3.63672   3.64948   3.64949
 Alpha virt. eigenvalues --    3.65677   3.65789   3.67084   3.67273   3.67498
[...]
                                                    214(v),476(r),638(r),483(r)
                                                    309(r),507(r),635(r),310(r)
                                                    667(r),636(r),188(g),1322(r)
                                                    1501(r),1293(r),1146(r)
                                                    1294(r),1004(v),750(r)
                                                    425(r),311(r),1141(r)
                                                    1014(v),513(r),1165(r)
                                                    1327(r),174(g),637(r),899(r)
                                                    216(v),794(r),182(g),1321(r)
                                                    1114(r),1164(r),632(r)
                                                    308(r),861(r),306(r),986(g)
                                                    187(g),1190(r),180(g),316(r)
                                                    1042(v),753(r),217(v)
                                                    1468(r),902(r),1397(r)
                                                    1301(r),189(g),662(r)
                                                    1507(r),290(v),313(r)
                                                    1001(g),942(r),1269(r)
                                                    210(v),793(r),1347(r),642(r)
                                                    718(r),1216(r),833(r),684(v)
                                                    860(r),1267(r),1140(r)
                                                    1500(r),458(v),634(r),711(r)
                                                    284(v),1503(r),997(g)
                                                    1305(r),884(r),639(r),202(v)
                                                    1032(v),456(v),487(r),800(r)
                                                    208(v),752(r),834(r),431(r)
                                                    1194(r),840(r),432(r)
                                                    1243(r),520(r),1402(r)
                                                    185(g),691(v),1176(r),519(r)
                                                    1236(r),318(r),1010(v)
                                                    181(g),1029(v),175(g),930(r)
                                                    1198(r),901(r),489(r),668(r)
                                                    1346(r),228(r),949(r)
                                                    1509(r),1015(v),644(r)
  1426. BD*(   1) P   2 - C  16          0.08109     0.13878   
  1427. BD*(   1) P   2 - C  26          0.06663     0.18963   
  1428. BD*(   1) P   2 - C  40          0.11029     0.13414  1424(r),164(v),1452(v)
                                                    1487(v),201(g),1488(v)
  1429. BD*(   1) P   2 -Pd  53          0.18163     0.56797  1425(g),1000(g),989(g)
                                                    999(g),996(g),993(g),987(g)
                                                    200(g),199(g),171(v),172(v)
                                                    990(g),991(g),178(v),206(g)
                                                    683(r),1487(g),985(g),832(v)
                                                    1009(v),982(g),1037(v)
                                                    658(v),280(r),657(v),205(g)
                                                    177(v),279(r),660(v),173(v)
                                                    1040(v),201(g),998(g),282(r)
                                                    1008(v),1036(v),659(v)
                                                    484(v),1501(r),1012(v)
                                                    453(r),483(v),214(g),633(r)
                                                    307(r),638(r),281(r),667(v)
                                                    186(v),507(r),312(r),452(r)
                                                    635(r),476(r),309(r),636(r)
                                                    289(r),310(r),216(g),1141(r)
                                                    1511(r),1164(r),1327(r)
                                                    1165(r),1032(v),899(r)
                                                    513(r),637(r),1322(r)
                                                    1042(v),425(r),202(g)
                                                    1294(r),1146(r),311(r)
                                                    750(r),188(v),861(r),210(g)
                                                    1140(r),1347(r),1293(r)
                                                    306(r),634(r),794(r),632(r)
                                                    986(g),1267(r),215(g),642(r)
                                                    208(g),1014(v),902(r),189(v)
                                                    1485(r),753(r),1216(r)
                                                    1172(r),217(g),284(r)
                                                    1500(r),668(v),639(r)
                                                    1001(g),711(r),1192(r)
                                                    182(v),860(r),1114(r),316(r)
                                                    949(r),1397(r),684(r),833(v)
                                                    793(r),1190(r),1321(r)
                                                    1507(r),489(v),308(r),942(r)
                                                    662(v),1490(r),1176(r)
                                                    822(r),313(r),997(g),174(v)
                                                    1004(v),487(v),456(r),867(r)
                                                    180(v),685(r),901(r),519(r)
                                                    1271(r),691(r),520(r)
                                                    1062(r),432(r),1236(r)
                                                    213(g),840(v),1305(r),431(r)
                                                    1402(r),644(r),209(g)
                                                    1057(v),1038(v),203(g)
                                                    776(r),1275(r),752(r),458(r)
                                                    290(r),1113(r),254(r),718(r)
                                                    1498(r),1043(v),318(r)
  1430. BD*(   1) O   3 - C  13          0.02995     0.31446   
  1431. BD*(   1) O   3 - C  14          0.03580     0.21480   
  1432. BD*(   1) O   4 - C  16          0.03580     0.21480   
  1433. BD*(   1) O   4 - C  18          0.02995     0.31446   
  1434. BD*(   1) C   5 - C   6          0.03318     0.50219   
  1435. BD*(   1) C   5 - C  13          0.04045     0.46881   
  1436. BD*(   2) C   5 - C  13          0.43941    -0.01042  1452(r),1444(v),1438(v)
                                                    1424(v),426(g),395(v)
  1437. BD*(   1) C   6 - C   7          0.02398     0.50623   
  1438. BD*(   2) C   6 - C   7          0.33919     0.01720  1444(v),1436(v),1499(v)
                                                    1460(r),333(g),1496(v)
                                                    1498(v)
  1439. BD*(   1) C   6 - C  59          0.02765     0.44064   
  1440. BD*(   1) C   7 - H   8          0.01310     0.39165   
  1441. BD*(   1) C   7 - C   9          0.01303     0.52301   
  1442. BD*(   1) C   9 - H  10          0.01224     0.38943   
  1443. BD*(   1) C   9 - C  11          0.01179     0.51931   
  1444. BD*(   2) C   9 - C  11          0.33764     0.00490  1438(v),1436(v),364(g)
                                                    395(g)
  1445. BD*(   1) C  11 - H  12          0.01276     0.37827   
  1446. BD*(   1) C  11 - C  13          0.02528     0.50222   
  1447. BD*(   1) C  14 - H  15          0.02325     0.32087   
  1448. BD*(   1) C  14 - C  16          0.04576     0.27700   
  1449. BD*(   1) C  16 - H  17          0.02325     0.32088   
  1450. BD*(   1) C  18 - C  19          0.02528     0.50222   
  1451. BD*(   1) C  18 - C  26          0.04045     0.46881   
  1452. BD*(   2) C  18 - C  26          0.43941    -0.01042  1436(r),1455(v),1460(v)
                                                    1428(v),514(g),540(v)
  1453. BD*(   1) C  19 - H  20          0.01276     0.37827   
  1454. BD*(   1) C  19 - C  21          0.01179     0.51931   
  1455. BD*(   2) C  19 - C  21          0.33765     0.00490  1460(v),1452(v),571(g)
                                                    540(g)
  1456. BD*(   1) C  21 - H  22          0.01224     0.38943   
  1457. BD*(   1) C  21 - C  23          0.01303     0.52301   
  1458. BD*(   1) C  23 - H  24          0.01310     0.39165   
  1459. BD*(   1) C  23 - C  25          0.02398     0.50623   
  1460. BD*(   2) C  23 - C  25          0.33920     0.01720  1455(v),1452(v),1510(v)
                                                    1438(r),602(g),1512(v)
                                                    1509(v)
  1461. BD*(   1) C  25 - C  26          0.03318     0.50220   
  1462. BD*(   1) C  25 - C  70          0.02765     0.44064   
  1463. BD*(   1) C  27 - C  28          0.02385     0.31899   
  1464. BD*(   1) C  27 - C  32          0.02574     0.31676   
  1465. BD*(   1) C  27 - C  36          0.02298     0.32179   
  1466. BD*(   1) C  28 - H  29          0.01067     0.36671   
  1467. BD*(   1) C  28 - H  30          0.00746     0.35996   
  1468. BD*(   1) C  28 - H  31          0.01127     0.39819   
  1469. BD*(   1) C  32 - H  33          0.00777     0.37151   
  1470. BD*(   1) C  32 - H  34          0.00785     0.36426   
  1471. BD*(   1) C  32 - H  35          0.01046     0.35863   
  1472. BD*(   1) C  36 - H  37          0.01010     0.36564   
  1473. BD*(   1) C  36 - H  38          0.01371     0.40628   
  1474. BD*(   1) C  36 - H  39          0.00720     0.37768   
  1475. BD*(   1) C  40 - C  41          0.02298     0.32179   
  1476. BD*(   1) C  40 - C  45          0.02574     0.31676   
  1477. BD*(   1) C  40 - C  49          0.02385     0.31899   
  1478. BD*(   1) C  41 - H  42          0.01371     0.40628   
  1479. BD*(   1) C  41 - H  43          0.01010     0.36563   
  1480. BD*(   1) C  41 - H  44          0.00720     0.37768   
  1481. BD*(   1) C  45 - H  46          0.01046     0.35864   
  1482. BD*(   1) C  45 - H  47          0.00777     0.37151   
  1483. BD*(   1) C  45 - H  48          0.00785     0.36426   
  1484. BD*(   1) C  49 - H  50          0.00746     0.35996   
  1485. BD*(   1) C  49 - H  51          0.01127     0.39819   
  1486. BD*(   1) C  49 - H  52          0.01067     0.36671   
  1487. BD*(   1)Pd  53 -Cl  54          0.19298     0.17852  1488(g),1429(g),996(g)
                                                    993(g),200(v),987(g),991(g)
                                                    1000(g),999(g),199(v),171(v)
                                                    989(g),1426(v),178(v),990(g)
                                                    1009(g),986(g),683(r),832(r)
                                                    1428(v),1424(v),206(v)
                                                    1004(g),172(v),658(r)
                                                    1485(r),205(v),657(r),177(v)
                                                    483(r),660(r),1037(v),201(v)
                                                    1001(g),1478(r),279(r)
                                                    1002(g),994(g),1003(g)
                                                    484(r)
  1488. BD*(   1)Pd  53 -Cl  55          0.19298     0.17852  1487(g),1425(g),996(g)
                                                    993(g),172(v),987(g),991(g)
                                                    1000(g),999(g),171(v),199(v)
                                                    989(g),1423(v),206(v),990(g)
                                                    1037(g),986(g),832(r),683(r)
                                                    1424(v),1428(v),178(v)
                                                    1032(g),200(v),280(r)
                                                    1468(r),177(v),279(r),205(v)
                                                    452(r),282(r),1009(v),173(v)
                                                    1001(g),1473(r),657(r)
                                                    1002(g),1003(g),994(g)
                                                    453(r)
  1489. BD*(   1) C  56 - C  57          0.01456     0.54314   
  1490. BD*(   1) C  56 - C  61          0.01443     0.55496   
  1491. BD*(   2) C  56 - C  61          0.30230     0.04305  1499(v),1494(v),1062(g)
                                                    1192(g)
  1492. BD*(   1) C  56 - H  62          0.01304     0.41530   
  1493. BD*(   1) C  57 - C  58          0.01339     0.54842   
  1494. BD*(   2) C  57 - C  58          0.32743     0.03139  1499(v),1491(v),1088(g)
                                                    1114(g)
  1495. BD*(   1) C  57 - H  63          0.01320     0.40913   
  1496. BD*(   1) C  58 - C  59          0.02408     0.52528   
  1497. BD*(   1) C  58 - H  64          0.01365     0.40473   
  1498. BD*(   1) C  59 - C  60          0.02578     0.53449   
  1499. BD*(   2) C  59 - C  60          0.37078     0.03690  1494(v),1491(v),1438(v)
                                                    1510(r),1166(g),1434(v)
                                                    1437(v),164(r)
  1500. BD*(   1) C  60 - C  61          0.01388     0.55540   
  1501. BD*(   1) C  60 - H  65          0.01501     0.44191   
  1502. BD*(   1) C  61 - H  66          0.01319     0.43386   
  1503. BD*(   1) C  67 - C  68          0.01443     0.55496   
  1504. BD*(   2) C  67 - C  68          0.30229     0.04305  1510(v),1514(v),1243(g)
                                                    1269(g)
  1505. BD*(   1) C  67 - C  72          0.01456     0.54314   
  1506. BD*(   1) C  67 - H  73          0.01304     0.41530   
  1507. BD*(   1) C  68 - C  69          0.01388     0.55540   
  1508. BD*(   1) C  68 - H  74          0.01319     0.43386   
  1509. BD*(   1) C  69 - C  70          0.02578     0.53449   
  1510. BD*(   2) C  69 - C  70          0.37079     0.03690  1514(v),1504(v),1460(v)
                                                    1499(r),1295(g),1461(v)
                                                    1459(v),164(r)
  1511. BD*(   1) C  69 - H  75          0.01501     0.44193   
  1512. BD*(   1) C  70 - C  71          0.02408     0.52528   
  1513. BD*(   1) C  71 - C  72          0.01339     0.54842   
  1514. BD*(   2) C  71 - C  72          0.32743     0.03139  1510(v),1504(v),1373(g)
                                                    1347(g)
  1515. BD*(   1) C  71 - H  76          0.01365     0.40473   
  1516. BD*(   1) C  72 - H  77          0.01320     0.40913   
       -------------------------------
              Total Lewis  358.46087  ( 97.9401%)
        Valence non-Lewis    6.94841  (  1.8985%)
        Rydberg non-Lewis    0.59072  (  0.1614%)
       -------------------------------
            Total unit  1  366.00000  (100.0000%)
           Charge unit  1    0.00000
 1\1\GINC-NOTCH059\SP\RPBE1PBE\Gen\C34H36Cl2O2P2Pd1\U1010977\02-Nov-202
 1\0\\# PBE1PBE gen pseudo=read int=(grid=ultrafine) empiricaldispersio
 n=GD3BJ pop=nbo guess=read geom=check\\title\\0,1\P,0,11.2195918776,-5
 .9872549894,7.2637737982\P,0,13.2395018649,-3.8238971229,6.2665034446\
 O,0,10.5044998872,-6.4005059808,4.6932483076\O,0,11.7957201357,-3.6277
 098865,3.993456248\C,0,11.5778008542,-7.5956904738,6.4683139447\C,0,12
 .1331117751,-8.7879849309,6.9909623827\C,0,12.0553884571,-9.9512495844
 ,6.1951831625\H,0,12.4972722103,-10.8757463624,6.5782214017\C,0,11.474
 4182086,-9.9249843329,4.9197643527\H,0,11.4423337512,-10.8420214856,4.
 3228909223\C,0,10.9633790652,-8.7382862369,4.3780496849\H,0,10.5272888
 323,-8.6946643844,3.3767396659\C,0,11.026462572,-7.5838802031,5.165255
 4008\C,0,10.9164978602,-5.2986794319,5.5330385975\H,0,10.0972797453,-4
 .5618801703,5.5326115246\C,0,12.1802233248,-4.6494545332,4.9406680888\
 H,0,12.7525386406,-5.4110745347,4.3871516126\C,0,11.7574936582,-2.3957
 099063,4.606911846\C,0,11.1767414904,-1.3060433732,3.9498900494\H,0,10
 .7265602116,-1.4387618121,2.9627619242\C,0,11.1974096168,-0.0659089013
 ,4.6014342225\H,0,10.7451288983,0.8024208485,4.1118525832\C,0,11.75470
 55372,0.0747771171,5.8799259877\H,0,11.7125564592,1.0394335416,6.39406
 07798\C,0,12.332322582,-1.0225958933,6.5541824003\C,0,12.3556466287,-2
 .2683400442,5.8828655845\C,0,9.5028209029,-6.1657062243,8.0571986335\C
 ,0,9.1665821978,-4.7931525237,8.6688888896\H,0,8.1629364259,-4.8424533
 31,9.1291965582\H,0,9.1417355564,-3.995539284,7.9033422642\H,0,9.89762
 51805,-4.5204527129,9.447512041\C,0,8.4477234405,-6.5707349571,7.01154
 38731\H,0,8.6898500313,-7.5321559333,6.5297186406\H,0,8.3036239521,-5.
 8107339682,6.2260486195\H,0,7.4825451117,-6.6932796409,7.5361549663\C,
 0,9.5972680279,-7.25792172,9.1399348492\H,0,8.621393339,-7.3221571696,
 9.6555413153\H,0,10.37436746,-7.0262705357,9.8845501895\H,0,9.80991036
 79,-8.2438183735,8.6931378062\C,0,14.9712625111,-3.6438980501,5.506715
 592\C,0,15.6756692857,-2.471443025,6.2161731884\H,0,15.7163057418,-2.6
 209511554,7.306124458\H,0,16.7092688473,-2.4014169144,5.8300671363\H,0
 ,15.1688997273,-1.5150897723,6.0030870195\C,0,14.8872933864,-3.3532601
 127,3.9970307335\H,0,15.9184696621,-3.2240832275,3.6204768389\H,0,14.3
 35588173,-2.4229317486,3.7843763715\H,0,14.4257337407,-4.1740887365,3.
 4238182387\C,0,15.6960429171,-4.9774231103,5.7665900871\H,0,15.1707738
 394,-5.830288463,5.2979972923\H,0,15.7941627687,-5.1668609142,6.848037
 2112\H,0,16.7076410383,-4.927303445,5.3241253167\Pd,0,12.9075833483,-4
 .8374160075,8.2863288432\Cl,0,15.0200391549,-4.1672115483,9.194538448\
 Cl,0,12.1908102781,-5.3673597012,10.5093606161\C,0,14.1284561721,-8.93
 53241965,10.7960040975\C,0,13.1407149705,-9.8825184137,10.4834701809\C
 ,0,12.488670726,-9.8376802855,9.2460076084\C,0,12.8129764152,-8.836089
 3989,8.3073660165\C,0,13.8192230153,-7.902875298,8.6261983003\C,0,14.4
 672813777,-7.9449398909,9.8654491637\H,0,14.6238195481,-8.9623554408,1
 1.7717779412\H,0,12.8664419611,-10.6516862035,11.2129623072\H,0,11.699
 7931793,-10.5604562001,9.0098576209\H,0,14.101237254,-7.1365058703,7.8
 948912029\H,0,15.2098955849,-7.1773015644,10.1018062759\C,0,13.8170620
 543,-0.5255754807,10.5579243528\C,0,12.9326302175,-1.5709552798,10.263
 7171461\C,0,12.4476628603,-1.7268589342,8.9606486077\C,0,12.8530703874
 ,-0.8538371646,7.9317880537\C,0,13.7334228407,0.2037897788,8.241318551
 \C,0,14.2142970441,0.3624596139,9.5459528016\H,0,14.2090993862,-0.4093
 815084,11.5733336494\H,0,12.6368726842,-2.2938313098,11.0296064416\H,0
 ,11.741697663,-2.535987519,8.7402216036\H,0,14.0618023944,0.8804326272
 ,7.4445616488\H,0,14.9136717049,1.1744733124,9.7707024736\\Version=ES6
 4L-G16RevB.01\State=1-A\HF=-3197.2943363\RMSD=3.165e-09\Dipole=-1.2247
 928,-0.1231049,-2.7475957\Quadrupole=-5.1810941,14.6654152,-9.484321,4
 .3223883,-2.7135446,-3.0693797\PG=C01 [X(C34H36Cl2O2P2Pd1)]\\@


 THE CHYMISTS ARE A STRANGE CLASS OF MORTALS IMPELLED
 BY AN ALMOST INSANE IMPULSE TO SEEK THEIR PLEASURE
 AMONG SMOKE AND VAPOR, SOOT AND FLAME, POISONS AND
 POVERTY; YET AMONG ALL THESE EVILS I SEEM TO LIVE
 SO SWEETLY, THAT I MAY DIE IF I WOULD CHANGE PLACES
 WITH THE PERSIAN KING.
   --  JOHANN JOACHIM BECHER, 1635-1682
 ACTA LABORATORII CHYMICA MONACENSIS, 1669
 Job cpu time:       0 days  1 hours 27 minutes 26.3 seconds.
 Elapsed time:       0 days  0 hours  2 minutes 45.2 seconds.
 File lengths (MBytes):  RWF=   1175 Int=      0 D2E=      0 Chk=    177 Scr=      1
 Normal termination of Gaussian 16 at Tue Nov  2 12:50:49 2021.
