 Entering Gaussian System, Link 0=/uufs/chpc.utah.edu/sys/installdir/gaussian16/B01/E6B/g16/g16
 Input=S-35tBu-C3-Tunephos_5_SPE.com
 Output=S-35tBu-C3-Tunephos_5_SPE.log
 Initial command:
 /uufs/chpc.utah.edu/sys/installdir/gaussian16/B01/E6B/g16/l1.exe "/scratch/general/lustre/u1010977/3356308/notchpeak.peaks/Gau-325388.inp" -scrdir="/scratch/general/lustre/u1010977/3356308/notchpeak.peaks/"
 Entering Link 1 = /uufs/chpc.utah.edu/sys/installdir/gaussian16/B01/E6B/g16/l1.exe PID=    325390.
  
 Copyright (c) 1988-2017, Gaussian, Inc.  All Rights Reserved.
  
 This is part of the Gaussian(R) 16 program.  It is based on
 the Gaussian(R) 09 system (copyright 2009, Gaussian, Inc.),
 the Gaussian(R) 03 system (copyright 2003, Gaussian, Inc.),
 the Gaussian(R) 98 system (copyright 1998, Gaussian, Inc.),
 the Gaussian(R) 94 system (copyright 1995, Gaussian, Inc.),
 the Gaussian 92(TM) system (copyright 1992, Gaussian, Inc.),
 the Gaussian 90(TM) system (copyright 1990, Gaussian, Inc.),
 the Gaussian 88(TM) system (copyright 1988, Gaussian, Inc.),
 the Gaussian 86(TM) system (copyright 1986, Carnegie Mellon
 University), and the Gaussian 82(TM) system (copyright 1983,
 Carnegie Mellon University). Gaussian is a federally registered
 trademark of Gaussian, Inc.
  
 This software contains proprietary and confidential information,
 including trade secrets, belonging to Gaussian, Inc.
  
 This software is provided under written license and may be
 used, copied, transmitted, or stored only in accord with that
 written license.
  
 The following legend is applicable only to US Government
 contracts under FAR:
  
                    RESTRICTED RIGHTS LEGEND
  
 Use, reproduction and disclosure by the US Government is
 subject to restrictions as set forth in subparagraphs (a)
 and (c) of the Commercial Computer Software - Restricted
 Rights clause in FAR 52.227-19.
  
 Gaussian, Inc.
 340 Quinnipiac St., Bldg. 40, Wallingford CT 06492
  
  
 ---------------------------------------------------------------
 Warning -- This program may not be used in any manner that
 competes with the business of Gaussian, Inc. or will provide
 assistance to any competitor of Gaussian, Inc.  The licensee
 of this program is prohibited from giving any competitor of
 Gaussian, Inc. access to this program.  By using this program,
 the user acknowledges that Gaussian, Inc. is engaged in the
 business of creating and licensing software in the field of
 computational chemistry and represents and warrants to the
 licensee that it is not a competitor of Gaussian, Inc. and that
 it will not use this program in any manner prohibited above.
 ---------------------------------------------------------------
  

 Cite this work as:
 Gaussian 16, Revision B.01,
 M. J. Frisch, G. W. Trucks, H. B. Schlegel, G. E. Scuseria, 
 M. A. Robb, J. R. Cheeseman, G. Scalmani, V. Barone, 
 G. A. Petersson, H. Nakatsuji, X. Li, M. Caricato, A. V. Marenich, 
 J. Bloino, B. G. Janesko, R. Gomperts, B. Mennucci, H. P. Hratchian, 
 J. V. Ortiz, A. F. Izmaylov, J. L. Sonnenberg, D. Williams-Young, 
 F. Ding, F. Lipparini, F. Egidi, J. Goings, B. Peng, A. Petrone, 
 T. Henderson, D. Ranasinghe, V. G. Zakrzewski, J. Gao, N. Rega, 
 G. Zheng, W. Liang, M. Hada, M. Ehara, K. Toyota, R. Fukuda, 
 J. Hasegawa, M. Ishida, T. Nakajima, Y. Honda, O. Kitao, H. Nakai, 
 T. Vreven, K. Throssell, J. A. Montgomery, Jr., J. E. Peralta, 
 F. Ogliaro, M. J. Bearpark, J. J. Heyd, E. N. Brothers, K. N. Kudin, 
 V. N. Staroverov, T. A. Keith, R. Kobayashi, J. Normand, 
 K. Raghavachari, A. P. Rendell, J. C. Burant, S. S. Iyengar, 
 J. Tomasi, M. Cossi, J. M. Millam, M. Klene, C. Adamo, R. Cammi, 
 J. W. Ochterski, R. L. Martin, K. Morokuma, O. Farkas, 
 J. B. Foresman, and D. J. Fox, Gaussian, Inc., Wallingford CT, 2016.
 
 ******************************************
 Gaussian 16:  ES64L-G16RevB.01 20-Dec-2017
                 2-Nov-2021 
 ******************************************
 %NProcShared=52
 Will use up to   52 processors via shared memory.
 %mem=18GB
 %chk=S-35tBu-C3-Tunephos_5_SPE.chk
 ----------------------------------------------------------------------
 # PBE1PBE gen pseudo=read int=(grid=ultrafine) empiricaldispersion=GD3
 BJ nmr=giao
 ----------------------------------------------------------------------
 1/38=1,172=1/1;
 2/12=2,17=6,18=5,40=1/2;
 3/5=7,11=2,16=1,17=8,25=1,30=1,74=-13,75=-5,124=41/1,2,3,8;
 4//1;
 5/5=2,38=5/2;
 8/6=1,10=90,11=11/1;
 10/13=100,45=16/2;
 6/7=2,8=2,9=2,10=2,28=1/1;
 99/9=1/99;
 -----
 title
 -----
 Symbolic Z-matrix:
 Charge =  0 Multiplicity = 1
 Pd                   -3.90574  -1.3547    1.03304 
 P                    -5.04871  -0.04681   2.50787 
 P                    -2.20016   0.16333   0.81201 
 O                    -1.64293   3.69695   3.75699 
 O                    -4.28007   4.4795    2.93974 
 C                    -6.09775  -1.04497   3.63243 
 C                    -7.21427  -0.48226   4.26534 
 C                    -7.9683   -1.22999   5.18682 
 C                    -7.56924  -2.554     5.44836 
 C                    -6.45738  -3.14754   4.81788 
 C                    -5.72264  -2.36907   3.90733 
 C                    -6.11374   1.243     1.78407 
 C                    -6.60681   2.31872   2.54891 
 C                    -7.4634    3.26156   1.96677 
 C                    -7.78149   3.11297   0.59734 
 C                    -7.28315   2.06367  -0.19031 
 C                    -6.44627   1.11675   0.4316 
 C                    -3.92848   0.83318   3.68795 
 C                    -3.77211   0.32805   4.99371 
 C                    -2.89767   0.94949   5.89233 
 C                    -2.18364   2.09193   5.51579 
 C                    -2.34457   2.60303   4.22073 
 C                    -3.19431   1.9725    3.28299 
 C                    -3.27581   2.57095   1.92023 
 C                    -3.7894    3.88252   1.7979 
 C                    -3.86726   4.52349   0.55435 
 C                    -3.40821   3.85989  -0.58751 
 C                    -2.88228   2.56642  -0.49065 
 C                    -2.80936   1.9124    0.75582 
 C                    -1.40329  -0.0327   -0.82666 
 C                    -2.20501  -0.50438  -1.87481 
 C                    -1.69359  -0.61787  -3.18059 
 C                    -0.35822  -0.23903  -3.39017 
 C                     0.47625   0.22897  -2.35211 
 C                    -0.06504   0.33048  -1.06051 
 C                    -0.90394   0.06419   2.096 
 C                    -0.89355  -1.11746   2.85151 
 C                     0.08524  -1.33393   3.83433 
 C                     1.06659  -0.34247   4.0111 
 C                     1.08779   0.85348   3.26448 
 C                     0.06865   1.05809   2.31365 
 C                    -3.69279   5.73059   3.35803 
 H                    -7.51038   0.5417    4.02489 
 H                    -8.14977  -3.1486    6.15555 
 H                    -4.87372  -2.7994    3.36798 
 H                    -6.28658   2.42599   3.58765 
 H                    -8.43845   3.85449   0.13413 
 H                    -6.04313   0.26383  -0.12492 
 H                    -4.3385   -0.55219   5.30679 
 H                    -2.77295   0.53835   6.89933 
 H                    -1.49258   2.57132   6.21506 
 H                    -4.30487   5.52463   0.49113 
 H                    -3.46863   4.34864  -1.56524 
 H                    -2.52773   2.05888  -1.39048 
 H                    -3.22896  -0.8214   -1.65444 
 H                     0.06249  -0.32363  -4.39579 
 H                     0.55082   0.67132  -0.22556 
 H                    -1.66195  -1.8702    2.64513 
 H                     1.84441  -0.50645   4.75822 
 H                     0.01797   1.99468   1.74821 
 H                    -2.99451   6.09858   2.58363 
 Cl                   -5.89238  -2.62645   0.64461 
 Cl                   -2.51489  -3.0704    0.11187 
 C                    -2.98893   5.53585   4.70491 
 C                    -1.61583   4.86809   4.58949 
 H                    -1.2032    4.6405    5.59084 
 H                    -3.65374   4.93641   5.35272 
 H                    -2.85589   6.51707   5.19851 
 C                    -9.92826  -1.53493   6.80352 
 C                    -9.18496  -0.57008   5.86081 
 C                    -10.17587  -0.08904   4.77337 
 C                    -8.70327   0.64703   6.68702 
 H                    -9.27989  -1.88532   7.62547 
 H                    -10.79227  -1.01903   7.25655 
 H                    -10.31043  -2.41831   6.26323 
 H                    -9.71395   0.64631   4.09231 
 H                    -10.52964  -0.93611   4.16139 
 H                    -11.05343   0.39033   5.24332 
 H                    -8.18854   1.38966   6.05291 
 H                    -9.56179   1.1493    7.16808 
 H                    -7.99903   0.33354   7.47708 
 C                    -6.87163  -5.28156   6.16448 
 C                    -6.06075  -4.61752   5.03562 
 C                    -4.55957  -4.70954   5.39687 
 C                    -6.31739  -5.38655   3.71571 
 H                    -7.9502   -5.31276   5.93158 
 H                    -6.53344  -6.32346   6.29739 
 H                    -6.73898  -4.75822   7.12825 
 H                    -3.91746  -4.33246   4.58415 
 H                    -4.33184  -4.13112   6.30983 
 H                    -4.2785   -5.7624    5.57643 
 H                    -5.76942  -4.94071   2.86852 
 H                    -6.00083  -6.43996   3.82163 
 H                    -7.39059  -5.37123   3.45894 
 C                    -7.56621   5.76682   2.1183 
 C                    -8.04347   4.44349   2.76245 
 C                    -7.5911    4.4326    4.23548 
 C                    -9.58811   4.37074   2.72618 
 H                    -7.89321   5.85207   1.0682 
 H                    -7.9726    6.63304   2.67081 
 H                    -6.46455   5.82024   2.13799 
 H                    -7.93428   3.52336   4.76086 
 H                    -6.49274   4.48926   4.3188 
 H                    -8.02209   5.30178   4.76175 
 H                    -9.94644   3.4353    3.19076 
 H                    -10.02476   5.22064   3.28077 
 H                    -9.97674   4.40493   1.69449 
 C                    -8.21901   0.52405  -1.94694 
 C                    -7.58847   1.91369  -1.6892 
 C                    -6.25847   2.03122  -2.47211 
 C                    -8.55592   2.99588  -2.20268 
 H                    -9.1792    0.42456  -1.41192 
 H                    -8.40999   0.3898   -3.02661 
 H                    -7.56399  -0.29815  -1.6132 
 H                    -5.79473   3.0201   -2.31167 
 H                    -5.53105   1.26714  -2.15185 
 H                    -6.43644   1.89804  -3.55433 
 H                    -9.52702   2.95686  -1.67861 
 H                    -8.74958   2.83901  -3.27755 
 H                    -8.13726   4.011    -2.0841 
 C                    -3.9285   -0.44209  -4.34064 
 C                    -2.58448  -1.20561  -4.28709 
 C                    -2.85377  -2.69306  -3.94904 
 C                    -1.92311  -1.12101  -5.67554 
 H                    -3.77061   0.63416  -4.53222 
 H                    -4.56082  -0.84747  -5.15026 
 H                    -4.49543  -0.54302  -3.40067 
 H                    -1.91208  -3.26836  -3.94849 
 H                    -3.31148  -2.81163  -2.95246 
 H                    -3.53158  -3.13653  -4.70071 
 H                    -0.99108  -1.71071  -5.72217 
 H                    -2.60944  -1.52987  -6.43663 
 H                    -1.68968  -0.0784   -5.95647 
 C                     2.69771   1.08409  -1.42111 
 C                     1.93791   0.594    -2.66698 
 C                     1.96596   1.72043  -3.72729 
 C                     2.66548  -0.65487  -3.21961 
 H                     2.72775   0.31359  -0.63145 
 H                     3.7392    1.32883  -1.69191 
 H                     2.24014   1.99415  -0.99598 
 H                     1.46098   1.41726  -4.65982 
 H                     1.46279   2.62752  -3.34965 
 H                     3.0092    1.9835   -3.97836 
 H                     2.18772  -1.03291  -4.13895 
 H                     3.71578  -0.41023  -3.45993 
 H                     2.66019  -1.47098  -2.47711 
 C                     1.19145  -2.72849   5.67012 
 C                     0.02974  -2.62608   4.66472 
 C                     0.08675  -3.84723   3.71533 
 C                    -1.30381  -2.64515   5.45046 
 H                     1.17784  -1.89998   6.40039 
 H                     1.10891  -3.67257   6.23535 
 H                     2.17204  -2.72799   5.16256 
 H                    -0.72896  -3.83659   2.97288 
 H                     1.04131  -3.86705   3.16157 
 H                     0.00637  -4.78263   4.29746 
 H                    -2.17277  -2.5949    4.7736 
 H                    -1.38821  -3.57453   6.04172 
 H                    -1.36661  -1.78467   6.13946 
 C                     1.55757   3.20073   4.05439 
 C                     2.18625   1.91674   3.46695 
 C                     2.83938   2.25076   2.10583 
 C                     3.29673   1.43879   4.42293 
 H                     1.1011    2.99552   5.03897 
 H                     2.3314    3.97868   4.18646 
 H                     0.7666    3.59668   3.39865 
 H                     3.29286   1.35263   1.6531 
 H                     2.10694   2.65688   1.38858 
 H                     3.63234   3.0083    2.23869 
 H                     3.77892   0.5143    4.06074 
 H                     4.07545   2.21703   4.49965 
 H                     2.91282   1.25363   5.44119 
 H                    -0.90011   5.53523   4.08016 
 H                    -4.51708   6.4591    3.46016 
 
 Stoichiometry    C71H96Cl2O2P2Pd
 Framework group  C1[X(C71H96Cl2O2P2Pd)]
 Deg. of freedom   516
 Full point group                 C1      NOp   1
 Largest Abelian subgroup         C1      NOp   1
 Largest concise Abelian subgroup C1      NOp   1
                         Standard orientation:                         
 ---------------------------------------------------------------------
 Center     Atomic      Atomic             Coordinates (Angstroms)
 Number     Number       Type             X           Y           Z
 ---------------------------------------------------------------------
      1         46           0       -0.104005    0.028937   -1.878031
      2         15           0        1.617129    0.065829   -0.385253
      3         15           0       -1.699155   -0.047359   -0.231234
      4          8           0       -0.722356    0.900092    4.198001
      5          8           0        1.140399   -1.273917    4.001383
      6          6           0        3.096035    0.904578   -1.071404
      7          6           0        4.375650    0.636367   -0.566960
      8          6           0        5.495791    1.340102   -1.043236
      9          6           0        5.291197    2.313791   -2.038582
     10          6           0        4.017030    2.595529   -2.570695
     11          6           0        2.918858    1.877776   -2.066899
     12          6           0        2.164928   -1.550853    0.253524
     13          6           0        2.968765   -1.664060    1.405173
     14          6           0        3.409981   -2.922128    1.834352
     15          6           0        2.996908   -4.056727    1.099056
     16          6           0        2.176875   -3.970525   -0.036676
     17          6           0        1.772729   -2.688872   -0.458365
     18          6           0        1.236921    1.090835    1.106950
     19          6           0        1.762013    2.394976    1.197062
     20          6           0        1.454319    3.206919    2.294521
     21          6           0        0.640303    2.729433    3.327086
     22          6           0        0.124492    1.428823    3.245478
     23          6           0        0.391229    0.601924    2.130095
     24          6           0       -0.227856   -0.753980    2.117762
     25          6           0        0.145830   -1.666522    3.130966
     26          6           0       -0.416712   -2.947759    3.203821
     27          6           0       -1.383516   -3.324949    2.266840
     28          6           0       -1.780801   -2.434562    1.262640
     29          6           0       -1.212445   -1.147487    1.178151
     30          6           0       -3.210927   -0.863842   -0.868864
     31          6           0       -3.042291   -1.825150   -1.874508
     32          6           0       -4.140444   -2.550773   -2.371523
     33          6           0       -5.402403   -2.277171   -1.820845
     34          6           0       -5.604404   -1.307187   -0.815238
     35          6           0       -4.487492   -0.600674   -0.341017
     36          6           0       -2.172756    1.574700    0.463934
     37          6           0       -1.793880    2.690138   -0.297285
     38          6           0       -2.143901    3.988440    0.106100
     39          6           0       -2.909572    4.126427    1.277414
     40          6           0       -3.311367    3.025775    2.061830
     41          6           0       -2.910305    1.739193    1.651416
     42          6           0        0.835081   -1.243834    5.412401
     43          1           0        4.503862   -0.140467    0.190724
     44          1           0        6.152584    2.862299   -2.423071
     45          1           0        1.916700    2.037945   -2.475278
     46          1           0        3.213892   -0.765280    1.975378
     47          1           0        3.326753   -5.042727    1.438169
     48          1           0        1.149952   -2.555067   -1.349405
     49          1           0        2.414781    2.773245    0.406850
     50          1           0        1.855840    4.224177    2.345607
     51          1           0        0.391731    3.367931    4.179663
     52          1           0       -0.076901   -3.641675    3.978934
     53          1           0       -1.826393   -4.325158    2.310697
     54          1           0       -2.536570   -2.741939    0.536456
     55          1           0       -2.044429   -1.977050   -2.297293
     56          1           0       -6.271348   -2.825095   -2.195209
     57          1           0       -4.601915    0.170363    0.423838
     58          1           0       -1.228710    2.519100   -1.219773
     59          1           0       -3.204827    5.128403    1.591993
     60          1           0       -3.157134    0.861637    2.258438
     61          1           0       -0.160384   -1.689731    5.593852
     62         17           0        1.425809   -0.602358   -3.603174
     63         17           0       -1.758153    0.713668   -3.465987
     64          6           0        0.905681    0.201292    5.916433
     65          6           0       -0.334646    1.031973    5.575549
     66          1           0       -0.185984    2.093236    5.851885
     67          1           0        1.810054    0.667980    5.486015
     68          1           0        1.032581    0.204370    7.015536
     69          6           0        8.004962    1.836788   -1.117758
     70          6           0        6.881987    1.014869   -0.457826
     71          6           0        7.188096   -0.487806   -0.667832
     72          6           0        6.873367    1.327159    1.058224
     73          1           0        7.860443    2.921148   -0.969301
     74          1           0        8.976167    1.564962   -0.669696
     75          1           0        8.069227    1.641212   -2.202163
     76          1           0        6.441445   -1.132689   -0.173276
     77          1           0        7.191521   -0.742063   -1.741395
     78          1           0        8.179774   -0.736405   -0.248849
     79          1           0        6.104633    0.739169    1.589140
     80          1           0        7.854017    1.085532    1.506194
     81          1           0        6.664282    2.395723    1.239565
     82          6           0        5.066505    4.400181   -4.047446
     83          6           0        3.793456    3.599495   -3.714217
     84          6           0        2.678466    4.598987   -3.326476
     85          6           0        3.356270    2.807966   -4.971909
     86          1           0        5.881653    3.746092   -4.402741
     87          1           0        4.847944    5.121080   -4.853759
     88          1           0        5.433289    4.970411   -3.175303
     89          1           0        1.712205    4.094020   -3.164122
     90          1           0        2.937157    5.148437   -2.403925
     91          1           0        2.532814    5.334920   -4.136990
     92          1           0        2.453562    2.203085   -4.782099
     93          1           0        3.142902    3.503383   -5.803754
     94          1           0        4.154460    2.117112   -5.293673
     95          6           0        3.558598   -3.970333    4.112296
     96          6           0        4.303816   -3.098346    3.073927
     97          6           0        4.654003   -1.751791    3.736294
     98          6           0        5.620934   -3.793102    2.655585
     99          1           0        3.312349   -4.966912    3.708444
    100          1           0        4.182075   -4.114638    5.012970
    101          1           0        2.616092   -3.480274    4.409632
    102          1           0        5.220868   -1.095663    3.051694
    103          1           0        3.746332   -1.215554    4.060552
    104          1           0        5.285522   -1.928812    4.624009
    105          1           0        6.170479   -3.179069    1.920570
    106          1           0        6.271716   -3.942218    3.535822
    107          1           0        5.437541   -4.780578    2.199677
    108          6           0        2.112025   -5.062527   -2.302803
    109          6           0        1.687641   -5.198643   -0.820753
    110          6           0        0.143602   -5.253304   -0.728010
    111          6           0        2.258289   -6.516116   -0.264538
    112          1           0        3.211652   -5.039849   -2.394601
    113          1           0        1.734789   -5.922349   -2.884692
    114          1           0        1.719256   -4.141298   -2.764876
    115          1           0       -0.182948   -5.361078    0.321002
    116          1           0       -0.318907   -4.335650   -1.127429
    117          1           0       -0.246176   -6.109668   -1.307074
    118          1           0        3.361435   -6.533822   -0.308884
    119          1           0        1.885933   -7.363347   -0.865382
    120          1           0        1.949472   -6.688330    0.781783
    121          6           0       -2.793774   -4.536338   -3.156029
    122          6           0       -3.923329   -3.545658   -3.523275
    123          6           0       -3.510760   -2.742495   -4.781848
    124          6           0       -5.193964   -4.355660   -3.842267
    125          1           0       -3.033667   -5.093278   -2.232871
    126          1           0       -2.651959   -5.266457   -3.972398
    127          1           0       -1.830267   -4.022435   -3.005301
    128          1           0       -4.320525   -2.058897   -5.089630
    129          1           0       -2.613064   -2.127581   -4.600920
    130          1           0       -3.300241   -3.431474   -5.619760
    131          1           0       -6.019012   -3.706420   -4.183396
    132          1           0       -4.981032   -5.071219   -4.654734
    133          1           0       -5.543868   -4.932347   -2.967366
    134          6           0       -7.061449    0.035201    0.799658
    135          6           0       -7.028388   -1.051508   -0.290139
    136          6           0       -7.593463   -2.360130    0.311598
    137          6           0       -7.926976   -0.591040   -1.462717
    138          1           0       -6.685088    1.002306    0.423901
    139          1           0       -8.099368    0.188398    1.142013
    140          1           0       -6.458118   -0.250160    1.678783
    141          1           0       -7.624204   -3.173110   -0.433150
    142          1           0       -6.974591   -2.701470    1.159594
    143          1           0       -8.623079   -2.199103    0.678418
    144          1           0       -7.974117   -1.348082   -2.263345
    145          1           0       -8.957170   -0.410292   -1.106660
    146          1           0       -7.543502    0.344042   -1.905371
    147          6           0       -2.167169    6.528789   -0.184960
    148          6           0       -1.669685    5.181175   -0.739352
    149          6           0       -2.188555    5.019484   -2.188630
    150          6           0       -0.121796    5.192443   -0.743673
    151          1           0       -1.793457    6.716324    0.837330
    152          1           0       -1.805279    7.349212   -0.828016
    153          1           0       -3.269955    6.580732   -0.166583
    154          1           0       -1.857199    4.072423   -2.646912
    155          1           0       -3.291956    5.033057   -2.212110
    156          1           0       -1.820080    5.850056   -2.816876
    157          1           0        0.288319    4.254222   -1.152697
    158          1           0        0.254701    6.025561   -1.363862
    159          1           0        0.273446    5.311586    0.280379
    160          6           0       -3.335385    2.800043    4.572351
    161          6           0       -4.165795    3.204564    3.333103
    162          6           0       -5.417190    2.300557    3.246099
    163          6           0       -4.641399    4.658520    3.521007
    164          1           0       -2.444218    3.444936    4.671371
    165          1           0       -3.942808    2.904925    5.489685
    166          1           0       -2.984311    1.759069    4.497977
    167          1           0       -6.030958    2.557444    2.366019
    168          1           0       -5.147716    1.234064    3.169753
    169          1           0       -6.040617    2.423821    4.149674
    170          1           0       -5.234250    5.010049    2.658839
    171          1           0       -5.280888    4.722766    4.418146
    172          1           0       -3.796135    5.353306    3.666986
    173          1           0       -1.213799    0.664981    6.131569
    174          1           0        1.594031   -1.863445    5.922974
 ---------------------------------------------------------------------
 Rotational constants (GHZ):           0.0284613           0.0215387           0.0204517
 General basis read from cards:  (5D, 7F)
 ======================================================================================================
                                       Pseudopotential Parameters
 ======================================================================================================
  Center     Atomic      Valence      Angular      Power
  Number     Number     Electrons     Momentum     of R      Exponent        Coefficient   SO-Coeffient
 ======================================================================================================
    1         46           18
                                      G and up 
                                                     2        1.0000000        0.00000000    0.00000000
                                      S - G
                                                     2       12.4300000      240.22904000    0.00000000
                                                     2        6.1707590       35.17194300    0.00000000
                                      P - G
                                                     2       11.0800000      170.41727600    0.00000000
                                                     2        5.8295540       28.47213300    0.00000000
                                      D - G
                                                     2        9.5100000       69.01384500    0.00000000
                                                     2        4.1397810       11.75086200    0.00000000
                                      F - G
                                                     2       13.2700000      -31.92955400    0.00000000
                                                     2        6.6300000       -5.39821700    0.00000000
    2         15
                                   No pseudopotential on this center.
    3         15
                                   No pseudopotential on this center.
    4          8
                                   No pseudopotential on this center.
    5          8
                                   No pseudopotential on this center.
    6          6
                                   No pseudopotential on this center.
    7          6
                                   No pseudopotential on this center.
    8          6
                                   No pseudopotential on this center.
    9          6
                                   No pseudopotential on this center.
   10          6
                                   No pseudopotential on this center.
   11          6
                                   No pseudopotential on this center.
   12          6
                                   No pseudopotential on this center.
   13          6
                                   No pseudopotential on this center.
   14          6
                                   No pseudopotential on this center.
   15          6
                                   No pseudopotential on this center.
   16          6
                                   No pseudopotential on this center.
   17          6
                                   No pseudopotential on this center.
   18          6
                                   No pseudopotential on this center.
   19          6
                                   No pseudopotential on this center.
   20          6
                                   No pseudopotential on this center.
   21          6
                                   No pseudopotential on this center.
   22          6
                                   No pseudopotential on this center.
   23          6
                                   No pseudopotential on this center.
   24          6
                                   No pseudopotential on this center.
   25          6
                                   No pseudopotential on this center.
   26          6
                                   No pseudopotential on this center.
   27          6
                                   No pseudopotential on this center.
   28          6
                                   No pseudopotential on this center.
   29          6
                                   No pseudopotential on this center.
   30          6
                                   No pseudopotential on this center.
   31          6
                                   No pseudopotential on this center.
   32          6
                                   No pseudopotential on this center.
   33          6
                                   No pseudopotential on this center.
   34          6
                                   No pseudopotential on this center.
   35          6
                                   No pseudopotential on this center.
   36          6
                                   No pseudopotential on this center.
   37          6
                                   No pseudopotential on this center.
   38          6
                                   No pseudopotential on this center.
   39          6
                                   No pseudopotential on this center.
   40          6
                                   No pseudopotential on this center.
   41          6
                                   No pseudopotential on this center.
   42          6
                                   No pseudopotential on this center.
   43          1
                                   No pseudopotential on this center.
   44          1
                                   No pseudopotential on this center.
   45          1
                                   No pseudopotential on this center.
   46          1
                                   No pseudopotential on this center.
   47          1
                                   No pseudopotential on this center.
   48          1
                                   No pseudopotential on this center.
   49          1
                                   No pseudopotential on this center.
   50          1
                                   No pseudopotential on this center.
   51          1
                                   No pseudopotential on this center.
   52          1
                                   No pseudopotential on this center.
   53          1
                                   No pseudopotential on this center.
   54          1
                                   No pseudopotential on this center.
   55          1
                                   No pseudopotential on this center.
   56          1
                                   No pseudopotential on this center.
   57          1
                                   No pseudopotential on this center.
   58          1
                                   No pseudopotential on this center.
   59          1
                                   No pseudopotential on this center.
   60          1
                                   No pseudopotential on this center.
   61          1
                                   No pseudopotential on this center.
   62         17
                                   No pseudopotential on this center.
   63         17
                                   No pseudopotential on this center.
   64          6
                                   No pseudopotential on this center.
   65          6
                                   No pseudopotential on this center.
   66          1
                                   No pseudopotential on this center.
   67          1
                                   No pseudopotential on this center.
   68          1
                                   No pseudopotential on this center.
   69          6
                                   No pseudopotential on this center.
   70          6
                                   No pseudopotential on this center.
   71          6
                                   No pseudopotential on this center.
   72          6
                                   No pseudopotential on this center.
   73          1
                                   No pseudopotential on this center.
   74          1
                                   No pseudopotential on this center.
   75          1
                                   No pseudopotential on this center.
   76          1
                                   No pseudopotential on this center.
   77          1
                                   No pseudopotential on this center.
   78          1
                                   No pseudopotential on this center.
   79          1
                                   No pseudopotential on this center.
   80          1
                                   No pseudopotential on this center.
   81          1
                                   No pseudopotential on this center.
   82          6
                                   No pseudopotential on this center.
   83          6
                                   No pseudopotential on this center.
   84          6
                                   No pseudopotential on this center.
   85          6
                                   No pseudopotential on this center.
   86          1
                                   No pseudopotential on this center.
   87          1
                                   No pseudopotential on this center.
   88          1
                                   No pseudopotential on this center.
   89          1
                                   No pseudopotential on this center.
   90          1
                                   No pseudopotential on this center.
   91          1
                                   No pseudopotential on this center.
   92          1
                                   No pseudopotential on this center.
   93          1
                                   No pseudopotential on this center.
   94          1
                                   No pseudopotential on this center.
   95          6
                                   No pseudopotential on this center.
   96          6
                                   No pseudopotential on this center.
   97          6
                                   No pseudopotential on this center.
   98          6
                                   No pseudopotential on this center.
   99          1
                                   No pseudopotential on this center.
  100          1
                                   No pseudopotential on this center.
  101          1
                                   No pseudopotential on this center.
  102          1
                                   No pseudopotential on this center.
  103          1
                                   No pseudopotential on this center.
  104          1
                                   No pseudopotential on this center.
  105          1
                                   No pseudopotential on this center.
  106          1
                                   No pseudopotential on this center.
  107          1
                                   No pseudopotential on this center.
  108          6
                                   No pseudopotential on this center.
  109          6
                                   No pseudopotential on this center.
  110          6
                                   No pseudopotential on this center.
  111          6
                                   No pseudopotential on this center.
  112          1
                                   No pseudopotential on this center.
  113          1
                                   No pseudopotential on this center.
  114          1
                                   No pseudopotential on this center.
  115          1
                                   No pseudopotential on this center.
  116          1
                                   No pseudopotential on this center.
  117          1
                                   No pseudopotential on this center.
  118          1
                                   No pseudopotential on this center.
  119          1
                                   No pseudopotential on this center.
  120          1
                                   No pseudopotential on this center.
  121          6
                                   No pseudopotential on this center.
  122          6
                                   No pseudopotential on this center.
  123          6
                                   No pseudopotential on this center.
  124          6
                                   No pseudopotential on this center.
  125          1
                                   No pseudopotential on this center.
  126          1
                                   No pseudopotential on this center.
  127          1
                                   No pseudopotential on this center.
  128          1
                                   No pseudopotential on this center.
  129          1
                                   No pseudopotential on this center.
  130          1
                                   No pseudopotential on this center.
  131          1
                                   No pseudopotential on this center.
  132          1
                                   No pseudopotential on this center.
  133          1
                                   No pseudopotential on this center.
  134          6
                                   No pseudopotential on this center.
  135          6
                                   No pseudopotential on this center.
  136          6
                                   No pseudopotential on this center.
  137          6
                                   No pseudopotential on this center.
  138          1
                                   No pseudopotential on this center.
  139          1
                                   No pseudopotential on this center.
  140          1
                                   No pseudopotential on this center.
  141          1
                                   No pseudopotential on this center.
  142          1
                                   No pseudopotential on this center.
  143          1
                                   No pseudopotential on this center.
  144          1
                                   No pseudopotential on this center.
  145          1
                                   No pseudopotential on this center.
  146          1
                                   No pseudopotential on this center.
  147          6
                                   No pseudopotential on this center.
  148          6
                                   No pseudopotential on this center.
  149          6
                                   No pseudopotential on this center.
  150          6
                                   No pseudopotential on this center.
  151          1
                                   No pseudopotential on this center.
  152          1
                                   No pseudopotential on this center.
  153          1
                                   No pseudopotential on this center.
  154          1
                                   No pseudopotential on this center.
  155          1
                                   No pseudopotential on this center.
  156          1
                                   No pseudopotential on this center.
  157          1
                                   No pseudopotential on this center.
  158          1
                                   No pseudopotential on this center.
  159          1
                                   No pseudopotential on this center.
  160          6
                                   No pseudopotential on this center.
  161          6
                                   No pseudopotential on this center.
  162          6
                                   No pseudopotential on this center.
  163          6
                                   No pseudopotential on this center.
  164          1
                                   No pseudopotential on this center.
  165          1
                                   No pseudopotential on this center.
  166          1
                                   No pseudopotential on this center.
  167          1
                                   No pseudopotential on this center.
  168          1
                                   No pseudopotential on this center.
  169          1
                                   No pseudopotential on this center.
  170          1
                                   No pseudopotential on this center.
  171          1
                                   No pseudopotential on this center.
  172          1
                                   No pseudopotential on this center.
  173          1
                                   No pseudopotential on this center.
  174          1
                                   No pseudopotential on this center.
 ======================================================================================================
 There are  3411 symmetry adapted cartesian basis functions of A   symmetry.
 There are  3023 symmetry adapted basis functions of A   symmetry.
  3023 basis functions,  4832 primitive gaussians,  3411 cartesian basis functions
   310 alpha electrons      310 beta electrons
       nuclear repulsion energy     17382.9808191707 Hartrees.
 NAtoms=  174 NActive=  174 NUniq=  174 SFac= 1.00D+00 NAtFMM=   60 NAOKFM=T Big=T
 Integral buffers will be    131072 words long.
 Raffenetti 2 integral format.
 Two-electron integral symmetry is turned on.
 Nuclear repulsion after empirical dispersion term =    17382.6893586716 Hartrees.
 One-electron integrals computed using PRISM.
   1 Symmetry operations used in ECPInt.
 ECPInt:  NShTT=  785631 NPrTT= 2346744 LenC2=  527654 LenP2D= 1003657.
 LDataN:  DoStor=T MaxTD1= 7 Len=  274
 Number of processors reduced to  13 by ecpmxn.
 NBasis=  3023 RedAO= T EigKep=  2.44D-06  NBF=  3023
 NBsUse=  3023 1.00D-06 EigRej= -1.00D+00 NBFU=  3023
 Defaulting to unpruned grid for atomic number  46.
 ExpMin= 1.60D-02 ExpMax= 6.95D+04 ExpMxC= 2.37D+03 IAcc=3 IRadAn=         5 AccDes= 0.00D+00
 Harris functional with IExCor= 1009 and IRadAn=       5 diagonalized for initial guess.
 HarFok:  IExCor= 1009 AccDes= 0.00D+00 IRadAn=         5 IDoV= 1 UseB2=F ITyADJ=14
 ICtDFT=  3500011 ScaDFX=  1.000000  1.000000  1.000000  1.000000
 Defaulting to unpruned grid for atomic number  46.
 FoFCou: FMM=F IPFlag=           0 FMFlag=      100000 FMFlg1=        2001
         NFxFlg=           0 DoJE=T BraDBF=F KetDBF=T FulRan=T
         wScrn=  0.000000 ICntrl=       500 IOpCl=  0 I1Cent=   200000004 NGrid=           0
         NMat0=    1 NMatS0=      1 NMatT0=    0 NMatD0=    1 NMtDS0=    0 NMtDT0=    0
 Petite list used in FoFCou.
 Requested convergence on RMS density matrix=1.00D-08 within 128 cycles.
 Requested convergence on MAX density matrix=1.00D-06.
 Requested convergence on             energy=1.00D-06.
 No special actions if energy rises.
 Defaulting to unpruned grid for atomic number  46.
 Defaulting to unpruned grid for atomic number  46.
 Defaulting to unpruned grid for atomic number  46.
 Defaulting to unpruned grid for atomic number  46.
 Defaulting to unpruned grid for atomic number  46.
 Defaulting to unpruned grid for atomic number  46.
 Defaulting to unpruned grid for atomic number  46.
 Defaulting to unpruned grid for atomic number  46.
 Defaulting to unpruned grid for atomic number  46.
 Defaulting to unpruned grid for atomic number  46.
 Defaulting to unpruned grid for atomic number  46.
 Defaulting to unpruned grid for atomic number  46.
 Defaulting to unpruned grid for atomic number  46.
 Defaulting to unpruned grid for atomic number  46.
 Defaulting to unpruned grid for atomic number  46.
 Defaulting to unpruned grid for atomic number  46.
 Defaulting to unpruned grid for atomic number  46.
 Defaulting to unpruned grid for atomic number  46.
 Defaulting to unpruned grid for atomic number  46.
 Defaulting to unpruned grid for atomic number  46.
 Defaulting to unpruned grid for atomic number  46.
 Defaulting to unpruned grid for atomic number  46.
 Defaulting to unpruned grid for atomic number  46.
 Defaulting to unpruned grid for atomic number  46.
 Defaulting to unpruned grid for atomic number  46.
 Defaulting to unpruned grid for atomic number  46.
 Defaulting to unpruned grid for atomic number  46.
 Defaulting to unpruned grid for atomic number  46.
 Defaulting to unpruned grid for atomic number  46.
 Defaulting to unpruned grid for atomic number  46.
 Defaulting to unpruned grid for atomic number  46.
 Defaulting to unpruned grid for atomic number  46.
 Defaulting to unpruned grid for atomic number  46.
 Defaulting to unpruned grid for atomic number  46.
 Defaulting to unpruned grid for atomic number  46.
 Defaulting to unpruned grid for atomic number  46.
 Defaulting to unpruned grid for atomic number  46.
 Defaulting to unpruned grid for atomic number  46.
 Defaulting to unpruned grid for atomic number  46.
 Defaulting to unpruned grid for atomic number  46.
 Defaulting to unpruned grid for atomic number  46.
 Defaulting to unpruned grid for atomic number  46.
 Defaulting to unpruned grid for atomic number  46.
 Defaulting to unpruned grid for atomic number  46.
 Defaulting to unpruned grid for atomic number  46.
 Defaulting to unpruned grid for atomic number  46.
 Defaulting to unpruned grid for atomic number  46.
 Defaulting to unpruned grid for atomic number  46.
 Defaulting to unpruned grid for atomic number  46.
 Defaulting to unpruned grid for atomic number  46.
 Defaulting to unpruned grid for atomic number  46.
 Defaulting to unpruned grid for atomic number  46.
 EnCoef did    13 forward-backward iterations
 EnCoef did   100 forward-backward iterations
 EnCoef did   100 forward-backward iterations
 EnCoef did     3 forward-backward iterations
 EnCoef did     5 forward-backward iterations
 Restarting incremental Fock formation.
 SCF Done:  E(RPBE1PBE) =  -4642.27739749     A.U. after   24 cycles
            NFock= 24  Conv=0.12D-08     -V/T= 2.0223
 DoSCS=F DFT=T ScalE2(SS,OS)=  1.000000  1.000000
 Range of M.O.s used for correlation:     1  3023
 NBasis=  3023 NAE=   310 NBE=   310 NFC=     0 NFV=     0
 NROrb=   3023 NOA=   310 NOB=   310 NVA=  2713 NVB=  2713

 **** Warning!!: The largest alpha MO coefficient is  0.47420086D+02

          Differentiating once with respect to magnetic field using GIAOs.
          Electric field/nuclear overlap derivatives assumed to be zero.
 Defaulting to unpruned grid for atomic number  46.
 PrsmSu:  requested number of processors reduced to:  45 ShMem   1 Linda.
 FoFCou: FMM=F IPFlag=           0 FMFlag=      100000 FMFlg1=        2001
         NFxFlg=           0 DoJE=F BraDBF=F KetDBF=T FulRan=T
         wScrn=  0.000000 ICntrl=      6100 IOpCl=  0 I1Cent=           7 NGrid=         174
         NMat0=    1 NMatS0=      1 NMatT0=    0 NMatD0=    1 NMtDS0=    0 NMtDT0=    0
 Symmetry not used in FoFCou.
   1 Symmetry operations used in ECPInt.
 ECPInt:  NShTT=  785631 NPrTT= 2346744 LenC2=  785632 LenP2D= 2346744.
 LDataN:  DoStor=T MaxTD1= 8 Len=  415
 Number of processors reduced to   8 by ecpmxn.
 FoFJK:  IHMeth= 1 ICntrl=    6127 DoSepK=F KAlg= 0 I1Cent=           0 FoldK=F
 IRaf=         1 NMat=       1 IRICut=       1 DoRegI=T DoRafI=F ISym2E= 0 IDoP0=0 IntGTp=1.
 Defaulting to unpruned grid for atomic number  46.
 Defaulting to unpruned grid for atomic number  46.
 Defaulting to unpruned grid for atomic number  46.
 Defaulting to unpruned grid for atomic number  46.
 Defaulting to unpruned grid for atomic number  46.
 Defaulting to unpruned grid for atomic number  46.
 Defaulting to unpruned grid for atomic number  46.
 Defaulting to unpruned grid for atomic number  46.
 Defaulting to unpruned grid for atomic number  46.
 Defaulting to unpruned grid for atomic number  46.
 Defaulting to unpruned grid for atomic number  46.
 Defaulting to unpruned grid for atomic number  46.
 Defaulting to unpruned grid for atomic number  46.
 Defaulting to unpruned grid for atomic number  46.
 Defaulting to unpruned grid for atomic number  46.
 Defaulting to unpruned grid for atomic number  46.
 Defaulting to unpruned grid for atomic number  46.
 Defaulting to unpruned grid for atomic number  46.
 Defaulting to unpruned grid for atomic number  46.
 Defaulting to unpruned grid for atomic number  46.
 Defaulting to unpruned grid for atomic number  46.
 Defaulting to unpruned grid for atomic number  46.
 Defaulting to unpruned grid for atomic number  46.
 Defaulting to unpruned grid for atomic number  46.
 Defaulting to unpruned grid for atomic number  46.
 Defaulting to unpruned grid for atomic number  46.
 Defaulting to unpruned grid for atomic number  46.
 Defaulting to unpruned grid for atomic number  46.
 Defaulting to unpruned grid for atomic number  46.
 Defaulting to unpruned grid for atomic number  46.
 Defaulting to unpruned grid for atomic number  46.
 Defaulting to unpruned grid for atomic number  46.
 Defaulting to unpruned grid for atomic number  46.
 Defaulting to unpruned grid for atomic number  46.
 Defaulting to unpruned grid for atomic number  46.
 Defaulting to unpruned grid for atomic number  46.
 Defaulting to unpruned grid for atomic number  46.
 Defaulting to unpruned grid for atomic number  46.
 Defaulting to unpruned grid for atomic number  46.
 Defaulting to unpruned grid for atomic number  46.
 Defaulting to unpruned grid for atomic number  46.
 Defaulting to unpruned grid for atomic number  46.
 Defaulting to unpruned grid for atomic number  46.
 Defaulting to unpruned grid for atomic number  46.
 Defaulting to unpruned grid for atomic number  46.
 Defaulting to unpruned grid for atomic number  46.
 Defaulting to unpruned grid for atomic number  46.
 Defaulting to unpruned grid for atomic number  46.
 Defaulting to unpruned grid for atomic number  46.
 Defaulting to unpruned grid for atomic number  46.
 Defaulting to unpruned grid for atomic number  46.
 Defaulting to unpruned grid for atomic number  46.
          There are     3 degrees of freedom in the 1st order CPHF.  IDoFFX=0 NUNeed=     3.
      3 vectors produced by pass  0 Test12= 2.80D-11 3.33D-08 XBig12= 5.22D+02 1.93D+00.
 AX will form     3 AO Fock derivatives at one time.
      3 vectors produced by pass  1 Test12= 2.80D-11 3.33D-08 XBig12= 1.73D+00 2.48D-01.
      3 vectors produced by pass  2 Test12= 2.80D-11 3.33D-08 XBig12= 1.98D-02 2.95D-02.
      3 vectors produced by pass  3 Test12= 2.80D-11 3.33D-08 XBig12= 3.71D-04 9.09D-03.
      3 vectors produced by pass  4 Test12= 2.80D-11 3.33D-08 XBig12= 3.74D-06 5.61D-04.
      3 vectors produced by pass  5 Test12= 2.80D-11 3.33D-08 XBig12= 1.78D-08 3.57D-05.
      3 vectors produced by pass  6 Test12= 2.80D-11 3.33D-08 XBig12= 4.53D-10 6.88D-06.
      3 vectors produced by pass  7 Test12= 2.80D-11 3.33D-08 XBig12= 5.05D-12 6.97D-07.
      1 vectors produced by pass  8 Test12= 2.80D-11 3.33D-08 XBig12= 2.91D-14 3.79D-08.
 InvSVY:  IOpt=1 It=  1 EMax= 1.07D-14
 Solved reduced A of dimension    25 with     3 vectors.
 Calculating GIAO nuclear magnetic shielding tensors.
 SCF GIAO Magnetic shielding tensor (ppm):
      1  Pd   Isotropic =  -161.2761   Anisotropy =   286.6321
   XX=    -5.0440   YX=   -21.8123   ZX=    -2.0796
   XY=   -88.8289   YY=  -508.5683   ZY=    -0.6980
   XZ=     0.1138   YZ=    -3.2644   ZZ=    29.7838
   Eigenvalues:  -514.5824     0.9421    29.8120
      2  P    Isotropic =   233.3218   Anisotropy =   139.0705
   XX=   254.3398   YX=    -8.7743   ZX=    90.5660
   XY=    16.0252   YY=   204.2253   ZY=   -29.4596
   XZ=    62.9353   YZ=   -12.9899   ZZ=   241.4003
   Eigenvalues:   162.7940   211.1359   326.0354
      3  P    Isotropic =   230.4913   Anisotropy =   137.7202
   XX=   238.1164   YX=    -2.9262   ZX=   -93.1284
   XY=    16.0969   YY=   204.5321   ZY=    24.4257
   XZ=   -61.8274   YZ=    19.6509   ZZ=   248.8253
   Eigenvalues:   157.3143   211.8547   322.3048
      4  O    Isotropic =   213.5157   Anisotropy =   126.7389
   XX=   276.0363   YX=    -7.8003   ZX=    51.9121
   XY=   -27.1117   YY=   192.3208   ZY=   -74.4396
   XZ=    19.7102   YZ=   -26.0544   ZZ=   172.1901
   Eigenvalues:   128.9541   213.5848   298.0083
      5  O    Isotropic =   217.7437   Anisotropy =   102.4910
   XX=   263.8601   YX=     3.9497   ZX=   -54.7714
   XY=     8.0905   YY=   191.0004   ZY=    76.4476
   XZ=   -24.2353   YZ=    25.7060   ZZ=   198.3704
   Eigenvalues:   135.4889   231.6711   286.0710
      6  C    Isotropic =    47.4527   Anisotropy =   171.8151
   XX=   -12.1187   YX=   -33.7954   ZX=    10.2698
   XY=   -43.5660   YY=    66.5725   ZY=    91.2469
   XZ=     6.2664   YZ=    72.4185   ZZ=    87.9042
   Eigenvalues:   -44.4069    24.7688   161.9961
      7  C    Isotropic =    51.3606   Anisotropy =   183.1630
   XX=    27.7396   YX=    -4.5687   ZX=   -22.4627
   XY=     5.7906   YY=    61.4193   ZY=   109.1865
   XZ=   -22.2761   YZ=   108.0504   ZZ=    64.9228
   Eigenvalues:   -48.9031    29.5155   173.4692
      8  C    Isotropic =    30.2266   Anisotropy =   195.7449
   XX=   -42.6961   YX=    -6.1789   ZX=   -31.9660
   XY=    -9.4637   YY=    68.2503   ZY=    88.8300
   XZ=   -29.1356   YZ=    91.9985   ZZ=    65.1256
   Eigenvalues:   -54.7186   -15.3248   160.7232
      9  C    Isotropic =    57.5864   Anisotropy =   170.6858
   XX=    -4.8030   YX=   -41.8110   ZX=     7.7430
   XY=   -43.7821   YY=    85.4282   ZY=    77.6819
   XZ=     6.3061   YZ=    80.2088   ZZ=    92.1341
   Eigenvalues:   -35.8139    37.1963   171.3770
     10  C    Isotropic =    28.2472   Anisotropy =   199.5171
   XX=   -20.2791   YX=   -13.5214   ZX=   -21.5413
   XY=   -11.4139   YY=    55.4970   ZY=   106.6097
   XZ=   -21.6629   YZ=   104.4504   ZZ=    49.5239
   Eigenvalues:   -54.5276   -21.9893   161.2586
     11  C    Isotropic =    40.5948   Anisotropy =   190.1357
   XX=   -40.4497   YX=     4.1190   ZX=   -40.6671
   XY=     3.0771   YY=    97.1711   ZY=    71.9309
   XZ=   -39.8656   YZ=    92.2548   ZZ=    65.0631
   Eigenvalues:   -61.6028    16.0353   167.3519
     12  C    Isotropic =    52.8621   Anisotropy =   170.6466
   XX=   113.1814   YX=    30.4792   ZX=   -75.1877
   XY=    30.4978   YY=   -23.4694   ZY=    19.1826
   XZ=   -66.7349   YZ=    12.3692   ZZ=    68.8743
   Eigenvalues:   -41.0043    32.9640   166.6265
     13  C    Isotropic =    51.6775   Anisotropy =   183.3548
   XX=   126.0988   YX=   -10.8907   ZX=   -73.4361
   XY=    -3.3829   YY=   -18.1714   ZY=   -44.5076
   XZ=   -78.7950   YZ=   -43.8776   ZZ=    47.1051
   Eigenvalues:   -51.9886    33.1071   173.9140
     14  C    Isotropic =    30.2453   Anisotropy =   200.4236
   XX=    91.9690   YX=    12.2229   ZX=  -100.7024
   XY=    12.0614   YY=   -15.6527   ZY=    -9.9362
   XZ=  -104.0868   YZ=    -6.0458   ZZ=    14.4197
   Eigenvalues:   -56.2986   -16.8264   163.8611
     15  C    Isotropic =    53.7249   Anisotropy =   180.4618
   XX=   118.1058   YX=    26.3391   ZX=   -75.7418
   XY=    32.2681   YY=   -27.9533   ZY=    22.5069
   XZ=   -74.1491   YZ=    12.1499   ZZ=    71.0222
   Eigenvalues:   -44.8741    32.0160   174.0327
     16  C    Isotropic =    27.9505   Anisotropy =   202.9017
   XX=    98.6524   YX=     1.0931   ZX=   -90.8710
   XY=    -1.7162   YY=   -44.7276   ZY=   -21.6077
   XZ=   -93.2619   YZ=   -20.1844   ZZ=    29.9267
   Eigenvalues:   -57.9129   -21.4540   163.2183
     17  C    Isotropic =    40.7753   Anisotropy =   187.4530
   XX=    88.4707   YX=     1.0375   ZX=  -111.2961
   XY=    10.8518   YY=    18.5758   ZY=    -0.7206
   XZ=  -104.0672   YZ=     1.8109   ZZ=    15.2793
   Eigenvalues:   -62.0446    18.6265   165.7439
     18  C    Isotropic =    38.3768   Anisotropy =   190.6316
   XX=   110.7673   YX=   -23.3132   ZX=    68.5403
   XY=   -52.8114   YY=    -7.1033   ZY=   -40.9788
   XZ=    73.0888   YZ=   -51.2886   ZZ=    11.4665
   Eigenvalues:   -47.4107    -2.9234   165.4645
     19  C    Isotropic =    49.4496   Anisotropy =   193.1652
   XX=    94.8994   YX=   -64.0020   ZX=    89.9195
   XY=   -67.2669   YY=    32.5490   ZY=     3.1035
   XZ=    92.0037   YZ=    -7.5051   ZZ=    20.9006
   Eigenvalues:   -56.5599    26.6823   178.2265
     20  C    Isotropic =    51.8268   Anisotropy =   187.1884
   XX=   114.2724   YX=   -66.1404   ZX=    57.8436
   XY=   -69.3502   YY=   -28.6071   ZY=   -29.0972
   XZ=    52.3078   YZ=   -26.1827   ZZ=    69.8150
   Eigenvalues:   -55.8817    34.7429   176.6190
     21  C    Isotropic =    64.0109   Anisotropy =   177.8061
   XX=   121.6953   YX=   -31.1378   ZX=    83.0158
   XY=   -24.7517   YY=    39.4278   ZY=   -62.5586
   XZ=    62.9949   YZ=   -53.0978   ZZ=    30.9095
   Eigenvalues:   -33.0761    42.5604   182.5483
     22  C    Isotropic =    22.7804   Anisotropy =   142.6889
   XX=    50.8031   YX=   -50.5020   ZX=    80.5601
   XY=   -41.6374   YY=    24.3421   ZY=     3.6374
   XZ=    69.9702   YZ=    -0.1989   ZZ=    -6.8040
   Eigenvalues:   -67.6192    18.0541   117.9063
     23  C    Isotropic =    45.7950   Anisotropy =   162.6682
   XX=   103.7526   YX=   -61.1471   ZX=    36.2667
   XY=   -70.4143   YY=   -18.1403   ZY=   -12.5085
   XZ=    54.5541   YZ=   -15.3286   ZZ=    51.7726
   Eigenvalues:   -47.2078    30.3523   154.2404
     24  C    Isotropic =    45.5665   Anisotropy =   163.8942
   XX=    87.3299   YX=   -64.5793   ZX=   -45.7411
   XY=   -65.9483   YY=   -16.1087   ZY=    16.7970
   XZ=   -61.7233   YZ=    21.0409   ZZ=    65.4784
   Eigenvalues:   -48.0894    29.9597   154.8293
     25  C    Isotropic =    18.2701   Anisotropy =   144.3386
   XX=    27.0050   YX=   -33.4562   ZX=   -88.7242
   XY=   -36.0529   YY=    14.2332   ZY=     7.3448
   XZ=   -79.1997   YZ=     9.8363   ZZ=    13.5722
   Eigenvalues:   -67.8438     8.1583   114.4958
     26  C    Isotropic =    58.9508   Anisotropy =   166.1272
   XX=    96.4429   YX=   -12.1828   ZX=   -82.5688
   XY=   -15.5832   YY=    27.3866   ZY=    63.3641
   XZ=   -67.4461   YZ=    57.4847   ZZ=    53.0230
   Eigenvalues:   -35.0137    42.1639   169.7023
     27  C    Isotropic =    51.0058   Anisotropy =   187.0944
   XX=    92.8067   YX=   -65.8710   ZX=   -62.2979
   XY=   -67.8507   YY=   -27.0201   ZY=    34.7779
   XZ=   -57.4559   YZ=    32.8498   ZZ=    87.2309
   Eigenvalues:   -57.2360    34.5181   175.7354
     28  C    Isotropic =    48.8197   Anisotropy =   193.9126
   XX=    65.6144   YX=   -58.5204   ZX=  -100.8694
   XY=   -62.7738   YY=    35.1018   ZY=    10.0791
   XZ=  -100.7492   YZ=    17.3390   ZZ=    45.7429
   Eigenvalues:   -57.4632    25.8275   178.0948
     29  C    Isotropic =    41.2409   Anisotropy =   184.7519
   XX=    91.1756   YX=   -15.9662   ZX=   -77.1078
   XY=   -44.6134   YY=    -3.6774   ZY=    48.0688
   XZ=   -78.3746   YZ=    56.1742   ZZ=    36.2245
   Eigenvalues:   -44.1802     3.4942   164.4089
     30  C    Isotropic =    47.1135   Anisotropy =   170.7813
   XX=   -15.1721   YX=   -32.7829   ZX=    -6.9327
   XY=   -45.3251   YY=    68.4735   ZY=   -89.2022
   XZ=    -5.0599   YZ=   -69.6216   ZZ=    88.0391
   Eigenvalues:   -43.7351    24.1078   160.9677
     31  C    Isotropic =    38.9649   Anisotropy =   191.1303
   XX=   -42.9229   YX=    -3.2427   ZX=    37.8901
   XY=     2.0566   YY=    98.1416   ZY=   -70.6473
   XZ=    44.9559   YZ=   -91.4276   ZZ=    61.6760
   Eigenvalues:   -63.0597    13.5693   166.3851
     32  C    Isotropic =    28.9337   Anisotropy =   199.5126
   XX=   -17.3242   YX=   -17.1366   ZX=    20.7577
   XY=   -15.7260   YY=    56.6261   ZY=  -106.4653
   XZ=    20.3967   YZ=  -105.4948   ZZ=    47.4992
   Eigenvalues:   -54.3763   -20.7647   161.9421
     33  C    Isotropic =    54.1836   Anisotropy =   176.9466
   XX=   -13.5808   YX=   -38.5843   ZX=    -0.0593
   XY=   -50.0912   YY=    85.2532   ZY=   -77.5501
   XZ=   -10.4375   YZ=   -82.3138   ZZ=    90.8783
   Eigenvalues:   -42.1848    32.5875   172.1480
     34  C    Isotropic =    29.8727   Anisotropy =   196.8212
   XX=   -44.1522   YX=   -12.0439   ZX=    28.5392
   XY=    -9.0215   YY=    69.9944   ZY=   -88.7088
   XZ=    31.2184   YZ=   -91.7217   ZZ=    63.7760
   Eigenvalues:   -54.4171   -17.0516   161.0868
     35  C    Isotropic =    55.8013   Anisotropy =   175.4320
   XX=    36.4990   YX=    -2.7820   ZX=    23.8217
   XY=    -2.3598   YY=    65.0597   ZY=  -105.6579
   XZ=    14.6648   YZ=  -105.4286   ZZ=    65.8453
   Eigenvalues:   -41.8816    36.5296   172.7560
     36  C    Isotropic =    52.8062   Anisotropy =   169.8381
   XX=   123.9002   YX=    27.6161   ZX=    69.1439
   XY=    25.4177   YY=   -28.1764   ZY=   -22.2630
   XZ=    60.8888   YZ=   -13.3870   ZZ=    62.6948
   Eigenvalues:   -42.3834    34.7704   166.0316
     37  C    Isotropic =    38.9472   Anisotropy =   186.6242
   XX=    98.6907   YX=    -2.7890   ZX=   106.3825
   XY=    10.9205   YY=    16.8615   ZY=    -1.8244
   XZ=    98.2472   YZ=    -0.0215   ZZ=     1.2894
   Eigenvalues:   -63.4326    16.9108   163.3633
     38  C    Isotropic =    27.7270   Anisotropy =   202.7990
   XX=   107.0211   YX=     1.0816   ZX=    88.2969
   XY=    -1.8908   YY=   -40.8654   ZY=    22.8096
   XZ=    90.9946   YZ=    20.3646   ZZ=    17.0251
   Eigenvalues:   -58.4975   -21.2479   162.9263
     39  C    Isotropic =    56.1380   Anisotropy =   175.6864
   XX=   129.4542   YX=    28.9329   ZX=    64.7791
   XY=    26.2397   YY=   -28.8991   ZY=   -15.1355
   XZ=    68.3285   YZ=   -12.3467   ZZ=    67.8589
   Eigenvalues:   -40.6686    35.8204   173.2623
     40  C    Isotropic =    29.7322   Anisotropy =   200.3417
   XX=    97.9237   YX=    11.2369   ZX=    98.4472
   XY=    14.4308   YY=   -15.4889   ZY=     7.0552
   XZ=   101.2365   YZ=     7.1031   ZZ=     6.7617
   Eigenvalues:   -57.4353   -16.6614   163.2933
     41  C    Isotropic =    50.7363   Anisotropy =   187.7591
   XX=   133.9951   YX=   -11.1415   ZX=    73.0504
   XY=    -7.4769   YY=   -15.7330   ZY=    51.4348
   XZ=    79.0478   YZ=    37.2684   ZZ=    33.9469
   Eigenvalues:   -55.4628    31.7627   175.9090
     42  C    Isotropic =   107.3627   Anisotropy =    78.5277
   XX=    76.5191   YX=     8.6804   ZX=   -17.9510
   XY=     4.1937   YY=    89.4599   ZY=     7.1086
   XZ=   -15.9089   YZ=     2.2000   ZZ=   156.1090
   Eigenvalues:    70.3146    92.0589   159.7145
     43  H    Isotropic =    23.7123   Anisotropy =    17.5122
   XX=    33.9349   YX=     6.5088   ZX=    -1.2497
   XY=     2.2818   YY=    19.7427   ZY=    -1.9354
   XZ=    -0.5576   YZ=    -5.3469   ZZ=    17.4592
   Eigenvalues:    14.5813    21.1684    35.3871
     44  H    Isotropic =    23.8120   Anisotropy =    14.7555
   XX=    25.8374   YX=    -3.1976   ZX=     4.6670
   XY=    -3.6684   YY=    21.9928   ZY=    -5.8472
   XZ=     5.2743   YZ=    -6.4951   ZZ=    23.6058
   Eigenvalues:    16.5000    21.2870    33.6490
     45  H    Isotropic =    22.2189   Anisotropy =    16.9373
   XX=    19.8683   YX=     7.4825   ZX=    -3.8997
   XY=     6.5803   YY=    26.0684   ZY=    -3.4673
   XZ=    -4.0932   YZ=    -5.7341   ZZ=    20.7200
   Eigenvalues:    15.0731    18.0731    33.5104
     46  H    Isotropic =    23.9787   Anisotropy =    14.7801
   XX=    26.6578   YX=    -5.5607   ZX=     2.3222
   XY=    -4.0721   YY=    20.6098   ZY=    -4.3443
   XZ=     4.3585   YZ=    -8.6060   ZZ=    24.6683
   Eigenvalues:    15.4509    22.6531    33.8320
     47  H    Isotropic =    23.8141   Anisotropy =    13.9772
   XX=    22.8667   YX=     2.0528   ZX=     5.8870
   XY=     2.2232   YY=    22.7132   ZY=     4.7292
   XZ=     5.5122   YZ=     5.6945   ZZ=    25.8623
   Eigenvalues:    17.6546    20.6554    33.1322
     48  H    Isotropic =    22.1757   Anisotropy =    14.6541
   XX=    17.0064   YX=    -1.1494   ZX=    -1.5389
   XY=    -1.5549   YY=    31.8170   ZY=    -0.6421
   XZ=     0.7785   YZ=     0.0021   ZZ=    17.7037
   Eigenvalues:    16.7151    17.8669    31.9451
     49  H    Isotropic =    24.8713   Anisotropy =    11.1429
   XX=    23.1260   YX=     0.3423   ZX=    -1.7234
   XY=    -4.3154   YY=    25.9416   ZY=     6.2631
   XZ=    -3.3846   YZ=     4.6009   ZZ=    25.5463
   Eigenvalues:    20.2022    22.1119    32.2999
     50  H    Isotropic =    24.5677   Anisotropy =     4.4032
   XX=    23.9217   YX=     0.7484   ZX=    -1.1854
   XY=     0.0581   YY=    23.2562   ZY=     1.2855
   XZ=    -1.3786   YZ=     1.9569   ZZ=    26.5251
   Eigenvalues:    22.1222    24.0778    27.5032
     51  H    Isotropic =    24.6975   Anisotropy =     4.8012
   XX=    23.7321   YX=     2.9281   ZX=     0.8469
   XY=     2.2261   YY=    25.7254   ZY=    -1.2996
   XZ=    -1.0012   YZ=    -1.3530   ZZ=    24.6349
   Eigenvalues:    21.7861    24.4081    27.8983
     52  H    Isotropic =    24.8422   Anisotropy =     4.8623
   XX=    24.7001   YX=     2.6951   ZX=    -0.9992
   XY=     2.8160   YY=    25.6654   ZY=     0.8427
   XZ=     0.9318   YZ=     0.8653   ZZ=    24.1610
   Eigenvalues:    22.2095    24.2333    28.0837
     53  H    Isotropic =    24.4918   Anisotropy =     4.5826
   XX=    24.5547   YX=     0.6444   ZX=     1.5454
   XY=    -0.2005   YY=    23.1266   ZY=    -1.7238
   XZ=     1.7842   YZ=    -2.3389   ZZ=    25.7941
   Eigenvalues:    21.6494    24.2791    27.5469
     54  H    Isotropic =    24.8364   Anisotropy =    11.8228
   XX=    22.9665   YX=     0.0649   ZX=     1.9508
   XY=    -4.5462   YY=    26.3000   ZY=    -6.3606
   XZ=     3.9346   YZ=    -4.7593   ZZ=    25.2427
   Eigenvalues:    19.9455    21.8454    32.7182
     55  H    Isotropic =    22.1371   Anisotropy =    17.0903
   XX=    19.9766   YX=     7.9141   ZX=     3.8994
   XY=     6.6424   YY=    25.8947   ZY=     3.3756
   XZ=     4.2491   YZ=     5.4942   ZZ=    20.5401
   Eigenvalues:    14.8435    18.0372    33.5307
     56  H    Isotropic =    23.6381   Anisotropy =    14.5846
   XX=    24.5977   YX=    -3.5902   ZX=    -4.9747
   XY=    -3.5447   YY=    22.2863   ZY=     5.5059
   XZ=    -5.1250   YZ=     6.1035   ZZ=    24.0301
   Eigenvalues:    17.2049    20.3481    33.3611
     57  H    Isotropic =    24.1439   Anisotropy =    16.9845
   XX=    34.4993   YX=     5.7178   ZX=    -0.1372
   XY=     1.9648   YY=    19.8493   ZY=     2.2834
   XZ=    -0.5332   YZ=     5.4215   ZZ=    18.0832
   Eigenvalues:    14.6409    22.3239    35.4669
     58  H    Isotropic =    21.8721   Anisotropy =    14.9771
   XX=    16.6632   YX=    -0.9979   ZX=     1.8546
   XY=    -1.3067   YY=    31.7500   ZY=     0.8060
   XZ=    -0.8637   YZ=     0.3369   ZZ=    17.2032
   Eigenvalues:    16.2627    17.4968    31.8569
     59  H    Isotropic =    23.9150   Anisotropy =    14.5445
   XX=    22.4005   YX=     0.9513   ZX=    -6.7981
   XY=     1.6674   YY=    22.2516   ZY=    -4.1790
   XZ=    -6.8004   YZ=    -4.5937   ZZ=    27.0929
   Eigenvalues:    17.0052    21.1285    33.6113
     60  H    Isotropic =    23.9258   Anisotropy =    14.2613
   XX=    26.5942   YX=    -5.1193   ZX=    -2.0127
   XY=    -3.8896   YY=    21.1703   ZY=     4.5812
   XZ=    -3.7802   YZ=     9.0585   ZZ=    24.0129
   Eigenvalues:    15.3307    23.0134    33.4333
     61  H    Isotropic =    27.7468   Anisotropy =     7.7974
   XX=    23.4311   YX=    -0.0825   ZX=    -2.6292
   XY=     1.6894   YY=    27.8251   ZY=     0.0520
   XZ=    -2.5862   YZ=    -1.8417   ZZ=    31.9841
   Eigenvalues:    22.6429    27.6524    32.9450
     62  Cl   Isotropic =   858.2158   Anisotropy =   532.1186
   XX=   712.7557   YX=   115.4481   ZX=  -139.5720
   XY=   229.7258   YY=  1146.3189   ZY=    75.9789
   XZ=  -129.1480   YZ=   131.1540   ZZ=   715.5729
   Eigenvalues:   518.2515   843.4345  1212.9615
     63  Cl   Isotropic =   842.0113   Anisotropy =   527.0717
   XX=   718.2848   YX=   106.6499   ZX=   158.2831
   XY=   228.2628   YY=  1124.8898   ZY=  -100.3648
   XZ=   117.5878   YZ=  -130.4458   ZZ=   682.8595
   Eigenvalues:   498.6498   833.9918  1193.3925
     64  C    Isotropic =   153.2047   Anisotropy =    25.8665
   XX=   138.7424   YX=   -14.0294   ZX=     2.4476
   XY=    -5.7725   YY=   161.0705   ZY=    10.9728
   XZ=     1.3738   YZ=     6.4952   ZZ=   159.8012
   Eigenvalues:   133.9897   155.1754   170.4490
     65  C    Isotropic =   113.8341   Anisotropy =    61.2062
   XX=    98.0497   YX=   -10.2432   ZX=    18.4187
   XY=    -9.0470   YY=    92.3969   ZY=     3.0594
   XZ=     9.8678   YZ=    -1.6365   ZZ=   151.0557
   Eigenvalues:    83.8451   103.0189   154.6382
     66  H    Isotropic =    27.1702   Anisotropy =     7.2568
   XX=    23.1988   YX=    -2.4750   ZX=     1.7587
   XY=    -1.9463   YY=    28.1404   ZY=     1.4338
   XZ=     1.1118   YZ=     3.8953   ZZ=    30.1713
   Eigenvalues:    21.6930    27.8095    32.0081
     67  H    Isotropic =    29.2628   Anisotropy =     3.7048
   XX=    30.0481   YX=    -0.6320   ZX=     2.5819
   XY=     0.9420   YY=    28.2301   ZY=    -0.9649
   XZ=     1.2791   YZ=     0.2357   ZZ=    29.5102
   Eigenvalues:    27.6025    28.4533    31.7326
     68  H    Isotropic =    30.2505   Anisotropy =    12.6015
   XX=    26.0729   YX=    -2.3670   ZX=     3.1597
   XY=    -1.0000   YY=    26.9352   ZY=     1.4647
   XZ=     3.3298   YZ=     1.2130   ZZ=    37.7433
   Eigenvalues:    23.9252    28.1747    38.6515
     69  C    Isotropic =   156.5918   Anisotropy =    36.0703
   XX=   161.4634   YX=    16.8324   ZX=   -15.1513
   XY=    10.2527   YY=   155.8066   ZY=    -9.7739
   XZ=    -8.0764   YZ=    -9.7174   ZZ=   152.5053
   Eigenvalues:   144.2560   144.8807   180.6386
     70  C    Isotropic =   146.7353   Anisotropy =    15.2921
   XX=   156.4984   YX=     1.6140   ZX=     0.1927
   XY=    -2.8473   YY=   142.1345   ZY=     1.4287
   XZ=     4.9095   YZ=     1.9195   ZZ=   141.5730
   Eigenvalues:   139.8188   143.4570   156.9300
     71  C    Isotropic =   152.2582   Anisotropy =    42.2031
   XX=   147.7866   YX=    -8.8467   ZX=    -0.5959
   XY=    -7.5574   YY=   177.8803   ZY=     3.3978
   XZ=    -3.5835   YZ=     4.9589   ZZ=   131.1078
   Eigenvalues:   130.6201   145.7610   180.3936
     72  C    Isotropic =   150.5470   Anisotropy =    42.6134
   XX=   142.6027   YX=     2.7812   ZX=     1.8561
   XY=     5.3660   YY=   131.2399   ZY=     8.9120
   XZ=     1.8848   YZ=     4.8329   ZZ=   177.7984
   Eigenvalues:   129.1814   143.5036   178.9559
     73  H    Isotropic =    29.8868   Anisotropy =     8.4779
   XX=    29.6906   YX=     3.1387   ZX=     0.1256
   XY=     2.3156   YY=    33.9321   ZY=    -1.9296
   XZ=     1.5527   YZ=    -2.3978   ZZ=    26.0377
   Eigenvalues:    24.9456    29.1761    35.5388
     74  H    Isotropic =    30.4212   Anisotropy =    10.1951
   XX=    37.0623   YX=     1.0870   ZX=     0.8351
   XY=     1.1627   YY=    27.2169   ZY=    -1.4204
   XZ=     0.6012   YZ=    -1.7670   ZZ=    26.9843
   Eigenvalues:    25.3596    28.6860    37.2179
     75  H    Isotropic =    29.9240   Anisotropy =     8.6863
   XX=    30.7114   YX=     0.7824   ZX=    -3.4477
   XY=    -0.6756   YY=    26.0522   ZY=    -2.4353
   XZ=    -3.0150   YZ=    -2.3896   ZZ=    33.0083
   Eigenvalues:    25.1114    28.9457    35.7149
     76  H    Isotropic =    30.3204   Anisotropy =    10.9079
   XX=    33.5469   YX=     2.7882   ZX=    -2.3123
   XY=     2.7827   YY=    32.4391   ZY=    -4.4011
   XZ=    -4.0536   YZ=    -2.6559   ZZ=    24.9752
   Eigenvalues:    23.1611    30.2078    37.5924
     77  H    Isotropic =    30.5828   Anisotropy =     6.7650
   XX=    29.7668   YX=    -0.1103   ZX=    -1.6254
   XY=    -2.0141   YY=    31.2009   ZY=     3.1707
   XZ=    -3.2323   YZ=     2.7285   ZZ=    30.7806
   Eigenvalues:    27.3196    29.3359    35.0928
     78  H    Isotropic =    30.5546   Anisotropy =     9.6326
   XX=    34.9694   YX=    -2.4419   ZX=     1.1018
   XY=    -4.2765   YY=    30.6864   ZY=    -2.3324
   XZ=    -0.2172   YZ=    -1.5737   ZZ=    26.0081
   Eigenvalues:    25.2332    29.4544    36.9763
     79  H    Isotropic =    30.0243   Anisotropy =     9.4070
   XX=    32.5400   YX=     4.0825   ZX=    -1.9216
   XY=     3.5370   YY=    26.5729   ZY=    -1.0791
   XZ=    -1.9386   YZ=    -5.0937   ZZ=    30.9600
   Eigenvalues:    24.0910    29.6862    36.2956
     80  H    Isotropic =    30.3674   Anisotropy =     9.5568
   XX=    33.2432   YX=     0.7156   ZX=     3.2934
   XY=     1.2451   YY=    26.2307   ZY=    -0.2391
   XZ=     5.1575   YZ=    -1.8285   ZZ=    31.6283
   Eigenvalues:    25.4711    28.8925    36.7386
     81  H    Isotropic =    30.4505   Anisotropy =     6.1141
   XX=    29.1445   YX=     0.5039   ZX=    -0.7130
   XY=     1.2573   YY=    31.4823   ZY=     3.4160
   XZ=     1.4186   YZ=     3.0895   ZZ=    30.7248
   Eigenvalues:    27.7476    29.0774    34.5266
     82  C    Isotropic =   156.0340   Anisotropy =    37.0613
   XX=   171.0736   YX=    11.9339   ZX=    -2.6672
   XY=    18.9645   YY=   152.6835   ZY=    -0.5820
   XZ=    -7.2767   YZ=    -4.8873   ZZ=   144.3449
   Eigenvalues:   143.4467   143.9139   180.7415
     83  C    Isotropic =   145.8141   Anisotropy =    14.8911
   XX=   138.8111   YX=    -0.4677   ZX=    -0.7132
   XY=     2.4302   YY=   149.7566   ZY=    -4.3781
   XZ=    -4.8336   YZ=    -7.6315   ZZ=   148.8744
   Eigenvalues:   138.0624   143.6384   155.7415
     84  C    Isotropic =   151.3229   Anisotropy =    43.2041
   XX=   158.3455   YX=   -18.1010   ZX=   -13.9376
   XY=   -20.9277   YY=   155.9152   ZY=     2.5330
   XZ=   -13.3369   YZ=     2.3166   ZZ=   139.7080
   Eigenvalues:   129.6333   144.2098   180.1257
     85  C    Isotropic =   151.0714   Anisotropy =    41.4666
   XX=   140.1265   YX=    10.4847   ZX=     6.1236
   XY=     9.7239   YY=   144.5576   ZY=    15.8273
   XZ=     9.9774   YZ=    12.7012   ZZ=   168.5302
   Eigenvalues:   131.7056   142.7929   178.7158
     86  H    Isotropic =    29.7534   Anisotropy =     9.0040
   XX=    34.6508   YX=    -1.4101   ZX=    -2.7284
   XY=    -0.7442   YY=    26.4649   ZY=    -1.3392
   XZ=    -3.0263   YZ=    -2.2741   ZZ=    28.1445
   Eigenvalues:    24.6609    28.8433    35.7561
     87  H    Isotropic =    30.2091   Anisotropy =     9.8753
   XX=    29.2185   YX=     2.3897   ZX=    -1.7398
   XY=     1.8643   YY=    31.1548   ZY=    -5.1231
   XZ=    -1.2084   YZ=    -5.2761   ZZ=    30.2541
   Eigenvalues:    25.4462    28.3885    36.7927
     88  H    Isotropic =    29.9364   Anisotropy =     8.5663
   XX=    31.0692   YX=     3.7099   ZX=     2.6837
   XY=     4.1337   YY=    31.1561   ZY=     0.5049
   XZ=     2.1689   YZ=     0.8765   ZZ=    27.5838
   Eigenvalues:    25.8822    28.2796    35.6472
     89  H    Isotropic =    29.0478   Anisotropy =    10.4568
   XX=    33.5064   YX=     1.9662   ZX=    -4.1979
   XY=    -0.2451   YY=    28.7130   ZY=    -2.3919
   XZ=    -5.3852   YZ=    -1.7354   ZZ=    24.9240
   Eigenvalues:    22.3986    28.7258    36.0190
     90  H    Isotropic =    30.2196   Anisotropy =     6.9585
   XX=    29.3466   YX=    -0.8488   ZX=    -3.1562
   XY=    -0.5529   YY=    32.1583   ZY=     2.0129
   XZ=    -2.6740   YZ=     3.8398   ZZ=    29.1539
   Eigenvalues:    25.8408    29.9594    34.8586
     91  H    Isotropic =    30.0820   Anisotropy =     8.4762
   XX=    29.2985   YX=    -2.2972   ZX=    -0.1190
   XY=    -2.1617   YY=    32.6849   ZY=    -4.9531
   XZ=    -0.9808   YZ=    -3.6477   ZZ=    28.2626
   Eigenvalues:    24.9835    29.5297    35.7328
     92  H    Isotropic =    29.1278   Anisotropy =    11.2552
   XX=    29.3695   YX=     6.3462   ZX=    -2.5113
   XY=     7.4718   YY=    29.3230   ZY=    -0.7075
   XZ=     0.5005   YZ=    -2.1684   ZZ=    28.6911
   Eigenvalues:    22.4214    28.3308    36.6313
     93  H    Isotropic =    30.2518   Anisotropy =     9.6628
   XX=    27.4363   YX=     0.7051   ZX=     0.8208
   XY=     1.0680   YY=    27.5449   ZY=    -1.4492
   XZ=     1.4852   YZ=    -4.0753   ZZ=    35.7742
   Eigenvalues:    25.8070    28.2548    36.6937
     94  H    Isotropic =    30.4678   Anisotropy =     7.2030
   XX=    29.1337   YX=    -0.0990   ZX=    -2.6215
   XY=    -0.9509   YY=    29.8324   ZY=     3.9807
   XZ=    -2.7852   YZ=     1.5070   ZZ=    32.4373
   Eigenvalues:    27.1451    28.9886    35.2698
     95  C    Isotropic =   153.2082   Anisotropy =    42.2229
   XX=   145.7609   YX=    14.7934   ZX=   -10.1624
   XY=    14.1097   YY=   151.5978   ZY=   -14.5326
   XZ=    -8.6059   YZ=   -17.6978   ZZ=   162.2660
   Eigenvalues:   133.4417   144.8262   181.3568
     96  C    Isotropic =   146.2728   Anisotropy =    11.5029
   XX=   149.2118   YX=     0.6673   ZX=     4.4933
   XY=    -1.5394   YY=   139.5841   ZY=    -1.5862
   XZ=     4.1142   YZ=     1.9830   ZZ=   150.0225
   Eigenvalues:   139.5465   145.3306   153.9415
     97  C    Isotropic =   156.5670   Anisotropy =    31.6076
   XX=   146.6911   YX=     7.9038   ZX=     2.5469
   XY=     3.6437   YY=   172.9936   ZY=     6.8287
   XZ=     1.8819   YZ=    12.1431   ZZ=   150.0163
   Eigenvalues:   145.4419   146.6203   177.6387
     98  C    Isotropic =   151.5878   Anisotropy =    45.9133
   XX=   171.4200   YX=   -20.0310   ZX=    -5.0736
[...]
  2872. BD*(   2) C  19 - C  20          0.32542     0.02215  2870(v),2877(v),810(g)
                                                    783(g)
  2873. BD*(   1) C  19 - H  49          0.01569     0.41578   
  2874. BD*(   1) C  20 - C  21          0.01283     0.53510   
  2875. BD*(   1) C  20 - H  50          0.01355     0.39450   
  2876. BD*(   1) C  21 - C  22          0.03165     0.51270   
  2877. BD*(   2) C  21 - C  22          0.36474     0.01404  2870(v),2872(v),836(g)
                                                    2837(v)
  2878. BD*(   1) C  21 - H  51          0.01417     0.38623   
  2879. BD*(   1) C  22 - C  23          0.04104     0.49611   
  2880. BD*(   1) C  23 - C  24          0.02943     0.42202   
  2881. BD*(   1) C  24 - C  25          0.04382     0.49748   
  2882. BD*(   1) C  24 - C  29          0.03222     0.50829   
  2883. BD*(   2) C  24 - C  29          0.40463     0.01916  2870(v),306(v),305(v)
                                                    2886(r),2856(r),2835(v)
                                                    2879(v),2869(v),914(g)
                                                    1043(g),1017(v),913(g)
  2884. BD*(   1) C  25 - C  26          0.03211     0.51496   
  2885. BD*(   1) C  26 - C  27          0.01319     0.53659   
  2886. BD*(   2) C  26 - C  27          0.34008     0.01742  306(v),305(v),2883(r),992(g)
                                                    966(g)
  2887. BD*(   1) C  26 - H  52          0.01321     0.38789   
  2888. BD*(   1) C  27 - C  28          0.01533     0.53806   
  2889. BD*(   1) C  27 - H  53          0.01361     0.39564   
  2890. BD*(   1) C  28 - C  29          0.02175     0.51465   
  2891. BD*(   1) C  28 - H  54          0.01570     0.41728   
  2892. BD*(   1) C  30 - C  31          0.02295     0.54791   
  2893. BD*(   2) C  30 - C  31          0.36269     0.03497  2903(v),2898(v),2833(v)
                                                    1095(g),2907(r)
  2894. BD*(   1) C  30 - C  35          0.02667     0.54482   
  2895. BD*(   1) C  31 - C  32          0.02612     0.55424   
  2896. BD*(   1) C  31 - H  55          0.01774     0.45437   
  2897. BD*(   1) C  32 - C  33          0.02344     0.56051   
  2898. BD*(   2) C  32 - C  33          0.31652     0.05058  2903(v),2893(v),1147(g)
                                                    2980(v),2976(v)
  2899. BD*(   1) C  32 - C 122          0.04019     0.38638   
  2900. BD*(   1) C  33 - C  34          0.02213     0.54517   
  2901. BD*(   1) C  33 - H  56          0.01815     0.42072   
  2902. BD*(   1) C  34 - C  35          0.02428     0.55462   
  2903. BD*(   2) C  34 - C  35          0.32176     0.04666  2898(v),2893(v),1199(g)
                                                    2993(v),2992(v),1174(g)
  2904. BD*(   1) C  34 - C 135          0.03943     0.37949   
  2905. BD*(   1) C  35 - H  57          0.01879     0.42385   
  2906. BD*(   1) C  36 - C  37          0.02314     0.53844   
  2907. BD*(   2) C  36 - C  37          0.36518     0.03253  2917(v),2912(v),1251(g)
                                                    2834(v),2870(r),2893(r)
                                                    2833(v)
  2908. BD*(   1) C  36 - C  41          0.02733     0.52829   
  2909. BD*(   1) C  37 - C  38          0.02549     0.55150   
  2910. BD*(   1) C  37 - H  58          0.01955     0.44823   
  2911. BD*(   1) C  38 - C  39          0.02364     0.55351   
  2912. BD*(   2) C  38 - C  39          0.32631     0.04468  2917(v),2907(v),1303(g)
                                                    3005(v),3004(v),1278(g)
  2913. BD*(   1) C  38 - C 148          0.03995     0.38165   
  2914. BD*(   1) C  39 - C  40          0.02298     0.54496   
  2915. BD*(   1) C  39 - H  59          0.01798     0.42137   
  2916. BD*(   1) C  40 - C  41          0.02373     0.53315   
  2917. BD*(   2) C  40 - C  41          0.33158     0.03815  2907(v),2912(v),1355(g)
                                                    3012(v),3016(v),1330(g)
  2918. BD*(   1) C  40 - C 161          0.03997     0.37128   
  2919. BD*(   1) C  41 - H  60          0.01719     0.41074   
  2920. BD*(   1) C  42 - H  61          0.02233     0.32376   
  2921. BD*(   1) C  42 - C  64          0.02426     0.32187   
  2922. BD*(   1) C  42 - H 174          0.02186     0.32879   
  2923. BD*(   1) C  64 - C  65          0.02669     0.32250   
  2924. BD*(   1) C  64 - H  67          0.01562     0.33566   
  2925. BD*(   1) C  64 - H  68          0.00909     0.32839   
  2926. BD*(   1) C  65 - H  66          0.02633     0.32299   
  2927. BD*(   1) C  65 - H 173          0.01862     0.32940   
  2928. BD*(   1) C  69 - C  70          0.02058     0.34030   
  2929. BD*(   1) C  69 - H  73          0.00735     0.37843   
  2930. BD*(   1) C  69 - H  74          0.00705     0.38218   
  2931. BD*(   1) C  69 - H  75          0.00718     0.38021   
  2932. BD*(   1) C  70 - C  71          0.02408     0.33125   
  2933. BD*(   1) C  70 - C  72          0.02463     0.32898   
  2934. BD*(   1) C  71 - H  76          0.00680     0.38588   
  2935. BD*(   1) C  71 - H  77          0.00650     0.38594   
  2936. BD*(   1) C  71 - H  78          0.00759     0.37767   
  2937. BD*(   1) C  72 - H  79          0.00726     0.38184   
  2938. BD*(   1) C  72 - H  80          0.00796     0.37566   
  2939. BD*(   1) C  72 - H  81          0.00681     0.37990   
  2940. BD*(   1) C  82 - C  83          0.02108     0.34807   
  2941. BD*(   1) C  82 - H  86          0.00745     0.38556   
  2942. BD*(   1) C  82 - H  87          0.00703     0.39007   
  2943. BD*(   1) C  82 - H  88          0.00755     0.38377   
  2944. BD*(   1) C  83 - C  84          0.02392     0.34123   
  2945. BD*(   1) C  83 - C  85          0.02370     0.34405   
  2946. BD*(   1) C  84 - H  89          0.00697     0.39813   
  2947. BD*(   1) C  84 - H  90          0.00697     0.38726   
  2948. BD*(   1) C  84 - H  91          0.00753     0.38788   
  2949. BD*(   1) C  85 - H  92          0.00660     0.41662   
  2950. BD*(   1) C  85 - H  93          0.00745     0.39245   
  2951. BD*(   1) C  85 - H  94          0.00633     0.39862   
  2952. BD*(   1) C  95 - C  96          0.02504     0.32461   
  2953. BD*(   1) C  95 - H  99          0.00699     0.37608   
  2954. BD*(   1) C  95 - H 100          0.00796     0.37048   
  2955. BD*(   1) C  95 - H 101          0.00734     0.38020   
  2956. BD*(   1) C  96 - C  97          0.02064     0.33498   
  2957. BD*(   1) C  96 - C  98          0.02414     0.32709   
  2958. BD*(   1) C  97 - H 102          0.00797     0.37561   
  2959. BD*(   1) C  97 - H 103          0.00793     0.38430   
  2960. BD*(   1) C  97 - H 104          0.00705     0.37704   
  2961. BD*(   1) C  98 - H 105          0.00671     0.37728   
  2962. BD*(   1) C  98 - H 106          0.00766     0.37252   
  2963. BD*(   1) C  98 - H 107          0.00681     0.37844   
  2964. BD*(   1) C 108 - C 109          0.02343     0.33770   
  2965. BD*(   1) C 108 - H 112          0.00645     0.38933   
  2966. BD*(   1) C 108 - H 113          0.00721     0.38468   
  2967. BD*(   1) C 108 - H 114          0.00653     0.40293   
  2968. BD*(   1) C 109 - C 110          0.02437     0.33352   
  2969. BD*(   1) C 109 - C 111          0.02103     0.34221   
  2970. BD*(   1) C 110 - H 115          0.00720     0.38526   
  2971. BD*(   1) C 110 - H 116          0.00693     0.39415   
  2972. BD*(   1) C 110 - H 117          0.00787     0.38257   
  2973. BD*(   1) C 111 - H 118          0.00734     0.37923   
  2974. BD*(   1) C 111 - H 119          0.00698     0.38404   
  2975. BD*(   1) C 111 - H 120          0.00758     0.37682   
  2976. BD*(   1) C 121 - C 122          0.02390     0.34114   
  2977. BD*(   1) C 121 - H 125          0.00699     0.38694   
  2978. BD*(   1) C 121 - H 126          0.00748     0.38767   
  2979. BD*(   1) C 121 - H 127          0.00701     0.39759   
  2980. BD*(   1) C 122 - C 123          0.02359     0.34450   
  2981. BD*(   1) C 122 - C 124          0.02107     0.34801   
  2982. BD*(   1) C 123 - H 128          0.00629     0.39965   
  2983. BD*(   1) C 123 - H 129          0.00657     0.41864   
  2984. BD*(   1) C 123 - H 130          0.00741     0.39300   
  2985. BD*(   1) C 124 - H 131          0.00745     0.38513   
  2986. BD*(   1) C 124 - H 132          0.00699     0.38984   
  2987. BD*(   1) C 124 - H 133          0.00755     0.38336   
  2988. BD*(   1) C 134 - C 135          0.02089     0.34262   
  2989. BD*(   1) C 134 - H 138          0.00741     0.38197   
  2990. BD*(   1) C 134 - H 139          0.00707     0.38329   
  2991. BD*(   1) C 134 - H 140          0.00776     0.37998   
  2992. BD*(   1) C 135 - C 136          0.02450     0.33092   
  2993. BD*(   1) C 135 - C 137          0.02444     0.33221   
  2994. BD*(   1) C 136 - H 141          0.00680     0.38293   
  2995. BD*(   1) C 136 - H 142          0.00675     0.38009   
  2996. BD*(   1) C 136 - H 143          0.00775     0.37682   
  2997. BD*(   1) C 137 - H 144          0.00669     0.38503   
  2998. BD*(   1) C 137 - H 145          0.00765     0.37838   
  2999. BD*(   1) C 137 - H 146          0.00647     0.38619   
  3000. BD*(   1) C 147 - C 148          0.02102     0.34313   
  3001. BD*(   1) C 147 - H 151          0.00758     0.37775   
  3002. BD*(   1) C 147 - H 152          0.00700     0.38491   
  3003. BD*(   1) C 147 - H 153          0.00735     0.38012   
  3004. BD*(   1) C 148 - C 149          0.02341     0.33891   
  3005. BD*(   1) C 148 - C 150          0.02438     0.33416   
  3006. BD*(   1) C 149 - H 154          0.00670     0.40652   
  3007. BD*(   1) C 149 - H 155          0.00644     0.39041   
  3008. BD*(   1) C 149 - H 156          0.00724     0.38596   
  3009. BD*(   1) C 150 - H 157          0.00688     0.39501   
  3010. BD*(   1) C 150 - H 158          0.00789     0.38383   
  3011. BD*(   1) C 150 - H 159          0.00720     0.38514   
  3012. BD*(   1) C 160 - C 161          0.02494     0.32723   
  3013. BD*(   1) C 160 - H 164          0.00713     0.37213   
  3014. BD*(   1) C 160 - H 165          0.00819     0.37085   
  3015. BD*(   1) C 160 - H 166          0.00779     0.38893   
  3016. BD*(   1) C 161 - C 162          0.02376     0.32770   
  3017. BD*(   1) C 161 - C 163          0.02061     0.33366   
  3018. BD*(   1) C 162 - H 167          0.00686     0.37963   
  3019. BD*(   1) C 162 - H 168          0.00722     0.37835   
  3020. BD*(   1) C 162 - H 169          0.00779     0.37373   
  3021. BD*(   1) C 163 - H 170          0.00723     0.37550   
  3022. BD*(   1) C 163 - H 171          0.00715     0.37752   
  3023. BD*(   1) C 163 - H 172          0.00744     0.37297   
       -------------------------------
              Total Lewis  635.90394  ( 98.1333%)
        Valence non-Lewis   11.06293  (  1.7072%)
        Rydberg non-Lewis    1.03313  (  0.1594%)
       -------------------------------
            Total unit  1  648.00000  (100.0000%)
           Charge unit  1    0.00000
 1\1\GINC-NOTCH208\SP\RPBE1PBE\Gen\C71H96Cl2O2P2Pd1\U1010977\02-Nov-202
 1\0\\# PBE1PBE gen pseudo=read int=(grid=ultrafine) empiricaldispersio
 n=GD3BJ pop=nbo guess=read geom=check\\title\\0,1\Pd,0,-3.9057438736,-
 1.354697549,1.0330427748\P,0,-5.0487083432,-0.0468056081,2.5078655648\
 P,0,-2.2001642706,0.1633301021,0.8120128835\O,0,-1.6429273176,3.696953
 2334,3.756994879\O,0,-4.2800734937,4.4795006077,2.9397366937\C,0,-6.09
 77491592,-1.0449668714,3.6324336715\C,0,-7.2142665804,-0.4822612042,4.
 2653355502\C,0,-7.9682980701,-1.2299939726,5.1868180996\C,0,-7.5692419
 835,-2.5540011617,5.448356179\C,0,-6.4573836248,-3.1475389988,4.817875
 9808\C,0,-5.7226405617,-2.3690682914,3.9073281551\C,0,-6.1137352521,1.
 2430047463,1.7840655003\C,0,-6.6068104028,2.3187162122,2.5489099588\C,
 0,-7.4634041626,3.2615643313,1.9667712137\C,0,-7.7814919049,3.11297463
 31,0.5973390657\C,0,-7.2831511946,2.0636691167,-0.1903071452\C,0,-6.44
 62723108,1.1167481659,0.4315962014\C,0,-3.9284826943,0.8331765929,3.68
 79457356\C,0,-3.7721086274,0.3280468441,4.9937078499\C,0,-2.8976733567
 ,0.9494878638,5.8923280445\C,0,-2.1836369187,2.0919307911,5.5157889468
 \C,0,-2.3445652393,2.6030313613,4.2207275987\C,0,-3.1943112221,1.97250
 0694,3.282989923\C,0,-3.2758107625,2.5709539054,1.9202328887\C,0,-3.78
 93971982,3.8825248687,1.7979014969\C,0,-3.8672557333,4.5234895119,0.55
 43450676\C,0,-3.40821103,3.8598900312,-0.5875085528\C,0,-2.8822830416,
 2.5664223229,-0.4906473768\C,0,-2.8093602372,1.9124029822,0.755815262\
 C,0,-1.4032926304,-0.0326956826,-0.8266574859\C,0,-2.2050094817,-0.504
 3779347,-1.8748148017\C,0,-1.6935865034,-0.6178746479,-3.1805928229\C,
 0,-0.3582221362,-0.2390265536,-3.3901680682\C,0,0.4762490424,0.2289681
 493,-2.3521136794\C,0,-0.0650419452,0.330478965,-1.0605104257\C,0,-0.9
 039424112,0.0641864525,2.095996329\C,0,-0.8935522368,-1.1174595432,2.8
 515149606\C,0,0.0852428088,-1.3339301885,3.8343289256\C,0,1.0665852813
 ,-0.3424712783,4.0110955684\C,0,1.0877887727,0.8534784923,3.2644783661
 \C,0,0.0686462631,1.0580911097,2.3136549006\C,0,-3.6927902568,5.730591
 5842,3.3580283857\H,0,-7.5103799656,0.5416999733,4.0248916294\H,0,-8.1
 497734385,-3.1485966766,6.1555480231\H,0,-4.8737222046,-2.7994007438,3
 .3679771152\H,0,-6.2865823631,2.4259885388,3.587647358\H,0,-8.43844919
 45,3.8544868635,0.134134499\H,0,-6.0431278126,0.2638318717,-0.12492304
 35\H,0,-4.3384975225,-0.5521877398,5.3067874295\H,0,-2.7729481477,0.53
 83461976,6.899327819\H,0,-1.4925794344,2.5713174815,6.2150621074\H,0,-
 4.3048716701,5.5246326643,0.4911276968\H,0,-3.468633079,4.3486419748,-
 1.5652371007\H,0,-2.5277298011,2.0588765066,-1.390480056\H,0,-3.228963
 9875,-0.8213991747,-1.6544415704\H,0,0.062490531,-0.3236305149,-4.3957
 905409\H,0,0.5508209653,0.6713157292,-0.2255638766\H,0,-1.6619489583,-
 1.8702040423,2.6451264226\H,0,1.8444078079,-0.5064502494,4.7582203992\
 H,0,0.0179709861,1.9946839581,1.7482077602\H,0,-2.9945145094,6.0985816
 709,2.5836291319\Cl,0,-5.8923841625,-2.6264523093,0.6446082678\Cl,0,-2
 .5148916862,-3.0704005142,0.1118687707\C,0,-2.9889349605,5.5358532676,
 4.704909274\C,0,-1.6158315477,4.8680893882,4.5894949758\H,0,-1.2032049
 386,4.6405044778,5.5908362599\H,0,-3.6537400331,4.9364136222,5.3527167
 251\H,0,-2.8558894382,6.5170747116,5.1985134877\C,0,-9.9282645257,-1.5
 349322679,6.8035232853\C,0,-9.1849610775,-0.5700830515,5.8608139124\C,
 0,-10.1758675413,-0.0890431079,4.7733658434\C,0,-8.7032730945,0.647028
 2434,6.6870240254\H,0,-9.2798892682,-1.8853241268,7.6254698829\H,0,-10
 .7922675861,-1.0190341355,7.2565542502\H,0,-10.310433742,-2.4183059364
 ,6.2632346608\H,0,-9.7139533509,0.6463144034,4.0923122032\H,0,-10.5296
 412555,-0.9361146752,4.1613938162\H,0,-11.0534324634,0.3903304213,5.24
 33161437\H,0,-8.1885366089,1.3896603004,6.0529105966\H,0,-9.5617873691
 ,1.1492976378,7.1680791878\H,0,-7.9990305457,0.333536454,7.4770833911\
 C,0,-6.8716306547,-5.2815553906,6.1644759194\C,0,-6.0607515375,-4.6175
 219224,5.0356155125\C,0,-4.559567031,-4.7095435906,5.3968741479\C,0,-6
 .317392175,-5.3865530913,3.7157052719\H,0,-7.950202475,-5.3127576877,5
 .9315751695\H,0,-6.5334352342,-6.3234604716,6.2973863193\H,0,-6.738979
 3601,-4.758222455,7.1282457003\H,0,-3.9174637516,-4.3324566543,4.58414
 9981\H,0,-4.3318396618,-4.1311184517,6.3098255643\H,0,-4.2784970809,-5
 .762397296,5.5764334682\H,0,-5.7694154373,-4.9407058635,2.8685155371\H
 ,0,-6.000827286,-6.4399586529,3.8216324744\H,0,-7.3905901761,-5.371225
 7729,3.4589351538\C,0,-7.5662089953,5.7668230957,2.1182975706\C,0,-8.0
 434749171,4.4434916212,2.7624500703\C,0,-7.5911006194,4.4326012369,4.2
 354778778\C,0,-9.5881065828,4.370738596,2.7261809931\H,0,-7.8932146274
 ,5.8520718346,1.0682011475\H,0,-7.9725967197,6.6330433435,2.6708116434
 \H,0,-6.4645542413,5.8202431372,2.1379889489\H,0,-7.9342772448,3.52336
 13896,4.7608631914\H,0,-6.4927355449,4.4892626175,4.3188031701\H,0,-8.
 0220945344,5.3017823047,4.7617482442\H,0,-9.946440138,3.4352985965,3.1
 907590282\H,0,-10.0247577404,5.2206414734,3.2807715321\H,0,-9.97674303
 06,4.4049320154,1.6944891187\C,0,-8.2190055228,0.5240518676,-1.9469400
 122\C,0,-7.5884662929,1.9136896994,-1.6892028545\C,0,-6.2584739932,2.0
 31222449,-2.4721149823\C,0,-8.5559172785,2.9958787593,-2.2026784267\H,
 0,-9.1792038764,0.4245643711,-1.4119238432\H,0,-8.4099927537,0.3897984
 661,-3.026613788\H,0,-7.5639885536,-0.2981460266,-1.6131958508\H,0,-5.
 7947323614,3.0200998074,-2.3116718574\H,0,-5.5310486852,1.2671392228,-
 2.1518530075\H,0,-6.4364365445,1.8980351076,-3.5543319079\H,0,-9.52701
 92994,2.9568579731,-1.6786086714\H,0,-8.7495830379,2.8390109046,-3.277
 5496659\H,0,-8.1372629155,4.0110044653,-2.0840950982\C,0,-3.9284960228
 ,-0.4420939876,-4.3406445436\C,0,-2.5844795558,-1.2056145149,-4.287092
 1029\C,0,-2.8537722515,-2.6930593893,-3.9490368705\C,0,-1.923106864,-1
 .1210149762,-5.6755441535\H,0,-3.7706122773,0.6341604016,-4.5322154652
 \H,0,-4.5608182102,-0.8474735847,-5.1502605937\H,0,-4.4954327814,-0.54
 30214986,-3.4006671332\H,0,-1.912080767,-3.2683597495,-3.9484894557\H,
 0,-3.3114773367,-2.8116337461,-2.9524629953\H,0,-3.5315760792,-3.13653
 46596,-4.7007136859\H,0,-0.9910820456,-1.7107118152,-5.7221708087\H,0,
 -2.6094410717,-1.5298718315,-6.4366279892\H,0,-1.6896845644,-0.0783984
 918,-5.9564665696\C,0,2.6977050693,1.0840928506,-1.4211074239\C,0,1.93
 79068044,0.5939959617,-2.666980918\C,0,1.9659623837,1.7204260498,-3.72
 72913869\C,0,2.6654751983,-0.6548738948,-3.2196111082\H,0,2.7277520871
 ,0.3135892465,-0.6314523288\H,0,3.7392046894,1.3288313602,-1.691907016
 4\H,0,2.2401399955,1.9941469751,-0.9959765108\H,0,1.4609785151,1.41726
 13184,-4.6598225431\H,0,1.4627907882,2.6275203244,-3.349651837\H,0,3.0
 092031744,1.9835045898,-3.9783571627\H,0,2.1877183317,-1.0329056704,-4
 .1389472127\H,0,3.7157790073,-0.4102262347,-3.4599319488\H,0,2.6601903
 664,-1.4709812987,-2.4771058737\C,0,1.1914501835,-2.7284892984,5.67012
 32159\C,0,0.0297374629,-2.6260832819,4.6647180162\C,0,0.0867474507,-3.
 8472280458,3.7153331345\C,0,-1.3038118385,-2.6451499328,5.4504583777\H
 ,0,1.1778363002,-1.8999797827,6.4003939941\H,0,1.1089121618,-3.6725689
 026,6.2353479584\H,0,2.1720381368,-2.7279941313,5.162561524\H,0,-0.728
 9642917,-3.8365861702,2.9728752635\H,0,1.0413072079,-3.8670481566,3.16
 1571311\H,0,0.0063654369,-4.7826325113,4.2974619568\H,0,-2.1727721172,
 -2.5948984086,4.7736002246\H,0,-1.3882055789,-3.5745342198,6.041721268
 7\H,0,-1.3666063317,-1.7846684664,6.1394586144\C,0,1.5575711226,3.2007
 301393,4.0543886926\C,0,2.1862543506,1.9167401353,3.4669533334\C,0,2.8
 393804667,2.2507594299,2.1058339812\C,0,3.2967315696,1.438790747,4.422
 933578\H,0,1.101097418,2.9955247527,5.0389660019\H,0,2.3314042818,3.97
 8680239,4.1864567824\H,0,0.7665957003,3.5966798982,3.39865007\H,0,3.29
 28644904,1.3526337155,1.6531044261\H,0,2.1069382454,2.656875582,1.3885
 808249\H,0,3.6323437861,3.0082966016,2.2386879662\H,0,3.7789161773,0.5
 142956914,4.0607391957\H,0,4.0754453935,2.2170263404,4.4996535514\H,0,
 2.9128232609,1.2536256156,5.4411860046\H,0,-0.9001128659,5.5352323568,
 4.0801623759\H,0,-4.5170752555,6.4591040235,3.4601587778\\Version=ES64
 L-G16RevB.01\State=1-A\HF=-4642.2773975\RMSD=1.187e-09\Dipole=0.966384
 7,4.6017278,2.0699994\Quadrupole=-0.3137571,-8.5585901,8.8723472,-1.57
 71433,-1.218548,-8.1262431\PG=C01 [X(C71H96Cl2O2P2Pd1)]\\@


 ALL PAPERS THAT YOU SAVE WILL NEVER BE NEEDED UNTIL
 SUCH TIME AS THEY ARE DISPOSED OF, WHEN THEY BECOME
 ESSENTIAL.

           -- JOHN CORCORAN IN
              PAUL DICKSON'S "THE OFFICIAL RULES"
 Job cpu time:       0 days  9 hours 51 minutes 40.1 seconds.
 Elapsed time:       0 days  0 hours 11 minutes 29.8 seconds.
 File lengths (MBytes):  RWF=   4650 Int=      0 D2E=      0 Chk=    699 Scr=      1
 Normal termination of Gaussian 16 at Tue Nov  2 16:34:03 2021.
