 Entering Gaussian System, Link 0=/uufs/chpc.utah.edu/sys/installdir/gaussian16/B01/E6B/g16/g16
 Input=S-35tBu-C3-Tunephos_2_SPE.com
 Output=S-35tBu-C3-Tunephos_2_SPE.log
 Initial command:
 /uufs/chpc.utah.edu/sys/installdir/gaussian16/B01/E6B/g16/l1.exe "/scratch/general/lustre/u1010977/3356302/notchpeak.peaks/Gau-236982.inp" -scrdir="/scratch/general/lustre/u1010977/3356302/notchpeak.peaks/"
 Entering Link 1 = /uufs/chpc.utah.edu/sys/installdir/gaussian16/B01/E6B/g16/l1.exe PID=    236984.
  
 Copyright (c) 1988-2017, Gaussian, Inc.  All Rights Reserved.
  
 This is part of the Gaussian(R) 16 program.  It is based on
 the Gaussian(R) 09 system (copyright 2009, Gaussian, Inc.),
 the Gaussian(R) 03 system (copyright 2003, Gaussian, Inc.),
 the Gaussian(R) 98 system (copyright 1998, Gaussian, Inc.),
 the Gaussian(R) 94 system (copyright 1995, Gaussian, Inc.),
 the Gaussian 92(TM) system (copyright 1992, Gaussian, Inc.),
 the Gaussian 90(TM) system (copyright 1990, Gaussian, Inc.),
 the Gaussian 88(TM) system (copyright 1988, Gaussian, Inc.),
 the Gaussian 86(TM) system (copyright 1986, Carnegie Mellon
 University), and the Gaussian 82(TM) system (copyright 1983,
 Carnegie Mellon University). Gaussian is a federally registered
 trademark of Gaussian, Inc.
  
 This software contains proprietary and confidential information,
 including trade secrets, belonging to Gaussian, Inc.
  
 This software is provided under written license and may be
 used, copied, transmitted, or stored only in accord with that
 written license.
  
 The following legend is applicable only to US Government
 contracts under FAR:
  
                    RESTRICTED RIGHTS LEGEND
  
 Use, reproduction and disclosure by the US Government is
 subject to restrictions as set forth in subparagraphs (a)
 and (c) of the Commercial Computer Software - Restricted
 Rights clause in FAR 52.227-19.
  
 Gaussian, Inc.
 340 Quinnipiac St., Bldg. 40, Wallingford CT 06492
  
  
 ---------------------------------------------------------------
 Warning -- This program may not be used in any manner that
 competes with the business of Gaussian, Inc. or will provide
 assistance to any competitor of Gaussian, Inc.  The licensee
 of this program is prohibited from giving any competitor of
 Gaussian, Inc. access to this program.  By using this program,
 the user acknowledges that Gaussian, Inc. is engaged in the
 business of creating and licensing software in the field of
 computational chemistry and represents and warrants to the
 licensee that it is not a competitor of Gaussian, Inc. and that
 it will not use this program in any manner prohibited above.
 ---------------------------------------------------------------
  

 Cite this work as:
 Gaussian 16, Revision B.01,
 M. J. Frisch, G. W. Trucks, H. B. Schlegel, G. E. Scuseria, 
 M. A. Robb, J. R. Cheeseman, G. Scalmani, V. Barone, 
 G. A. Petersson, H. Nakatsuji, X. Li, M. Caricato, A. V. Marenich, 
 J. Bloino, B. G. Janesko, R. Gomperts, B. Mennucci, H. P. Hratchian, 
 J. V. Ortiz, A. F. Izmaylov, J. L. Sonnenberg, D. Williams-Young, 
 F. Ding, F. Lipparini, F. Egidi, J. Goings, B. Peng, A. Petrone, 
 T. Henderson, D. Ranasinghe, V. G. Zakrzewski, J. Gao, N. Rega, 
 G. Zheng, W. Liang, M. Hada, M. Ehara, K. Toyota, R. Fukuda, 
 J. Hasegawa, M. Ishida, T. Nakajima, Y. Honda, O. Kitao, H. Nakai, 
 T. Vreven, K. Throssell, J. A. Montgomery, Jr., J. E. Peralta, 
 F. Ogliaro, M. J. Bearpark, J. J. Heyd, E. N. Brothers, K. N. Kudin, 
 V. N. Staroverov, T. A. Keith, R. Kobayashi, J. Normand, 
 K. Raghavachari, A. P. Rendell, J. C. Burant, S. S. Iyengar, 
 J. Tomasi, M. Cossi, J. M. Millam, M. Klene, C. Adamo, R. Cammi, 
 J. W. Ochterski, R. L. Martin, K. Morokuma, O. Farkas, 
 J. B. Foresman, and D. J. Fox, Gaussian, Inc., Wallingford CT, 2016.
 
 ******************************************
 Gaussian 16:  ES64L-G16RevB.01 20-Dec-2017
                 2-Nov-2021 
 ******************************************
 %NProcShared=40
 Will use up to   40 processors via shared memory.
 %mem=18GB
 %chk=S-35tBu-C3-Tunephos_2_SPE.chk
 ----------------------------------------------------------------------
 # PBE1PBE gen pseudo=read int=(grid=ultrafine) empiricaldispersion=GD3
 BJ nmr=giao
 ----------------------------------------------------------------------
 1/38=1,172=1/1;
 2/12=2,17=6,18=5,40=1/2;
 3/5=7,11=2,16=1,17=8,25=1,30=1,74=-13,75=-5,124=41/1,2,3,8;
 4//1;
 5/5=2,38=5/2;
 8/6=1,10=90,11=11/1;
 10/13=100,45=16/2;
 6/7=2,8=2,9=2,10=2,28=1/1;
 99/9=1/99;
 -----
 title
 -----
 Symbolic Z-matrix:
 Charge =  0 Multiplicity = 1
 Pd                   -3.97079  -1.42987   1.00126 
 P                    -5.05614  -0.12684   2.53287 
 P                    -2.27177   0.079     0.74751 
 O                    -1.47762   3.47411   3.78213 
 O                    -4.13834   4.3827    3.08164 
 C                    -6.1205   -1.10585   3.65685 
 C                    -5.72464  -2.41962   3.97295 
 C                    -6.47435  -3.1899    4.86985 
 C                    -7.62458  -2.60465   5.44724 
 C                    -8.0418   -1.2997    5.14624 
 C                    -7.26747  -0.55381   4.23422 
 C                    -6.0959    1.18953   1.8212 
 C                    -6.56101   2.27509   2.58928 
 C                    -7.38492   3.24675   2.00691 
 C                    -7.70071   3.11429   0.63491 
 C                    -7.23534   2.05077  -0.154 
 C                    -6.43123   1.07649   0.46821 
 C                    -3.89893   0.71554   3.7079 
 C                    -3.73733   0.18312   5.00255 
 C                    -2.82332   0.75369   5.89508 
 C                    -2.06328   1.86588   5.51866 
 C                    -2.22944   2.40702   4.23704 
 C                    -3.13186   1.83613   3.30822 
 C                    -3.24038   2.47623   1.96507 
 C                    -3.71081   3.80796   1.90332 
 C                    -3.8127    4.49282   0.68507 
 C                    -3.42811   3.85033  -0.49531 
 C                    -2.95108   2.53501  -0.46032 
 C                    -2.85087   1.83958   0.7608 
 C                    -1.47612  -0.05652  -0.89632 
 C                    -2.27894  -0.44569  -1.98576 
 C                    -1.74704  -0.49124  -3.27953 
 C                    -0.39117  -0.12919  -3.45224 
 C                     0.43186   0.2535   -2.38272 
 C                    -0.13486   0.28359  -1.09182 
 C                    -0.95491  -0.00641   2.00432 
 C                    -0.01528   1.02665   2.16572 
 C                     1.00104   0.91111   3.12711 
 C                     1.01564  -0.24509   3.93262 
 C                     0.06313  -1.27527   3.81606 
 C                    -0.91738  -1.14735   2.81949 
 C                    -3.49325   5.59898   3.51559 
 H                    -4.84885  -2.83763   3.47194 
 H                    -8.21848  -3.20458   6.14215 
 H                    -7.57668   0.45777   3.95918 
 H                    -6.2454    2.36562   3.63119 
 H                    -8.32986   3.87951   0.17153 
 H                    -6.05327   0.21306  -0.09018 
 H                    -4.33398  -0.67793   5.31304 
 H                    -2.70129   0.32575   6.89545 
 H                    -1.3329    2.29891   6.20805 
 H                    -4.21237   5.51151   0.67153 
 H                    -3.50795   4.37349  -1.45371 
 H                    -2.65118   2.04441  -1.3891 
 H                    -3.31064  -0.74832  -1.79348 
 H                     0.03163  -0.16715  -4.45986 
 H                     0.48284   0.55806  -0.23295 
 H                    -0.1053    1.93068   1.55896 
 H                     1.79716  -0.33999   4.69482 
 H                    -1.67489  -1.91939   2.65822 
 H                    -2.81734   5.97251   2.72412 
 Cl                   -5.95607  -2.73037   0.734 
 Cl                   -2.64335  -3.07893  -0.10001 
 C                    -2.73871   5.33516   4.82247 
 C                    -1.39216   4.63221   4.63159 
 H                    -0.94436   4.37738   5.61164 
 H                    -3.39423   4.73489   5.47883 
 H                    -2.55302   6.29423   5.34206 
 C                    -7.27251  -5.56228   4.74694 
 C                    -6.107    -4.64735   5.19415 
 C                    -5.88231  -4.7953    6.71705 
 C                    -4.82952  -5.10133   4.46135 
 H                    -7.44443  -5.46685   3.6615 
 H                    -7.03442  -6.61769   4.9702 
 H                    -8.21346  -5.3105    5.2655 
 H                    -5.04458  -4.15971   7.05398 
 H                    -6.778    -4.51063   7.29548 
 H                    -5.63963  -5.84376   6.96613 
 H                    -3.95065  -4.50367   4.76131 
 H                    -4.61588  -6.1546    4.71242 
 H                    -4.93781  -5.03044   3.36533 
 C                    -10.05144  -1.61274   6.69785 
 C                    -9.29619  -0.65277   5.75988 
 C                    -10.25649  -0.21984   4.62597 
 C                    -8.87156   0.59368   6.57351 
 H                    -10.39465  -2.51626   6.16471 
 H                    -10.94209  -1.10673   7.1083 
 H                    -9.42496  -1.92981   7.54985 
 H                    -9.78589   0.50974   3.94484 
 H                    -10.56896  -1.08878   4.02227 
 H                    -11.16091   0.25048   5.0521 
 H                    -8.3499    1.33262   5.94068 
 H                    -9.75799   1.08788   7.01018 
 H                    -8.19081   0.31456   7.39636 
 C                    -9.47985   4.41936   2.75301 
 C                    -7.93412   4.44102   2.80628 
 C                    -7.40679   5.75391   2.18015 
 C                    -7.49785   4.40338   4.28373 
 H                    -9.87346   3.49055   3.202 
 H                    -9.89446   5.27626   3.31369 
 H                    -9.85621   4.47904   1.71793 
 H                    -6.30491   5.77881   2.22745 
 H                    -7.70611   5.85287   1.12302 
 H                    -7.80296   6.6279    2.72784 
 H                    -6.39915   4.4271    4.37857 
 H                    -7.90842   5.28037   4.81338 
 H                    -7.87316   3.50006   4.79715 
 C                    -8.44586   3.04208  -2.17595 
 C                    -7.54827   1.90609  -1.65213 
 C                    -8.26521   0.55559  -1.89228 
 C                    -6.21631   1.92917  -2.4412 
 H                    -7.96714   4.03048  -2.05864 
 H                    -8.6436    2.89213  -3.25106 
 H                    -9.42034   3.06412  -1.65724 
 H                    -7.66015  -0.30054  -1.54954 
 H                    -9.22825   0.52263  -1.35414 
 H                    -8.46705   0.42006  -2.96984 
 H                    -5.54101   1.11807  -2.1204 
 H                    -5.68536   2.8849   -2.28963 
 H                    -6.40996   1.80321  -3.52167 
 C                    -4.01609  -1.34764  -4.08288 
 C                    -2.58089  -0.95546  -4.48518 
 C                    -1.90086  -2.19474  -5.11518 
 C                    -2.6529    0.18623  -5.52607 
 H                    -4.57458  -0.48998  -3.66805 
 H                    -4.56455  -1.69951  -4.97362 
 H                    -4.02533  -2.16039  -3.33626 
 H                    -0.87679  -1.97126  -5.45997 
 H                    -1.84294  -3.0183   -4.38362 
 H                    -2.48219  -2.54446  -5.98699 
 H                    -1.64999   0.49272  -5.86998 
 H                    -3.22847  -0.13971  -6.41083 
 H                    -3.15199   1.07429  -5.09972 
 C                     2.10173   2.10958  -2.10521 
 C                     1.91147   0.6407   -2.5547 
 C                     2.38513   0.51288  -4.01453 
 C                     2.7883   -0.28112  -1.67342 
 H                     1.80498   2.25287  -1.05161 
 H                     3.16141   2.40698  -2.2018 
 H                     1.49299   2.79291  -2.72233 
 H                     2.28713  -0.52236  -4.38472 
 H                     1.81732   1.17755  -4.68885 
 H                     3.44951   0.7954   -4.08562 
 H                     2.66544  -1.33774  -1.96598 
 H                     3.85416  -0.01175  -1.78361 
 H                     2.5279   -0.19695  -0.60439 
 C                     3.46248   1.39893   3.03492 
 C                     2.06793   2.00125   3.32703 
 C                     2.0132    2.50509   4.78864 
 C                     1.85021   3.20759   2.39345 
 H                     3.52305   1.04148   1.99197 
 H                     4.24923   2.15989   3.1853 
 H                     3.68513   0.54498   3.69687 
 H                     1.01862   2.92842   5.00881 
 H                     2.2047    1.69381   5.51084 
 H                     2.77246   3.29036   4.95371 
 H                     0.86029   3.66699   2.55527 
 H                     2.62231   3.97159   2.58901 
 H                     1.93044   2.92117   1.32962 
 C                     1.40735  -3.2809    4.50932 
 C                     0.10536  -2.48581   4.76313 
 C                    -1.09993  -3.42324   4.55109 
 C                     0.07659  -1.98851   6.22794 
 H                     2.30221  -2.65519   4.67069 
 H                     1.46848  -4.14511   5.19475 
 H                     1.43903  -3.65889   3.47329 
 H                    -2.05434  -2.89386   4.72208 
 H                    -1.12302  -3.84941   3.53355 
 H                    -1.04686  -4.26293   5.26542 
 H                    -0.83807  -1.40162   6.42021 
 H                     0.09132  -2.84817   6.9212 
 H                     0.94503  -1.35096   6.46598 
 H                    -0.68073   5.28945   4.10341 
 H                    -4.2883    6.34855   3.67873 
 
 Stoichiometry    C71H96Cl2O2P2Pd
 Framework group  C1[X(C71H96Cl2O2P2Pd)]
 Deg. of freedom   516
 Full point group                 C1      NOp   1
 Largest Abelian subgroup         C1      NOp   1
 Largest concise Abelian subgroup C1      NOp   1
                         Standard orientation:                         
 ---------------------------------------------------------------------
 Center     Atomic      Atomic             Coordinates (Angstroms)
 Number     Number       Type             X           Y           Z
 ---------------------------------------------------------------------
      1         46           0        0.000322    0.148825   -1.956962
      2         15           0       -1.649922   -0.008482   -0.384168
      3         15           0        1.663377    0.059396   -0.390445
      4          8           0        0.945107   -1.426673    3.927201
      5          8           0       -0.902166    0.797462    4.118142
      6          6           0       -3.197616   -0.716486   -1.060940
      7          6           0       -3.099645   -1.655224   -2.105823
      8          6           0       -4.249284   -2.266138   -2.620560
      9          6           0       -5.496721   -1.917631   -2.053668
     10          6           0       -5.621249   -0.983222   -1.014953
     11          6           0       -4.444146   -0.382076   -0.524286
     12          6           0       -2.089090    1.562851    0.427282
     13          6           0       -2.825003    1.606536    1.627792
     14          6           0       -3.167389    2.839186    2.198287
     15          6           0       -2.727041    4.016331    1.550157
     16          6           0       -1.978782    3.997011    0.362824
     17          6           0       -1.674201    2.742320   -0.199252
     18          6           0       -1.231517   -1.188439    0.980418
     19          6           0       -1.800029   -2.477701    0.963094
     20          6           0       -1.456308   -3.417610    1.940852
     21          6           0       -0.550488   -3.088628    2.954553
     22          6           0        0.007823   -1.803941    2.983782
     23          6           0       -0.307097   -0.841729    1.994867
     24          6           0        0.337960    0.499070    2.103012
     25          6           0        0.044715    1.284013    3.241648
     26          6           0        0.632701    2.541061    3.435679
     27          6           0        1.540316    3.025342    2.489251
     28          6           0        1.854072    2.264087    1.357492
     29          6           0        1.262563    1.001680    1.154432
     30          6           0        3.191291    0.888391   -0.966502
     31          6           0        3.055213    1.993886   -1.828037
     32          6           0        4.180932    2.716707   -2.239272
     33          6           0        5.445234    2.305725   -1.757709
     34          6           0        5.608557    1.203156   -0.906022
     35          6           0        4.453832    0.494253   -0.515391
     36          6           0        2.122806   -1.613103    0.168729
     37          6           0        2.896130   -1.822859    1.323774
     38          6           0        3.252400   -3.125613    1.706441
     39          6           0        2.779199   -4.194552    0.919485
     40          6           0        1.971665   -4.012149   -0.219265
     41          6           0        1.664933   -2.695350   -0.597261
     42          6           0       -0.511518    0.592392    5.492605
     43          1           0       -2.116231   -1.862416   -2.533283
     44          1           0       -6.398718   -2.385587   -2.457359
     45          1           0       -4.506800    0.367595    0.268571
     46          1           0       -3.095473    0.670719    2.122237
     47          1           0       -2.977429    4.980872    2.000801
     48          1           0       -1.109482    2.662644   -1.134614
     49          1           0       -2.518262   -2.743094    0.183672
     50          1           0       -1.898937   -4.418596    1.911735
     51          1           0       -0.264674   -3.829758    3.706394
     52          1           0        0.356901    3.135275    4.312320
     53          1           0        2.002277    4.008240    2.627495
     54          1           0        2.566754    2.652123    0.626208
     55          1           0        2.059870    2.249017   -2.198389
     56          1           0        6.329103    2.863457   -2.078990
     57          1           0        4.546348   -0.381776    0.131571
     58          1           0        3.187188   -0.965512    1.935139
     59          1           0        3.040852   -5.216451    1.216112
     60          1           0        1.061179   -2.479151   -1.483048
     61          1           0        0.497966    1.009238    5.665769
     62         17           0       -1.622546    0.866080   -3.555683
     63         17           0        1.612379   -0.280614   -3.663164
     64          6           0       -0.566772   -0.903484    5.818409
     65          6           0        0.639265   -1.695826    5.307098
     66          1           0        0.494192   -2.779694    5.480706
     67          1           0       -1.501079   -1.310588    5.391594
     68          1           0       -0.626223   -1.040976    6.914692
     69          6           0       -4.997562   -2.660720   -4.979530
     70          6           0       -4.187926   -3.250927   -3.799844
     71          6           0       -4.800356   -4.605140   -3.372478
     72          6           0       -2.743668   -3.493075   -4.279976
     73          1           0       -4.571641   -1.693362   -5.295188
     74          1           0       -4.970854   -3.350799   -5.841792
     75          1           0       -6.054932   -2.496898   -4.709664
     76          1           0       -4.227738   -5.049692   -2.539548
     77          1           0       -5.848618   -4.498318   -3.044457
     78          1           0       -4.782821   -5.315009   -4.218629
     79          1           0       -2.118863   -3.943773   -3.488723
     80          1           0       -2.752159   -4.191704   -5.134318
     81          1           0       -2.259454   -2.558672   -4.612319
     82          6           0       -8.159249   -1.298793   -1.071033
     83          6           0       -6.972793   -0.587409   -0.394278
     84          6           0       -7.173466    0.940776   -0.534846
     85          6           0       -6.966336   -0.965941    1.106590
     86          1           0       -8.223631   -1.050705   -2.144667
     87          1           0       -9.103064   -0.980557   -0.595954
     88          1           0       -8.088897   -2.396162   -0.972301
     89          1           0       -6.376313    1.508696   -0.025243
     90          1           0       -7.172906    1.241340   -1.596362
     91          1           0       -8.139199    1.240312   -0.089427
     92          1           0       -6.150429   -0.457771    1.649447
     93          1           0       -7.920926   -0.674668    1.580511
     94          1           0       -6.832459   -2.053620    1.238554
     95          6           0       -5.273829    3.751883    3.223126
     96          6           0       -3.985099    2.941621    3.497420
     97          6           0       -3.135621    3.657392    4.574387
     98          6           0       -4.387546    1.557901    4.043272
     99          1           0       -5.895431    3.251138    2.460182
    100          1           0       -5.871306    3.845739    4.147657
    101          1           0       -5.050176    4.769354    2.860739
    102          1           0       -2.221281    3.076085    4.781910
    103          1           0       -2.832697    4.668069    4.252412
    104          1           0       -3.709662    3.758508    5.513013
    105          1           0       -3.500804    0.940736    4.265761
    106          1           0       -4.964259    1.681428    4.976197
    107          1           0       -5.025787    1.007368    3.329120
    108          6           0       -1.897243    6.552174    0.391570
    109          6           0       -1.470822    5.266338   -0.340070
    110          6           0       -2.031358    5.306196   -1.782200
    111          6           0        0.075980    5.219877   -0.390185
    112          1           0       -1.495622    6.591633    1.419684
    113          1           0       -1.512476    7.432268   -0.151414
    114          1           0       -2.996129    6.646400    0.443865
    115          1           0       -1.743568    4.413521   -2.362588
    116          1           0       -3.133745    5.358875   -1.772280
    117          1           0       -1.647980    6.195676   -2.313323
    118          1           0        0.437531    4.325912   -0.925846
    119          1           0        0.502334    5.194125    0.627583
    120          1           0        0.468387    6.111098   -0.912229
    121          6           0        2.621510    4.160850   -3.657039
    122          6           0        4.074923    3.900068   -3.215402
    123          6           0        4.912978    3.583094   -4.477276
    124          6           0        4.621375    5.175671   -2.532525
    125          1           0        1.977810    4.440869   -2.804503
    126          1           0        2.600210    4.997803   -4.376131
    127          1           0        2.178079    3.278797   -4.150431
    128          1           0        5.977031    3.420787   -4.234379
    129          1           0        4.533949    2.674950   -4.975677
    130          1           0        4.853946    4.422639   -5.192810
    131          1           0        5.671622    5.054510   -2.215760
    132          1           0        4.575339    6.031335   -3.229687
    133          1           0        4.023910    5.428287   -1.638807
    134          6           0        6.988878    0.845219    1.162097
    135          6           0        6.979188    0.738854   -0.382069
    136          6           0        8.137445    1.589337   -0.936082
    137          6           0        7.213306   -0.734383   -0.794373
    138          1           0        6.194178    0.227916    1.616024
    139          1           0        7.957757    0.499551    1.565172
    140          1           0        6.831545    1.888428    1.486599
    141          1           0        8.189223    1.537807   -2.037457
    142          1           0        8.043762    2.649490   -0.642501
    143          1           0        9.096179    1.215861   -0.537168
    144          1           0        7.202179   -0.841889   -1.892302
    145          1           0        8.192972   -1.083096   -0.421011
    146          1           0        6.438155   -1.404184   -0.384218
    147          6           0        5.422509   -4.107714    2.500967
    148          6           0        4.117109   -3.407874    2.947098
    149          6           0        3.335530   -4.329008    3.913440
    150          6           0        4.487158   -2.118292    3.704905
    151          1           0        5.998636   -3.460465    1.816620
    152          1           0        6.056213   -4.334297    3.377165
    153          1           0        5.218305   -5.055876    1.975355
    154          1           0        2.397996   -3.841458    4.229970
    155          1           0        3.075756   -5.292396    3.443520
    156          1           0        3.939541   -4.544076    4.813052
    157          1           0        3.586092   -1.574103    4.035202
    158          1           0        5.084968   -2.371543    4.597411
    159          1           0        5.094907   -1.437980    3.081990
    160          6           0        2.640808   -5.981181   -1.628261
    161          6           0        1.444998   -5.225611   -1.003021
    162          6           0        0.477430   -4.806959   -2.127741
    163          6           0        0.683482   -6.164738   -0.037653
    164          1           0        3.353166   -6.321480   -0.856849
    165          1           0        2.286312   -6.870296   -2.179813
    166          1           0        3.187582   -5.332517   -2.333602
    167          1           0       -0.394278   -4.261464   -1.724100
    168          1           0        0.965235   -4.163266   -2.879568
    169          1           0        0.102369   -5.705317   -2.647790
    170          1           0       -0.162294   -5.634178    0.432648
    171          1           0        0.285672   -7.034927   -0.589356
    172          1           0        1.333978   -6.547000    0.767357
    173          1           0        1.557416   -1.395220    5.839738
    174          1           0       -1.231154    1.146650    6.121485
 ---------------------------------------------------------------------
 Rotational constants (GHZ):           0.0285726           0.0215966           0.0203570
 General basis read from cards:  (5D, 7F)
 ======================================================================================================
                                       Pseudopotential Parameters
 ======================================================================================================
  Center     Atomic      Valence      Angular      Power
  Number     Number     Electrons     Momentum     of R      Exponent        Coefficient   SO-Coeffient
 ======================================================================================================
    1         46           18
                                      G and up 
                                                     2        1.0000000        0.00000000    0.00000000
                                      S - G
                                                     2       12.4300000      240.22904000    0.00000000
                                                     2        6.1707590       35.17194300    0.00000000
                                      P - G
                                                     2       11.0800000      170.41727600    0.00000000
                                                     2        5.8295540       28.47213300    0.00000000
                                      D - G
                                                     2        9.5100000       69.01384500    0.00000000
                                                     2        4.1397810       11.75086200    0.00000000
                                      F - G
                                                     2       13.2700000      -31.92955400    0.00000000
                                                     2        6.6300000       -5.39821700    0.00000000
    2         15
                                   No pseudopotential on this center.
    3         15
                                   No pseudopotential on this center.
    4          8
                                   No pseudopotential on this center.
    5          8
                                   No pseudopotential on this center.
    6          6
                                   No pseudopotential on this center.
    7          6
                                   No pseudopotential on this center.
    8          6
                                   No pseudopotential on this center.
    9          6
                                   No pseudopotential on this center.
   10          6
                                   No pseudopotential on this center.
   11          6
                                   No pseudopotential on this center.
   12          6
                                   No pseudopotential on this center.
   13          6
                                   No pseudopotential on this center.
   14          6
                                   No pseudopotential on this center.
   15          6
                                   No pseudopotential on this center.
   16          6
                                   No pseudopotential on this center.
   17          6
                                   No pseudopotential on this center.
   18          6
                                   No pseudopotential on this center.
   19          6
                                   No pseudopotential on this center.
   20          6
                                   No pseudopotential on this center.
   21          6
                                   No pseudopotential on this center.
   22          6
                                   No pseudopotential on this center.
   23          6
                                   No pseudopotential on this center.
   24          6
                                   No pseudopotential on this center.
   25          6
                                   No pseudopotential on this center.
   26          6
                                   No pseudopotential on this center.
   27          6
                                   No pseudopotential on this center.
   28          6
                                   No pseudopotential on this center.
   29          6
                                   No pseudopotential on this center.
   30          6
                                   No pseudopotential on this center.
   31          6
                                   No pseudopotential on this center.
   32          6
                                   No pseudopotential on this center.
   33          6
                                   No pseudopotential on this center.
   34          6
                                   No pseudopotential on this center.
   35          6
                                   No pseudopotential on this center.
   36          6
                                   No pseudopotential on this center.
   37          6
                                   No pseudopotential on this center.
   38          6
                                   No pseudopotential on this center.
   39          6
                                   No pseudopotential on this center.
   40          6
                                   No pseudopotential on this center.
   41          6
                                   No pseudopotential on this center.
   42          6
                                   No pseudopotential on this center.
   43          1
                                   No pseudopotential on this center.
   44          1
                                   No pseudopotential on this center.
   45          1
                                   No pseudopotential on this center.
   46          1
                                   No pseudopotential on this center.
   47          1
                                   No pseudopotential on this center.
   48          1
                                   No pseudopotential on this center.
   49          1
                                   No pseudopotential on this center.
   50          1
                                   No pseudopotential on this center.
   51          1
                                   No pseudopotential on this center.
   52          1
                                   No pseudopotential on this center.
   53          1
                                   No pseudopotential on this center.
   54          1
                                   No pseudopotential on this center.
   55          1
                                   No pseudopotential on this center.
   56          1
                                   No pseudopotential on this center.
   57          1
                                   No pseudopotential on this center.
   58          1
                                   No pseudopotential on this center.
   59          1
                                   No pseudopotential on this center.
   60          1
                                   No pseudopotential on this center.
   61          1
                                   No pseudopotential on this center.
   62         17
                                   No pseudopotential on this center.
   63         17
                                   No pseudopotential on this center.
   64          6
                                   No pseudopotential on this center.
   65          6
                                   No pseudopotential on this center.
   66          1
                                   No pseudopotential on this center.
   67          1
                                   No pseudopotential on this center.
   68          1
                                   No pseudopotential on this center.
   69          6
                                   No pseudopotential on this center.
   70          6
                                   No pseudopotential on this center.
   71          6
                                   No pseudopotential on this center.
   72          6
                                   No pseudopotential on this center.
   73          1
                                   No pseudopotential on this center.
   74          1
                                   No pseudopotential on this center.
   75          1
                                   No pseudopotential on this center.
   76          1
                                   No pseudopotential on this center.
   77          1
                                   No pseudopotential on this center.
   78          1
                                   No pseudopotential on this center.
   79          1
                                   No pseudopotential on this center.
   80          1
                                   No pseudopotential on this center.
   81          1
                                   No pseudopotential on this center.
   82          6
                                   No pseudopotential on this center.
   83          6
                                   No pseudopotential on this center.
   84          6
                                   No pseudopotential on this center.
   85          6
                                   No pseudopotential on this center.
   86          1
                                   No pseudopotential on this center.
   87          1
                                   No pseudopotential on this center.
   88          1
                                   No pseudopotential on this center.
   89          1
                                   No pseudopotential on this center.
   90          1
                                   No pseudopotential on this center.
   91          1
                                   No pseudopotential on this center.
   92          1
                                   No pseudopotential on this center.
   93          1
                                   No pseudopotential on this center.
   94          1
                                   No pseudopotential on this center.
   95          6
                                   No pseudopotential on this center.
   96          6
                                   No pseudopotential on this center.
   97          6
                                   No pseudopotential on this center.
   98          6
                                   No pseudopotential on this center.
   99          1
                                   No pseudopotential on this center.
  100          1
                                   No pseudopotential on this center.
  101          1
                                   No pseudopotential on this center.
  102          1
                                   No pseudopotential on this center.
  103          1
                                   No pseudopotential on this center.
  104          1
                                   No pseudopotential on this center.
  105          1
                                   No pseudopotential on this center.
  106          1
                                   No pseudopotential on this center.
  107          1
                                   No pseudopotential on this center.
  108          6
                                   No pseudopotential on this center.
  109          6
                                   No pseudopotential on this center.
  110          6
                                   No pseudopotential on this center.
  111          6
                                   No pseudopotential on this center.
  112          1
                                   No pseudopotential on this center.
  113          1
                                   No pseudopotential on this center.
  114          1
                                   No pseudopotential on this center.
  115          1
                                   No pseudopotential on this center.
  116          1
                                   No pseudopotential on this center.
  117          1
                                   No pseudopotential on this center.
  118          1
                                   No pseudopotential on this center.
  119          1
                                   No pseudopotential on this center.
  120          1
                                   No pseudopotential on this center.
  121          6
                                   No pseudopotential on this center.
  122          6
                                   No pseudopotential on this center.
  123          6
                                   No pseudopotential on this center.
  124          6
                                   No pseudopotential on this center.
  125          1
                                   No pseudopotential on this center.
  126          1
                                   No pseudopotential on this center.
  127          1
                                   No pseudopotential on this center.
  128          1
                                   No pseudopotential on this center.
  129          1
                                   No pseudopotential on this center.
  130          1
                                   No pseudopotential on this center.
  131          1
                                   No pseudopotential on this center.
  132          1
                                   No pseudopotential on this center.
  133          1
                                   No pseudopotential on this center.
  134          6
                                   No pseudopotential on this center.
  135          6
                                   No pseudopotential on this center.
  136          6
                                   No pseudopotential on this center.
  137          6
                                   No pseudopotential on this center.
  138          1
                                   No pseudopotential on this center.
  139          1
                                   No pseudopotential on this center.
  140          1
                                   No pseudopotential on this center.
  141          1
                                   No pseudopotential on this center.
  142          1
                                   No pseudopotential on this center.
  143          1
                                   No pseudopotential on this center.
  144          1
                                   No pseudopotential on this center.
  145          1
                                   No pseudopotential on this center.
  146          1
                                   No pseudopotential on this center.
  147          6
                                   No pseudopotential on this center.
  148          6
                                   No pseudopotential on this center.
  149          6
                                   No pseudopotential on this center.
  150          6
                                   No pseudopotential on this center.
  151          1
                                   No pseudopotential on this center.
  152          1
                                   No pseudopotential on this center.
  153          1
                                   No pseudopotential on this center.
  154          1
                                   No pseudopotential on this center.
  155          1
                                   No pseudopotential on this center.
  156          1
                                   No pseudopotential on this center.
  157          1
                                   No pseudopotential on this center.
  158          1
                                   No pseudopotential on this center.
  159          1
                                   No pseudopotential on this center.
  160          6
                                   No pseudopotential on this center.
  161          6
                                   No pseudopotential on this center.
  162          6
                                   No pseudopotential on this center.
  163          6
                                   No pseudopotential on this center.
  164          1
                                   No pseudopotential on this center.
  165          1
                                   No pseudopotential on this center.
  166          1
                                   No pseudopotential on this center.
  167          1
                                   No pseudopotential on this center.
  168          1
                                   No pseudopotential on this center.
  169          1
                                   No pseudopotential on this center.
  170          1
                                   No pseudopotential on this center.
  171          1
                                   No pseudopotential on this center.
  172          1
                                   No pseudopotential on this center.
  173          1
                                   No pseudopotential on this center.
  174          1
                                   No pseudopotential on this center.
 ======================================================================================================
 There are  3411 symmetry adapted cartesian basis functions of A   symmetry.
 There are  3023 symmetry adapted basis functions of A   symmetry.
  3023 basis functions,  4832 primitive gaussians,  3411 cartesian basis functions
   310 alpha electrons      310 beta electrons
       nuclear repulsion energy     17396.7705041699 Hartrees.
 NAtoms=  174 NActive=  174 NUniq=  174 SFac= 1.00D+00 NAtFMM=   60 NAOKFM=T Big=T
 Integral buffers will be    131072 words long.
 Raffenetti 2 integral format.
 Two-electron integral symmetry is turned on.
 Nuclear repulsion after empirical dispersion term =    17396.4786030158 Hartrees.
 One-electron integrals computed using PRISM.
   1 Symmetry operations used in ECPInt.
 ECPInt:  NShTT=  785631 NPrTT= 2346744 LenC2=  528274 LenP2D= 1005108.
 LDataN:  DoStor=T MaxTD1= 7 Len=  274
 Number of processors reduced to  13 by ecpmxn.
 NBasis=  3023 RedAO= T EigKep=  2.33D-06  NBF=  3023
 NBsUse=  3023 1.00D-06 EigRej= -1.00D+00 NBFU=  3023
 Defaulting to unpruned grid for atomic number  46.
 ExpMin= 1.60D-02 ExpMax= 6.95D+04 ExpMxC= 2.37D+03 IAcc=3 IRadAn=         5 AccDes= 0.00D+00
 Harris functional with IExCor= 1009 and IRadAn=       5 diagonalized for initial guess.
 HarFok:  IExCor= 1009 AccDes= 0.00D+00 IRadAn=         5 IDoV= 1 UseB2=F ITyADJ=14
 ICtDFT=  3500011 ScaDFX=  1.000000  1.000000  1.000000  1.000000
 Defaulting to unpruned grid for atomic number  46.
 FoFCou: FMM=F IPFlag=           0 FMFlag=      100000 FMFlg1=        2001
         NFxFlg=           0 DoJE=T BraDBF=F KetDBF=T FulRan=T
         wScrn=  0.000000 ICntrl=       500 IOpCl=  0 I1Cent=   200000004 NGrid=           0
         NMat0=    1 NMatS0=      1 NMatT0=    0 NMatD0=    1 NMtDS0=    0 NMtDT0=    0
 Petite list used in FoFCou.
 Requested convergence on RMS density matrix=1.00D-08 within 128 cycles.
 Requested convergence on MAX density matrix=1.00D-06.
 Requested convergence on             energy=1.00D-06.
 No special actions if energy rises.
 Defaulting to unpruned grid for atomic number  46.
 Defaulting to unpruned grid for atomic number  46.
 Defaulting to unpruned grid for atomic number  46.
 Defaulting to unpruned grid for atomic number  46.
 Defaulting to unpruned grid for atomic number  46.
 Defaulting to unpruned grid for atomic number  46.
 Defaulting to unpruned grid for atomic number  46.
 Defaulting to unpruned grid for atomic number  46.
 Defaulting to unpruned grid for atomic number  46.
 Defaulting to unpruned grid for atomic number  46.
 Defaulting to unpruned grid for atomic number  46.
 Defaulting to unpruned grid for atomic number  46.
 Defaulting to unpruned grid for atomic number  46.
 Defaulting to unpruned grid for atomic number  46.
 Defaulting to unpruned grid for atomic number  46.
 Defaulting to unpruned grid for atomic number  46.
 Defaulting to unpruned grid for atomic number  46.
 Defaulting to unpruned grid for atomic number  46.
 Defaulting to unpruned grid for atomic number  46.
 Defaulting to unpruned grid for atomic number  46.
 Defaulting to unpruned grid for atomic number  46.
 Defaulting to unpruned grid for atomic number  46.
 Defaulting to unpruned grid for atomic number  46.
 Defaulting to unpruned grid for atomic number  46.
 Defaulting to unpruned grid for atomic number  46.
 Defaulting to unpruned grid for atomic number  46.
 Defaulting to unpruned grid for atomic number  46.
 Defaulting to unpruned grid for atomic number  46.
 Defaulting to unpruned grid for atomic number  46.
 Defaulting to unpruned grid for atomic number  46.
 Defaulting to unpruned grid for atomic number  46.
 Defaulting to unpruned grid for atomic number  46.
 Defaulting to unpruned grid for atomic number  46.
 Defaulting to unpruned grid for atomic number  46.
 Defaulting to unpruned grid for atomic number  46.
 Defaulting to unpruned grid for atomic number  46.
 Defaulting to unpruned grid for atomic number  46.
 Defaulting to unpruned grid for atomic number  46.
 Defaulting to unpruned grid for atomic number  46.
 Defaulting to unpruned grid for atomic number  46.
 EnCoef did    10 forward-backward iterations
 EnCoef did   100 forward-backward iterations
 SCF Done:  E(RPBE1PBE) =  -4642.28038765     A.U. after   20 cycles
            NFock= 20  Conv=0.38D-08     -V/T= 2.0223
 DoSCS=F DFT=T ScalE2(SS,OS)=  1.000000  1.000000
 Range of M.O.s used for correlation:     1  3023
 NBasis=  3023 NAE=   310 NBE=   310 NFC=     0 NFV=     0
 NROrb=   3023 NOA=   310 NOB=   310 NVA=  2713 NVB=  2713

 **** Warning!!: The largest alpha MO coefficient is  0.41197933D+02

          Differentiating once with respect to magnetic field using GIAOs.
          Electric field/nuclear overlap derivatives assumed to be zero.
 Defaulting to unpruned grid for atomic number  46.
 FoFCou: FMM=F IPFlag=           0 FMFlag=      100000 FMFlg1=        2001
         NFxFlg=           0 DoJE=F BraDBF=F KetDBF=T FulRan=T
         wScrn=  0.000000 ICntrl=      6100 IOpCl=  0 I1Cent=           7 NGrid=         174
         NMat0=    1 NMatS0=      1 NMatT0=    0 NMatD0=    1 NMtDS0=    0 NMtDT0=    0
 Symmetry not used in FoFCou.
   1 Symmetry operations used in ECPInt.
 ECPInt:  NShTT=  785631 NPrTT= 2346744 LenC2=  785632 LenP2D= 2346744.
 LDataN:  DoStor=T MaxTD1= 8 Len=  415
 Number of processors reduced to   8 by ecpmxn.
 FoFJK:  IHMeth= 1 ICntrl=    6127 DoSepK=F KAlg= 0 I1Cent=           0 FoldK=F
 IRaf=         1 NMat=       1 IRICut=       1 DoRegI=T DoRafI=F ISym2E= 0 IDoP0=0 IntGTp=1.
 Defaulting to unpruned grid for atomic number  46.
 Defaulting to unpruned grid for atomic number  46.
 Defaulting to unpruned grid for atomic number  46.
 Defaulting to unpruned grid for atomic number  46.
 Defaulting to unpruned grid for atomic number  46.
 Defaulting to unpruned grid for atomic number  46.
 Defaulting to unpruned grid for atomic number  46.
 Defaulting to unpruned grid for atomic number  46.
 Defaulting to unpruned grid for atomic number  46.
 Defaulting to unpruned grid for atomic number  46.
 Defaulting to unpruned grid for atomic number  46.
 Defaulting to unpruned grid for atomic number  46.
 Defaulting to unpruned grid for atomic number  46.
 Defaulting to unpruned grid for atomic number  46.
 Defaulting to unpruned grid for atomic number  46.
 Defaulting to unpruned grid for atomic number  46.
 Defaulting to unpruned grid for atomic number  46.
 Defaulting to unpruned grid for atomic number  46.
 Defaulting to unpruned grid for atomic number  46.
 Defaulting to unpruned grid for atomic number  46.
 Defaulting to unpruned grid for atomic number  46.
 Defaulting to unpruned grid for atomic number  46.
 Defaulting to unpruned grid for atomic number  46.
 Defaulting to unpruned grid for atomic number  46.
 Defaulting to unpruned grid for atomic number  46.
 Defaulting to unpruned grid for atomic number  46.
 Defaulting to unpruned grid for atomic number  46.
 Defaulting to unpruned grid for atomic number  46.
 Defaulting to unpruned grid for atomic number  46.
 Defaulting to unpruned grid for atomic number  46.
 Defaulting to unpruned grid for atomic number  46.
 Defaulting to unpruned grid for atomic number  46.
 Defaulting to unpruned grid for atomic number  46.
 Defaulting to unpruned grid for atomic number  46.
 Defaulting to unpruned grid for atomic number  46.
 Defaulting to unpruned grid for atomic number  46.
 Defaulting to unpruned grid for atomic number  46.
 Defaulting to unpruned grid for atomic number  46.
 Defaulting to unpruned grid for atomic number  46.
 Defaulting to unpruned grid for atomic number  46.
          There are     3 degrees of freedom in the 1st order CPHF.  IDoFFX=0 NUNeed=     3.
      3 vectors produced by pass  0 Test12= 2.80D-11 3.33D-08 XBig12= 5.33D+02 2.01D+00.
 AX will form     3 AO Fock derivatives at one time.
      3 vectors produced by pass  1 Test12= 2.80D-11 3.33D-08 XBig12= 1.66D+00 2.60D-01.
      3 vectors produced by pass  2 Test12= 2.80D-11 3.33D-08 XBig12= 1.84D-02 2.70D-02.
      3 vectors produced by pass  3 Test12= 2.80D-11 3.33D-08 XBig12= 3.35D-04 9.14D-03.
      3 vectors produced by pass  4 Test12= 2.80D-11 3.33D-08 XBig12= 3.64D-06 5.75D-04.
      3 vectors produced by pass  5 Test12= 2.80D-11 3.33D-08 XBig12= 1.51D-08 3.47D-05.
      3 vectors produced by pass  6 Test12= 2.80D-11 3.33D-08 XBig12= 3.50D-10 6.96D-06.
      3 vectors produced by pass  7 Test12= 2.80D-11 3.33D-08 XBig12= 4.36D-12 6.34D-07.
      1 vectors produced by pass  8 Test12= 2.80D-11 3.33D-08 XBig12= 2.67D-14 3.65D-08.
 InvSVY:  IOpt=1 It=  1 EMax= 1.07D-14
 Solved reduced A of dimension    25 with     3 vectors.
 Calculating GIAO nuclear magnetic shielding tensors.
 SCF GIAO Magnetic shielding tensor (ppm):
      1  Pd   Isotropic =  -152.6876   Anisotropy =   275.5018
   XX=    -0.5360   YX=   -15.0508   ZX=    -2.1028
   XY=   -76.9288   YY=  -484.7765   ZY=   -43.4262
   XZ=    -8.0129   YZ=   -43.7095   ZZ=    27.2498
   Eigenvalues:  -492.8030     3.7600    30.9803
      2  P    Isotropic =   233.4524   Anisotropy =   137.4124
   XX=   246.8616   YX=     1.0009   ZX=   -89.7057
   XY=    20.4122   YY=   199.8486   ZY=    28.5206
   XZ=   -58.9476   YZ=    11.3273   ZZ=   253.6469
   Eigenvalues:   163.1452   212.1513   325.0607
      3  P    Isotropic =   233.5206   Anisotropy =   138.5038
   XX=   250.4191   YX=   -13.6898   ZX=    89.5510
   XY=    11.4840   YY=   208.4061   ZY=   -35.8028
   XZ=    62.9707   YZ=   -19.4187   ZZ=   241.7365
   Eigenvalues:   161.3382   213.3670   325.8565
      4  O    Isotropic =   215.8318   Anisotropy =   125.1764
   XX=   271.1370   YX=    -1.8210   ZX=   -56.5630
   XY=   -19.3413   YY=   180.8372   ZY=    80.8268
   XZ=   -25.8300   YZ=    29.2670   ZZ=   195.5212
   Eigenvalues:   129.7878   218.4248   299.2828
      5  O    Isotropic =   218.3968   Anisotropy =   100.9656
   XX=   268.5312   YX=    -5.4415   ZX=    47.8190
   XY=    -0.8000   YY=   204.3618   ZY=   -75.8886
   XZ=    18.4379   YZ=   -25.0648   ZZ=   182.2975
   Eigenvalues:   137.1610   232.3223   285.7072
      6  C    Isotropic =    47.6747   Anisotropy =   172.0561
   XX=   -15.7785   YX=   -28.1571   ZX=   -16.1892
   XY=   -38.5760   YY=    78.6396   ZY=   -90.6100
   XZ=   -12.8767   YZ=   -73.3144   ZZ=    80.1630
   Eigenvalues:   -44.2444    24.8897   162.3788
      7  C    Isotropic =    43.9257   Anisotropy =   184.3474
   XX=   -35.1478   YX=     5.1347   ZX=    31.0662
   XY=    12.1170   YY=   104.2662   ZY=   -71.8523
   XZ=    39.4173   YZ=   -87.3060   ZZ=    62.6587
   Eigenvalues:   -55.5168    20.4699   166.8240
      8  C    Isotropic =    28.9411   Anisotropy =   198.2214
   XX=   -19.5467   YX=    -8.8027   ZX=    15.9935
   XY=   -11.5306   YY=    67.7494   ZY=  -105.7335
   XZ=    13.3738   YZ=  -104.7483   ZZ=    38.6206
   Eigenvalues:   -53.6494   -20.6161   161.0887
      9  C    Isotropic =    54.4651   Anisotropy =   176.4066
   XX=   -13.4133   YX=   -40.0527   ZX=   -19.4515
   XY=   -33.3272   YY=    93.7597   ZY=   -82.5721
   XZ=    -9.9457   YZ=   -81.2600   ZZ=    83.0490
   Eigenvalues:   -41.5343    32.8601   172.0695
     10  C    Isotropic =    30.5401   Anisotropy =   196.3217
   XX=   -45.6270   YX=    -2.2580   ZX=    25.1268
   XY=    -4.5403   YY=    79.1047   ZY=   -89.1146
   XZ=    22.4562   YZ=   -91.9930   ZZ=    58.1427
   Eigenvalues:   -54.6768   -15.1240   161.4213
     11  C    Isotropic =    50.5827   Anisotropy =   183.5205
   XX=    28.0201   YX=    -4.1315   ZX=    14.6511
   XY=     2.4688   YY=    70.2811   ZY=  -109.9446
   XZ=    11.4445   YZ=  -110.3015   ZZ=    53.4467
   Eigenvalues:   -49.6305    28.4488   172.9296
     12  C    Isotropic =    52.7434   Anisotropy =   171.4003
   XX=   123.8185   YX=    14.8920   ZX=    72.5559
   XY=    15.8639   YY=   -22.6129   ZY=   -32.5328
   XZ=    65.2188   YZ=   -25.7669   ZZ=    57.0247
   Eigenvalues:   -41.9833    33.2033   167.0103
     13  C    Isotropic =    51.8017   Anisotropy =   183.7581
   XX=   133.0283   YX=   -24.3934   ZX=    69.5505
   XY=   -17.6271   YY=   -24.5308   ZY=    33.7114
   XZ=    75.4623   YZ=    34.5047   ZZ=    46.9076
   Eigenvalues:   -52.2350    33.3331   174.3071
     14  C    Isotropic =    30.3975   Anisotropy =   200.5717
   XX=   103.9335   YX=    -2.9286   ZX=    96.3575
   XY=    -3.9808   YY=   -16.4991   ZY=     1.2405
   XZ=    99.9750   YZ=    -2.5649   ZZ=     3.7582
   Eigenvalues:   -56.3988   -16.5206   164.1120
     15  C    Isotropic =    53.6742   Anisotropy =   180.9276
   XX=   129.7584   YX=    10.1664   ZX=    71.8921
   XY=    14.6661   YY=   -25.6906   ZY=   -37.1168
   XZ=    72.2869   YZ=   -25.5714   ZZ=    56.9548
   Eigenvalues:   -44.9896    31.7196   174.2926
     16  C    Isotropic =    27.9088   Anisotropy =   202.9544
   XX=   108.2038   YX=   -14.9956   ZX=    87.0140
   XY=   -18.0218   YY=   -46.8025   ZY=    10.5625
   XZ=    88.2233   YZ=     9.0688   ZZ=    22.3250
   Eigenvalues:   -58.3403   -21.1451   163.2117
     17  C    Isotropic =    40.1666   Anisotropy =   187.4019
   XX=   100.1133   YX=   -13.6177   ZX=   105.8559
   XY=    -3.0218   YY=    18.9179   ZY=    -4.4200
   XZ=    98.9162   YZ=    -6.1197   ZZ=     1.4685
   Eigenvalues:   -62.8559    18.2545   165.1012
     18  C    Isotropic =    38.6527   Anisotropy =   189.8111
   XX=    98.9507   YX=   -14.8795   ZX=   -76.1229
   XY=   -44.4684   YY=   -13.8234   ZY=    43.7408
   XZ=   -80.7228   YZ=    51.9012   ZZ=    30.8308
   Eigenvalues:   -47.7153    -1.5201   165.1934
     19  C    Isotropic =    50.1445   Anisotropy =   192.3002
   XX=    78.6395   YX=   -52.8201   ZX=  -100.5222
   XY=   -58.6407   YY=    36.3621   ZY=     4.6222
   XZ=  -102.4481   YZ=    14.4516   ZZ=    35.4319
   Eigenvalues:   -56.1315    28.2203   178.3446
     20  C    Isotropic =    51.6586   Anisotropy =   187.0245
   XX=   101.0261   YX=   -63.4025   ZX=   -64.9897
   XY=   -67.2563   YY=   -28.9703   ZY=    24.4949
   XZ=   -61.2687   YZ=    21.1792   ZZ=    82.9200
   Eigenvalues:   -56.2141    34.8484   176.3416
     21  C    Isotropic =    63.2728   Anisotropy =   179.4259
   XX=   108.2151   YX=   -20.6785   ZX=   -89.8160
   XY=   -15.5805   YY=    26.4545   ZY=    66.7207
   XZ=   -69.3388   YZ=    56.2356   ZZ=    55.1490
   Eigenvalues:   -34.3548    41.2832   182.8901
     22  C    Isotropic =    22.6834   Anisotropy =   142.6591
   XX=    35.8492   YX=   -40.0088   ZX=   -89.1192
   XY=   -33.3703   YY=    27.3209   ZY=     5.2144
   XZ=   -78.3597   YZ=     9.7643   ZZ=     4.8800
   Eigenvalues:   -68.3040    18.5647   117.7894
     23  C    Isotropic =    45.1108   Anisotropy =   163.1964
   XX=    92.6439   YX=   -60.8259   ZX=   -46.1463
   XY=   -64.4343   YY=   -17.4428   ZY=    10.0662
   XZ=   -64.3175   YZ=    14.4204   ZZ=    60.1312
   Eigenvalues:   -47.2918    28.7157   153.9083
     24  C    Isotropic =    45.1848   Anisotropy =   164.1746
   XX=    91.8635   YX=   -72.5929   ZX=    35.5712
   XY=   -74.8905   YY=    -9.6306   ZY=   -21.3689
   XZ=    51.2669   YZ=   -25.3957   ZZ=    53.3216
   Eigenvalues:   -48.4022    29.3222   154.6346
     25  C    Isotropic =    18.3712   Anisotropy =   144.3308
   XX=    35.8366   YX=   -45.1292   ZX=    82.4820
   XY=   -46.3853   YY=    17.4771   ZY=    -4.8784
   XZ=    72.3824   YZ=    -6.8425   ZZ=     1.7999
   Eigenvalues:   -68.0829     8.6048   114.5918
     26  C    Isotropic =    59.0456   Anisotropy =   166.3730
   XX=   105.5119   YX=   -26.7199   ZX=    75.9453
   XY=   -29.4065   YY=    42.6765   ZY=   -63.7943
   XZ=    59.3745   YZ=   -56.7538   ZZ=    28.9483
   Eigenvalues:   -34.3352    41.5110   169.9609
     27  C    Isotropic =    51.0989   Anisotropy =   187.1865
   XX=    98.9302   YX=   -76.4436   ZX=    51.8588
   XY=   -78.8274   YY=   -15.7492   ZY=   -43.2231
   XZ=    46.7746   YZ=   -40.6377   ZZ=    70.1157
   Eigenvalues:   -57.0901    34.4969   175.8899
     28  C    Isotropic =    48.7616   Anisotropy =   194.8566
   XX=    76.3713   YX=   -73.3669   ZX=    90.2110
   XY=   -76.1699   YY=    41.1649   ZY=    -6.0501
   XZ=    89.6192   YZ=   -15.7790   ZZ=    28.7486
   Eigenvalues:   -58.0004    25.6193   178.6660
     29  C    Isotropic =    39.4800   Anisotropy =   187.8006
   XX=    98.1860   YX=   -30.9727   ZX=    70.1495
   XY=   -58.6963   YY=     7.7418   ZY=   -48.8740
   XZ=    69.3991   YZ=   -57.0729   ZZ=    12.5122
   Eigenvalues:   -45.8998    -0.3406   164.6803
     30  C    Isotropic =    47.6869   Anisotropy =   172.8831
   XX=   -14.3677   YX=   -30.2227   ZX=    11.5265
   XY=   -39.6498   YY=    48.8279   ZY=    87.1343
   XZ=     7.4971   YZ=    68.5666   ZZ=   108.6004
   Eigenvalues:   -44.4390    24.5573   162.9422
     31  C    Isotropic =    43.9093   Anisotropy =   183.6982
   XX=   -36.5556   YX=     8.8268   ZX=   -29.7913
   XY=    18.0915   YY=    75.2170   ZY=    73.4048
   XZ=   -36.4938   YZ=    87.5621   ZZ=    93.0666
   Eigenvalues:   -55.3290    20.6821   166.3748
     32  C    Isotropic =    29.2159   Anisotropy =   197.7742
   XX=   -19.1149   YX=    -5.8536   ZX=   -19.0774
   XY=    -8.6227   YY=    29.4301   ZY=   103.5583
   XZ=   -16.2550   YZ=   102.5828   ZZ=    77.3326
   Eigenvalues:   -53.3034   -20.1142   161.0654
     33  C    Isotropic =    54.4662   Anisotropy =   175.9828
   XX=   -10.9316   YX=   -43.9012   ZX=    10.8048
   XY=   -35.7737   YY=    61.3602   ZY=    80.0830
   XZ=     3.2405   YZ=    77.3402   ZZ=   112.9701
   Eigenvalues:   -41.3712    32.9817   171.7881
     34  C    Isotropic =    30.2966   Anisotropy =   195.8490
   XX=   -46.2907   YX=     0.4705   ZX=   -25.6915
   XY=    -2.6588   YY=    46.1279   ZY=    85.9388
   XZ=   -24.0637   YZ=    88.9150   ZZ=    91.0527
   Eigenvalues:   -54.5240   -15.4488   160.8627
     35  C    Isotropic =    51.1028   Anisotropy =   183.3237
   XX=    28.3504   YX=    -0.4663   ZX=   -16.5951
   XY=     5.9571   YY=    32.6043   ZY=   104.9768
   XZ=   -12.6858   YZ=   107.0556   ZZ=    92.3539
   Eigenvalues:   -49.2421    29.2320   173.3187
     36  C    Isotropic =    52.5621   Anisotropy =   170.8233
   XX=   118.2739   YX=    22.6192   ZX=   -71.9007
   XY=    24.0219   YY=   -30.4694   ZY=    18.0605
   XZ=   -63.2724   YZ=    11.5005   ZZ=    69.8818
   Eigenvalues:   -41.2504    32.4923   166.4443
     37  C    Isotropic =    51.1308   Anisotropy =   184.7416
   XX=   127.7602   YX=   -16.7494   ZX=   -75.6291
   XY=    -6.0721   YY=   -16.9223   ZY=   -39.6191
   XZ=   -79.2626   YZ=   -44.6187   ZZ=    42.5545
   Eigenvalues:   -53.0409    32.1414   174.2919
     38  C    Isotropic =    30.6213   Anisotropy =   201.0796
   XX=    97.2259   YX=    11.9742   ZX=   -99.6226
   XY=    11.0833   YY=   -16.6804   ZY=    -2.2847
   XZ=  -102.6872   YZ=     2.4540   ZZ=    11.3184
   Eigenvalues:   -56.6705   -16.1400   164.6744
     39  C    Isotropic =    50.2780   Anisotropy =   188.1052
   XX=   124.1071   YX=    22.6997   ZX=   -73.0678
   XY=    21.3303   YY=   -40.8927   ZY=    15.2736
   XZ=   -75.3355   YZ=    15.1790   ZZ=    67.6196
   Eigenvalues:   -50.6289    25.7815   175.6815
     40  C    Isotropic =    27.9566   Anisotropy =   203.3348
   XX=   100.1168   YX=    -8.0873   ZX=   -90.6817
   XY=    -7.5972   YY=   -44.7618   ZY=   -14.2618
   XZ=   -94.2567   YZ=   -18.7461   ZZ=    28.5147
   Eigenvalues:   -58.5417   -21.1016   163.5131
     41  C    Isotropic =    43.7698   Anisotropy =   180.8697
   XX=    93.4082   YX=     8.6836   ZX=  -106.2367
   XY=     7.3002   YY=    20.9371   ZY=     3.8388
   XZ=   -98.2353   YZ=    13.8541   ZZ=    16.9642
   Eigenvalues:   -55.7836    22.7434   164.3496
     42  C    Isotropic =   107.3977   Anisotropy =    78.2117
   XX=    79.2154   YX=     5.7218   ZX=    23.1055
   XY=     1.4384   YY=    91.5726   ZY=   -15.4398
   XZ=    20.7564   YZ=   -10.6403   ZZ=   151.4050
   Eigenvalues:    70.5816    92.0726   159.5388
     43  H    Isotropic =    22.5340   Anisotropy =    16.7032
   XX=    20.7098   YX=     7.3179   ZX=     4.1823
   XY=     6.2160   YY=    24.9977   ZY=     4.2795
   XZ=     4.1458   YZ=     6.0184   ZZ=    21.8946
   Eigenvalues:    15.7226    18.2100    33.6695
     44  H    Isotropic =    23.6761   Anisotropy =    14.5354
   XX=    25.1724   YX=    -3.2233   ZX=    -4.5567
   XY=    -4.2452   YY=    21.7690   ZY=     5.2845
   XZ=    -5.4779   YZ=     5.8171   ZZ=    24.0868
   Eigenvalues:    17.2416    20.4203    33.3663
     45  H    Isotropic =    23.7911   Anisotropy =    17.7042
   XX=    34.6181   YX=     5.8819   ZX=     1.7500
   XY=     1.2529   YY=    18.5141   ZY=     1.9407
   XZ=     0.7068   YZ=     5.0578   ZZ=    18.2412
   Eigenvalues:    14.7376    21.0419    35.5940
     46  H    Isotropic =    24.0212   Anisotropy =    14.7156
   XX=    25.9251   YX=    -5.0827   ZX=    -2.6222
   XY=    -3.9000   YY=    19.7595   ZY=     4.0624
   XZ=    -4.2110   YZ=     8.6511   ZZ=    26.3789
   Eigenvalues:    15.4087    22.8233    33.8315
     47  H    Isotropic =    23.8325   Anisotropy =    13.9262
   XX=    22.6106   YX=     2.2735   ZX=    -5.6785
   XY=     2.4583   YY=    23.3835   ZY=    -4.8333
   XZ=    -5.4736   YZ=    -5.7421   ZZ=    25.5035
   Eigenvalues:    17.6916    20.6893    33.1167
     48  H    Isotropic =    22.1153   Anisotropy =    15.0162
   XX=    17.2248   YX=    -0.6172   ZX=     1.5558
   XY=    -0.7337   YY=    31.9155   ZY=     1.8940
   XZ=    -0.8885   YZ=     1.4128   ZZ=    17.2056
   Eigenvalues:    16.6948    17.5251    32.1261
     49  H    Isotropic =    24.6174   Anisotropy =    11.6066
   XX=    22.8331   YX=     0.4073   ZX=     2.0882
   XY=    -4.6431   YY=    26.9686   ZY=    -5.8377
   XZ=     3.6731   YZ=    -4.9701   ZZ=    24.0507
   Eigenvalues:    19.4844    22.0127    32.3552
     50  H    Isotropic =    24.4552   Anisotropy =     4.0962
   XX=    24.3722   YX=     0.4370   ZX=     1.4111
   XY=    -0.5404   YY=    23.5348   ZY=    -1.4868
   XZ=     1.4451   YZ=    -2.2869   ZZ=    25.4585
   Eigenvalues:    22.1204    24.0591    27.1860
     51  H    Isotropic =    24.7050   Anisotropy =     4.9059
   XX=    24.2798   YX=     3.0961   ZX=    -0.5114
   XY=     2.2144   YY=    25.1266   ZY=     1.6012
   XZ=     1.2888   YZ=     1.3256   ZZ=    24.7085
   Eigenvalues:    21.8451    24.2942    27.9756
     52  H    Isotropic =    24.8569   Anisotropy =     4.5981
   XX=    24.8522   YX=     2.2533   ZX=     1.2851
   XY=     2.6578   YY=    25.8713   ZY=    -0.8748
   XZ=    -0.7367   YZ=    -0.7505   ZZ=    23.8470
   Eigenvalues:    22.4627    24.1856    27.9223
     53  H    Isotropic =    24.5144   Anisotropy =     4.5414
   XX=    24.3544   YX=     0.8987   ZX=    -1.3182
   XY=    -0.0186   YY=    22.7445   ZY=     1.1996
   XZ=    -1.6790   YZ=     1.9432   ZZ=    26.4444
   Eigenvalues:    21.7859    24.2154    27.5420
     54  H    Isotropic =    24.7738   Anisotropy =    11.5676
   XX=    22.7193   YX=     0.4828   ZX=    -1.5780
   XY=    -3.8373   YY=    25.2131   ZY=     6.0802
   XZ=    -4.3202   YZ=     4.9669   ZZ=    26.3890
   Eigenvalues:    19.9547    21.8811    32.4855
     55  H    Isotropic =    22.4962   Anisotropy =    16.8862
   XX=    20.3755   YX=     7.8148   ZX=    -2.8720
   XY=     6.8491   YY=    26.8866   ZY=    -3.6345
   XZ=    -2.7301   YZ=    -5.4386   ZZ=    20.2266
   Eigenvalues:    15.6034    18.1316    33.7537
     56  H    Isotropic =    23.6814   Anisotropy =    14.5663
   XX=    25.5813   YX=    -4.0934   ZX=     3.9463
   XY=    -5.2263   YY=    23.4428   ZY=    -5.2117
   XZ=     4.6831   YZ=    -5.6958   ZZ=    22.0203
   Eigenvalues:    17.2256    20.4264    33.3923
     57  H    Isotropic =    23.7717   Anisotropy =    17.6387
   XX=    34.4460   YX=     6.1107   ZX=    -1.0291
   XY=     1.5575   YY=    19.6485   ZY=    -1.8129
   XZ=    -0.6854   YZ=    -4.9535   ZZ=    17.2206
   Eigenvalues:    14.7139    21.0704    35.5309
     58  H    Isotropic =    24.0618   Anisotropy =    14.9449
   XX=    26.1985   YX=    -5.6389   ZX=     1.8540
   XY=    -4.3044   YY=    21.8941   ZY=    -4.7476
   XZ=     3.9884   YZ=    -9.3555   ZZ=    24.0928
   Eigenvalues:    15.4529    22.7075    34.0251
     59  H    Isotropic =    23.6296   Anisotropy =    13.7173
   XX=    23.5507   YX=     1.5662   ZX=     5.8297
   XY=     2.1558   YY=    20.7409   ZY=     4.0862
   XZ=     5.7877   YZ=     4.4085   ZZ=    26.5972
   Eigenvalues:    18.0075    20.1068    32.7745
     60  H    Isotropic =    22.4102   Anisotropy =    14.8561
   XX=    17.3642   YX=    -0.0248   ZX=    -1.0030
   XY=    -0.1425   YY=    32.2616   ZY=     0.8627
   XZ=     1.4078   YZ=     0.8909   ZZ=    17.6047
   Eigenvalues:    17.2307    17.6856    32.3143
     61  H    Isotropic =    27.7533   Anisotropy =     7.6035
   XX=    23.7309   YX=    -0.4195   ZX=     2.9264
   XY=     1.2121   YY=    27.7862   ZY=    -0.6203
   XZ=     3.1932   YZ=     1.3517   ZZ=    31.7429
   Eigenvalues:    22.6829    27.7548    32.8224
     62  Cl   Isotropic =   852.2169   Anisotropy =   498.7363
   XX=   716.0753   YX=    87.5535   ZX=   150.6740
   XY=   197.2184   YY=  1139.9720   ZY=   -55.7813
   XZ=   138.8951   YZ=   -83.1010   ZZ=   700.6034
   Eigenvalues:   526.8871   845.0559  1184.7078
     63  Cl   Isotropic =   848.1922   Anisotropy =   501.6369
   XX=   707.4936   YX=   111.0048   ZX=  -137.0585
   XY=   218.7121   YY=  1099.8510   ZY=   133.3319
   XZ=  -103.7005   YZ=   156.1751   ZZ=   737.2319
   Eigenvalues:   518.3039   843.6559  1182.6167
     64  C    Isotropic =   153.1450   Anisotropy =    25.7893
   XX=   138.2518   YX=   -14.1556   ZX=    -3.0402
   XY=    -6.5133   YY=   163.2377   ZY=    -9.8378
   XZ=    -0.9241   YZ=    -5.0444   ZZ=   157.9456
   Eigenvalues:   133.6967   155.4005   170.3379
     65  C    Isotropic =   113.1139   Anisotropy =    61.0842
   XX=    95.3582   YX=    -8.9836   ZX=   -15.9932
   XY=    -9.1591   YY=    92.7313   ZY=    -8.0859
   XZ=    -7.1206   YZ=    -3.9702   ZZ=   151.2523
   Eigenvalues:    82.6999   102.8052   153.8367
     66  H    Isotropic =    27.0660   Anisotropy =     7.2139
   XX=    22.8627   YX=    -2.6572   ZX=    -1.8823
   XY=    -1.9384   YY=    28.6393   ZY=    -1.3630
   XZ=    -1.0211   YZ=    -3.9185   ZZ=    29.6961
   Eigenvalues:    21.4142    27.9086    31.8753
     67  H    Isotropic =    29.2750   Anisotropy =     3.8999
   XX=    29.6923   YX=    -0.2209   ZX=    -2.8594
   XY=     1.2069   YY=    28.1839   ZY=     0.9914
   XZ=    -1.2379   YZ=    -0.2821   ZZ=    29.9486
   Eigenvalues:    27.3383    28.6116    31.8749
     68  H    Isotropic =    30.2580   Anisotropy =    12.6341
   XX=    25.6506   YX=    -2.0862   ZX=    -2.8853
   XY=    -0.7699   YY=    27.4732   ZY=    -2.5544
   XZ=    -2.8212   YZ=    -2.3063   ZZ=    37.6501
   Eigenvalues:    23.8801    28.2131    38.6807
     69  C    Isotropic =   152.2073   Anisotropy =    44.4485
   XX=   150.2936   YX=   -12.1311   ZX=    15.0176
   XY=   -12.2214   YY=   138.7536   ZY=    -9.4672
   XZ=    18.7546   YZ=    -5.8248   ZZ=   167.5746
   Eigenvalues:   130.7794   144.0028   181.8396
     70  C    Isotropic =   146.0089   Anisotropy =    11.6113
   XX=   140.8195   YX=    -0.5538   ZX=     0.6062
   XY=    -2.6687   YY=   148.1236   ZY=     4.9497
   XZ=    -3.3580   YZ=     4.6112   ZZ=   149.0836
   Eigenvalues:   140.4565   143.8205   153.7498
     71  C    Isotropic =   151.7251   Anisotropy =    44.8382
   XX=   143.8024   YX=    13.9354   ZX=    -7.8604
   XY=    17.0284   YY=   172.9336   ZY=    -6.5036
   XZ=    -6.7084   YZ=    -7.3274   ZZ=   138.4392
   Eigenvalues:   132.9109   140.6471   181.6172
     72  C    Isotropic =   155.6781   Anisotropy =    33.2670
   XX=   176.5196   YX=    -0.1499   ZX=    -2.6602
   XY=    -5.5978   YY=   144.0213   ZY=     2.0090
   XZ=    -8.7430   YZ=     1.3777   ZZ=   146.4933
   Eigenvalues:   143.1608   146.0173   177.8561
     73  H    Isotropic =    30.0466   Anisotropy =     6.5386
   XX=    28.0141   YX=     0.9226   ZX=     2.5273
   XY=     1.5136   YY=    30.5543   ZY=    -4.4033
   XZ=     1.6517   YZ=    -1.9735   ZZ=    31.5715
   Eigenvalues:    25.6039    30.1303    34.4057
     74  H    Isotropic =    30.2794   Anisotropy =    10.8216
   XX=    28.3581   YX=     0.8072   ZX=     3.1354
   XY=     0.1932   YY=    27.0466   ZY=     1.9839
   XZ=     2.7733   YZ=     4.4789   ZZ=    35.4334
   Eigenvalues:    25.8133    27.5311    37.4938
     75  H    Isotropic =    29.9585   Anisotropy =     8.2924
   XX=    34.5355   YX=    -1.3263   ZX=     0.7410
   XY=    -3.0905   YY=    25.4410   ZY=    -0.0045
   XZ=     2.8875   YZ=     1.9589   ZZ=    29.8989
   Eigenvalues:    24.5709    29.8178    35.4868
     76  H    Isotropic =    30.1913   Anisotropy =     6.8229
   XX=    28.8251   YX=     0.7598   ZX=     1.3880
   XY=    -0.0566   YY=    33.0918   ZY=    -2.2382
   XZ=     2.1536   YZ=    -3.9842   ZZ=    28.6569
   Eigenvalues:    25.9835    29.8504    34.7399
     77  H    Isotropic =    29.6943   Anisotropy =     8.2248
   XX=    33.4145   YX=     1.3571   ZX=    -2.2269
   XY=     3.7160   YY=    29.8108   ZY=     1.5764
   XZ=    -3.2648   YZ=     0.4396   ZZ=    25.8575
   Eigenvalues:    24.3588    29.5465    35.1775
     78  H    Isotropic =    30.1099   Anisotropy =    10.3635
   XX=    27.9828   YX=     2.3699   ZX=     1.0247
   XY=     2.2446   YY=    34.2109   ZY=     5.1742
   XZ=     0.6506   YZ=     3.2382   ZZ=    28.1359
   Eigenvalues:    25.9229    27.3879    37.0188
     79  H    Isotropic =    29.7109   Anisotropy =    11.2379
   XX=    33.7606   YX=    -1.9849   ZX=     5.6581
   XY=    -2.5303   YY=    28.4072   ZY=     1.0206
   XZ=     5.5063   YZ=     0.4126   ZZ=    26.9650
   Eigenvalues:    23.2274    28.7026    37.2028
     80  H    Isotropic =    30.2821   Anisotropy =     8.0953
   XX=    29.8556   YX=    -0.9036   ZX=    -0.9714
   XY=    -0.5948   YY=    29.3420   ZY=     4.7051
   XZ=    -0.4158   YZ=     5.0433   ZZ=    31.6487
   Eigenvalues:    25.4807    29.6866    35.6789
     81  H    Isotropic =    29.1340   Anisotropy =     9.2770
   XX=    30.4062   YX=     5.8909   ZX=     0.0738
   XY=     4.9822   YY=    29.2620   ZY=     0.4480
   XZ=    -0.7444   YZ=     1.3970   ZZ=    27.7338
   Eigenvalues:    24.1366    27.9467    35.3187
     82  C    Isotropic =   156.5966   Anisotropy =    36.2346
   XX=   163.6462   YX=    15.7333   ZX=    16.3807
   XY=     9.5924   YY=   153.2430   ZY=     8.6712
   XZ=     9.1366   YZ=     8.9131   ZZ=   152.9005
   Eigenvalues:   144.2248   144.8120   180.7530
     83  C    Isotropic =   146.8834   Anisotropy =    14.8946
   XX=   156.2688   YX=     0.6446   ZX=    -0.4733
   XY=    -3.1071   YY=   142.5600   ZY=    -1.3568
   XZ=    -4.8728   YZ=    -1.4847   ZZ=   141.8215
   Eigenvalues:   140.2067   143.6304   156.8131
     84  C    Isotropic =   152.4489   Anisotropy =    41.9323
   XX=   146.8029   YX=    -6.7236   ZX=    -0.0414
   XY=    -5.4773   YY=   179.1677   ZY=    -1.4548
   XZ=     2.8929   YZ=    -3.0437   ZZ=   131.3761
   Eigenvalues:   131.1831   145.7598   180.4037
     85  C    Isotropic =   150.7144   Anisotropy =    42.4278
   XX=   142.9733   YX=     1.9367   ZX=    -1.8709
   XY=     4.4264   YY=   131.9738   ZY=   -10.7924
   XZ=    -1.3527   YZ=    -6.9153   ZZ=   177.1961
   Eigenvalues:   129.6957   143.4479   178.9996
     86  H    Isotropic =    29.9174   Anisotropy =     8.6849
   XX=    30.7852   YX=     0.3969   ZX=     3.6483
   XY=    -1.1024   YY=    25.8316   ZY=     1.8889
   XZ=     3.0974   YZ=     1.7994   ZZ=    33.1355
   Eigenvalues:    25.1092    28.9357    35.7074
     87  H    Isotropic =    30.4112   Anisotropy =    10.1989
   XX=    37.1451   YX=     0.4695   ZX=    -0.8327
   XY=     0.5196   YY=    26.9310   ZY=     1.4722
   XZ=    -0.5995   YZ=     1.7805   ZZ=    27.1574
   Eigenvalues:    25.3526    28.6705    37.2105
     88  H    Isotropic =    29.8990   Anisotropy =     8.5522
   XX=    30.0808   YX=     3.4752   ZX=     0.1779
   XY=     2.7155   YY=    33.3644   ZY=     2.2197
   XZ=    -1.3504   YZ=     2.7484   ZZ=    26.2518
   Eigenvalues:    24.9537    29.1429    35.6005
     89  H    Isotropic =    30.3617   Anisotropy =    10.7417
   XX=    34.1433   YX=     2.5954   ZX=     2.6674
   XY=     2.4629   YY=    31.6327   ZY=     4.3686
   XZ=     4.0872   YZ=     2.4645   ZZ=    25.3093
   Eigenvalues:    23.3554    30.2070    37.5229
     90  H    Isotropic =    30.5731   Anisotropy =     6.7619
   XX=    29.6787   YX=    -0.0917   ZX=     1.4032
   XY=    -2.0951   YY=    31.5736   ZY=    -3.2283
   XZ=     2.8339   YZ=    -2.9659   ZZ=    30.4670
   Eigenvalues:    27.3490    29.2893    35.0810
     91  H    Isotropic =    30.5641   Anisotropy =     9.6663
   XX=    34.4708   YX=    -2.6622   ZX=    -1.1537
   XY=    -4.5724   YY=    30.9530   ZY=     2.6751
   XZ=    -0.0544   YZ=     1.7749   ZZ=    26.2685
   Eigenvalues:    25.2958    29.3882    37.0083
     92  H    Isotropic =    30.0158   Anisotropy =     9.7944
   XX=    33.1144   YX=     3.7862   ZX=     2.2136
   XY=     3.1464   YY=    25.5523   ZY=     0.7821
   XZ=     2.5067   YZ=     4.7498   ZZ=    31.3808
   Eigenvalues:    23.7588    29.7433    36.5454
     93  H    Isotropic =    30.3640   Anisotropy =     9.5480
   XX=    33.2402   YX=     0.4260   ZX=    -3.2294
   XY=     0.9801   YY=    25.9533   ZY=     0.2571
   XZ=    -4.9750   YZ=     1.9775   ZZ=    31.8983
   Eigenvalues:    25.3860    28.9765    36.7293
     94  H    Isotropic =    30.4625   Anisotropy =     6.1351
   XX=    29.1908   YX=     0.6558   ZX=     0.5133
   XY=     1.5293   YY=    31.6825   ZY=    -3.3738
   XZ=    -1.5627   YZ=    -2.9103   ZZ=    30.5143
   Eigenvalues:    27.8270    29.0080    34.5526
     95  C    Isotropic =   151.7110   Anisotropy =    45.7053
   XX=   169.5053   YX=   -22.2461   ZX=     0.4172
   XY=   -18.4239   YY=   147.9257   ZY=    -6.8405
   XZ=     2.6178   YZ=    -5.3052   ZZ=   137.7021
   Eigenvalues:   132.0065   140.9453   182.1813
     96  C    Isotropic =   146.4244   Anisotropy =    12.0700
   XX=   148.9644   YX=     0.4744   ZX=    -4.7720
   XY=    -1.3094   YY=   139.9816   ZY=     0.3389
   XZ=    -4.7012   YZ=    -3.0642   ZZ=   150.3271
   Eigenvalues:   139.6622   145.1399   154.4710
     97  C    Isotropic =   153.2445   Anisotropy =    41.6631
   XX=   148.6165   YX=    14.2309   ZX=    13.3000
   XY=    14.1696   YY=   147.1970   ZY=    11.2570
   XZ=    11.6778   YZ=    14.6263   ZZ=   163.9202
   Eigenvalues:   133.6575   145.0562   181.0199
     98  C    Isotropic =   156.6403   Anisotropy =    31.9200
   XX=   147.5965   YX=     9.1395   ZX=    -1.9793
   XY=     5.0879   YY=   174.1230   ZY=    -4.6730
   XZ=    -1.9694   YZ=   -10.2731   ZZ=   148.2014
   Eigenvalues:   145.7887   146.2119   177.9203
     99  H    Isotropic =    30.2859   Anisotropy =     8.4369
   XX=    34.7079   YX=    -0.4848   ZX=     1.9168
   XY=    -0.8430   YY=    28.0885   ZY=     1.6838
   XZ=     4.2253   YZ=     2.1640   ZZ=    28.0614
   Eigenvalues:    25.3495    29.5977    35.9105
    100  H    Isotropic =    30.2878   Anisotropy =    11.2054
   XX=    33.3678   YX=    -3.3402   ZX=    -5.7815
   XY=    -3.0448   YY=    28.3051   ZY=     2.0541
   XZ=    -3.4481   YZ=     1.5313   ZZ=    29.1906
   Eigenvalues:    26.1540    26.9513    37.7581
    101  H    Isotropic =    29.8101   Anisotropy =     7.9420
   XX=    29.6988   YX=    -4.0943   ZX=    -2.4763
   XY=    -0.9719   YY=    33.6147   ZY=    -2.0037
   XZ=    -0.9798   YZ=    -2.8138   ZZ=    26.1168
   Eigenvalues:    24.2916    30.0340    35.1048
    102  H    Isotropic =    30.0492   Anisotropy =     7.2639
   XX=    32.6078   YX=    -4.0122   ZX=     2.6522
   XY=    -2.6940   YY=    28.7778   ZY=     1.7299
   XZ=     2.1751   YZ=     1.2276   ZZ=    28.7619
   Eigenvalues:    25.0632    30.1926    34.8918
    103  H    Isotropic =    29.8726   Anisotropy =     6.8898
   XX=    27.0829   YX=     3.2119   ZX=    -0.4502
   XY=     1.8925   YY=    33.4565   ZY=     0.0975
   XZ=    -0.9086   YZ=     2.0171   ZZ=    29.0784
   Eigenvalues:    25.8734    29.2786    34.4658
[...]
                                                    782(g)
  2872. BD*(   1) C  19 - H  49          0.01612     0.41499   
  2873. BD*(   1) C  20 - C  21          0.01304     0.53326   
  2874. BD*(   1) C  20 - H  50          0.01366     0.39390   
  2875. BD*(   1) C  21 - C  22          0.03169     0.51011   
  2876. BD*(   2) C  21 - C  22          0.36134     0.01407  2869(v),2871(v),2836(v)
                                                    835(g)
  2877. BD*(   1) C  21 - H  51          0.01420     0.38702   
  2878. BD*(   1) C  22 - C  23          0.04141     0.49361   
  2879. BD*(   1) C  23 - C  24          0.02964     0.42064   
  2880. BD*(   1) C  24 - C  25          0.04401     0.49752   
  2881. BD*(   2) C  24 - C  25          0.37324     0.02071  2890(v),2885(v),2869(v)
                                                    2855(r),2878(v),2868(v)
                                                    2838(v),939(g)
  2882. BD*(   1) C  24 - C  29          0.03259     0.50866   
  2883. BD*(   1) C  25 - C  26          0.03206     0.51468   
  2884. BD*(   1) C  26 - C  27          0.01325     0.53731   
  2885. BD*(   2) C  26 - C  27          0.34009     0.01746  2890(v),2881(v),991(g)
                                                    965(g)
  2886. BD*(   1) C  26 - H  52          0.01326     0.38808   
  2887. BD*(   1) C  27 - C  28          0.01543     0.53817   
  2888. BD*(   1) C  27 - H  53          0.01367     0.39519   
  2889. BD*(   1) C  28 - C  29          0.02208     0.51644   
  2890. BD*(   2) C  28 - C  29          0.37229     0.01800  2885(v),2881(v),1016(g)
                                                    2834(v),2908(r)
  2891. BD*(   1) C  28 - H  54          0.01604     0.41750   
  2892. BD*(   1) C  30 - C  31          0.02343     0.54202   
  2893. BD*(   1) C  30 - C  35          0.02628     0.55623   
  2894. BD*(   2) C  30 - C  35          0.36222     0.03452  2901(v),2896(v),2832(v)
                                                    1198(g),1070(g)
  2895. BD*(   1) C  31 - C  32          0.02618     0.56923   
  2896. BD*(   2) C  31 - C  32          0.30220     0.05472  2901(v),2894(v),1094(g)
                                                    2981(v),2980(v),1121(g)
  2897. BD*(   1) C  31 - H  55          0.01743     0.45506   
  2898. BD*(   1) C  32 - C  33          0.02277     0.54429   
  2899. BD*(   1) C  32 - C 122          0.03994     0.38638   
  2900. BD*(   1) C  33 - C  34          0.02286     0.56006   
  2901. BD*(   2) C  33 - C  34          0.31489     0.04835  2896(v),2894(v),1146(g)
                                                    2988(v),2993(v)
  2902. BD*(   1) C  33 - H  56          0.01795     0.42045   
  2903. BD*(   1) C  34 - C  35          0.02403     0.54256   
  2904. BD*(   1) C  34 - C 135          0.03967     0.37875   
  2905. BD*(   1) C  35 - H  57          0.01978     0.42230   
  2906. BD*(   1) C  36 - C  37          0.02774     0.53201   
  2907. BD*(   1) C  36 - C  41          0.02373     0.53959   
  2908. BD*(   2) C  36 - C  41          0.36945     0.03175  2915(v),2910(v),2869(r)
                                                    1354(g),2833(v),2832(v)
                                                    2890(r)
  2909. BD*(   1) C  37 - C  38          0.02574     0.54393   
  2910. BD*(   2) C  37 - C  38          0.33155     0.04065  2915(v),2908(v),1250(g)
                                                    3000(v),3004(v),1277(g)
  2911. BD*(   1) C  37 - H  58          0.01747     0.41972   
  2912. BD*(   1) C  38 - C  39          0.02285     0.53907   
  2913. BD*(   1) C  38 - C 148          0.04002     0.37374   
  2914. BD*(   1) C  39 - C  40          0.02263     0.54260   
  2915. BD*(   2) C  39 - C  40          0.32612     0.04091  2910(v),2908(v),1302(g)
                                                    3012(v),3017(v),1329(g)
  2916. BD*(   1) C  39 - H  59          0.01827     0.40777   
  2917. BD*(   1) C  40 - C  41          0.02591     0.55361   
  2918. BD*(   1) C  40 - C 161          0.03988     0.37907   
  2919. BD*(   1) C  41 - H  60          0.01823     0.44764   
  2920. BD*(   1) C  42 - H  61          0.02235     0.32292   
  2921. BD*(   1) C  42 - C  64          0.02443     0.32148   
  2922. BD*(   1) C  42 - H 174          0.02169     0.32782   
  2923. BD*(   1) C  64 - C  65          0.02725     0.32168   
  2924. BD*(   1) C  64 - H  67          0.01563     0.33523   
  2925. BD*(   1) C  64 - H  68          0.00903     0.32746   
  2926. BD*(   1) C  65 - H  66          0.02683     0.32061   
  2927. BD*(   1) C  65 - H 173          0.01868     0.32795   
  2928. BD*(   1) C  69 - C  70          0.02424     0.34004   
  2929. BD*(   1) C  69 - H  73          0.00625     0.39926   
  2930. BD*(   1) C  69 - H  74          0.00751     0.38721   
  2931. BD*(   1) C  69 - H  75          0.00686     0.39028   
  2932. BD*(   1) C  70 - C  71          0.02448     0.33855   
  2933. BD*(   1) C  70 - C  72          0.02006     0.35222   
  2934. BD*(   1) C  71 - H  76          0.00689     0.38455   
  2935. BD*(   1) C  71 - H  77          0.00705     0.38633   
  2936. BD*(   1) C  71 - H  78          0.00769     0.38334   
  2937. BD*(   1) C  72 - H  79          0.00761     0.39498   
  2938. BD*(   1) C  72 - H  80          0.00677     0.39456   
  2939. BD*(   1) C  72 - H  81          0.00681     0.40652   
  2940. BD*(   1) C  82 - C  83          0.02060     0.34036   
  2941. BD*(   1) C  82 - H  86          0.00719     0.38002   
  2942. BD*(   1) C  82 - H  87          0.00702     0.38209   
  2943. BD*(   1) C  82 - H  88          0.00737     0.37799   
  2944. BD*(   1) C  83 - C  84          0.02406     0.33164   
  2945. BD*(   1) C  83 - C  85          0.02462     0.32910   
  2946. BD*(   1) C  84 - H  89          0.00671     0.38632   
  2947. BD*(   1) C  84 - H  90          0.00647     0.38641   
  2948. BD*(   1) C  84 - H  91          0.00754     0.37791   
  2949. BD*(   1) C  85 - H  92          0.00731     0.38196   
  2950. BD*(   1) C  85 - H  93          0.00791     0.37570   
  2951. BD*(   1) C  85 - H  94          0.00680     0.37996   
  2952. BD*(   1) C  95 - C  96          0.02415     0.32691   
  2953. BD*(   1) C  95 - H  99          0.00667     0.37686   
  2954. BD*(   1) C  95 - H 100          0.00765     0.37244   
  2955. BD*(   1) C  95 - H 101          0.00683     0.37821   
  2956. BD*(   1) C  96 - C  97          0.02505     0.32448   
  2957. BD*(   1) C  96 - C  98          0.02058     0.33500   
  2958. BD*(   1) C  97 - H 102          0.00735     0.37978   
  2959. BD*(   1) C  97 - H 103          0.00699     0.37596   
  2960. BD*(   1) C  97 - H 104          0.00794     0.37041   
  2961. BD*(   1) C  98 - H 105          0.00793     0.38470   
  2962. BD*(   1) C  98 - H 106          0.00705     0.37709   
  2963. BD*(   1) C  98 - H 107          0.00795     0.37608   
  2964. BD*(   1) C 108 - C 109          0.02097     0.34162   
  2965. BD*(   1) C 108 - H 112          0.00755     0.37630   
  2966. BD*(   1) C 108 - H 113          0.00697     0.38340   
  2967. BD*(   1) C 108 - H 114          0.00735     0.37846   
  2968. BD*(   1) C 109 - C 110          0.02347     0.33671   
  2969. BD*(   1) C 109 - C 111          0.02446     0.33192   
  2970. BD*(   1) C 110 - H 115          0.00640     0.40216   
  2971. BD*(   1) C 110 - H 116          0.00644     0.38852   
  2972. BD*(   1) C 110 - H 117          0.00726     0.38411   
  2973. BD*(   1) C 111 - H 118          0.00698     0.39197   
  2974. BD*(   1) C 111 - H 119          0.00723     0.38511   
  2975. BD*(   1) C 111 - H 120          0.00780     0.38072   
  2976. BD*(   1) C 121 - C 122          0.02007     0.35173   
  2977. BD*(   1) C 121 - H 125          0.00774     0.39435   
  2978. BD*(   1) C 121 - H 126          0.00677     0.39456   
  2979. BD*(   1) C 121 - H 127          0.00680     0.40656   
  2980. BD*(   1) C 122 - C 123          0.02414     0.33997   
  2981. BD*(   1) C 122 - C 124          0.02455     0.33819   
  2982. BD*(   1) C 123 - H 128          0.00691     0.39011   
  2983. BD*(   1) C 123 - H 129          0.00627     0.39856   
  2984. BD*(   1) C 123 - H 130          0.00747     0.38699   
  2985. BD*(   1) C 124 - H 131          0.00702     0.38613   
  2986. BD*(   1) C 124 - H 132          0.00774     0.38315   
  2987. BD*(   1) C 124 - H 133          0.00686     0.38493   
  2988. BD*(   1) C 134 - C 135          0.02465     0.32891   
  2989. BD*(   1) C 134 - H 138          0.00737     0.38173   
  2990. BD*(   1) C 134 - H 139          0.00792     0.37547   
  2991. BD*(   1) C 134 - H 140          0.00680     0.37980   
  2992. BD*(   1) C 135 - C 136          0.02060     0.34018   
  2993. BD*(   1) C 135 - C 137          0.02406     0.33148   
  2994. BD*(   1) C 136 - H 141          0.00718     0.37995   
  2995. BD*(   1) C 136 - H 142          0.00737     0.37786   
  2996. BD*(   1) C 136 - H 143          0.00702     0.38195   
  2997. BD*(   1) C 137 - H 144          0.00647     0.38629   
  2998. BD*(   1) C 137 - H 145          0.00754     0.37774   
  2999. BD*(   1) C 137 - H 146          0.00673     0.38588   
  3000. BD*(   1) C 147 - C 148          0.02427     0.32515   
  3001. BD*(   1) C 147 - H 151          0.00665     0.37574   
  3002. BD*(   1) C 147 - H 152          0.00770     0.37110   
  3003. BD*(   1) C 147 - H 153          0.00675     0.37626   
  3004. BD*(   1) C 148 - C 149          0.02479     0.32294   
  3005. BD*(   1) C 148 - C 150          0.02054     0.33365   
  3006. BD*(   1) C 149 - H 154          0.00727     0.37690   
  3007. BD*(   1) C 149 - H 155          0.00705     0.37406   
  3008. BD*(   1) C 149 - H 156          0.00788     0.36921   
  3009. BD*(   1) C 150 - H 157          0.00769     0.38244   
  3010. BD*(   1) C 150 - H 158          0.00702     0.37591   
  3011. BD*(   1) C 150 - H 159          0.00797     0.37519   
  3012. BD*(   1) C 160 - C 161          0.02448     0.33258   
  3013. BD*(   1) C 160 - H 164          0.00672     0.38060   
  3014. BD*(   1) C 160 - H 165          0.00759     0.37845   
  3015. BD*(   1) C 160 - H 166          0.00641     0.38664   
  3016. BD*(   1) C 161 - C 162          0.02069     0.34390   
  3017. BD*(   1) C 161 - C 163          0.02410     0.32998   
  3018. BD*(   1) C 162 - H 167          0.00723     0.38567   
  3019. BD*(   1) C 162 - H 168          0.00692     0.39495   
  3020. BD*(   1) C 162 - H 169          0.00684     0.38724   
  3021. BD*(   1) C 163 - H 170          0.00733     0.38304   
  3022. BD*(   1) C 163 - H 171          0.00763     0.37703   
  3023. BD*(   1) C 163 - H 172          0.00716     0.37854   
       -------------------------------
              Total Lewis  636.61199  ( 98.2426%)
        Valence non-Lewis   10.35011  (  1.5972%)
        Rydberg non-Lewis    1.03790  (  0.1602%)
       -------------------------------
            Total unit  1  648.00000  (100.0000%)
           Charge unit  1    0.00000
 1\1\GINC-NOTCH134\SP\RPBE1PBE\Gen\C71H96Cl2O2P2Pd1\U1010977\02-Nov-202
 1\0\\# PBE1PBE gen pseudo=read int=(grid=ultrafine) empiricaldispersio
 n=GD3BJ pop=nbo guess=read geom=check\\title\\0,1\Pd,0,-3.9707851488,-
 1.4298745683,1.0012570598\P,0,-5.0561439301,-0.126841147,2.5328676737\
 P,0,-2.2717728185,0.0789979749,0.7475083024\O,0,-1.4776188988,3.474111
 5095,3.7821262411\O,0,-4.1383408813,4.3827000336,3.0816423434\C,0,-6.1
 204959204,-1.1058531543,3.6568506265\C,0,-5.7246358253,-2.4196201571,3
 .9729495735\C,0,-6.4743534027,-3.1899021109,4.8698489225\C,0,-7.624577
 0035,-2.6046450217,5.4472433237\C,0,-8.0418004213,-1.2997021625,5.1462
 370939\C,0,-7.2674733679,-0.5538122698,4.2342239265\C,0,-6.095900528,1
 .1895344333,1.821202771\C,0,-6.5610070495,2.2750928523,2.5892786283\C,
 0,-7.3849224697,3.2467545806,2.0069080916\C,0,-7.7007101604,3.11429213
 63,0.63490943\C,0,-7.2353350877,2.0507715434,-0.1539985146\C,0,-6.4312
 277408,1.0764907971,0.4682053257\C,0,-3.8989315329,0.7155401313,3.7079
 034398\C,0,-3.7373314007,0.1831206083,5.0025530674\C,0,-2.8233156077,0
 .7536866091,5.8950849694\C,0,-2.0632780219,1.8658798562,5.5186561294\C
 ,0,-2.229443252,2.4070192057,4.2370383671\C,0,-3.1318627708,1.83613086
 41,3.3082193051\C,0,-3.2403802279,2.4762268073,1.9650746195\C,0,-3.710
 8107338,3.8079556546,1.9033201607\C,0,-3.8126994476,4.4928207232,0.685
 0731798\C,0,-3.4281061985,3.8503265336,-0.4953114616\C,0,-2.9510796006
 ,2.5350129962,-0.4603183375\C,0,-2.8508714475,1.8395845324,0.760798267
 5\C,0,-1.4761191127,-0.0565188583,-0.8963174539\C,0,-2.2789449354,-0.4
 456915087,-1.9857643475\C,0,-1.7470377078,-0.4912373723,-3.2795285936\
 C,0,-0.3911744464,-0.1291893765,-3.4522359987\C,0,0.431863272,0.253502
 7842,-2.3827229683\C,0,-0.1348647096,0.2835909056,-1.0918165663\C,0,-0
 .9549102505,-0.006410663,2.0043227983\C,0,-0.0152821207,1.0266468587,2
 .1657190516\C,0,1.0010382604,0.9111085525,3.1271110817\C,0,1.015636156
 ,-0.2450864149,3.9326238629\C,0,0.0631297846,-1.2752706312,3.816059814
 7\C,0,-0.917382927,-1.1473504848,2.8194872592\C,0,-3.4932451332,5.5989
 836741,3.5155935291\H,0,-4.8488482902,-2.8376324869,3.4719354517\H,0,-
 8.2184841121,-3.2045782607,6.142154082\H,0,-7.5766833984,0.4577677173,
 3.9591804294\H,0,-6.2453966312,2.3656206855,3.6311890177\H,0,-8.329857
 4837,3.8795137257,0.1715293241\H,0,-6.0532736617,0.2130564052,-0.09017
 59582\H,0,-4.333976795,-0.6779282877,5.3130362117\H,0,-2.7012886525,0.
 3257540112,6.8954477387\H,0,-1.3329007989,2.298910169,6.2080488343\H,0
 ,-4.2123724237,5.5115124806,0.6715329869\H,0,-3.5079486913,4.373492658
 1,-1.4537114226\H,0,-2.651180238,2.0444137073,-1.3891003433\H,0,-3.310
 6431814,-0.7483206549,-1.793475148\H,0,0.0316266284,-0.1671482663,-4.4
 598611058\H,0,0.4828355506,0.5580570269,-0.2329450345\H,0,-0.105299275
 9,1.9306766169,1.5589630494\H,0,1.7971563435,-0.3399941904,4.694822304
 3\H,0,-1.6748928743,-1.9193925418,2.6582183287\H,0,-2.8173371561,5.972
 5100181,2.7241198099\Cl,0,-5.9560716073,-2.7303651832,0.7340048034\Cl,
 0,-2.6433525064,-3.0789330133,-0.1000136078\C,0,-2.7387135012,5.335159
 3715,4.8224700695\C,0,-1.392161442,4.6322128078,4.6315945794\H,0,-0.94
 43572058,4.3773762659,5.6116376381\H,0,-3.39422764,4.7348867287,5.4788
 30245\H,0,-2.5530173424,6.2942295178,5.3420609568\C,0,-7.2725084812,-5
 .5622841542,4.7469361185\C,0,-6.1069983976,-4.647353259,5.1941516724\C
 ,0,-5.8823107414,-4.7953024367,6.7170543847\C,0,-4.8295187518,-5.10133
 34631,4.461354533\H,0,-7.4444271997,-5.4668468445,3.6615031403\H,0,-7.
 0344219075,-6.6176913781,4.9702035955\H,0,-8.2134623483,-5.3104997086,
 5.2654978908\H,0,-5.0445807994,-4.1597078264,7.0539791108\H,0,-6.77799
 62867,-4.5106294312,7.2954751464\H,0,-5.6396267247,-5.843758261,6.9661
 265394\H,0,-3.9506467242,-4.5036679537,4.7613067079\H,0,-4.615880946,-
 6.1546046333,4.7124166819\H,0,-4.9378135413,-5.0304379995,3.3653300864
 \C,0,-10.0514444018,-1.6127401134,6.6978531477\C,0,-9.2961885862,-0.65
 27683962,5.7598840798\C,0,-10.2564914624,-0.219835038,4.6259691091\C,0
 ,-8.8715560043,0.5936770604,6.5735143652\H,0,-10.3946512211,-2.5162588
 138,6.164706769\H,0,-10.942087218,-1.1067282381,7.1083026098\H,0,-9.42
 49571037,-1.9298088728,7.5498486403\H,0,-9.7858938007,0.5097398611,3.9
 4483755\H,0,-10.5689644441,-1.0887779528,4.0222678152\H,0,-11.16090889
 46,0.2504826763,5.0521021322\H,0,-8.3498969389,1.3326150537,5.94068156
 75\H,0,-9.7579923977,1.0878811051,7.0101808472\H,0,-8.1908140783,0.314
 5581474,7.3963554258\C,0,-9.4798533474,4.4193603893,2.7530060021\C,0,-
 7.9341237693,4.4410211803,2.8062811644\C,0,-7.4067919394,5.7539109909,
 2.1801495514\C,0,-7.4978512693,4.403381526,4.2837273393\H,0,-9.8734635
 681,3.4905467171,3.2019964771\H,0,-9.8944609028,5.276264574,3.31368550
 01\H,0,-9.8562056794,4.4790402895,1.7179268538\H,0,-6.3049100281,5.778
 8064171,2.2274517612\H,0,-7.7061120478,5.8528722424,1.1230245792\H,0,-
 7.8029569189,6.6278965212,2.727842286\H,0,-6.3991489725,4.4270962615,4
 .3785678733\H,0,-7.9084233777,5.2803657313,4.8133836192\H,0,-7.8731553
 202,3.5000576824,4.7971500272\C,0,-8.4458551058,3.0420762802,-2.175949
 8689\C,0,-7.5482719635,1.9060883744,-1.6521336307\C,0,-8.2652132431,0.
 5555867841,-1.8922819363\C,0,-6.2163138763,1.9291713856,-2.441197864\H
 ,0,-7.967144702,4.0304832274,-2.0586383962\H,0,-8.6435987936,2.8921311
 227,-3.2510578057\H,0,-9.4203353049,3.0641208582,-1.6572350978\H,0,-7.
 6601461034,-0.3005438228,-1.5495371154\H,0,-9.2282520663,0.5226265079,
 -1.3541375913\H,0,-8.4670481901,0.4200627153,-2.9698446119\H,0,-5.5410
 103259,1.1180724893,-2.1204045133\H,0,-5.6853589501,2.8848952791,-2.28
 96317885\H,0,-6.4099566108,1.8032062585,-3.5216712173\C,0,-4.016092209
 1,-1.3476425864,-4.0828775897\C,0,-2.5808893996,-0.9554627187,-4.48518
 07317\C,0,-1.9008610631,-2.1947360577,-5.1151781635\C,0,-2.652901314,0
 .1862289407,-5.5260686379\H,0,-4.5745830118,-0.4899786408,-3.668052742
 7\H,0,-4.5645504547,-1.699512341,-4.9736179741\H,0,-4.0253275131,-2.16
 03892091,-3.3362576723\H,0,-0.8767864958,-1.9712649193,-5.4599728252\H
 ,0,-1.8429434405,-3.0183029231,-4.3836212798\H,0,-2.4821876252,-2.5444
 610256,-5.9869939725\H,0,-1.6499912815,0.492715364,-5.8699821608\H,0,-
 3.2284687557,-0.1397144374,-6.4108268081\H,0,-3.1519947626,1.074286461
 6,-5.099723468\C,0,2.1017344175,2.1095845663,-2.1052115244\C,0,1.91147
 00546,0.6407004219,-2.5546952789\C,0,2.3851272834,0.5128814231,-4.0145
 310044\C,0,2.7883032609,-0.2811194264,-1.6734208779\H,0,1.8049806441,2
 .2528675202,-1.0516142311\H,0,3.1614092819,2.4069761445,-2.2018030468\
 H,0,1.4929948067,2.7929114758,-2.7223340039\H,0,2.2871310767,-0.522358
 2618,-4.3847205772\H,0,1.8173182908,1.1775487753,-4.6888464025\H,0,3.4
 49511443,0.7954042585,-4.085621906\H,0,2.6654387258,-1.3377387801,-1.9
 659780841\H,0,3.854156935,-0.0117511411,-1.7836141322\H,0,2.5278964438
 ,-0.1969542749,-0.6043909988\C,0,3.4624794082,1.3989331936,3.034922415
 1\C,0,2.0679280246,2.0012466381,3.3270253944\C,0,2.013195051,2.5050887
 281,4.7886404269\C,0,1.8502076332,3.2075920206,2.3934525384\H,0,3.5230
 492714,1.041482494,1.9919723539\H,0,4.2492321003,2.1598867715,3.185298
 1734\H,0,3.6851284986,0.54498136,3.6968666508\H,0,1.018616956,2.928415
 1149,5.0088130636\H,0,2.2047022553,1.6938088504,5.510840832\H,0,2.7724
 632537,3.2903591345,4.9537063137\H,0,0.8602931763,3.6669851082,2.55527
 43527\H,0,2.6223077178,3.9715925188,2.5890124343\H,0,1.9304360646,2.92
 11667501,1.3296249154\C,0,1.4073533598,-3.2809036729,4.5093197539\C,0,
 0.1053599197,-2.4858146752,4.7631300432\C,0,-1.0999317533,-3.423237931
 ,4.5510870174\C,0,0.0765947981,-1.9885078252,6.2279366311\H,0,2.302214
 0147,-2.655189677,4.6706901291\H,0,1.4684777102,-4.1451068375,5.194753
 2181\H,0,1.439031861,-3.6588908077,3.4732915803\H,0,-2.0543355053,-2.8
 938608316,4.722082858\H,0,-1.1230224734,-3.8494065356,3.5335483119\H,0
 ,-1.0468572395,-4.2629290397,5.2654195234\H,0,-0.8380709062,-1.4016245
 501,6.4202146007\H,0,0.0913243716,-2.8481723974,6.9212031496\H,0,0.945
 0286438,-1.3509587961,6.4659769349\H,0,-0.6807290036,5.2894490569,4.10
 34134076\H,0,-4.2882996136,6.3485458313,3.6787305709\\Version=ES64L-G1
 6RevB.01\State=1-A\HF=-4642.2803877\RMSD=2.017e-09\Dipole=1.1075278,4.
 6292119,2.1862711\Quadrupole=0.8077008,-9.7019602,8.8942594,-1.7485807
 ,-0.4418582,-9.6011933\PG=C01 [X(C71H96Cl2O2P2Pd1)]\\@


     SCHOPENHAUER'S LAW OF ENTROPY
 IF YOU PUT A SPOONFUL OF WINE IN A BARREL FULL
 OF SEWAGE, YOU GET SEWAGE.
 IF YOU PUT A SPOONFUL OF SEWAGE IN A BARREL FULL
 OF WINE, YOU GET SEWAGE.
 Job cpu time:       0 days 12 hours 41 minutes 51.2 seconds.
 Elapsed time:       0 days  0 hours 19 minutes 10.9 seconds.
 File lengths (MBytes):  RWF=   4684 Int=      0 D2E=      0 Chk=    699 Scr=      1
 Normal termination of Gaussian 16 at Tue Nov  2 16:49:05 2021.
