 Entering Gaussian System, Link 0=/uufs/chpc.utah.edu/sys/installdir/gaussian16/B01/E6B/g16/g16
 Input=S-35tBu-C3-Tunephos_4_SPE_NoPd.com
 Output=S-35tBu-C3-Tunephos_4_SPE_NoPd.log
 Initial command:
 /uufs/chpc.utah.edu/sys/installdir/gaussian16/B01/E6B/g16/l1.exe "/scratch/general/lustre/u1010977/3356307/notchpeak.peaks/Gau-240182.inp" -scrdir="/scratch/general/lustre/u1010977/3356307/notchpeak.peaks/"
 Entering Link 1 = /uufs/chpc.utah.edu/sys/installdir/gaussian16/B01/E6B/g16/l1.exe PID=    240184.
  
 Copyright (c) 1988-2017, Gaussian, Inc.  All Rights Reserved.
  
 This is part of the Gaussian(R) 16 program.  It is based on
 the Gaussian(R) 09 system (copyright 2009, Gaussian, Inc.),
 the Gaussian(R) 03 system (copyright 2003, Gaussian, Inc.),
 the Gaussian(R) 98 system (copyright 1998, Gaussian, Inc.),
 the Gaussian(R) 94 system (copyright 1995, Gaussian, Inc.),
 the Gaussian 92(TM) system (copyright 1992, Gaussian, Inc.),
 the Gaussian 90(TM) system (copyright 1990, Gaussian, Inc.),
 the Gaussian 88(TM) system (copyright 1988, Gaussian, Inc.),
 the Gaussian 86(TM) system (copyright 1986, Carnegie Mellon
 University), and the Gaussian 82(TM) system (copyright 1983,
 Carnegie Mellon University). Gaussian is a federally registered
 trademark of Gaussian, Inc.
  
 This software contains proprietary and confidential information,
 including trade secrets, belonging to Gaussian, Inc.
  
 This software is provided under written license and may be
 used, copied, transmitted, or stored only in accord with that
 written license.
  
 The following legend is applicable only to US Government
 contracts under FAR:
  
                    RESTRICTED RIGHTS LEGEND
  
 Use, reproduction and disclosure by the US Government is
 subject to restrictions as set forth in subparagraphs (a)
 and (c) of the Commercial Computer Software - Restricted
 Rights clause in FAR 52.227-19.
  
 Gaussian, Inc.
 340 Quinnipiac St., Bldg. 40, Wallingford CT 06492
  
  
 ---------------------------------------------------------------
 Warning -- This program may not be used in any manner that
 competes with the business of Gaussian, Inc. or will provide
 assistance to any competitor of Gaussian, Inc.  The licensee
 of this program is prohibited from giving any competitor of
 Gaussian, Inc. access to this program.  By using this program,
 the user acknowledges that Gaussian, Inc. is engaged in the
 business of creating and licensing software in the field of
 computational chemistry and represents and warrants to the
 licensee that it is not a competitor of Gaussian, Inc. and that
 it will not use this program in any manner prohibited above.
 ---------------------------------------------------------------
  

 Cite this work as:
 Gaussian 16, Revision B.01,
 M. J. Frisch, G. W. Trucks, H. B. Schlegel, G. E. Scuseria, 
 M. A. Robb, J. R. Cheeseman, G. Scalmani, V. Barone, 
 G. A. Petersson, H. Nakatsuji, X. Li, M. Caricato, A. V. Marenich, 
 J. Bloino, B. G. Janesko, R. Gomperts, B. Mennucci, H. P. Hratchian, 
 J. V. Ortiz, A. F. Izmaylov, J. L. Sonnenberg, D. Williams-Young, 
 F. Ding, F. Lipparini, F. Egidi, J. Goings, B. Peng, A. Petrone, 
 T. Henderson, D. Ranasinghe, V. G. Zakrzewski, J. Gao, N. Rega, 
 G. Zheng, W. Liang, M. Hada, M. Ehara, K. Toyota, R. Fukuda, 
 J. Hasegawa, M. Ishida, T. Nakajima, Y. Honda, O. Kitao, H. Nakai, 
 T. Vreven, K. Throssell, J. A. Montgomery, Jr., J. E. Peralta, 
 F. Ogliaro, M. J. Bearpark, J. J. Heyd, E. N. Brothers, K. N. Kudin, 
 V. N. Staroverov, T. A. Keith, R. Kobayashi, J. Normand, 
 K. Raghavachari, A. P. Rendell, J. C. Burant, S. S. Iyengar, 
 J. Tomasi, M. Cossi, J. M. Millam, M. Klene, C. Adamo, R. Cammi, 
 J. W. Ochterski, R. L. Martin, K. Morokuma, O. Farkas, 
 J. B. Foresman, and D. J. Fox, Gaussian, Inc., Wallingford CT, 2016.
 
 ******************************************
 Gaussian 16:  ES64L-G16RevB.01 20-Dec-2017
                 2-Nov-2021 
 ******************************************
 %NProcShared=52
 Will use up to   52 processors via shared memory.
 %mem=18GB
 %chk=S-35tBu-C3-Tunephos_4_SPE_NoPd.chk
 ----------------------------------------------------------------------
 # PBE1PBE/def2TZVP int=(grid=ultrafine) empiricaldispersion=GD3BJ nmr=
 giao
 ----------------------------------------------------------------------
 1/38=1,172=1/1;
 2/12=2,17=6,18=5,40=1/2;
 3/5=44,7=101,11=2,25=1,30=1,74=-13,75=-5,124=41/1,2,3,8;
 4//1;
 5/5=2,38=5/2;
 8/6=1,10=90,11=11/1;
 10/13=100,45=16/2;
 6/7=2,8=2,9=2,10=2,28=1/1;
 99/9=1/99;
 -----
 title
 -----
 Symbolic Z-matrix:
 Charge =  0 Multiplicity = 1
 P                    -5.08494  -0.15138   2.52992 
 P                    -2.25812   0.04227   0.80729 
 O                    -1.46256   3.36132   3.91239 
 O                    -4.08914   4.33662   3.18006 
 C                    -6.19926  -1.11646   3.61802 
 C                    -5.8465   -2.43665   3.92556 
 C                    -6.62761  -3.2011    4.81331 
 C                    -7.76364  -2.5944    5.37361 
 C                    -8.14739  -1.26964   5.07259 
 C                    -7.34738  -0.53596   4.18481 
 C                    -6.07301   1.19385   1.79829 
 C                    -6.53964   2.28476   2.5579 
 C                    -7.31776   3.28073   1.95369 
 C                    -7.58753   3.16494   0.57039 
 C                    -7.11912   2.09666  -0.21027 
 C                    -6.361     1.0993    0.43275 
 C                    -3.93179   0.64861   3.73909 
 C                    -3.7927    0.07972   5.02085 
 C                    -2.87587   0.60815   5.93615 
 C                    -2.09287   1.71646   5.5972 
 C                    -2.23753   2.29521   4.32951 
 C                    -3.139     1.76415   3.37603 
 C                    -3.20984   2.43387   2.04491 
 C                    -3.64621   3.77741   2.00022 
 C                    -3.70033   4.48993   0.79472 
 C                    -3.3051    3.86164  -0.38966 
 C                    -2.86417   2.53336  -0.37165 
 C                    -2.80877   1.81176   0.83702 
 C                    -1.47263  -0.08485  -0.8418 
 C                    -2.27975  -0.47792  -1.92635 
 C                    -1.7608   -0.50161  -3.22604 
 C                    -0.41411  -0.11163  -3.40928 
 C                     0.41352   0.27489  -2.34437 
 C                    -0.13972   0.28123  -1.04742 
 C                    -0.93913  -0.06401   2.06029 
 C                    -0.89668  -1.21787   2.85682 
 C                     0.08741  -1.35853   3.84818 
 C                     1.03624  -0.32672   3.98018 
 C                     1.01652   0.84187   3.19318 
 C                    -0.00204   0.96904   2.23567 
 C                    -3.431     5.5303    3.65471 
 H                    -4.97445  -2.87897   3.43457 
 H                    -8.38721  -3.17399   6.05986 
 H                    -7.62089   0.48394   3.91107 
 H                    -6.26039   2.36036   3.61128 
 H                    -8.18127   3.94835   0.09098 
 H                    -5.98066   0.23252  -0.11898 
 H                    -4.40765  -0.77825   5.30288 
 H                    -2.76988   0.1499    6.92486 
 H                    -1.36031   2.11683   6.30386 
 H                    -4.0722    5.51915   0.793 
 H                    -3.3488    4.40625  -1.3384 
 H                    -2.55682   2.05381  -1.30361 
 H                    -3.3043   -0.79953  -1.72634 
 H                    -0.00215  -0.12897  -4.42195 
 H                     0.48093   0.56062  -0.1921 
 H                    -1.65029  -1.99075   2.683 
 H                     1.81928  -0.43133   4.7396 
 H                    -0.09595   1.88211   1.64328 
 H                    -2.73134   5.90848   2.88642 
 C                    -2.70974   5.22199   4.97052 
 C                    -1.37329   4.49704   4.79115 
 H                    -0.95223   4.2102    5.77415 
 H                    -3.39049   4.6197    5.59872 
 H                    -2.51661   6.16493   5.51627 
 C                    -4.76978  -4.72869   5.56693 
 C                    -6.23754  -4.66381   5.08192 
 C                    -6.37859  -5.45564   3.75847 
 C                    -7.13034  -5.32086   6.15113 
 H                    -4.63174  -4.14764   6.49612 
 H                    -4.48425  -5.77599   5.77043 
 H                    -4.06979  -4.33739   4.81036 
 H                    -6.05783  -6.50264   3.90633 
 H                    -5.77294  -5.01645   2.94812 
 H                    -7.42819  -5.45917   3.41786 
 H                    -8.18708  -5.35953   5.83419 
 H                    -6.79868  -6.35938   6.3213 
 H                    -7.07583  -4.78722   7.11687 
 C                    -10.64146  -1.52021   5.25867 
 C                    -9.4212   -0.67891   5.70265 
 C                    -9.65949   0.78385   5.27816 
 C                    -9.29729  -0.72098   7.24416 
 H                    -10.54169  -2.57442   5.56726 
 H                    -11.56757  -1.12073   5.7098 
 H                    -10.75251  -1.4995    4.16114 
 H                    -8.82577   1.43843   5.58908 
 H                    -9.78466   0.88023   4.18541 
 H                    -10.5789   1.16344   5.75604 
 H                    -8.43851  -0.11735   7.58571 
 H                    -10.21219  -0.31617   7.71278 
 H                    -9.15607  -1.74996   7.61531 
 C                    -9.40729   4.50136   2.63601 
 C                    -7.86408   4.48519   2.74016 
 C                    -7.2854    5.78766   2.13809 
 C                    -7.47781   4.43202   4.23095 
 H                    -9.83767   3.58269   3.0716 
 H                    -9.81864   5.36826   3.1836 
 H                    -9.74791   4.57059   1.58917 
 H                    -6.18573   5.78854   2.22574 
 H                    -7.54376   5.89698   1.07124 
 H                    -7.68185   6.66835   2.67474 
 H                    -6.38255   4.42832   4.3614 
 H                    -7.88396   5.31742   4.74998 
 H                    -7.89234   3.53665   4.72697 
 C                    -6.01563   1.99825  -2.4585 
 C                    -7.37688   1.97408  -1.7211 
 C                    -8.24587   3.12397  -2.26266 
 C                    -8.09369   0.63299  -2.00889 
 H                    -5.35587   1.18199  -2.11906 
 H                    -6.16792   1.88284  -3.54686 
 H                    -5.48711   2.95023  -2.27801 
 H                    -9.23728   3.14927  -1.77727 
 H                    -7.76293   4.10667  -2.11817 
 H                    -8.40755   2.98768  -3.34558 
 H                    -9.0752    0.5974   -1.50545 
 H                    -8.2585    0.51725  -3.09502 
 H                    -7.50679  -0.2335   -1.66077 
 C                    -4.01653  -1.40983  -4.01108 
 C                    -2.60128  -0.96354  -4.42801 
 C                    -1.89646  -2.16536  -5.10168 
 C                    -2.72613   0.20148  -5.43776 
 H                    -4.59749  -0.57863  -3.5743 
 H                    -4.56638  -1.76525  -4.89956 
 H                    -3.98817  -2.2339   -3.2775 
 H                    -0.88634  -1.90326  -5.46008 
 H                    -1.80018  -3.00515  -4.39294 
 H                    -2.48385  -2.51053  -5.97118 
 H                    -1.73873   0.54707  -5.78966 
 H                    -3.30703  -0.11917  -6.321 
 H                    -3.24439   1.06253  -4.97979 
 C                     2.04826   2.16119  -2.06358 
 C                     1.88294   0.69391  -2.52818 
 C                     2.34252   0.59269  -3.99458 
 C                     2.78811  -0.21984  -1.6674 
 H                     1.76156   2.28639  -1.0049 
 H                     3.10027   2.48168  -2.16952 
 H                     1.41801   2.83869  -2.66539 
 H                     2.26088  -0.43987  -4.37602 
 H                     1.75403   1.25374  -4.65457 
 H                     3.4002    0.89727  -4.07411 
 H                     2.68437  -1.27521  -1.97165 
 H                     3.84687   0.0732   -1.78513 
 H                     2.53708  -0.15409  -0.59484 
 C                    -1.05245  -3.5339    4.53619 
 C                     0.1368   -2.58335   4.77621 
 C                     0.08454  -2.10734   6.24755 
 C                     1.45238  -3.35669   4.52568 
 H                    -1.06123  -3.93804   3.50936 
 H                    -0.99273  -4.38705   5.23378 
 H                    -2.01551  -3.0229    4.71228 
 H                     0.94104  -1.46057   6.50364 
 H                    -0.84068  -1.53623   6.43724 
 H                     0.1036   -2.9762    6.92918 
 H                     2.33728  -2.72229   4.70669 
 H                     1.51718  -4.23019   5.19885 
 H                     1.50079  -3.71875   3.48461 
 C                     3.47571   1.34019   3.09884 
 C                     2.08034   1.93218   3.40756 
 C                     2.03052   2.40974   4.87814 
 C                     1.85385   3.15377   2.49609 
 H                     3.53319   1.0018    2.04937 
 H                     4.26061   2.10092   3.2598 
 H                     3.70368   0.47511   3.74432 
 H                     1.03412   2.82124   5.11178 
 H                     2.23256   1.58721   5.58458 
 H                     2.78502   3.19753   5.05283 
 H                     0.8624    3.60565   2.66932 
 H                     2.62331   3.91771   2.70204 
 H                     1.93124   2.88629   1.42709 
 H                    -0.6379    5.15244   4.29439 
 H                    -4.21536   6.29096   3.81809 
 
 Stoichiometry    C71H96O2P2
 Framework group  C1[X(C71H96O2P2)]
 Deg. of freedom   507
 Full point group                 C1      NOp   1
 Largest Abelian subgroup         C1      NOp   1
 Largest concise Abelian subgroup C1      NOp   1
                         Standard orientation:                         
 ---------------------------------------------------------------------
 Center     Atomic      Atomic             Coordinates (Angstroms)
 Number     Number       Type             X           Y           Z
 ---------------------------------------------------------------------
      1         15           0       -1.679046    0.024091   -0.749879
      2         15           0        1.636808    0.013243   -0.779481
      3          8           0        0.929779   -1.404768    3.554114
      4          8           0       -0.862909    0.861709    3.743315
      5          6           0       -3.258587   -0.647226   -1.391313
      6          6           0       -3.207012   -1.596864   -2.419636
      7          6           0       -4.385043   -2.198976   -2.901635
      8          6           0       -5.602693   -1.814353   -2.316870
      9          6           0       -5.683759   -0.852397   -1.286844
     10          6           0       -4.491699   -0.272229   -0.829851
     11          6           0       -2.050466    1.624867    0.038001
     12          6           0       -2.768090    1.721141    1.246546
     13          6           0       -3.050354    2.977355    1.798575
     14          6           0       -2.570742    4.122932    1.122308
     15          6           0       -1.839152    4.051113   -0.073390
     16          6           0       -1.594159    2.774594   -0.615066
     17          6           0       -1.268998   -1.149080    0.623937
     18          6           0       -1.853791   -2.431212    0.617232
     19          6           0       -1.511191   -3.372619    1.593940
     20          6           0       -0.592827   -3.051070    2.598711
     21          6           0       -0.019413   -1.772905    2.618869
     22          6           0       -0.329302   -0.811017    1.627646
     23          6           0        0.346104    0.516024    1.718223
     24          6           0        0.088532    1.315711    2.854738
     25          6           0        0.715946    2.555776    3.034879
     26          6           0        1.624398    3.008832    2.074069
     27          6           0        1.900731    2.233508    0.941989
     28          6           0        1.272151    0.986683    0.754999
     29          6           0        3.152896    0.831974   -1.398990
     30          6           0        3.000764    1.903462   -2.299526
     31          6           0        4.115500    2.629797   -2.734114
     32          6           0        5.384795    2.258373   -2.233955
     33          6           0        5.564150    1.189022   -1.343599
     34          6           0        4.420431    0.474782   -0.931322
     35          6           0        2.103969   -1.645817   -0.187584
     36          6           0        1.648751   -2.747198   -0.927448
     37          6           0        1.963828   -4.053276   -0.520153
     38          6           0        2.774096   -4.205891    0.621125
     39          6           0        3.244740   -3.117113    1.381663
     40          6           0        2.881818   -1.825271    0.969494
     41          6           0       -0.467123    0.657735    5.116286
     42          1           0       -2.239140   -1.835975   -2.870448
     43          1           0       -6.529406   -2.265326   -2.682293
     44          1           0       -4.513634    0.489560   -0.049379
     45          1           0       -3.071241    0.806887    1.761869
     46          1           0       -2.775002    5.105096    1.557857
     47          1           0       -1.042673    2.653681   -1.554019
     48          1           0       -2.582412   -2.690771   -0.154503
     49          1           0       -1.964708   -4.368888    1.570876
     50          1           0       -0.307772   -3.793297    3.349803
     51          1           0        0.469735    3.162216    3.911915
     52          1           0        2.116139    3.978731    2.200953
     53          1           0        2.613468    2.597882    0.198878
     54          1           0        2.001971    2.129495   -2.679612
     55          1           0        6.259918    2.820971   -2.570335
     56          1           0        4.524804   -0.374818   -0.251526
     57          1           0        1.044142   -2.554174   -1.817767
     58          1           0        3.040545   -5.219657    0.940646
     59          1           0        3.170959   -0.952696    1.559791
     60          1           0        0.553319    1.051414    5.279187
     61          6           0       -0.555696   -0.834102    5.452765
     62          6           0        0.627202   -1.658264    4.937675
     63          1           0        0.456819   -2.737163    5.118794
     64          1           0       -1.502573   -1.221441    5.035394
     65          1           0       -0.610131   -0.963166    6.550340
     66          6           0       -3.296091   -4.324180   -3.708298
     67          6           0       -4.291150   -3.195560   -4.068619
     68          6           0       -3.778745   -2.435706   -5.317007
     69          6           0       -5.651187   -3.837079   -4.401440
     70          1           0       -3.620888   -4.866856   -2.802714
     71          1           0       -3.229345   -5.049396   -4.538586
     72          1           0       -2.280557   -3.934277   -3.528928
     73          1           0       -3.653089   -3.135775   -6.162637
     74          1           0       -2.812478   -1.938128   -5.129624
     75          1           0       -4.496926   -1.653758   -5.617760
     76          1           0       -6.390112   -3.084006   -4.726288
     77          1           0       -5.527231   -4.556173   -5.229089
     78          1           0       -6.069353   -4.385450   -3.538414
     79          6           0       -7.922993    0.145205   -1.842190
     80          6           0       -7.056110   -0.459040   -0.711997
     81          6           0       -6.939791    0.581240    0.419788
     82          6           0       -7.752795   -1.717425   -0.142375
     83          1           0       -8.069538   -0.570713   -2.668341
     84          1           0       -8.919175    0.424266   -1.454221
     85          1           0       -7.447042    1.048751   -2.259812
     86          1           0       -6.346024    0.195141    1.267491
     87          1           0       -6.473217    1.519031    0.070626
     88          1           0       -7.945495    0.828375    0.800920
     89          1           0       -7.157010   -2.160229    0.674631
     90          1           0       -8.748139   -1.455157    0.258913
     91          1           0       -7.894749   -2.491567   -0.915073
     92          6           0       -5.102311    3.994004    2.836627
     93          6           0       -3.842119    3.139092    3.108026
     94          6           0       -2.948275    3.842951    4.156562
     95          6           0       -4.289643    1.784313    3.690084
     96          1           0       -5.757373    3.500252    2.097689
     97          1           0       -5.678055    4.133575    3.769156
     98          1           0       -4.845019    4.992909    2.445866
     99          1           0       -2.056403    3.228528    4.366374
    100          1           0       -2.607776    4.832539    3.807806
    101          1           0       -3.504713    3.989091    5.099849
    102          1           0       -3.424047    1.137480    3.911358
    103          1           0       -4.844902    1.950694    4.629391
    104          1           0       -4.960956    1.245937    2.997947
    105          6           0        0.260654    5.181612   -0.844584
    106          6           0       -1.283629    5.285512   -0.802577
    107          6           0       -1.665382    6.601849   -0.101015
    108          6           0       -1.836330    5.315586   -2.247842
    109          1           0        0.591536    4.260256   -1.352911
    110          1           0        0.687450    6.043148   -1.389216
    111          1           0        0.682116    5.168667    0.175408
    112          1           0       -2.760389    6.734566   -0.051077
    113          1           0       -1.262016    6.651693    0.925929
    114          1           0       -1.250815    7.455387   -0.664097
    115          1           0       -2.936387    5.404714   -2.244870
    116          1           0       -1.421382    6.181517   -2.793929
    117          1           0       -1.575448    4.403389   -2.810217
    118          6           0        2.538400    3.983440   -4.220684
    119          6           0        3.991154    3.779651   -3.747470
    120          6           0        4.859694    3.453733   -4.986178
    121          6           0        4.487476    5.089773   -3.091959
    122          1           0        1.873133    4.277708   -3.390027
    123          1           0        2.506414    4.792121   -4.971063
    124          1           0        2.126211    3.071794   -4.686557
    125          1           0        5.924293    3.331798   -4.723013
    126          1           0        4.517202    2.520864   -5.464992
    127          1           0        4.786567    4.270781   -5.725974
    128          1           0        5.534998    5.008237   -2.753922
    129          1           0        4.428664    5.924101   -3.813626
    130          1           0        3.866681    5.348776   -2.216016
    131          6           0        6.939852    0.929555    0.741934
    132          6           0        6.940322    0.768744   -0.797621
    133          6           0        8.085648    1.620583   -1.375881
    134          6           0        7.203386   -0.713522   -1.156617
    135          1           0        6.154946    0.313363    1.214074
    136          1           0        7.913186    0.617398    1.161274
    137          1           0        6.760767    1.980355    1.028534
    138          1           0        8.143813    1.531836   -2.474558
    139          1           0        7.971212    2.688397   -1.119799
    140          1           0        9.049033    1.278908   -0.960047
    141          1           0        7.201133   -0.859627   -2.250135
    142          1           0        8.186730   -1.031216   -0.765688
    143          1           0        6.437649   -1.382349   -0.727615
    144          6           0        0.487878   -4.899521   -2.420237
    145          6           0        1.441514   -5.287689   -1.273347
    146          6           0        0.666231   -6.193265   -0.286930
    147          6           0        2.640256   -6.066749   -1.862978
    148          1           0        0.985487   -4.274341   -3.181361
    149          1           0        0.119102   -5.811110   -2.921307
    150          1           0       -0.389599   -4.346111   -2.041569
    151          1           0        1.307313   -6.551927    0.536386
    152          1           0       -0.181963   -5.644577    0.157692
    153          1           0        0.270003   -7.078801   -0.814885
    154          1           0        3.343642   -6.387170   -1.075034
    155          1           0        2.287088   -6.970484   -2.391081
    156          1           0        3.196848   -5.441994   -2.582094
    157          6           0        5.423486   -4.066469    2.192005
    158          6           0        4.114264   -3.366172    2.625988
    159          6           0        3.341544   -4.271750    3.613916
    160          6           0        4.476818   -2.057550    3.354277
    161          1           0        5.993773   -3.430139    1.492686
    162          1           0        6.060612   -4.270192    3.071349
    163          1           0        5.224323   -5.026853    1.687051
    164          1           0        2.399061   -3.786363    3.918629
    165          1           0        3.091567   -5.248507    3.166820
    166          1           0        3.947486   -4.459798    4.518281
    167          1           0        3.572622   -1.511926    3.673495
    168          1           0        5.077678   -2.286692    4.251242
    169          1           0        5.079026   -1.387258    2.715244
    170          1           0        1.556091   -1.377039    5.462272
    171          1           0       -1.168749    1.233723    5.745939
 ---------------------------------------------------------------------
 Rotational constants (GHZ):           0.0311365           0.0232773           0.0205670
 Standard basis: def2TZVP (5D, 7F)
 There are  3288 symmetry adapted cartesian basis functions of A   symmetry.
 There are  2913 symmetry adapted basis functions of A   symmetry.
  2913 basis functions,  4629 primitive gaussians,  3288 cartesian basis functions
   284 alpha electrons      284 beta electrons
       nuclear repulsion energy     14542.1700580996 Hartrees.
 NAtoms=  171 NActive=  171 NUniq=  171 SFac= 1.00D+00 NAtFMM=   60 NAOKFM=T Big=T
 Integral buffers will be    131072 words long.
 Raffenetti 2 integral format.
 Two-electron integral symmetry is turned on.
 Nuclear repulsion after empirical dispersion term =    14541.9077464078 Hartrees.
 One-electron integrals computed using PRISM.
   1 Symmetry operations used in ECPInt.
 ECPInt:  NShTT=  736291 NPrTT= 2187061 LenC2=  481575 LenP2D=  908697.
 LDataN:  DoStor=T MaxTD1= 6 Len=  172
 Number of processors reduced to  13 by ecpmxn.
 NBasis=  2913 RedAO= T EigKep=  2.60D-06  NBF=  2913
 NBsUse=  2913 1.00D-06 EigRej= -1.00D+00 NBFU=  2913
 ExpMin= 9.04D-02 ExpMax= 5.24D+04 ExpMxC= 1.79D+03 IAcc=3 IRadAn=         5 AccDes= 0.00D+00
 Harris functional with IExCor= 1009 and IRadAn=       5 diagonalized for initial guess.
 HarFok:  IExCor= 1009 AccDes= 0.00D+00 IRadAn=         5 IDoV= 1 UseB2=F ITyADJ=14
 ICtDFT=  3500011 ScaDFX=  1.000000  1.000000  1.000000  1.000000
 FoFCou: FMM=F IPFlag=           0 FMFlag=      100000 FMFlg1=        2001
         NFxFlg=           0 DoJE=T BraDBF=F KetDBF=T FulRan=T
         wScrn=  0.000000 ICntrl=       500 IOpCl=  0 I1Cent=   200000004 NGrid=           0
         NMat0=    1 NMatS0=      1 NMatT0=    0 NMatD0=    1 NMtDS0=    0 NMtDT0=    0
 Petite list used in FoFCou.
 Requested convergence on RMS density matrix=1.00D-08 within 128 cycles.
 Requested convergence on MAX density matrix=1.00D-06.
 Requested convergence on             energy=1.00D-06.
 No special actions if energy rises.
 Integral accuracy reduced to 1.0D-05 until final iterations.
 Problem detected with inexpensive integrals.
 Switching to full accuracy and repeating last cycle.
 SCF Done:  E(RPBE1PBE) =  -3594.07842000     A.U. after   15 cycles
            NFock= 15  Conv=0.43D-08     -V/T= 2.0055
 DoSCS=F DFT=T ScalE2(SS,OS)=  1.000000  1.000000
 Range of M.O.s used for correlation:     1  2913
 NBasis=  2913 NAE=   284 NBE=   284 NFC=     0 NFV=     0
 NROrb=   2913 NOA=   284 NOB=   284 NVA=  2629 NVB=  2629

 **** Warning!!: The largest alpha MO coefficient is  0.44623396D+02

          Differentiating once with respect to magnetic field using GIAOs.
          Electric field/nuclear overlap derivatives assumed to be zero.
 PrsmSu:  requested number of processors reduced to:  49 ShMem   1 Linda.
 FoFCou: FMM=F IPFlag=           0 FMFlag=      100000 FMFlg1=        2001
         NFxFlg=           0 DoJE=F BraDBF=F KetDBF=T FulRan=T
         wScrn=  0.000000 ICntrl=      6100 IOpCl=  0 I1Cent=           7 NGrid=         171
         NMat0=    1 NMatS0=      1 NMatT0=    0 NMatD0=    1 NMtDS0=    0 NMtDT0=    0
 Symmetry not used in FoFCou.
   1 Symmetry operations used in ECPInt.
 ECPInt:  NShTT=  736291 NPrTT= 2187061 LenC2=  736292 LenP2D= 2187061.
 LDataN:  DoStor=T MaxTD1= 7 Len=  274
 Number of processors reduced to   8 by ecpmxn.
 FoFJK:  IHMeth= 1 ICntrl=    6127 DoSepK=F KAlg= 0 I1Cent=           0 FoldK=F
 IRaf=         1 NMat=       1 IRICut=       1 DoRegI=T DoRafI=F ISym2E= 0 IDoP0=0 IntGTp=1.
          There are     3 degrees of freedom in the 1st order CPHF.  IDoFFX=0 NUNeed=     3.
      3 vectors produced by pass  0 Test12= 2.49D-11 3.33D-08 XBig12= 5.14D+02 2.14D+00.
 AX will form     3 AO Fock derivatives at one time.
      3 vectors produced by pass  1 Test12= 2.49D-11 3.33D-08 XBig12= 1.41D+00 2.23D-01.
      3 vectors produced by pass  2 Test12= 2.49D-11 3.33D-08 XBig12= 1.08D-02 1.79D-02.
      3 vectors produced by pass  3 Test12= 2.49D-11 3.33D-08 XBig12= 3.46D-05 9.55D-04.
      3 vectors produced by pass  4 Test12= 2.49D-11 3.33D-08 XBig12= 1.41D-07 1.13D-04.
      3 vectors produced by pass  5 Test12= 2.49D-11 3.33D-08 XBig12= 1.10D-09 9.77D-06.
      3 vectors produced by pass  6 Test12= 2.49D-11 3.33D-08 XBig12= 4.57D-12 6.38D-07.
      3 vectors produced by pass  7 Test12= 2.49D-11 3.33D-08 XBig12= 7.09D-13 6.59D-08.
 InvSVY:  IOpt=1 It=  1 EMax= 7.11D-15
 Solved reduced A of dimension    24 with     3 vectors.
 Calculating GIAO nuclear magnetic shielding tensors.
 SCF GIAO Magnetic shielding tensor (ppm):
      1  P    Isotropic =   294.7229   Anisotropy =    55.7547
   XX=   285.9558   YX=    11.4868   ZX=   -41.4814
   XY=   -30.1565   YY=   287.4794   ZY=   -20.2394
   XZ=    -4.5705   YZ=   -29.5612   ZZ=   310.7335
   Eigenvalues:   256.2887   295.9874   331.8927
      2  P    Isotropic =   298.3442   Anisotropy =    49.7925
   XX=   293.4313   YX=    -0.8213   ZX=    41.3900
   XY=   -24.6339   YY=   283.4272   ZY=    14.9288
   XZ=    -1.8885   YZ=    21.6923   ZZ=   318.1742
   Eigenvalues:   262.2308   301.2627   331.5392
      3  O    Isotropic =   219.6289   Anisotropy =   118.9756
   XX=   275.0009   YX=     2.1069   ZX=   -51.3013
   XY=   -16.5861   YY=   185.9970   ZY=    76.6035
   XZ=   -27.0860   YZ=    27.5640   ZZ=   197.8889
   Eigenvalues:   136.1780   223.7629   298.9460
      4  O    Isotropic =   220.1320   Anisotropy =    96.3774
   XX=   270.2227   YX=    -4.1103   ZX=    42.1376
   XY=     0.1960   YY=   206.4951   ZY=   -74.1801
   XZ=    18.0203   YZ=   -24.4176   ZZ=   183.6784
   Eigenvalues:   140.5225   235.4900   284.3836
      5  C    Isotropic =    43.1204   Anisotropy =   195.5582
   XX=   -30.6176   YX=   -24.5992   ZX=    -7.6860
   XY=   -33.2187   YY=    85.4544   ZY=   -98.0311
   XZ=    -1.8815   YZ=   -85.5143   ZZ=    74.5244
   Eigenvalues:   -47.3839     3.2526   173.4925
      6  C    Isotropic =    46.5143   Anisotropy =   173.5930
   XX=   -34.4511   YX=     8.2634   ZX=    42.5371
   XY=    17.8221   YY=   107.3792   ZY=   -60.7384
   XZ=    41.5875   YZ=   -81.6332   ZZ=    66.6149
   Eigenvalues:   -59.2447    36.5447   162.2430
      7  C    Isotropic =    29.3035   Anisotropy =   198.8589
   XX=   -15.7929   YX=   -13.1947   ZX=    11.9040
   XY=   -10.4056   YY=    63.6502   ZY=  -107.2101
   XZ=    12.4613   YZ=  -108.3286   ZZ=    40.0533
   Eigenvalues:   -56.5976   -17.3679   161.8761
      8  C    Isotropic =    57.1496   Anisotropy =   172.4398
   XX=   -17.9687   YX=   -30.3356   ZX=    -7.0451
   XY=   -41.7753   YY=    97.1642   ZY=   -75.2700
   XZ=   -15.9412   YZ=   -75.9418   ZZ=    92.2532
   Eigenvalues:   -38.7311    38.0704   172.1094
      9  C    Isotropic =    27.6271   Anisotropy =   200.0978
   XX=   -45.4476   YX=    -1.8787   ZX=    27.4257
   XY=    -0.4563   YY=    73.4493   ZY=   -92.0848
   XZ=    27.6540   YZ=   -97.0610   ZZ=    54.8796
   Eigenvalues:   -60.2524   -17.8920   161.0257
     10  C    Isotropic =    51.6190   Anisotropy =   177.7297
   XX=    31.3230   YX=    -2.4007   ZX=    15.6577
   XY=    -0.3226   YY=    71.7098   ZY=  -101.2492
   XZ=     3.5224   YZ=  -113.7053   ZZ=    51.8242
   Eigenvalues:   -46.6588    31.4103   170.1055
     11  C    Isotropic =    44.9732   Anisotropy =   196.3687
   XX=   127.1580   YX=     2.7994   ZX=    83.0018
   XY=    -0.1923   YY=   -37.4991   ZY=   -27.4822
   XZ=    75.0379   YZ=   -22.7643   ZZ=    45.2608
   Eigenvalues:   -48.7939     7.8279   175.8857
     12  C    Isotropic =    48.3410   Anisotropy =   183.2349
   XX=   127.9937   YX=   -34.5652   ZX=    72.6885
   XY=   -24.3809   YY=   -23.5577   ZY=    31.5431
   XZ=    74.9020   YZ=    35.5701   ZZ=    40.5869
   Eigenvalues:   -57.8575    32.3828   170.4975
     13  C    Isotropic =    30.0781   Anisotropy =   202.2230
   XX=   106.5694   YX=    -6.4297   ZX=    94.9072
   XY=    -7.9470   YY=   -15.5539   ZY=    -1.4363
   XZ=   100.8951   YZ=    -5.4626   ZZ=    -0.7811
   Eigenvalues:   -58.7669   -15.8923   164.8935
     14  C    Isotropic =    55.7296   Anisotropy =   178.8885
   XX=   133.7802   YX=     4.6146   ZX=    67.9959
   XY=     9.7977   YY=   -25.0430   ZY=   -39.9003
   XZ=    69.1519   YZ=   -27.9923   ZZ=    58.4515
   Eigenvalues:   -43.2875    35.4876   174.9886
     15  C    Isotropic =    30.1929   Anisotropy =   201.6069
   XX=   110.8480   YX=   -21.0962   ZX=    85.6746
   XY=   -23.8861   YY=   -42.5158   ZY=    10.0108
   XZ=    87.0182   YZ=     8.6068   ZZ=    22.2466
   Eigenvalues:   -57.6790   -16.3397   164.5975
     16  C    Isotropic =    45.2122   Anisotropy =   178.3144
   XX=   101.1303   YX=   -14.1095   ZX=   104.1443
   XY=    -3.5821   YY=    34.4039   ZY=   -10.8418
   XZ=    95.5553   YZ=   -14.8688   ZZ=     0.1024
   Eigenvalues:   -61.7032    33.2513   164.0885
     17  C    Isotropic =    33.4140   Anisotropy =   196.7075
   XX=    77.5659   YX=   -31.7321   ZX=   -84.5085
   XY=   -39.9054   YY=   -10.8738   ZY=    45.7137
   XZ=   -88.6315   YZ=    52.7666   ZZ=    33.5500
   Eigenvalues:   -48.2609   -16.0494   164.5524
     18  C    Isotropic =    55.5258   Anisotropy =   183.3309
   XX=    74.1413   YX=   -48.8156   ZX=  -104.8094
   XY=   -57.2342   YY=    46.5813   ZY=     2.7002
   XZ=   -97.3965   YZ=    11.4013   ZZ=    45.8547
   Eigenvalues:   -51.8424    40.6734   177.7464
     19  C    Isotropic =    52.6178   Anisotropy =   183.4287
   XX=    98.9380   YX=   -65.1126   ZX=   -62.0710
   XY=   -72.4038   YY=   -27.8703   ZY=    22.4471
   XZ=   -57.0365   YZ=    22.3577   ZZ=    86.7858
   Eigenvalues:   -58.0883    41.0382   174.9036
     20  C    Isotropic =    68.4229   Anisotropy =   170.5655
   XX=   111.9678   YX=   -20.8324   ZX=   -81.7880
   XY=   -17.7076   YY=    35.2020   ZY=    62.0037
   XZ=   -66.9689   YZ=    57.1503   ZZ=    58.0990
   Eigenvalues:   -24.6063    47.7418   182.1333
     21  C    Isotropic =    22.9241   Anisotropy =   140.7089
   XX=    31.8619   YX=   -41.1870   ZX=   -89.9060
   XY=   -29.2563   YY=    32.5630   ZY=     8.7978
   XZ=   -79.4107   YZ=     9.0867   ZZ=     4.3475
   Eigenvalues:   -70.3129    22.3552   116.7301
     22  C    Isotropic =    46.2360   Anisotropy =   163.6802
   XX=    87.5916   YX=   -63.1197   ZX=   -50.7228
   XY=   -59.8397   YY=   -13.0431   ZY=    28.3599
   XZ=   -63.0359   YZ=     8.3440   ZZ=    64.1594
   Eigenvalues:   -42.8810    26.2329   155.3561
     23  C    Isotropic =    46.2212   Anisotropy =   164.8906
   XX=    87.2932   YX=   -76.2484   ZX=    40.2767
   XY=   -70.9733   YY=    -3.1333   ZY=   -36.7653
   XZ=    50.8427   YZ=   -17.6350   ZZ=    54.5038
   Eigenvalues:   -44.3347    26.8501   156.1483
     24  C    Isotropic =    18.4076   Anisotropy =   142.5429
   XX=    33.6469   YX=   -45.5621   ZX=    81.9086
   XY=   -42.7085   YY=    23.2235   ZY=    -8.4374
   XZ=    74.3940   YZ=    -5.8153   ZZ=    -1.6477
   Eigenvalues:   -69.8786    11.6651   113.4361
     25  C    Isotropic =    64.1569   Anisotropy =   158.1616
   XX=   111.3590   YX=   -26.3438   ZX=    66.3531
   XY=   -33.7064   YY=    49.3793   ZY=   -58.8594
   XZ=    53.9782   YZ=   -57.2020   ZZ=    31.7324
   Eigenvalues:   -24.6122    47.4849   169.5979
     26  C    Isotropic =    52.0643   Anisotropy =   183.7907
   XX=    95.8850   YX=   -79.5484   ZX=    48.5772
   XY=   -85.7801   YY=   -12.6793   ZY=   -40.0017
   XZ=    41.1957   YZ=   -40.4649   ZZ=    72.9870
   Eigenvalues:   -59.0198    40.6212   174.5914
     27  C    Isotropic =    53.1352   Anisotropy =   187.1036
   XX=    71.6637   YX=   -71.2643   ZX=    96.1188
   XY=   -73.0288   YY=    52.0267   ZY=    -4.7860
   XZ=    84.9745   YZ=   -13.4948   ZZ=    35.7151
   Eigenvalues:   -55.5156    37.0503   177.8709
     28  C    Isotropic =    33.1711   Anisotropy =   196.0657
   XX=    78.6108   YX=   -47.4380   ZX=    75.1392
   XY=   -56.6984   YY=     8.5077   ZY=   -50.9810
   XZ=    77.9128   YZ=   -57.8838   ZZ=    12.3949
   Eigenvalues:   -48.5741   -15.7941   163.8816
     29  C    Isotropic =    43.3661   Anisotropy =   196.4268
   XX=   -21.3295   YX=   -28.9080   ZX=     4.8970
   XY=   -34.7932   YY=    56.1956   ZY=   101.0637
   XZ=    -0.9212   YZ=    88.5737   ZZ=    95.2322
   Eigenvalues:   -47.9540     3.7349   174.3173
     30  C    Isotropic =    50.6277   Anisotropy =   166.5283
   XX=   -33.1391   YX=     5.6157   ZX=   -37.8396
   XY=    20.1632   YY=    91.3569   ZY=    59.6422
   XZ=   -40.2270   YZ=    74.7872   ZZ=    93.6655
   Eigenvalues:   -52.0797    42.3164   161.6466
     31  C    Isotropic =    28.9865   Anisotropy =   198.6930
   XX=   -16.4561   YX=    -8.3720   ZX=   -21.8531
   XY=   -10.4113   YY=    35.0831   ZY=   105.7555
   XZ=   -18.8442   YZ=   105.8952   ZZ=    68.3325
   Eigenvalues:   -56.3963   -18.0927   161.4485
     32  C    Isotropic =    57.0875   Anisotropy =   172.5193
   XX=    -5.1075   YX=   -46.4049   ZX=    11.2277
   XY=   -38.9571   YY=    66.1120   ZY=    81.0388
   XZ=     1.9022   YZ=    75.6888   ZZ=   110.2579
   Eigenvalues:   -38.7994    37.9615   172.1004
     33  C    Isotropic =    27.5319   Anisotropy =   200.9785
   XX=   -48.6491   YX=    -1.1949   ZX=   -32.2347
   XY=    -5.4262   YY=    49.8119   ZY=    88.7951
   XZ=   -30.0126   YZ=    93.8230   ZZ=    81.4329
   Eigenvalues:   -60.8032   -18.1186   161.5176
     34  C    Isotropic =    47.8935   Anisotropy =   186.4553
   XX=    25.6574   YX=    -1.1924   ZX=   -20.4318
   XY=     3.6823   YY=    41.9419   ZY=   103.3478
   XZ=   -14.3334   YZ=   118.3070   ZZ=    76.0813
   Eigenvalues:   -55.0026    26.4862   172.1971
     35  C    Isotropic =    44.0074   Anisotropy =   197.1578
   XX=   117.2169   YX=    15.2243   ZX=   -87.0978
   XY=    13.5161   YY=   -41.7411   ZY=    11.9008
   XZ=   -78.9155   YZ=     6.9624   ZZ=    56.5462
   Eigenvalues:   -47.4670     4.0431   175.4459
     36  C    Isotropic =    49.1024   Anisotropy =   172.7740
   XX=    93.7452   YX=     8.3265   ZX=  -105.8178
   XY=     6.4159   YY=    35.1764   ZY=     6.5961
   XZ=   -97.0472   YZ=    19.4040   ZZ=    18.3858
   Eigenvalues:   -54.6063    37.6286   164.2851
     37  C    Isotropic =    29.7130   Anisotropy =   202.1888
   XX=   101.6645   YX=   -10.0766   ZX=   -89.5810
   XY=    -9.8763   YY=   -43.5293   ZY=   -13.8075
   XZ=   -93.5947   YZ=   -18.9751   ZZ=    31.0039
   Eigenvalues:   -57.7166   -17.6499   164.5055
     38  C    Isotropic =    52.7334   Anisotropy =   184.8942
   XX=   124.8586   YX=    22.1339   ZX=   -72.2756
   XY=    20.7399   YY=   -36.8006   ZY=    18.3766
   XZ=   -74.3357   YZ=    18.0211   ZZ=    70.1422
   Eigenvalues:   -48.0119    30.2159   175.9962
     39  C    Isotropic =    30.4186   Anisotropy =   201.9263
   XX=    96.1281   YX=     9.9134   ZX=  -100.1974
   XY=     8.8577   YY=   -15.7519   ZY=    -2.2093
   XZ=  -105.2077   YZ=     2.2656   ZZ=    10.8796
   Eigenvalues:   -58.3402   -15.4402   165.0361
     40  C    Isotropic =    48.2489   Anisotropy =   182.9719
   XX=   122.6425   YX=   -24.5146   ZX=   -77.6626
   XY=   -10.0133   YY=   -20.1657   ZY=   -37.3727
   XZ=   -77.8677   YZ=   -44.5194   ZZ=    42.2699
   Eigenvalues:   -57.3268    31.8433   170.2302
     41  C    Isotropic =   107.6603   Anisotropy =    77.0353
   XX=    80.9095   YX=     5.8027   ZX=    22.5616
   XY=     2.0921   YY=    91.3997   ZY=   -15.8681
   XZ=    21.0402   YZ=   -11.0258   ZZ=   150.6716
   Eigenvalues:    71.5641    92.3996   159.0171
     42  H    Isotropic =    23.1491   Anisotropy =    14.1437
   XX=    21.0529   YX=     3.1815   ZX=     4.1100
   XY=     4.1689   YY=    23.2038   ZY=     4.3528
   XZ=     5.2175   YZ=     6.1067   ZZ=    25.1905
   Eigenvalues:    17.9773    18.8918    32.5782
     43  H    Isotropic =    23.7782   Anisotropy =    14.8416
   XX=    23.3758   YX=    -3.6437   ZX=    -4.4078
   XY=    -3.7454   YY=    22.8742   ZY=     6.0737
   XZ=    -4.3715   YZ=     6.7293   ZZ=    25.0846
   Eigenvalues:    17.4832    20.1788    33.6726
     44  H    Isotropic =    23.7061   Anisotropy =    17.5141
   XX=    34.6260   YX=     5.1292   ZX=     1.1565
   XY=     0.8430   YY=    18.4898   ZY=     2.3860
   XZ=     1.3386   YZ=     5.4387   ZZ=    18.0024
   Eigenvalues:    14.2590    21.4770    35.3822
     45  H    Isotropic =    23.8148   Anisotropy =    14.0668
   XX=    25.4804   YX=    -5.0952   ZX=    -1.6138
   XY=    -4.5822   YY=    20.5691   ZY=     4.7842
   XZ=    -2.9506   YZ=     8.8794   ZZ=    25.3948
   Eigenvalues:    14.9738    23.2779    33.1927
     46  H    Isotropic =    24.0608   Anisotropy =    14.1453
   XX=    23.0404   YX=     2.1829   ZX=    -5.8735
   XY=     2.3349   YY=    23.1625   ZY=    -4.8188
   XZ=    -5.5693   YZ=    -5.8367   ZZ=    25.9796
   Eigenvalues:    17.8323    20.8592    33.4910
     47  H    Isotropic =    23.5182   Anisotropy =    12.1315
   XX=    21.1161   YX=     1.6232   ZX=     2.0132
   XY=     0.7464   YY=    30.9933   ZY=    -2.2014
   XZ=    -0.4160   YZ=    -2.9874   ZZ=    18.4451
   Eigenvalues:    17.6287    21.3200    31.6058
     48  H    Isotropic =    24.9176   Anisotropy =    11.6560
   XX=    22.7543   YX=    -1.1927   ZX=     2.9318
   XY=    -4.5765   YY=    27.3907   ZY=    -4.9136
   XZ=     4.5816   YZ=    -3.8047   ZZ=    24.6077
   Eigenvalues:    19.7696    22.2949    32.6883
     49  H    Isotropic =    24.6145   Anisotropy =     4.2028
   XX=    24.8156   YX=     0.1095   ZX=     1.6962
   XY=    -0.6139   YY=    23.4826   ZY=    -1.3993
   XZ=     1.6083   YZ=    -1.8644   ZZ=    25.5452
   Eigenvalues:    22.3997    24.0274    27.4164
     50  H    Isotropic =    25.0860   Anisotropy =     5.0101
   XX=    24.9067   YX=     2.9745   ZX=    -0.1294
   XY=     2.1967   YY=    25.5853   ZY=     1.1638
   XZ=     1.3430   YZ=     1.6030   ZZ=    24.7660
   Eigenvalues:    22.5258    24.3061    28.4261
     51  H    Isotropic =    25.2067   Anisotropy =     4.5419
   XX=    25.5362   YX=     2.0271   ZX=     0.8800
   XY=     2.5440   YY=    26.1537   ZY=    -0.5010
   XZ=    -0.9525   YZ=    -1.0178   ZZ=    23.9302
   Eigenvalues:    23.1998    24.1857    28.2346
     52  H    Isotropic =    24.6893   Anisotropy =     4.6708
   XX=    24.7542   YX=     0.5588   ZX=    -1.5850
   XY=    -0.2603   YY=    22.7287   ZY=     1.1916
   XZ=    -1.7092   YZ=     1.5494   ZZ=    26.5851
   Eigenvalues:    22.1016    24.1631    27.8032
     53  H    Isotropic =    25.3211   Anisotropy =    11.6324
   XX=    22.9146   YX=    -1.0229   ZX=    -2.3069
   XY=    -3.9246   YY=    26.1469   ZY=     5.8570
   XZ=    -4.4721   YZ=     3.7905   ZZ=    26.9018
   Eigenvalues:    20.9351    21.9522    33.0760
     54  H    Isotropic =    23.2812   Anisotropy =    14.4055
   XX=    20.5173   YX=     3.0752   ZX=    -3.2089
   XY=     3.9644   YY=    25.0382   ZY=    -5.6594
   XZ=    -3.1487   YZ=    -7.1259   ZZ=    24.2882
   Eigenvalues:    18.2396    18.7192    32.8849
     55  H    Isotropic =    23.7753   Anisotropy =    14.8101
   XX=    25.5276   YX=    -4.1773   ZX=     4.1555
   XY=    -5.4053   YY=    22.8657   ZY=    -5.1990
   XZ=     4.7718   YZ=    -5.7502   ZZ=    22.9324
   Eigenvalues:    17.4094    20.2678    33.6487
     56  H    Isotropic =    23.4980   Anisotropy =    17.5548
   XX=    33.7486   YX=     6.3742   ZX=    -1.8434
   XY=     1.7040   YY=    19.7726   ZY=    -1.6164
   XZ=    -1.7936   YZ=    -4.6354   ZZ=    16.9728
   Eigenvalues:    14.9197    20.3731    35.2012
     57  H    Isotropic =    23.7168   Anisotropy =    12.4538
   XX=    20.8754   YX=     1.5819   ZX=    -1.4007
   XY=     1.0304   YY=    30.6569   ZY=     3.7077
   XZ=     0.8878   YZ=     4.0959   ZZ=    19.6182
   Eigenvalues:    18.2182    20.9129    32.0194
     58  H    Isotropic =    23.8556   Anisotropy =    13.8822
   XX=    23.8434   YX=     1.8524   ZX=     5.7377
   XY=     2.3821   YY=    21.1630   ZY=     4.4813
   XZ=     5.5654   YZ=     4.8652   ZZ=    26.5605
   Eigenvalues:    18.0850    20.3716    33.1104
     59  H    Isotropic =    23.9212   Anisotropy =    14.5913
   XX=    26.0717   YX=    -5.6324   ZX=     1.2351
   XY=    -4.8805   YY=    22.2590   ZY=    -4.8999
   XZ=     3.3287   YZ=    -9.1133   ZZ=    23.4330
   Eigenvalues:    15.2138    22.9011    33.6488
     60  H    Isotropic =    27.6867   Anisotropy =     7.0586
   XX=    23.9791   YX=    -0.1577   ZX=     2.8451
   XY=     1.4632   YY=    27.8176   ZY=    -0.7681
   XZ=     3.2054   YZ=     1.1624   ZZ=    31.2635
   Eigenvalues:    22.8264    27.8413    32.3925
     61  C    Isotropic =   152.9969   Anisotropy =    26.1170
   XX=   137.5315   YX=   -13.2544   ZX=    -1.9828
   XY=    -5.6550   YY=   163.7640   ZY=   -10.1067
   XZ=    -1.0141   YZ=    -4.8454   ZZ=   157.6952
   Eigenvalues:   133.8627   154.7197   170.4082
     62  C    Isotropic =   113.1977   Anisotropy =    59.9760
   XX=    95.3186   YX=    -8.9969   ZX=   -15.5697
   XY=    -8.8049   YY=    93.4648   ZY=    -7.1401
   XZ=    -6.8925   YZ=    -3.0083   ZZ=   150.8098
   Eigenvalues:    83.5138   102.8977   153.1817
     63  H    Isotropic =    27.0861   Anisotropy =     6.9147
   XX=    22.9702   YX=    -2.4611   ZX=    -1.7720
   XY=    -1.6480   YY=    28.7568   ZY=    -1.3372
   XZ=    -1.0476   YZ=    -3.6882   ZZ=    29.5313
   Eigenvalues:    21.7088    27.8537    31.6959
     64  H    Isotropic =    29.2304   Anisotropy =     3.7194
   XX=    29.8905   YX=    -0.1981   ZX=    -2.7161
   XY=     1.2826   YY=    28.1894   ZY=     1.2501
   XZ=    -1.1920   YZ=    -0.1197   ZZ=    29.6112
   Eigenvalues:    27.1826    28.7986    31.7099
     65  H    Isotropic =    30.3067   Anisotropy =    12.2603
   XX=    25.7372   YX=    -2.0150   ZX=    -2.7813
   XY=    -0.6763   YY=    27.6722   ZY=    -2.4205
   XZ=    -2.7771   YZ=    -2.1041   ZZ=    37.5107
   Eigenvalues:    24.1207    28.3191    38.4802
     66  C    Isotropic =   151.8269   Anisotropy =    43.5048
   XX=   154.7852   YX=   -18.7823   ZX=    12.0505
   XY=   -21.7133   YY=   161.3423   ZY=    -2.0911
   XZ=    11.4354   YZ=    -2.9375   ZZ=   139.3533
   Eigenvalues:   130.2019   144.4488   180.8301
     67  C    Isotropic =   146.5322   Anisotropy =    13.3307
   XX=   140.7747   YX=     0.1973   ZX=     1.6267
   XY=     2.7615   YY=   148.7037   ZY=     3.8121
   XZ=     5.2228   YZ=     6.3678   ZZ=   150.1181
   Eigenvalues:   139.6491   144.5281   155.4193
     68  C    Isotropic =   150.5392   Anisotropy =    45.4453
   XX=   139.9356   YX=    11.2648   ZX=    -8.4514
   XY=    10.4764   YY=   141.1764   ZY=   -15.9402
   XZ=   -12.6081   YZ=   -11.9395   ZZ=   170.5057
   Eigenvalues:   129.5327   141.2489   180.8361
     69  C    Isotropic =   156.3108   Anisotropy =    35.8203
   XX=   174.2790   YX=     8.8347   ZX=     2.8727
   XY=    15.4662   YY=   149.6298   ZY=    -0.2070
   XZ=     8.1616   YZ=     3.4349   ZZ=   145.0235
   Eigenvalues:   143.7171   145.0242   180.1910
     70  H    Isotropic =    30.0733   Anisotropy =     6.6641
   XX=    28.8193   YX=    -1.0320   ZX=     2.0570
   XY=    -0.4911   YY=    32.1702   ZY=    -2.0208
   XZ=     1.7680   YZ=    -3.9240   ZZ=    29.2304
   Eigenvalues:    26.5834    29.1205    34.5161
     71  H    Isotropic =    30.1495   Anisotropy =     8.4638
   XX=    29.1324   YX=    -2.4146   ZX=     0.1629
   XY=    -2.1866   YY=    32.6791   ZY=     5.0862
   XZ=     1.1435   YZ=     3.4739   ZZ=    28.6371
   Eigenvalues:    25.0877    29.5688    35.7921
     72  H    Isotropic =    29.2416   Anisotropy =    11.2621
   XX=    34.8150   YX=     0.0713   ZX=     3.8353
   XY=    -2.0729   YY=    27.5506   ZY=     2.4115
   XZ=     5.5376   YZ=     1.2879   ZZ=    25.3592
   Eigenvalues:    22.5541    28.4211    36.7496
     73  H    Isotropic =    30.1555   Anisotropy =     9.8288
   XX=    27.4541   YX=     0.2412   ZX=    -1.1086
   XY=     0.5919   YY=    26.9957   ZY=     0.9021
   XZ=    -1.4205   YZ=     3.6952   ZZ=    36.0168
   Eigenvalues:    26.0586    27.6999    36.7080
     74  H    Isotropic =    29.6561   Anisotropy =     6.8483
   XX=    31.0825   YX=     4.0072   ZX=     1.1318
   XY=     5.1971   YY=    27.4182   ZY=    -1.0283
   XZ=    -1.4424   YZ=     0.5635   ZZ=    30.4676
   Eigenvalues:    24.2952    30.4515    34.2216
     75  H    Isotropic =    30.3319   Anisotropy =     7.8489
   XX=    28.4309   YX=    -0.6408   ZX=     1.4889
   XY=    -1.6529   YY=    30.1091   ZY=    -4.7462
   XZ=     1.8237   YZ=    -2.3000   ZZ=    32.4558
   Eigenvalues:    27.5645    27.8667    35.5646
     76  H    Isotropic =    29.7433   Anisotropy =     8.6610
   XX=    34.0506   YX=    -2.6076   ZX=     2.5270
   XY=    -2.0081   YY=    26.7847   ZY=     0.8725
   XZ=     3.0453   YZ=     1.7846   ZZ=    28.3946
   Eigenvalues:    24.7558    28.9568    35.5173
     77  H    Isotropic =    30.2271   Anisotropy =     9.4627
   XX=    29.6322   YX=     2.2973   ZX=     2.1506
   XY=     1.7905   YY=    30.3730   ZY=     4.7866
   XZ=     1.7033   YZ=     4.9489   ZZ=    30.6761
   Eigenvalues:    25.6495    28.4963    36.5356
     78  H    Isotropic =    29.7920   Anisotropy =     7.9873
   XX=    31.3969   YX=     3.3577   ZX=    -2.9150
   XY=     3.8669   YY=    30.0541   ZY=    -0.1239
   XZ=    -2.3262   YZ=    -0.5530   ZZ=    27.9250
   Eigenvalues:    25.7768    28.4824    35.1169
     79  C    Isotropic =   151.7550   Anisotropy =    45.6569
   XX=   153.9437   YX=   -11.9210   ZX=    18.4123
   XY=   -17.2195   YY=   141.3201   ZY=    -9.0535
   XZ=    18.6259   YZ=    -8.4652   ZZ=   160.0012
   Eigenvalues:   131.2482   141.8239   182.1930
     80  C    Isotropic =   146.1838   Anisotropy =    12.4003
   XX=   150.3377   YX=    -4.8488   ZX=    -6.5143
   XY=    -3.0294   YY=   143.8906   ZY=     1.8080
   XZ=    -2.5752   YZ=     1.2603   ZZ=   144.3230
   Eigenvalues:   141.5432   142.5575   154.4506
     81  C    Isotropic =   154.8465   Anisotropy =    36.1583
   XX=   145.9461   YX=     2.7402   ZX=     2.9399
   XY=     6.9703   YY=   158.2187   ZY=    16.8937
   XZ=    10.5953   YZ=    18.2163   ZZ=   160.3747
   Eigenvalues:   141.2707   144.3167   178.9520
     82  C    Isotropic =   152.0948   Anisotropy =    44.0718
   XX=   148.0582   YX=    16.9285   ZX=   -10.1136
   XY=    15.6894   YY=   166.1236   ZY=    -9.7084
   XZ=   -13.8737   YZ=   -10.7883   ZZ=   142.1024
   Eigenvalues:   132.5160   142.2923   181.4759
     83  H    Isotropic =    29.9446   Anisotropy =     8.1207
   XX=    29.8579   YX=     0.2166   ZX=     3.0637
   XY=    -2.7846   YY=    27.6418   ZY=     2.3342
   XZ=     3.8061   YZ=     4.3771   ZZ=    32.3339
   Eigenvalues:    24.3679    30.1075    35.3583
     84  H    Isotropic =    30.4345   Anisotropy =    10.6740
   XX=    36.1694   YX=    -2.5519   ZX=     0.6942
   XY=    -4.2502   YY=    27.7017   ZY=     0.7086
   XZ=     2.5330   YZ=     0.2740   ZZ=    27.4322
   Eigenvalues:    25.8183    27.9346    37.5505
     85  H    Isotropic =    30.6036   Anisotropy =     7.0022
   XX=    29.6170   YX=     0.1554   ZX=     1.7509
   XY=    -1.4069   YY=    32.0566   ZY=    -2.7586
   XZ=     2.6499   YZ=    -4.0917   ZZ=    30.1372
   Eigenvalues:    26.7621    29.7770    35.2717
     86  H    Isotropic =    29.9660   Anisotropy =     9.8903
   XX=    32.2049   YX=     1.8292   ZX=     3.1540
   XY=     1.7025   YY=    25.4902   ZY=     2.1016
   XZ=     3.7155   YZ=     3.3727   ZZ=    32.2029
   Eigenvalues:    24.4724    28.8661    36.5595
     87  H    Isotropic =    30.2732   Anisotropy =     9.8087
   XX=    32.4843   YX=     3.4887   ZX=     0.8636
   XY=     2.5859   YY=    33.0264   ZY=     2.5318
   XZ=     2.9585   YZ=     3.1849   ZZ=    25.3089
   Eigenvalues:    24.2588    29.7485    36.8124
     88  H    Isotropic =    30.5085   Anisotropy =     7.9547
   XX=    33.9441   YX=    -0.8673   ZX=    -2.0278
   XY=    -1.8828   YY=    28.4813   ZY=     3.6859
   XZ=    -2.0302   YZ=     3.9992   ZZ=    29.1002
   Eigenvalues:    24.9196    30.7942    35.8117
     89  H    Isotropic =    30.3509   Anisotropy =     6.2517
   XX=    29.2661   YX=     1.0111   ZX=     0.9726
   XY=     1.0699   YY=    30.8159   ZY=    -4.5519
   XZ=    -0.6825   YZ=    -2.5461   ZZ=    30.9709
   Eigenvalues:    27.0182    29.5159    34.5187
     90  H    Isotropic =    30.3383   Anisotropy =    10.3264
   XX=    35.1127   YX=     1.6923   ZX=    -3.1402
   XY=     2.9141   YY=    27.7874   ZY=    -0.4707
   XZ=    -4.3758   YZ=     0.5000   ZZ=    28.1148
   Eigenvalues:    25.8935    27.8989    37.2226
     91  H    Isotropic =    29.7669   Anisotropy =     7.8297
   XX=    28.9513   YX=     2.8762   ZX=    -0.0228
   XY=     3.5045   YY=    32.1684   ZY=     4.1678
   XZ=    -2.5808   YZ=     2.6437   ZZ=    28.1809
   Eigenvalues:    24.4163    29.8976    34.9867
     92  C    Isotropic =   151.8148   Anisotropy =    45.5669
   XX=   168.0242   YX=   -22.8194   ZX=     0.3191
   XY=   -19.3046   YY=   149.3965   ZY=    -6.8112
   XZ=     2.5321   YZ=    -5.1319   ZZ=   138.0237
   Eigenvalues:   132.3155   140.9362   182.1927
     93  C    Isotropic =   146.7190   Anisotropy =    11.1546
   XX=   148.9668   YX=     0.1722   ZX=    -4.3855
   XY=    -1.5819   YY=   140.7168   ZY=     0.9137
   XZ=    -4.3403   YZ=    -2.9420   ZZ=   150.4734
   Eigenvalues:   140.4176   145.5840   154.1554
     94  C    Isotropic =   153.3845   Anisotropy =    41.3366
   XX=   150.1950   YX=    15.1327   ZX=    13.6334
   XY=    14.9569   YY=   147.2270   ZY=    10.4860
   XZ=    12.1254   YZ=    13.6658   ZZ=   162.7314
   Eigenvalues:   133.5884   145.6228   180.9422
     95  C    Isotropic =   156.8894   Anisotropy =    31.7615
   XX=   148.4831   YX=     9.8448   ZX=    -2.0560
   XY=     5.8551   YY=   173.4941   ZY=    -4.9240
   XZ=    -2.2121   YZ=   -10.9903   ZZ=   148.6909
   Eigenvalues:   146.1374   146.4670   178.0637
     96  H    Isotropic =    30.4029   Anisotropy =     8.4046
   XX=    34.6900   YX=    -0.2781   ZX=     2.0789
   XY=    -0.8062   YY=    28.7647   ZY=     1.5721
   XZ=     4.4996   YZ=     2.0587   ZZ=    27.7539
   Eigenvalues:    25.3870    29.8157    36.0059
     97  H    Isotropic =    30.3739   Anisotropy =    10.8613
   XX=    33.0106   YX=    -3.4597   ZX=    -5.5322
   XY=    -3.2173   YY=    28.8431   ZY=     2.3569
   XZ=    -3.1896   YZ=     1.6684   ZZ=    29.2680
   Eigenvalues:    26.3660    27.1409    37.6148
     98  H    Isotropic =    29.9048   Anisotropy =     7.9792
   XX=    29.6045   YX=    -3.8536   ZX=    -2.4463
   XY=    -0.8145   YY=    33.8196   ZY=    -2.2046
   XZ=    -0.9846   YZ=    -3.0465   ZZ=    26.2902
   Eigenvalues:    24.3636    30.1265    35.2242
     99  H    Isotropic =    29.9615   Anisotropy =     7.6029
   XX=    32.6045   YX=    -4.0381   ZX=     2.7342
   XY=    -2.7781   YY=    29.0604   ZY=     1.6753
   XZ=     2.2917   YZ=     0.9288   ZZ=    28.2195
   Eigenvalues:    25.0243    29.8300    35.0300
    100  H    Isotropic =    29.9678   Anisotropy =     6.9436
   XX=    27.5131   YX=     3.5513   ZX=    -0.5190
   XY=     2.1747   YY=    33.3939   ZY=    -0.1051
   XZ=    -0.7820   YZ=     1.6393   ZZ=    28.9965
   Eigenvalues:    26.0751    29.2315    34.5969
    101  H    Isotropic =    30.3878   Anisotropy =     9.9276
   XX=    27.4823   YX=    -0.5033   ZX=    -0.9741
   XY=    -0.7725   YY=    28.6133   ZY=     3.5169
   XZ=    -2.6246   YZ=     3.5486   ZZ=    35.0679
   Eigenvalues:    26.9372    27.2201    37.0062
    102  H    Isotropic =    29.5694   Anisotropy =     9.9712
   XX=    31.1818   YX=    -5.0821   ZX=    -0.3856
   XY=    -5.5862   YY=    30.5449   ZY=    -0.7764
   XZ=    -0.1569   YZ=    -0.6792   ZZ=    26.9815
   Eigenvalues:    25.2264    27.2649    36.2169
    103  H    Isotropic =    30.6082   Anisotropy =     8.4826
   XX=    30.2710   YX=     0.1465   ZX=    -4.6633
   XY=     0.5249   YY=    28.7322   ZY=    -0.8876
   XZ=    -4.3350   YZ=     0.0061   ZZ=    32.8213
   Eigenvalues:    26.8698    28.6915    36.2633
    104  H    Isotropic =    30.0009   Anisotropy =     8.8437
   XX=    31.6190   YX=     3.5149   ZX=     0.5752
   XY=     3.2214   YY=    30.1948   ZY=     4.0476
   XZ=     1.2470   YZ=     4.0918   ZZ=    28.1890
   Eigenvalues:    24.6790    29.4271    35.8967
    105  C    Isotropic =   149.0791   Anisotropy =    38.9943
   XX=   174.1685   YX=    -5.1288   ZX=    -5.1819
   XY=    -2.1080   YY=   142.8861   ZY=    -0.8988
   XZ=    -3.9754   YZ=     3.6734   ZZ=   130.1826
   Eigenvalues:   129.6323   142.5296   175.0753
    106  C    Isotropic =   146.5315   Anisotropy =    13.5205
   XX=   144.7228   YX=     2.7221   ZX=     2.2920
   XY=     0.4482   YY=   153.2804   ZY=    -3.0185
   XZ=     0.9660   YZ=    -8.0161   ZZ=   141.5912
   Eigenvalues:   138.6654   145.3838   155.5452
    107  C    Isotropic =   156.7157   Anisotropy =    35.6881
   XX=   148.7776   YX=    -7.3843   ZX=    -4.5243
   XY=   -12.0826   YY=   168.0440   ZY=    18.3753
   XZ=    -4.9533   YZ=    10.3986   ZZ=   153.3254
   Eigenvalues:   143.7938   145.8454   180.5077
    108  C    Isotropic =   152.4481   Anisotropy =    43.4588
   XX=   138.3321   YX=    -1.0184   ZX=    16.9298
   XY=     1.4187   YY=   143.4651   ZY=    -5.1260
   XZ=    13.5901   YZ=    -3.4556   ZZ=   175.5472
   Eigenvalues:   132.6214   143.3023   181.4207
    109  H    Isotropic =    29.7911   Anisotropy =     9.8470
   XX=    31.1764   YX=    -4.2712   ZX=    -3.9410
   XY=    -3.2142   YY=    32.1918   ZY=    -0.1261
   XZ=    -3.7899   YZ=     1.1414   ZZ=    26.0051
   Eigenvalues:    23.6991    29.3184    36.3558
    110  H    Isotropic =    30.3186   Anisotropy =     8.1085
   XX=    32.2107   YX=     2.3876   ZX=    -3.9914
   XY=     1.4333   YY=    31.6579   ZY=    -2.1438
   XZ=    -3.5258   YZ=    -1.2460   ZZ=    27.0872
   Eigenvalues:    25.0387    30.1928    35.7243
    111  H    Isotropic =    30.4210   Anisotropy =     5.7959
   XX=    31.9142   YX=    -1.5818   ZX=     2.9481
   XY=    -1.5887   YY=    29.5962   ZY=    -1.4208
   XZ=     1.8417   YZ=    -0.9143   ZZ=    29.7525
   Eigenvalues:    28.1844    28.7936    34.2849
    112  H    Isotropic =    30.0432   Anisotropy =     9.2597
   XX=    32.1457   YX=    -4.3890   ZX=    -2.5193
   XY=    -4.0563   YY=    30.8886   ZY=     0.3885
   XZ=    -3.1318   YZ=    -1.0417   ZZ=    27.0954
   Eigenvalues:    24.8943    29.0189    36.2163
    113  H    Isotropic =    30.0063   Anisotropy =     6.9802
   XX=    26.3752   YX=     0.7544   ZX=    -0.4180
   XY=     0.4448   YY=    30.7104   ZY=     3.1532
   XZ=    -0.2781   YZ=     2.0688   ZZ=    32.9334
   Eigenvalues:    26.2028    29.1564    34.6598
    114  H    Isotropic =    30.4125   Anisotropy =     9.5502
   XX=    27.0336   YX=     0.1418   ZX=    -1.4909
   XY=     0.8405   YY=    36.4981   ZY=    -1.5716
   XZ=    -1.8103   YZ=    -1.2655   ZZ=    27.7059
   Eigenvalues:    25.6592    28.7991    36.7793
    115  H    Isotropic =    30.5299   Anisotropy =     8.5651
   XX=    33.1866   YX=    -2.8134   ZX=     4.1855
   XY=    -0.5658   YY=    28.3848   ZY=    -0.8550
   XZ=     3.1398   YZ=    -2.2050   ZZ=    30.0183
   Eigenvalues:    27.3315    28.0183    36.2399
    116  H    Isotropic =    30.3717   Anisotropy =     9.7038
   XX=    26.9151   YX=    -0.9226   ZX=     0.4456
   XY=     0.5656   YY=    31.5452   ZY=    -4.0996
   XZ=    -1.7056   YZ=    -5.2917   ZZ=    32.6549
   Eigenvalues:    26.5377    27.7365    36.8409
    117  H    Isotropic =    29.7008   Anisotropy =     5.2117
   XX=    25.6082   YX=    -1.4107   ZX=     2.2459
   XY=    -0.7631   YY=    31.7420   ZY=     0.8809
   XZ=    -1.4976   YZ=     1.9053   ZZ=    31.7523
   Eigenvalues:    25.3616    30.5656    33.1753
    118  C    Isotropic =   155.3613   Anisotropy =    33.0481
   XX=   175.7576   YX=     0.8685   ZX=     3.6982
   XY=    -5.1448   YY=   143.3555   ZY=    -1.1755
   XZ=     9.7360   YZ=    -0.0971   ZZ=   146.9707
   Eigenvalues:   143.1991   145.4913   177.3933
    119  C    Isotropic =   146.7559   Anisotropy =    12.4601
   XX=   142.5414   YX=    -2.0040   ZX=     0.3417
   XY=    -5.3264   YY=   148.5773   ZY=    -5.1191
   XZ=     3.2961   YZ=    -4.8754   ZZ=   149.1490
   Eigenvalues:   140.7678   144.4373   155.0626
    120  C    Isotropic =   151.8004   Anisotropy =    45.0173
   XX=   150.9888   YX=    -8.9818   ZX=   -17.7114
   XY=    -8.4308   YY=   136.0286   ZY=     3.3143
   XZ=   -21.0609   YZ=     0.3645   ZZ=   168.3838
   Eigenvalues:   130.3372   143.2521   181.8119
    121  C    Isotropic =   152.0113   Anisotropy =    43.0871
   XX=   142.2035   YX=     9.1168   ZX=     8.7934
   XY=    12.1489   YY=   171.8741   ZY=    11.7684
   XZ=     7.5595   YZ=    13.3567   ZZ=   141.9562
   Eigenvalues:   133.8006   141.4972   180.7360
    122  H    Isotropic =    29.3754   Anisotropy =    11.3721
   XX=    33.1436   YX=    -1.8290   ZX=    -5.9185
   XY=    -1.9904   YY=    26.9557   ZY=    -0.9874
   XZ=    -5.3963   YZ=    -0.2738   ZZ=    28.0269
   Eigenvalues:    23.6153    27.5542    36.9568
    123  H    Isotropic =    30.2006   Anisotropy =     7.8821
   XX=    29.9199   YX=    -1.5985   ZX=     1.3131
   XY=    -1.0629   YY=    29.8200   ZY=    -4.4275
   XZ=     0.8136   YZ=    -4.7214   ZZ=    30.8621
   Eigenvalues:    25.7162    29.4304    35.4553
    124  H    Isotropic =    29.5589   Anisotropy =     6.9181
   XX=    30.4165   YX=     4.3184   ZX=     1.4608
   XY=     3.6855   YY=    28.6284   ZY=     0.5725
   XZ=     2.2105   YZ=    -0.1733   ZZ=    29.6316
   Eigenvalues:    25.1853    29.3204    34.1709
    125  H    Isotropic =    29.7368   Anisotropy =     7.9548
   XX=    34.3412   YX=    -1.0710   ZX=    -0.5755
   XY=    -2.4330   YY=    25.2986   ZY=    -0.7588
   XZ=    -2.8693   YZ=    -2.7618   ZZ=    29.5705
   Eigenvalues:    24.1688    30.0015    35.0400
    126  H    Isotropic =    30.2690   Anisotropy =     7.8282
   XX=    27.7769   YX=    -0.0549   ZX=    -2.1397
   XY=     0.3600   YY=    29.6287   ZY=     4.3893
   XZ=    -1.1392   YZ=     2.0558   ZZ=    33.4015
   Eigenvalues:    26.7187    28.6005    35.4878
    127  H    Isotropic =    30.2286   Anisotropy =    10.4545
   XX=    28.1958   YX=     0.9306   ZX=    -2.6887
   XY=     0.2531   YY=    28.1837   ZY=    -3.1203
   XZ=    -2.2608   YZ=    -5.4654   ZZ=    34.3062
   Eigenvalues:    25.7736    27.7139    37.1983
    128  H    Isotropic =    29.6754   Anisotropy =     7.6358
   XX=    32.9236   YX=     0.8032   ZX=     2.4186
   XY=     3.0419   YY=    30.0646   ZY=    -0.6982
   XZ=     3.6965   YZ=     0.5923   ZZ=    26.0379
   Eigenvalues:    24.7680    29.4922    34.7659
    129  H    Isotropic =    30.1189   Anisotropy =     9.8882
   XX=    27.7176   YX=     1.6163   ZX=    -0.5175
   XY=     1.5807   YY=    35.4211   ZY=    -4.0665
   XZ=    -0.3154   YZ=    -1.9592   ZZ=    27.2181
   Eigenvalues:    26.2219    27.4239    36.7111
    130  H    Isotropic =    30.1431   Anisotropy =     6.6677
   XX=    29.2098   YX=     0.1607   ZX=    -2.1403
   XY=    -0.3468   YY=    31.3614   ZY=     2.4447
   XZ=    -3.0443   YZ=     4.1666   ZZ=    29.8580
   Eigenvalues:    25.9068    29.9342    34.5882
    131  C    Isotropic =   150.5645   Anisotropy =    42.6807
   XX=   142.4971   YX=     2.1484   ZX=     1.9353
   XY=     4.3991   YY=   130.4046   ZY=     4.1790
   XZ=     2.0048   YZ=     0.2900   ZZ=   178.7917
   Eigenvalues:   129.5173   143.1579   179.0183
    132  C    Isotropic =   146.5173   Anisotropy =    14.5140
   XX=   155.9242   YX=     1.0771   ZX=    -0.0904
   XY=    -3.4931   YY=   141.6262   ZY=     1.6988
   XZ=     3.4627   YZ=     1.9165   ZZ=   142.0014
   Eigenvalues:   139.7419   143.6166   156.1933
    133  C    Isotropic =   156.4096   Anisotropy =    36.2871
   XX=   161.7076   YX=    18.0667   ZX=   -13.9556
   XY=    11.1295   YY=   156.4941   ZY=    -8.9238
   XZ=    -7.3894   YZ=    -9.3418   ZZ=   151.0272
   Eigenvalues:   144.1709   144.4570   180.6010
    134  C    Isotropic =   152.4960   Anisotropy =    42.5367
   XX=   146.7997   YX=    -8.0940   ZX=    -1.3096
   XY=    -6.5241   YY=   177.3379   ZY=     8.1600
   XZ=    -4.4801   YZ=     9.7824   ZZ=   133.3504
   Eigenvalues:   131.4453   145.1890   180.8538
    135  H    Isotropic =    29.8044   Anisotropy =    10.0754
   XX=    32.4369   YX=     4.1983   ZX=    -2.0422
   XY=     3.4186   YY=    26.7409   ZY=    -1.6534
   XZ=    -2.2736   YZ=    -5.6458   ZZ=    30.2355
   Eigenvalues:    23.8204    29.0715    36.5214
    136  H    Isotropic =    30.3525   Anisotropy =     9.1304
   XX=    33.0974   YX=     0.1635   ZX=     3.0881
   XY=     0.3531   YY=    26.4985   ZY=    -0.9322
   XZ=     4.8977   YZ=    -2.5529   ZZ=    31.4616
   Eigenvalues:    25.5576    29.0604    36.4394
    137  H    Isotropic =    30.3641   Anisotropy =     5.8919
   XX=    28.9232   YX=     0.4676   ZX=    -0.8073
   XY=     0.9508   YY=    30.8101   ZY=     3.3162
   XZ=     1.3391   YZ=     2.9042   ZZ=    31.3590
   Eigenvalues:    27.8450    28.9552    34.2920
    138  H    Isotropic =    29.9662   Anisotropy =     8.7828
   XX=    30.4592   YX=     0.8878   ZX=    -3.4582
   XY=    -0.7405   YY=    26.6636   ZY=    -3.0005
   XZ=    -3.1784   YZ=    -2.9365   ZZ=    32.7758
   Eigenvalues:    25.1312    28.9460    35.8214
    139  H    Isotropic =    29.8433   Anisotropy =     8.2817
   XX=    29.6269   YX=     3.0689   ZX=     0.2617
   XY=     2.0734   YY=    34.1060   ZY=    -1.1639
   XZ=     1.5994   YZ=    -1.6712   ZZ=    25.7970
   Eigenvalues:    25.1032    29.0622    35.3645
    140  H    Isotropic =    30.4021   Anisotropy =     9.8065
   XX=    36.8630   YX=     0.6506   ZX=     0.7813
   XY=     0.6800   YY=    27.5051   ZY=    -1.4061
   XZ=     0.5272   YZ=    -1.7768   ZZ=    26.8383
   Eigenvalues:    25.4702    28.7964    36.9398
    141  H    Isotropic =    30.6897   Anisotropy =     7.3080
   XX=    29.2243   YX=     0.0640   ZX=    -1.6424
   XY=    -1.8383   YY=    30.9854   ZY=     3.2812
   XZ=    -3.4615   YZ=     2.9059   ZZ=    31.8595
   Eigenvalues:    27.3217    29.1858    35.5618
    142  H    Isotropic =    30.5501   Anisotropy =     9.4122
   XX=    34.4197   YX=    -2.6699   ZX=     0.6514
   XY=    -4.5231   YY=    31.2993   ZY=    -1.8083
   XZ=    -0.8293   YZ=    -0.9936   ZZ=    25.9312
   Eigenvalues:    25.4607    29.3647    36.8249
    143  H    Isotropic =    30.2325   Anisotropy =    10.6021
   XX=    33.1712   YX=     3.0477   ZX=    -2.5430
   XY=     2.8528   YY=    32.8448   ZY=    -3.3588
   XZ=    -4.2167   YZ=    -1.4312   ZZ=    24.6815
   Eigenvalues:    23.3026    30.0943    37.3006
    144  C    Isotropic =   154.9106   Anisotropy =    34.5815
   XX=   157.3536   YX=   -12.2224   ZX=    15.0660
   XY=    -5.1118   YY=   147.8573   ZY=    -3.6092
   XZ=    16.3526   YZ=    -9.3509   ZZ=   159.5209
   Eigenvalues:   141.4464   145.3204   177.9649
    145  C    Isotropic =   147.0884   Anisotropy =    11.6154
   XX=   147.0791   YX=     1.1223   ZX=     0.4639
   XY=     5.0272   YY=   147.1901   ZY=     8.0187
   XZ=     2.1832   YZ=     4.9137   ZZ=   146.9960
   Eigenvalues:   140.3786   146.0547   154.8320
    146  C    Isotropic =   152.9676   Anisotropy =    40.6955
   XX=   146.9770   YX=    17.2597   ZX=   -10.4205
   XY=    14.3926   YY=   153.1658   ZY=   -15.4932
   XZ=    -8.4328   YZ=   -13.5163   ZZ=   158.7601
   Eigenvalues:   133.7090   145.0959   180.0980
    147  C    Isotropic =   151.5216   Anisotropy =    46.7954
   XX=   161.8029   YX=   -20.1052   ZX=   -10.8860
   XY=   -18.9231   YY=   148.1757   ZY=    11.3840
   XZ=    -9.6238   YZ=    15.9909   ZZ=   144.5863
   Eigenvalues:   130.8366   141.0098   182.7186
    148  H    Isotropic =    29.7462   Anisotropy =     5.6547
   XX=    26.2991   YX=    -0.8124   ZX=    -0.4203
   XY=     0.3721   YY=    30.4564   ZY=    -1.5407
   XZ=     1.0065   YZ=    -1.9724   ZZ=    32.4832
   Eigenvalues:    26.2801    29.4425    33.5160
    149  H    Isotropic =    30.4367   Anisotropy =     8.0761
   XX=    29.6572   YX=     0.5749   ZX=     3.5689
   XY=     0.3528   YY=    31.2801   ZY=     3.0503
   XZ=     4.5274   YZ=     3.4304   ZZ=    30.3730
   Eigenvalues:    25.2905    30.1989    35.8208
    150  H    Isotropic =    29.8148   Anisotropy =    10.4426
   XX=    33.4890   YX=    -4.6684   ZX=     1.7154
   XY=    -4.5204   YY=    29.8472   ZY=     2.1574
   XZ=     3.4112   YZ=     0.8082   ZZ=    26.1082
   Eigenvalues:    23.6603    29.0076    36.7765
    151  H    Isotropic =    29.9631   Anisotropy =     6.9495
   XX=    27.6755   YX=     1.1599   ZX=     2.2184
   XY=    -0.8516   YY=    30.7155   ZY=    -2.6813
   XZ=     3.6282   YZ=    -2.8242   ZZ=    31.4982
   Eigenvalues:    25.6152    29.6779    34.5961
    152  H    Isotropic =    30.2941   Anisotropy =     6.6524
   XX=    31.7448   YX=    -1.9002   ZX=    -2.8931
   XY=    -1.1946   YY=    30.2131   ZY=     0.7578
   XZ=    -3.8396   YZ=     1.2117   ZZ=    28.9244
   Eigenvalues:    26.6844    29.4689    34.7291
    153  H    Isotropic =    30.4466   Anisotropy =     9.3045
   XX=    28.6647   YX=     3.6363   ZX=     1.3753
   XY=     2.9805   YY=    35.1609   ZY=     1.1355
   XZ=     0.8666   YZ=    -0.0065   ZZ=    27.5142
   Eigenvalues:    26.5313    28.1588    36.6496
    154  H    Isotropic =    30.0004   Anisotropy =     8.1330
   XX=    31.7171   YX=    -5.4304   ZX=     3.1260
   XY=    -3.4080   YY=    29.4158   ZY=    -0.0676
   XZ=     2.1319   YZ=     2.6232   ZZ=    28.8682
   Eigenvalues:    24.4066    30.1721    35.4224
    155  H    Isotropic =    30.3435   Anisotropy =    10.8940
   XX=    27.7031   YX=    -3.1925   ZX=    -1.0152
   XY=    -1.0617   YY=    34.0095   ZY=     4.4643
   XZ=     0.5213   YZ=     5.6284   ZZ=    29.3179
   Eigenvalues:    25.6062    27.8181    37.6062
    156  H    Isotropic =    30.4709   Anisotropy =     8.2130
   XX=    31.7247   YX=    -1.4495   ZX=    -5.6531
   XY=    -0.3925   YY=    28.7673   ZY=     0.2806
   XZ=    -3.1489   YZ=     1.2937   ZZ=    30.9206
   Eigenvalues:    26.9024    28.5639    35.9462
    157  C    Isotropic =   151.0023   Anisotropy =    46.4291
   XX=   170.7436   YX=   -20.1290   ZX=    -4.9402
   XY=   -16.5083   YY=   144.4727   ZY=     8.2929
   XZ=    -7.4015   YZ=     6.6319   ZZ=   137.7906
   Eigenvalues:   131.7523   139.2995   181.9550
    158  C    Isotropic =   146.8928   Anisotropy =    10.8204
   XX=   149.6327   YX=     0.3170   ZX=     4.7982
   XY=    -1.8139   YY=   140.8433   ZY=    -1.9653
   XZ=     3.5168   YZ=     1.9005   ZZ=   150.2023
   Eigenvalues:   140.7666   145.8054   154.1064
    159  C    Isotropic =   153.4633   Anisotropy =    41.0370
   XX=   147.3982   YX=    15.6161   ZX=    -8.9170
   XY=    15.4537   YY=   152.5193   ZY=   -13.8304
   XZ=    -8.5243   YZ=   -17.1022   ZZ=   160.4724
   Eigenvalues:   133.5676   146.0010   180.8213
    160  C    Isotropic =   156.5250   Anisotropy =    31.4519
   XX=   146.8267   YX=     7.4612   ZX=     3.1401
   XY=     3.8236   YY=   172.0150   ZY=     7.3829
   XZ=     1.6848   YZ=    13.4516   ZZ=   150.7333
   Eigenvalues:   145.5879   146.4942   177.4929
    161  H    Isotropic =    30.3332   Anisotropy =     8.4926
   XX=    34.4429   YX=     0.3039   ZX=    -2.2401
   XY=    -0.0427   YY=    28.9146   ZY=    -1.7538
   XZ=    -4.6386   YZ=    -2.2140   ZZ=    27.6420
   Eigenvalues:    25.3084    29.6961    35.9949
    162  H    Isotropic =    30.2875   Anisotropy =    10.9834
   XX=    34.0025   YX=    -3.8010   ZX=     5.0726
   XY=    -3.3053   YY=    28.6334   ZY=    -1.8302
   XZ=     2.6411   YZ=    -1.3057   ZZ=    28.2267
   Eigenvalues:    26.2535    26.9993    37.6098
    163  H    Isotropic =    29.9276   Anisotropy =     7.9815
   XX=    30.1768   YX=    -4.2208   ZX=     1.4937
   XY=    -1.0499   YY=    32.7433   ZY=     3.0360
   XZ=     0.2458   YZ=     3.9858   ZZ=    26.8629
   Eigenvalues:    24.5314    30.0029    35.2487
    164  H    Isotropic =    30.0872   Anisotropy =     7.4598
   XX=    32.8833   YX=    -3.3247   ZX=    -3.4947
   XY=    -2.0420   YY=    28.8194   ZY=    -1.5228
   XZ=    -2.6311   YZ=    -0.9550   ZZ=    28.5590
   Eigenvalues:    25.2667    29.9346    35.0604
    165  H    Isotropic =    29.8574   Anisotropy =     7.1575
   XX=    26.9228   YX=     2.8522   ZX=     1.1133
   XY=     1.6269   YY=    33.9771   ZY=     0.7094
   XZ=     1.4444   YZ=    -1.2878   ZZ=    28.6724
   Eigenvalues:    25.6962    29.2470    34.6291
    166  H    Isotropic =    30.3820   Anisotropy =    10.0033
   XX=    27.8041   YX=    -0.8375   ZX=     1.6290
   XY=    -1.2686   YY=    29.3234   ZY=    -3.9949
   XZ=     3.2340   YZ=    -3.9847   ZZ=    34.0185
   Eigenvalues:    26.7658    27.3293    37.0508
    167  H    Isotropic =    29.7382   Anisotropy =     9.3579
   XX=    31.7589   YX=    -4.8351   ZX=    -0.3633
   XY=    -5.0762   YY=    29.9237   ZY=     0.9781
   XZ=    -0.4950   YZ=     0.7985   ZZ=    27.5321
   Eigenvalues:    25.7059    27.5320    35.9768
    168  H    Isotropic =    30.5832   Anisotropy =     8.5591
   XX=    30.4543   YX=    -0.1749   ZX=     4.7538
   XY=     0.2246   YY=    28.7358   ZY=     0.6969
   XZ=     4.5685   YZ=    -0.3001   ZZ=    32.5595
   Eigenvalues:    26.7230    28.7374    36.2893
    169  H    Isotropic =    29.9756   Anisotropy =     8.8238
   XX=    30.8651   YX=     3.3684   ZX=     0.3837
   XY=     3.0221   YY=    32.1214   ZY=    -3.7327
   XZ=    -0.1697   YZ=    -4.1721   ZZ=    26.9402
   Eigenvalues:    24.3522    29.7164    35.8581
    170  H    Isotropic =    27.7505   Anisotropy =     8.3525
   XX=    27.7992   YX=    -3.0589   ZX=     0.8992
   XY=    -2.5410   YY=    23.2363   ZY=    -0.8335
   XZ=     3.1950   YZ=    -0.5406   ZZ=    32.2158
   Eigenvalues:    21.8991    28.0335    33.3188
    171  H    Isotropic =    26.9959   Anisotropy =     7.8910
   XX=    22.1542   YX=    -3.9081   ZX=     0.4714
   XY=    -2.8426   YY=    27.1053   ZY=     0.3749
   XZ=    -2.1244   YZ=     1.7957   ZZ=    31.7283
   Eigenvalues:    20.4384    28.2928    32.2566
 End of Minotr F.D. properties file   721 does not exist.
 End of Minotr F.D. properties file   722 does not exist.
 End of Minotr F.D. properties file   788 does not exist.
 Hyperfine terms turned off by default for NAtoms > 100.

 **********************************************************************

            Population analysis using the SCF Density.

 **********************************************************************

 Orbital symmetries:
       Occupied  (A) (A) (A) (A) (A) (A) (A) (A) (A) (A) (A) (A)
                 (A) (A) (A) (A) (A) (A) (A) (A) (A) (A) (A) (A)
                 (A) (A) (A) (A) (A) (A) (A) (A) (A) (A) (A) (A)
                 (A) (A) (A) (A) (A) (A) (A) (A) (A) (A) (A) (A)
                 (A) (A) (A) (A) (A) (A) (A) (A) (A) (A) (A) (A)
                 (A) (A) (A) (A) (A) (A) (A) (A) (A) (A) (A) (A)
                 (A) (A) (A) (A) (A) (A) (A) (A) (A) (A) (A) (A)
                 (A) (A) (A) (A) (A) (A) (A) (A) (A) (A) (A) (A)
                 (A) (A) (A) (A) (A) (A) (A) (A) (A) (A) (A) (A)
                 (A) (A) (A) (A) (A) (A) (A) (A) (A) (A) (A) (A)
                 (A) (A) (A) (A) (A) (A) (A) (A) (A) (A) (A) (A)
                 (A) (A) (A) (A) (A) (A) (A) (A) (A) (A) (A) (A)
                 (A) (A) (A) (A) (A) (A) (A) (A) (A) (A) (A) (A)
                 (A) (A) (A) (A) (A) (A) (A) (A) (A) (A) (A) (A)
                 (A) (A) (A) (A) (A) (A) (A) (A) (A) (A) (A) (A)
                 (A) (A) (A) (A) (A) (A) (A) (A) (A) (A) (A) (A)
                 (A) (A) (A) (A) (A) (A) (A) (A) (A) (A) (A) (A)
                 (A) (A) (A) (A) (A) (A) (A) (A) (A) (A) (A) (A)
                 (A) (A) (A) (A) (A) (A) (A) (A) (A) (A) (A) (A)
                 (A) (A) (A) (A) (A) (A) (A) (A) (A) (A) (A) (A)
                 (A) (A) (A) (A) (A) (A) (A) (A) (A) (A) (A) (A)
                 (A) (A) (A) (A) (A) (A) (A) (A) (A) (A) (A) (A)
                 (A) (A) (A) (A) (A) (A) (A) (A) (A) (A) (A) (A)
                 (A) (A) (A) (A) (A) (A) (A) (A)
       Virtual   (A) (A) (A) (A) (A) (A) (A) (A) (A) (A) (A) (A)
                 (A) (A) (A) (A) (A) (A) (A) (A) (A) (A) (A) (A)
                 (A) (A) (A) (A) (A) (A) (A) (A) (A) (A) (A) (A)
                 (A) (A) (A) (A) (A) (A) (A) (A) (A) (A) (A) (A)
                 (A) (A) (A) (A) (A) (A) (A) (A) (A) (A) (A) (A)
                 (A) (A) (A) (A) (A) (A) (A) (A) (A) (A) (A) (A)
                 (A) (A) (A) (A) (A) (A) (A) (A) (A) (A) (A) (A)
                 (A) (A) (A) (A) (A) (A) (A) (A) (A) (A) (A) (A)
                 (A) (A) (A) (A) (A) (A) (A) (A) (A) (A) (A) (A)
                 (A) (A) (A) (A) (A) (A) (A) (A) (A) (A) (A) (A)
                 (A) (A) (A) (A) (A) (A) (A) (A) (A) (A) (A) (A)
                 (A) (A) (A) (A) (A) (A) (A) (A) (A) (A) (A) (A)
                 (A) (A) (A) (A) (A) (A) (A) (A) (A) (A) (A) (A)
                 (A) (A) (A) (A) (A) (A) (A) (A) (A) (A) (A) (A)
                 (A) (A) (A) (A) (A) (A) (A) (A) (A) (A) (A) (A)
                 (A) (A) (A) (A) (A) (A) (A) (A) (A) (A) (A) (A)
                 (A) (A) (A) (A) (A) (A) (A) (A) (A) (A) (A) (A)
                 (A) (A) (A) (A) (A) (A) (A) (A) (A) (A) (A) (A)
                 (A) (A) (A) (A) (A) (A) (A) (A) (A) (A) (A) (A)
                 (A) (A) (A) (A) (A) (A) (A) (A) (A) (A) (A) (A)
[...]
  2763. BD*(   1) C  19 - C  20          0.01314     0.55649   
  2764. BD*(   1) C  19 - H  49          0.01407     0.41385   
  2765. BD*(   1) C  20 - C  21          0.03171     0.53405   
  2766. BD*(   2) C  20 - C  21          0.37165     0.03664  2761(v),2759(v),784(g)
                                                    2726(v),2774(r)
  2767. BD*(   1) C  20 - H  50          0.01446     0.40744   
  2768. BD*(   1) C  21 - C  22          0.04139     0.51841   
  2769. BD*(   1) C  22 - C  23          0.03076     0.44664   
  2770. BD*(   1) C  23 - C  24          0.04389     0.52286   
  2771. BD*(   1) C  23 - C  28          0.03176     0.53416   
  2772. BD*(   2) C  23 - C  28          0.40515     0.04599  2778(v),2759(v),2774(v)
                                                    2745(r),2797(r),2724(v)
                                                    2768(v),2758(v),993(g)
                                                    966(v),2747(r),862(g),863(g)
  2773. BD*(   1) C  24 - C  25          0.03223     0.53544   
  2774. BD*(   2) C  24 - C  25          0.36953     0.03850  2778(v),2772(v),2728(v)
                                                    914(g),2766(r)
  2775. BD*(   1) C  25 - C  26          0.01344     0.55922   
  2776. BD*(   1) C  25 - H  51          0.01358     0.40889   
  2777. BD*(   1) C  26 - C  27          0.01642     0.56116   
  2778. BD*(   2) C  26 - C  27          0.33526     0.04445  2772(v),2774(v),941(g)
                                                    2784(r),966(g),2786(r)
  2779. BD*(   1) C  26 - H  52          0.01414     0.41485   
  2780. BD*(   1) C  27 - C  28          0.02256     0.54464   
  2781. BD*(   1) C  27 - H  53          0.01692     0.43613   
  2782. BD*(   1) C  29 - C  30          0.02269     0.55081   
  2783. BD*(   1) C  29 - C  34          0.03062     0.56634   
  2784. BD*(   2) C  29 - C  34          0.34867     0.04434  2791(v),2786(v),1148(g)
                                                    2722(v),2778(r),1020(g)
  2785. BD*(   1) C  30 - C  31          0.02567     0.56631   
  2786. BD*(   2) C  30 - C  31          0.32114     0.05233  2791(v),2784(v),1044(g)
                                                    2871(v),2870(v),2778(r)
  2787. BD*(   1) C  30 - H  54          0.01875     0.42906   
  2788. BD*(   1) C  31 - C  32          0.02282     0.54789   
  2789. BD*(   1) C  31 - C 119          0.03974     0.38437   
  2790. BD*(   1) C  32 - C  33          0.02317     0.56553   
  2791. BD*(   2) C  32 - C  33          0.32350     0.05206  2786(v),2784(v),1096(g)
                                                    2878(v),2883(v),1123(g)
  2792. BD*(   1) C  32 - H  55          0.01812     0.42208   
  2793. BD*(   1) C  33 - C  34          0.02589     0.55029   
  2794. BD*(   1) C  33 - C 132          0.04013     0.38330   
  2795. BD*(   1) C  34 - H  56          0.02036     0.43554   
  2796. BD*(   1) C  35 - C  36          0.02389     0.55733   
  2797. BD*(   2) C  35 - C  36          0.36634     0.04687  2802(v),2807(v),2759(r)
                                                    2772(r),1200(g),2723(v)
                                                    2722(v)
  2798. BD*(   1) C  35 - C  40          0.03275     0.55151   
  2799. BD*(   1) C  36 - C  37          0.02611     0.56152   
  2800. BD*(   1) C  36 - H  57          0.01834     0.42959   
  2801. BD*(   1) C  37 - C  38          0.02261     0.55498   
  2802. BD*(   2) C  37 - C  38          0.33702     0.05212  2797(v),2807(v),1252(g)
                                                    2895(v),2894(v),1227(g)
  2803. BD*(   1) C  37 - C 145          0.03965     0.38737   
  2804. BD*(   1) C  38 - C  39          0.02303     0.55343   
  2805. BD*(   1) C  38 - H  58          0.01835     0.41852   
  2806. BD*(   1) C  39 - C  40          0.02734     0.56072   
  2807. BD*(   2) C  39 - C  40          0.32853     0.05734  2802(v),2797(v),1304(g)
                                                    2902(v),2906(v),1279(g)
  2808. BD*(   1) C  39 - C 158          0.04029     0.38708   
  2809. BD*(   1) C  40 - H  59          0.01771     0.43964   
  2810. BD*(   1) C  41 - H  60          0.02278     0.34008   
  2811. BD*(   1) C  41 - C  61          0.02480     0.33839   
  2812. BD*(   1) C  41 - H 171          0.02194     0.34352   
  2813. BD*(   1) C  61 - C  62          0.02777     0.33856   
  2814. BD*(   1) C  61 - H  64          0.01578     0.35184   
  2815. BD*(   1) C  61 - H  65          0.00925     0.34234   
  2816. BD*(   1) C  62 - H  63          0.02727     0.33722   
  2817. BD*(   1) C  62 - H 170          0.01896     0.34380   
  2818. BD*(   1) C  66 - C  67          0.02410     0.33479   
  2819. BD*(   1) C  66 - H  70          0.00672     0.38298   
  2820. BD*(   1) C  66 - H  71          0.00772     0.38083   
  2821. BD*(   1) C  66 - H  72          0.00720     0.39075   
  2822. BD*(   1) C  67 - C  68          0.02460     0.33301   
  2823. BD*(   1) C  67 - C  69          0.02084     0.34293   
  2824. BD*(   1) C  68 - H  73          0.00782     0.37986   
  2825. BD*(   1) C  68 - H  74          0.00647     0.38872   
  2826. BD*(   1) C  68 - H  75          0.00658     0.38523   
  2827. BD*(   1) C  69 - H  76          0.00741     0.38049   
  2828. BD*(   1) C  69 - H  77          0.00710     0.38453   
  2829. BD*(   1) C  69 - H  78          0.00723     0.38024   
  2830. BD*(   1) C  79 - C  80          0.02456     0.33487   
  2831. BD*(   1) C  79 - H  83          0.00679     0.38588   
  2832. BD*(   1) C  79 - H  84          0.00787     0.38028   
  2833. BD*(   1) C  79 - H  85          0.00662     0.38644   
  2834. BD*(   1) C  80 - C  81          0.02097     0.34383   
  2835. BD*(   1) C  80 - C  82          0.02438     0.33492   
  2836. BD*(   1) C  81 - H  86          0.00765     0.38434   
  2837. BD*(   1) C  81 - H  87          0.00730     0.38580   
  2838. BD*(   1) C  81 - H  88          0.00709     0.38711   
  2839. BD*(   1) C  82 - H  89          0.00668     0.38498   
  2840. BD*(   1) C  82 - H  90          0.00776     0.38023   
  2841. BD*(   1) C  82 - H  91          0.00687     0.38595   
  2842. BD*(   1) C  92 - C  93          0.02442     0.33767   
  2843. BD*(   1) C  92 - H  96          0.00677     0.38746   
  2844. BD*(   1) C  92 - H  97          0.00787     0.38177   
  2845. BD*(   1) C  92 - H  98          0.00697     0.38753   
  2846. BD*(   1) C  93 - C  94          0.02503     0.33648   
  2847. BD*(   1) C  93 - C  95          0.02054     0.34721   
  2848. BD*(   1) C  94 - H  99          0.00738     0.39341   
  2849. BD*(   1) C  94 - H 100          0.00704     0.38720   
  2850. BD*(   1) C  94 - H 101          0.00804     0.38127   
  2851. BD*(   1) C  95 - H 102          0.00799     0.39898   
  2852. BD*(   1) C  95 - H 103          0.00718     0.38792   
  2853. BD*(   1) C  95 - H 104          0.00790     0.38875   
  2854. BD*(   1) C 105 - C 106          0.02464     0.33599   
  2855. BD*(   1) C 105 - H 109          0.00723     0.39391   
  2856. BD*(   1) C 105 - H 110          0.00807     0.38289   
  2857. BD*(   1) C 105 - H 111          0.00716     0.39254   
  2858. BD*(   1) C 106 - C 107          0.02088     0.34560   
  2859. BD*(   1) C 106 - C 108          0.02420     0.33660   
  2860. BD*(   1) C 107 - H 112          0.00737     0.38254   
  2861. BD*(   1) C 107 - H 113          0.00733     0.38179   
  2862. BD*(   1) C 107 - H 114          0.00711     0.38632   
  2863. BD*(   1) C 108 - H 115          0.00669     0.38707   
  2864. BD*(   1) C 108 - H 116          0.00770     0.38221   
  2865. BD*(   1) C 108 - H 117          0.00670     0.39029   
  2866. BD*(   1) C 118 - C 119          0.02051     0.34310   
  2867. BD*(   1) C 118 - H 122          0.00789     0.38810   
  2868. BD*(   1) C 118 - H 123          0.00715     0.38595   
  2869. BD*(   1) C 118 - H 124          0.00713     0.38462   
  2870. BD*(   1) C 119 - C 120          0.02440     0.33391   
  2871. BD*(   1) C 119 - C 121          0.02475     0.33427   
  2872. BD*(   1) C 120 - H 125          0.00689     0.38518   
  2873. BD*(   1) C 120 - H 126          0.00654     0.38586   
  2874. BD*(   1) C 120 - H 127          0.00777     0.38028   
  2875. BD*(   1) C 121 - H 128          0.00675     0.38414   
  2876. BD*(   1) C 121 - H 129          0.00785     0.37951   
  2877. BD*(   1) C 121 - H 130          0.00666     0.38394   
  2878. BD*(   1) C 131 - C 132          0.02444     0.33367   
  2879. BD*(   1) C 131 - H 135          0.00721     0.38848   
  2880. BD*(   1) C 131 - H 136          0.00790     0.38023   
  2881. BD*(   1) C 131 - H 137          0.00670     0.38513   
  2882. BD*(   1) C 132 - C 133          0.02087     0.34351   
  2883. BD*(   1) C 132 - C 134          0.02408     0.33477   
  2884. BD*(   1) C 133 - H 138          0.00733     0.38153   
  2885. BD*(   1) C 133 - H 139          0.00742     0.38070   
  2886. BD*(   1) C 133 - H 140          0.00712     0.38477   
  2887. BD*(   1) C 134 - H 141          0.00661     0.38688   
  2888. BD*(   1) C 134 - H 142          0.00760     0.38072   
  2889. BD*(   1) C 134 - H 143          0.00673     0.38985   
  2890. BD*(   1) C 144 - C 145          0.02083     0.34594   
  2891. BD*(   1) C 144 - H 148          0.00732     0.38673   
  2892. BD*(   1) C 144 - H 149          0.00720     0.38833   
  2893. BD*(   1) C 144 - H 150          0.00733     0.38896   
  2894. BD*(   1) C 145 - C 146          0.02421     0.33601   
  2895. BD*(   1) C 145 - C 147          0.02479     0.33683   
  2896. BD*(   1) C 146 - H 151          0.00695     0.38554   
  2897. BD*(   1) C 146 - H 152          0.00723     0.39178   
  2898. BD*(   1) C 146 - H 153          0.00781     0.38214   
  2899. BD*(   1) C 147 - H 154          0.00673     0.38516   
  2900. BD*(   1) C 147 - H 155          0.00790     0.38111   
  2901. BD*(   1) C 147 - H 156          0.00663     0.38685   
  2902. BD*(   1) C 157 - C 158          0.02452     0.33568   
  2903. BD*(   1) C 157 - H 161          0.00677     0.38457   
  2904. BD*(   1) C 157 - H 162          0.00793     0.38023   
  2905. BD*(   1) C 157 - H 163          0.00686     0.38540   
  2906. BD*(   1) C 158 - C 159          0.02481     0.33472   
  2907. BD*(   1) C 158 - C 160          0.02054     0.34546   
  2908. BD*(   1) C 159 - H 164          0.00723     0.39053   
  2909. BD*(   1) C 159 - H 165          0.00708     0.38497   
  2910. BD*(   1) C 159 - H 166          0.00800     0.37980   
  2911. BD*(   1) C 160 - H 167          0.00762     0.39585   
  2912. BD*(   1) C 160 - H 168          0.00715     0.38676   
  2913. BD*(   1) C 160 - H 169          0.00792     0.38593   
       -------------------------------
              Total Lewis  557.60935  ( 98.1707%)
        Valence non-Lewis    9.43686  (  1.6614%)
        Rydberg non-Lewis    0.95379  (  0.1679%)
       -------------------------------
            Total unit  1  568.00000  (100.0000%)
           Charge unit  1    0.00000
 1\1\GINC-NOTCH209\SP\RPBE1PBE\def2TZVP\C71H96O2P2\U1010977\02-Nov-2021
 \0\\# PBE1PBE/def2TZVP int=(grid=ultrafine) empiricaldispersion=GD3BJ 
 pop=nbo guess=read geom=check\\title\\0,1\P,0,-5.0849428809,-0.1513790
 931,2.5299184829\P,0,-2.2581216576,0.042269961,0.8072868501\O,0,-1.462
 5594193,3.3613227966,3.912389141\O,0,-4.0891408044,4.3366240678,3.1800
 603816\C,0,-6.1992568967,-1.1164637455,3.6180218301\C,0,-5.8464983385,
 -2.4366533459,3.9255603279\C,0,-6.6276140141,-3.2010961858,4.813313403
 3\C,0,-7.7636367686,-2.594402644,5.3736090904\C,0,-8.1473943709,-1.269
 6378266,5.0725905147\C,0,-7.3473845024,-0.535962586,4.1848115088\C,0,-
 6.073009789,1.1938491648,1.7982920265\C,0,-6.5396437403,2.2847603589,2
 .5578971776\C,0,-7.3177624445,3.2807278136,1.9536936907\C,0,-7.5875311
 467,3.1649448211,0.5703893297\C,0,-7.1191227336,2.0966562172,-0.210269
 366\C,0,-6.361004641,1.0993011619,0.4327500448\C,0,-3.9317910009,0.648
 612239,3.7390889203\C,0,-3.7926999997,0.0797246182,5.0208501578\C,0,-2
 .8758708015,0.6081454555,5.936151727\C,0,-2.0928679725,1.7164619914,5.
 5971972006\C,0,-2.2375338372,2.2952070329,4.3295056632\C,0,-3.13900063
 17,1.764148217,3.3760297821\C,0,-3.209837388,2.433869499,2.0449135612\
 C,0,-3.6462098633,3.7774059163,2.0002243773\C,0,-3.7003316547,4.489929
 8814,0.7947200814\C,0,-3.305102712,3.8616434397,-0.3896585269\C,0,-2.8
 64166306,2.5333568998,-0.371647943\C,0,-2.8087656848,1.8117604502,0.83
 70204348\C,0,-1.4726347325,-0.0848476483,-0.8418001924\C,0,-2.27975237
 49,-0.4779179687,-1.926351181\C,0,-1.7607992149,-0.5016065004,-3.22604
 10259\C,0,-0.4141127691,-0.1116287089,-3.409282994\C,0,0.4135175884,0.
 2748929627,-2.3443683592\C,0,-0.1397241287,0.2812346594,-1.0474159842\
 C,0,-0.9391272229,-0.0640074023,2.0602916414\C,0,-0.8966814203,-1.2178
 689398,2.8568228898\C,0,0.0874069762,-1.3585271748,3.848179423\C,0,1.0
 362389863,-0.3267151763,3.9801797502\C,0,1.0165186455,0.8418744743,3.1
 93179109\C,0,-0.0020364445,0.9690394649,2.2356683205\C,0,-3.431004392,
 5.530300147,3.6547119333\H,0,-4.9744527605,-2.878971454,3.4345687433\H
 ,0,-8.3872146684,-3.1739880887,6.0598591488\H,0,-7.6208909353,0.483939
 5584,3.9110727697\H,0,-6.2603851148,2.3603624912,3.6112815608\H,0,-8.1
 812674254,3.9483463587,0.0909837328\H,0,-5.9806570744,0.2325159246,-0.
 1189827764\H,0,-4.4076514913,-0.7782543722,5.3028809415\H,0,-2.7698827
 842,0.1499010622,6.9248584273\H,0,-1.360312627,2.1168255034,6.30385675
 51\H,0,-4.0721999026,5.5191492735,0.7930026426\H,0,-3.3488018871,4.406
 2456149,-1.3384002076\H,0,-2.5568202452,2.0538135693,-1.3036095355\H,0
 ,-3.3043015034,-0.7995341793,-1.726335053\H,0,-0.0021528896,-0.1289663
 901,-4.4219502634\H,0,0.4809289349,0.5606174332,-0.192096166\H,0,-1.65
 02858937,-1.9907490778,2.6829965426\H,0,1.8192762265,-0.4313280143,4.7
 396008197\H,0,-0.0959509209,1.8821057479,1.6432750318\H,0,-2.731338538
 ,5.9084829966,2.8864242913\C,0,-2.7097380145,5.2219858139,4.9705230406
 \C,0,-1.3732911215,4.4970426671,4.7911522886\H,0,-0.9522282407,4.21020
 2773,5.7741505327\H,0,-3.3904907716,4.6196970631,5.5987193647\H,0,-2.5
 166118537,6.1649342,5.516272846\C,0,-4.7697842594,-4.7286919612,5.5669
 258677\C,0,-6.2375434537,-4.6638134609,5.0819221348\C,0,-6.3785922199,
 -5.4556357086,3.7584671182\C,0,-7.130339346,-5.3208638439,6.1511347829
 \H,0,-4.6317369382,-4.1476419902,6.4961171536\H,0,-4.484254081,-5.7759
 878018,5.7704346146\H,0,-4.0697910679,-4.3373885514,4.810355735\H,0,-6
 .0578262201,-6.5026415201,3.9063286586\H,0,-5.7729392869,-5.0164493309
 ,2.948116049\H,0,-7.4281888174,-5.4591709919,3.4178583569\H,0,-8.18708
 14064,-5.3595263695,5.8341857253\H,0,-6.7986769789,-6.3593773937,6.321
 2960684\H,0,-7.0758305508,-4.7872209435,7.1168686928\C,0,-10.641461735
 9,-1.5202096559,5.2586698915\C,0,-9.4212038241,-0.6789090158,5.7026492
 995\C,0,-9.6594912413,0.783853654,5.2781586092\C,0,-9.2972903688,-0.72
 09787261,7.2441575005\H,0,-10.5416930491,-2.5744196672,5.5672575277\H,
 0,-11.5675687143,-1.120729641,5.7097984942\H,0,-10.7525078507,-1.49950
 09054,4.1611402029\H,0,-8.825766887,1.4384254059,5.5890817925\H,0,-9.7
 846550207,0.8802284067,4.1854075233\H,0,-10.5789036241,1.1634378749,5.
 7560447392\H,0,-8.4385051767,-0.1173538488,7.5857108577\H,0,-10.212192
 3744,-0.3161666176,7.7127824671\H,0,-9.1560749477,-1.7499646977,7.6153
 091586\C,0,-9.4072945862,4.5013618414,2.6360132077\C,0,-7.8640813503,4
 .4851868325,2.7401584498\C,0,-7.2854045089,5.7876647114,2.1380888516\C
 ,0,-7.4778084653,4.4320210197,4.2309512594\H,0,-9.837669701,3.58268771
 59,3.0716048693\H,0,-9.8186357209,5.368264724,3.1835984245\H,0,-9.7479
 123075,4.5705932934,1.5891651149\H,0,-6.1857283817,5.7885378247,2.2257
 38838\H,0,-7.5437575709,5.8969846979,1.0712440741\H,0,-7.6818459298,6.
 6683514516,2.6747405439\H,0,-6.3825543157,4.4283239066,4.3614000264\H,
 0,-7.8839605515,5.3174231526,4.7499845845\H,0,-7.8923369083,3.53664735
 53,4.7269711867\C,0,-6.0156251638,1.9982465099,-2.4585048072\C,0,-7.37
 6879894,1.9740815994,-1.7210962549\C,0,-8.245865276,3.1239709868,-2.26
 26551926\C,0,-8.0936859139,0.6329865541,-2.0088911926\H,0,-5.355873816
 ,1.1819860819,-2.1190620062\H,0,-6.1679216008,1.8828428844,-3.54685721
 23\H,0,-5.4871075033,2.9502303314,-2.2780120711\H,0,-9.2372830042,3.14
 92743233,-1.7772699079\H,0,-7.7629342472,4.1066727535,-2.1181680582\H,
 0,-8.4075462903,2.9876763027,-3.3455849281\H,0,-9.0751959675,0.5974008
 973,-1.5054523347\H,0,-8.2585010017,0.5172461828,-3.0950166105\H,0,-7.
 5067865471,-0.2334971227,-1.6607749737\C,0,-4.0165349631,-1.4098255032
 ,-4.0110757381\C,0,-2.6012794022,-0.9635368758,-4.4280092219\C,0,-1.89
 64564637,-2.1653605189,-5.1016751457\C,0,-2.7261278011,0.2014787679,-5
 .4377631765\H,0,-4.597492355,-0.5786341181,-3.5742988335\H,0,-4.566380
 4899,-1.7652533788,-4.8995554788\H,0,-3.988169806,-2.2338999381,-3.277
 4993897\H,0,-0.8863354948,-1.9032600442,-5.4600812251\H,0,-1.800183281
 2,-3.005146235,-4.3929433737\H,0,-2.4838452357,-2.5105322037,-5.971183
 4152\H,0,-1.7387291076,0.5470709078,-5.7896580301\H,0,-3.3070275566,-0
 .1191653545,-6.3210003885\H,0,-3.2443859757,1.0625313837,-4.9797880816
 \C,0,2.0482568754,2.1611890551,-2.0635838557\C,0,1.8829447679,0.693907
 6474,-2.5281758299\C,0,2.342522138,0.5926921324,-3.9945757381\C,0,2.78
 81080571,-0.2198412961,-1.6673995873\H,0,1.7615593,2.2863871714,-1.004
 8975159\H,0,3.1002690248,2.4816796238,-2.1695210515\H,0,1.4180096035,2
 .8386891589,-2.6653924138\H,0,2.2608831487,-0.4398703911,-4.3760200711
 \H,0,1.754029769,1.2537357189,-4.6545747324\H,0,3.4001976919,0.8972716
 007,-4.0741055134\H,0,2.6843658576,-1.2752089585,-1.97165299\H,0,3.846
 8740981,0.0732013414,-1.7851311869\H,0,2.5370768662,-0.1540920276,-0.5
 948392728\C,0,-1.0524469372,-3.5339016249,4.5361885843\C,0,0.136796906
 7,-2.5833548857,4.7762140077\C,0,0.0845434678,-2.1073400819,6.24755000
 17\C,0,1.4523832839,-3.3566877153,4.5256754327\H,0,-1.0612323184,-3.93
 80392926,3.5093634176\H,0,-0.9927283007,-4.3870514693,5.2337776649\H,0
 ,-2.0155085038,-3.0229023523,4.7122848956\H,0,0.9410355858,-1.46056738
 57,6.5036364364\H,0,-0.8406772912,-1.5362320996,6.4372363378\H,0,0.103
 5956978,-2.9762013181,6.9291831689\H,0,2.3372831337,-2.7222901671,4.70
 66938751\H,0,1.5171772771,-4.2301873623,5.198845978\H,0,1.5007890091,-
 3.718749288,3.4846129404\C,0,3.4757148232,1.3401891761,3.0988428885\C,
 0,2.0803436528,1.9321790443,3.4075587677\C,0,2.0305168731,2.4097423671
 ,4.8781444686\C,0,1.8538506454,3.153765823,2.4960946051\H,0,3.53318905
 24,1.0018044161,2.0493748752\H,0,4.2606104275,2.100918907,3.2598047641
 \H,0,3.7036806513,0.4751058401,3.7443225957\H,0,1.0341219574,2.8212442
 963,5.111784475\H,0,2.2325647734,1.5872079112,5.584579353\H,0,2.785022
 0444,3.1975315355,5.0528306689\H,0,0.8624020626,3.6056488105,2.6693233
 117\H,0,2.6233102704,3.9177064343,2.7020368647\H,0,1.9312410572,2.8862
 919393,1.4270868044\H,0,-0.6378976458,5.1524430847,4.2943899002\H,0,-4
 .2153586899,6.2909564751,3.8180937844\\Version=ES64L-G16RevB.01\State=
 1-A\HF=-3594.07842\RMSD=4.702e-09\Dipole=0.3068521,0.9956187,0.5260808
 \Quadrupole=-7.2278837,3.916063,3.3118207,3.2492198,1.9344531,1.107018
 2\PG=C01 [X(C71H96O2P2)]\\@


 ADAM SMITH SAID, "THE REAL PRICE OF ANYTHING IS THE TOIL AND TROUBLE
 OF ACQUIRING IT."  BUT IN ALL UNDERTAKINGS WITH NATURE WE SHOULD FIRST
 READ CAREFULLY THE SMALL PRINT IN THE CONTRACT. THIS MIGHT DISCLOSE
 THAT THE REAL PRICE IS TO BE PAID BY THOSE WHO INHERIT THE DEPLETION
 AND DESPOILATION THAT FOLLOWS.
                               -- E. R. HARRISON IN "COSMOLOGY" (1980)
 Job cpu time:       0 days  7 hours 30 minutes  8.1 seconds.
 Elapsed time:       0 days  0 hours  8 minutes 43.1 seconds.
 File lengths (MBytes):  RWF=   4318 Int=      0 D2E=      0 Chk=    650 Scr=      1
 Normal termination of Gaussian 16 at Tue Nov  2 13:45:42 2021.
