 Entering Gaussian System, Link 0=/uufs/chpc.utah.edu/sys/installdir/gaussian16/B01/E6B/g16/g16
 Input=S-35tBu-C3-Tunephos_3_SPE_NoPd.com
 Output=S-35tBu-C3-Tunephos_3_SPE_NoPd.log
 Initial command:
 /uufs/chpc.utah.edu/sys/installdir/gaussian16/B01/E6B/g16/l1.exe "/scratch/general/lustre/u1010977/3356305/notchpeak.peaks/Gau-95504.inp" -scrdir="/scratch/general/lustre/u1010977/3356305/notchpeak.peaks/"
 Entering Link 1 = /uufs/chpc.utah.edu/sys/installdir/gaussian16/B01/E6B/g16/l1.exe PID=     95506.
  
 Copyright (c) 1988-2017, Gaussian, Inc.  All Rights Reserved.
  
 This is part of the Gaussian(R) 16 program.  It is based on
 the Gaussian(R) 09 system (copyright 2009, Gaussian, Inc.),
 the Gaussian(R) 03 system (copyright 2003, Gaussian, Inc.),
 the Gaussian(R) 98 system (copyright 1998, Gaussian, Inc.),
 the Gaussian(R) 94 system (copyright 1995, Gaussian, Inc.),
 the Gaussian 92(TM) system (copyright 1992, Gaussian, Inc.),
 the Gaussian 90(TM) system (copyright 1990, Gaussian, Inc.),
 the Gaussian 88(TM) system (copyright 1988, Gaussian, Inc.),
 the Gaussian 86(TM) system (copyright 1986, Carnegie Mellon
 University), and the Gaussian 82(TM) system (copyright 1983,
 Carnegie Mellon University). Gaussian is a federally registered
 trademark of Gaussian, Inc.
  
 This software contains proprietary and confidential information,
 including trade secrets, belonging to Gaussian, Inc.
  
 This software is provided under written license and may be
 used, copied, transmitted, or stored only in accord with that
 written license.
  
 The following legend is applicable only to US Government
 contracts under FAR:
  
                    RESTRICTED RIGHTS LEGEND
  
 Use, reproduction and disclosure by the US Government is
 subject to restrictions as set forth in subparagraphs (a)
 and (c) of the Commercial Computer Software - Restricted
 Rights clause in FAR 52.227-19.
  
 Gaussian, Inc.
 340 Quinnipiac St., Bldg. 40, Wallingford CT 06492
  
  
 ---------------------------------------------------------------
 Warning -- This program may not be used in any manner that
 competes with the business of Gaussian, Inc. or will provide
 assistance to any competitor of Gaussian, Inc.  The licensee
 of this program is prohibited from giving any competitor of
 Gaussian, Inc. access to this program.  By using this program,
 the user acknowledges that Gaussian, Inc. is engaged in the
 business of creating and licensing software in the field of
 computational chemistry and represents and warrants to the
 licensee that it is not a competitor of Gaussian, Inc. and that
 it will not use this program in any manner prohibited above.
 ---------------------------------------------------------------
  

 Cite this work as:
 Gaussian 16, Revision B.01,
 M. J. Frisch, G. W. Trucks, H. B. Schlegel, G. E. Scuseria, 
 M. A. Robb, J. R. Cheeseman, G. Scalmani, V. Barone, 
 G. A. Petersson, H. Nakatsuji, X. Li, M. Caricato, A. V. Marenich, 
 J. Bloino, B. G. Janesko, R. Gomperts, B. Mennucci, H. P. Hratchian, 
 J. V. Ortiz, A. F. Izmaylov, J. L. Sonnenberg, D. Williams-Young, 
 F. Ding, F. Lipparini, F. Egidi, J. Goings, B. Peng, A. Petrone, 
 T. Henderson, D. Ranasinghe, V. G. Zakrzewski, J. Gao, N. Rega, 
 G. Zheng, W. Liang, M. Hada, M. Ehara, K. Toyota, R. Fukuda, 
 J. Hasegawa, M. Ishida, T. Nakajima, Y. Honda, O. Kitao, H. Nakai, 
 T. Vreven, K. Throssell, J. A. Montgomery, Jr., J. E. Peralta, 
 F. Ogliaro, M. J. Bearpark, J. J. Heyd, E. N. Brothers, K. N. Kudin, 
 V. N. Staroverov, T. A. Keith, R. Kobayashi, J. Normand, 
 K. Raghavachari, A. P. Rendell, J. C. Burant, S. S. Iyengar, 
 J. Tomasi, M. Cossi, J. M. Millam, M. Klene, C. Adamo, R. Cammi, 
 J. W. Ochterski, R. L. Martin, K. Morokuma, O. Farkas, 
 J. B. Foresman, and D. J. Fox, Gaussian, Inc., Wallingford CT, 2016.
 
 ******************************************
 Gaussian 16:  ES64L-G16RevB.01 20-Dec-2017
                 2-Nov-2021 
 ******************************************
 %NProcShared=32
 Will use up to   32 processors via shared memory.
 %mem=18GB
 %chk=S-35tBu-C3-Tunephos_3_SPE_NoPd.chk
 ----------------------------------------------------------------------
 # PBE1PBE/def2TZVP int=(grid=ultrafine) empiricaldispersion=GD3BJ nmr=
 giao
 ----------------------------------------------------------------------
 1/38=1,172=1/1;
 2/12=2,17=6,18=5,40=1/2;
 3/5=44,7=101,11=2,25=1,30=1,74=-13,75=-5,124=41/1,2,3,8;
 4//1;
 5/5=2,38=5/2;
 8/6=1,10=90,11=11/1;
 10/13=100,45=16/2;
 6/7=2,8=2,9=2,10=2,28=1/1;
 99/9=1/99;
 -----
 title
 -----
 Symbolic Z-matrix:
 Charge =  0 Multiplicity = 1
 P                    -5.04682  -0.14056   2.50201 
 P                    -2.20113   0.19796   0.78984 
 O                    -1.60444   3.52768   3.88535 
 O                    -4.26292   4.37813   3.16531 
 C                    -6.11461  -1.16014   3.58875 
 C                    -5.72796  -2.47963   3.8699 
 C                    -6.4741   -3.26992   4.7608 
 C                    -7.61115  -2.69458   5.36248 
 C                    -8.0231   -1.37635   5.09242 
 C                    -7.25596  -0.61553   4.19257 
 C                    -6.10715   1.15973   1.78992 
 C                    -6.59919   2.22945   2.55754 
 C                    -7.43695   3.19156   1.9712 
 C                    -7.72412   3.063     0.5974 
 C                    -7.23301   2.00806  -0.19535 
 C                    -6.42671   1.04337   0.42897 
 C                    -3.94166   0.71077   3.71662 
 C                    -3.79637   0.16141   5.00639 
 C                    -2.915     0.73819   5.92743 
 C                    -2.17299   1.87362   5.58569 
 C                    -2.32445   2.4307    4.30869 
 C                    -3.19238   1.85413   3.3513 
 C                    -3.28352   2.52716   2.0221 
 C                    -3.78669   3.84812   1.98458 
 C                    -3.86611   4.5681    0.78512 
 C                    -3.41555   3.97703  -0.3988 
 C                    -2.89804   2.6766   -0.38578 
 C                    -2.82862   1.94195   0.81473 
 C                    -1.4336    0.04035  -0.8641 
 C                    -2.30801  -0.13199  -1.94727 
 C                    -1.81646  -0.28472  -3.25481 
 C                    -0.42283  -0.28226  -3.42872 
 C                     0.48073  -0.13093  -2.35611 
 C                    -0.0436    0.04434  -1.06486 
 C                    -0.88069   0.13196   2.04789 
 C                    -0.88432  -0.97834   2.91079 
 C                     0.09141  -1.1057    3.90693 
 C                     1.09117  -0.11202   3.98 
 C                     1.12761   1.00257   3.12489 
 C                     0.10328   1.1261    2.16322 
 C                    -3.66454   5.60081   3.64754 
 H                    -4.85851  -2.89553   3.35268 
 H                    -8.20072  -3.29913   6.05356 
 H                    -7.56004   0.40499   3.94682 
 H                    -6.29633   2.32192   3.60311 
 H                    -8.35357   3.82417   0.12276 
 H                    -6.03133   0.18436  -0.12024 
 H                    -4.38051  -0.71732   5.29025 
 H                    -2.80694   0.29815   6.92415 
 H                    -1.471     2.3145    6.2991 
 H                    -4.29492   5.57491   0.78805 
 H                    -3.47278   4.52952  -1.34229 
 H                    -2.53861   2.23061  -1.31568 
 H                    -3.385    -0.18732  -1.75457 
 H                    -0.01651  -0.42419  -4.43359 
 H                     0.61987   0.14785  -0.20408 
 H                    -1.67005  -1.72696   2.77836 
 H                     1.87058  -0.21897   4.73884 
 H                     0.06613   1.99991   1.50405 
 H                    -2.99097   6.02142   2.87802 
 C                    -2.91869   5.32528   4.95725 
 C                    -1.55138   4.66315   4.76424 
 H                    -1.10635   4.39477   5.74185 
 H                    -3.56474   4.69118   5.59082 
 H                    -2.76683   6.27654   5.50156 
 C                    -6.90396  -5.41807   6.08051 
 C                    -6.05496  -4.73113   4.99429 
 C                    -4.57175  -4.78477   5.43088 
 C                    -6.22684  -5.50381   3.66304 
 H                    -7.96957  -5.46959   5.79686 
 H                    -6.55065  -6.45351   6.22432 
 H                    -6.82745  -4.89802   7.05212 
 H                    -3.90124  -4.37528   4.65771 
 H                    -4.4101   -4.21382   6.36251 
 H                    -4.2683   -5.83128   5.61137 
 H                    -5.65001  -5.0437    2.84321 
 H                    -5.88979  -6.54921   3.78388 
 H                    -7.28615  -5.51469   3.35386 
 C                    -10.23477  -0.26273   4.62717 
 C                    -9.26548  -0.73554   5.73735 
 C                    -8.82096   0.48418   6.58037 
 C                    -10.01969  -1.71412   6.65701 
 H                    -10.56095  -1.11153   4.00238 
 H                    -11.1307   0.20212   5.07661 
 H                    -9.76593   0.48252   3.96185 
 H                    -8.13346   0.17634   7.38722 
 H                    -8.29928   1.23549   5.96233 
 H                    -9.69793   0.97375   7.04084 
 H                    -9.38824  -2.05857   7.4945 
 H                    -10.90233  -1.2119    7.08903 
 H                    -10.37517  -2.60071   6.1039 
 C                    -9.57018   4.31521   2.68201 
 C                    -8.0269    4.3643    2.77416 
 C                    -7.50945   5.69565   2.17992 
 C                    -7.62804   4.31201   4.26176 
 H                    -9.95756   3.37281   3.10745 
 H                    -10.01408   5.1559    3.24478 
 H                    -9.92241   4.38346   1.63901 
 H                    -6.4099    5.74071   2.25504 
 H                    -7.78415   5.80358   1.11696 
 H                    -7.93588   6.55426   2.72922 
 H                    -6.53313   4.35664   4.38642 
 H                    -8.07064   5.17183   4.79377 
 H                    -7.99807   3.39311   4.75086 
 C                    -9.07519   1.99279  -1.92131 
 C                    -7.54562   1.95052  -1.69964 
 C                    -6.99579   0.66785  -2.3533 
 C                    -6.88518   3.1737   -2.38074 
 H                    -9.52828   2.90924  -1.50641 
 H                    -9.30252   1.96624  -3.00178 
 H                    -9.56396   1.12574  -1.44522 
 H                    -5.89635   0.61016  -2.27753 
 H                    -7.41272  -0.2438   -1.89205 
 H                    -7.25346   0.65718  -3.4263 
 H                    -5.7926    3.16342  -2.22173 
 H                    -7.07955   3.15976  -3.46819 
 H                    -7.27589   4.12348  -1.97597 
 C                    -3.6023    0.86213  -4.5844 
 C                    -2.80865  -0.4564   -4.41711 
 C                    -3.78333  -1.6158   -4.09812 
 C                    -2.09974  -0.77054  -5.7481 
 H                    -2.9288    1.69688  -4.84783 
 H                    -4.35543   0.75949  -5.38634 
 H                    -4.13399   1.13492  -3.65699 
 H                    -3.23451  -2.55858  -3.93698 
 H                    -4.37934  -1.42805  -3.18999 
 H                    -4.48704  -1.75741  -4.93777 
 H                    -1.50903  -1.70071  -5.6827 
 H                    -2.85188  -0.9054   -6.5441 
 H                    -1.42777   0.04794  -6.06151 
 C                     2.33912  -1.56837  -3.24425 
 C                     1.99376  -0.18983  -2.6317 
 C                     2.82858  -0.00634  -1.35093 
 C                     2.3795    0.9304   -3.62663 
 H                     1.79927  -1.742    -4.19023 
 H                     3.42182  -1.63205  -3.4553 
 H                     2.07109  -2.38239  -2.54951 
 H                     2.64558   0.97628  -0.8838 
 H                     2.61115  -0.78967  -0.60423 
 H                     3.9029   -0.06531  -1.59694 
 H                     2.15245   1.92534  -3.20564 
 H                     3.46088   0.88847  -3.84891 
 H                     1.83564   0.83519  -4.58153 
 C                     1.35978  -3.14832   4.62636 
 C                     0.10186  -2.2876    4.89 
 C                    -1.14929  -3.17411   4.7337 
 C                     0.13518  -1.7516    6.34076 
 H                     2.28574  -2.55999   4.74823 
 H                     1.39927  -3.99582   5.33397 
 H                     1.34699  -3.55489   3.60077 
 H                    -2.07449  -2.59514   4.90193 
 H                    -1.20801  -3.63491   3.73251 
 H                    -1.12258  -3.9898    5.47673 
 H                    -0.74637  -1.1189    6.5409 
 H                     0.1296   -2.59328   7.05584 
 H                     1.03809  -1.14961   6.53997 
 C                     1.62971   3.43429   3.57589 
 C                     2.2414    2.06463   3.20211 
 C                     2.93267   2.17488   1.82269 
 C                     3.31572   1.71352   4.24921 
 H                     1.17301   3.39388   4.57952 
 H                     2.41505   4.21169   3.58137 
 H                     0.84275   3.73699   2.86646 
 H                     3.37723   1.20957   1.52611 
 H                     2.2229    2.47674   1.034 
 H                     3.73776   2.93054   1.8573 
 H                     3.80362   0.74855   4.02732 
 H                     4.09769   2.49217   4.25091 
 H                     2.89424   1.6631    5.26836 
 H                    -0.85195   5.35107   4.26013 
 H                    -4.48746   6.31716   3.82088 
 
 Stoichiometry    C71H96O2P2
 Framework group  C1[X(C71H96O2P2)]
 Deg. of freedom   507
 Full point group                 C1      NOp   1
 Largest Abelian subgroup         C1      NOp   1
 Largest concise Abelian subgroup C1      NOp   1
                         Standard orientation:                         
 ---------------------------------------------------------------------
 Center     Atomic      Atomic             Coordinates (Angstroms)
 Number     Number       Type             X           Y           Z
 ---------------------------------------------------------------------
      1         15           0       -1.608288   -0.052194   -0.798169
      2         15           0        1.720017    0.100860   -0.590677
      3          8           0        0.774755   -1.294435    3.673694
      4          8           0       -1.143276    0.856869    3.721831
      5          6           0       -3.102898   -0.815501   -1.535885
      6          6           0       -2.943601   -1.743721   -2.576385
      7          6           0       -4.055845   -2.411835   -3.116312
      8          6           0       -5.325830   -2.124991   -2.577071
      9          6           0       -5.512611   -1.194188   -1.538291
     10          6           0       -4.378485   -0.540580   -1.024823
     11          6           0       -2.135456    1.523709   -0.049364
     12          6           0       -2.917319    1.574520    1.117582
     13          6           0       -3.323670    2.812381    1.640922
     14          6           0       -2.888110    3.979317    0.981492
     15          6           0       -2.094088    3.954657   -0.181034
     16          6           0       -1.734031    2.700546   -0.698811
     17          6           0       -1.237341   -1.188747    0.613245
     18          6           0       -1.771413   -2.492917    0.595752
     19          6           0       -1.454437   -3.402431    1.610691
     20          6           0       -0.611517   -3.028143    2.662338
     21          6           0       -0.088961   -1.728082    2.690361
     22          6           0       -0.376113   -0.796101    1.665041
     23          6           0        0.227799    0.563069    1.791521
     24          6           0       -0.154218    1.354243    2.899512
     25          6           0        0.396154    2.624275    3.117435
     26          6           0        1.362997    3.111871    2.233407
     27          6           0        1.770211    2.341477    1.138061
     28          6           0        1.210288    1.069458    0.905271
     29          6           0        3.207729    0.983423   -1.188395
     30          6           0        2.988511    2.178619   -1.889111
     31          6           0        4.064180    2.919071   -2.408010
     32          6           0        5.357318    2.404752   -2.218980
     33          6           0        5.606489    1.195871   -1.536088
     34          6           0        4.511192    0.492583   -1.008187
     35          6           0        2.231456   -1.536013    0.033553
     36          6           0        1.767396   -2.657101   -0.677209
     37          6           0        2.109985   -3.950418   -0.264258
     38          6           0        2.964677   -4.080460    0.851465
     39          6           0        3.453353   -2.979171    1.574796
     40          6           0        3.051356   -1.691809    1.161968
     41          6           0       -0.834666    0.683181    5.121879
     42          1           0       -1.943279   -1.908401   -2.987065
     43          1           0       -6.197723   -2.634828   -2.990046
     44          1           0       -4.491890    0.202008   -0.231084
     45          1           0       -3.175996    0.644779    1.629587
     46          1           0       -3.175351    4.951521    1.397641
     47          1           0       -1.139578    2.606607   -1.611863
     48          1           0       -2.442025   -2.793245   -0.212978
     49          1           0       -1.871221   -4.414482    1.582210
     50          1           0       -0.349434   -3.744011    3.446544
     51          1           0        0.050009    3.223636    3.965085
     52          1           0        1.800084    4.102905    2.393066
     53          1           0        2.534883    2.729130    0.461441
     54          1           0        1.958613    2.508811   -2.063381
     55          1           0        6.208061    2.950663   -2.635179
     56          1           0        4.657346   -0.455829   -0.487607
     57          1           0        1.134053   -2.482861   -1.551202
     58          1           0        3.256647   -5.086550    1.163391
     59          1           0        3.371973   -0.806513    1.721308
     60          1           0        0.144340    1.142320    5.353199
     61          6           0       -0.851820   -0.808865    5.469828
     62          6           0        0.410662   -1.560433    5.037964
     63          1           0        0.299553   -2.646819    5.220233
     64          1           0       -1.744586   -1.258654    4.999153
     65          1           0       -0.967819   -0.930538    6.563433
     66          6           0       -5.144584   -4.106968   -4.691792
     67          6           0       -3.848299   -3.374091   -4.297958
     68          6           0       -2.784600   -4.434265   -3.926494
     69          6           0       -3.351153   -2.551176   -5.512242
     70          1           0       -5.926165   -3.404820   -5.030528
     71          1           0       -4.937952   -4.798131   -5.526802
     72          1           0       -5.550923   -4.702135   -3.854535
     73          1           0       -1.806708   -3.975247   -3.707219
     74          1           0       -3.095918   -5.017498   -3.041627
     75          1           0       -2.639769   -5.135429   -4.767472
     76          1           0       -2.429655   -1.991332   -5.279924
     77          1           0       -3.147364   -3.220572   -6.367479
     78          1           0       -4.113445   -1.815662   -5.821703
     79          6           0       -7.164556    0.651738   -1.078136
     80          6           0       -6.893676   -0.866087   -0.942394
     81          6           0       -6.898840   -1.253510    0.556231
     82          6           0       -8.032233   -1.628075   -1.646147
     83          1           0       -7.156459    0.959310   -2.137633
     84          1           0       -8.152600    0.901769   -0.651484
     85          1           0       -6.406347    1.253801   -0.548520
     86          1           0       -6.715698   -2.334431    0.684668
     87          1           0       -6.118399   -0.711068    1.117708
     88          1           0       -7.875335   -1.011208    1.012874
     89          1           0       -7.913895   -2.721509   -1.550347
     90          1           0       -8.999074   -1.355635   -1.189071
     91          1           0       -8.086350   -1.378377   -2.719951
     92          6           0       -5.495972    3.697870    2.543988
     93          6           0       -4.205247    2.922174    2.897449
     94          6           0       -3.425159    3.678785    3.998528
     95          6           0       -4.605840    1.541158    3.451621
     96          1           0       -6.068823    3.168375    1.762531
     97          1           0       -6.139674    3.796524    3.436418
     98          1           0       -5.277082    4.712690    2.171448
     99          1           0       -2.510020    3.122673    4.262998
    100          1           0       -3.128151    4.688869    3.669099
    101          1           0       -4.046531    3.787032    4.905699
    102          1           0       -3.719514    0.947967    3.732542
    103          1           0       -5.232523    1.671091    4.350844
    104          1           0       -5.194909    0.962693    2.717535
    105          6           0       -2.825034    6.172540   -1.139934
    106          6           0       -1.613380    5.264722   -0.826466
    107          6           0       -0.844123    5.012171   -2.137678
    108          6           0       -0.668931    5.979833    0.169966
    109          1           0       -3.400715    6.422317   -0.232454
    110          1           0       -2.481796    7.120708   -1.590468
    111          1           0       -3.508993    5.680578   -1.852333
    112          1           0        0.067901    4.414677   -1.967216
    113          1           0       -1.459652    4.480510   -2.883435
    114          1           0       -0.530464    5.974962   -2.576398
    115          1           0        0.196747    5.338780    0.412369
    116          1           0       -0.293343    6.923087   -0.265608
    117          1           0       -1.184682    6.221672    1.115530
    118          6           0        3.214133    5.260670   -2.149817
    119          6           0        3.782654    4.232093   -3.157394
    120          6           0        2.749131    3.975134   -4.280683
    121          6           0        5.053929    4.825017   -3.793855
    122          1           0        3.950701    5.485530   -1.358166
    123          1           0        2.960979    6.204990   -2.664611
    124          1           0        2.297092    4.886655   -1.663660
    125          1           0        3.118705    3.215668   -4.989641
    126          1           0        1.783841    3.612594   -3.890857
    127          1           0        2.556583    4.910558   -4.835837
    128          1           0        5.507994    4.126470   -4.517937
    129          1           0        4.797809    5.751358   -4.335889
    130          1           0        5.813752    5.083542   -3.035230
    131          6           0        7.621453    0.453994   -2.839231
    132          6           0        7.052224    0.681427   -1.418274
    133          6           0        7.138593   -0.646667   -0.643882
    134          6           0        7.913289    1.731709   -0.677298
    135          1           0        7.623080    1.383819   -3.432431
    136          1           0        8.662360    0.088210   -2.779620
    137          1           0        7.020498   -0.292681   -3.385547
    138          1           0        6.772248   -0.538201    0.391141
    139          1           0        6.556229   -1.445802   -1.134482
    140          1           0        8.189859   -0.979075   -0.593919
    141          1           0        7.532243    1.902109    0.344685
    142          1           0        8.959243    1.384057   -0.601977
    143          1           0        7.917970    2.701674   -1.202494
    144          6           0        2.794035   -5.925116   -1.653960
    145          6           0        1.596097   -5.201403   -0.995272
    146          6           0        0.568307   -4.845330   -2.087330
    147          6           0        0.913033   -6.147960    0.019888
    148          1           0        3.549812   -6.220510   -0.905671
    149          1           0        2.451897   -6.839251   -2.171475
    150          1           0        3.285504   -5.272017   -2.395053
    151          1           0       -0.301350   -4.314327   -1.661617
    152          1           0        1.006399   -4.211567   -2.877629
    153          1           0        0.198213   -5.768761   -2.565313
    154          1           0        0.066589   -5.641166    0.514046
    155          1           0        0.528294   -7.044565   -0.497672
    156          1           0        1.610521   -6.488129    0.804189
    157          6           0        3.725978   -2.601720    4.055117
    158          6           0        4.406441   -3.138643    2.775069
    159          6           0        5.697820   -2.330274    2.507310
    160          6           0        4.802980   -4.607422    3.018645
    161          1           0        2.827475   -3.195665    4.294691
    162          1           0        4.423264   -2.664173    4.910120
    163          1           0        3.407885   -1.553125    3.938968
    164          1           0        6.205617   -2.688846    1.595734
    165          1           0        5.486165   -1.255636    2.375893
    166          1           0        6.397041   -2.433616    3.356304
    167          1           0        5.310922   -5.045068    2.141771
    168          1           0        5.499268   -4.664818    3.872848
    169          1           0        3.926922   -5.234095    3.260864
    170          1           0        1.286249   -1.216321    5.613728
    171          1           0       -1.614768    1.216977    5.693636
 ---------------------------------------------------------------------
 Rotational constants (GHZ):           0.0310102           0.0232635           0.0204306
 Standard basis: def2TZVP (5D, 7F)
 There are  3288 symmetry adapted cartesian basis functions of A   symmetry.
 There are  2913 symmetry adapted basis functions of A   symmetry.
  2913 basis functions,  4629 primitive gaussians,  3288 cartesian basis functions
   284 alpha electrons      284 beta electrons
       nuclear repulsion energy     14522.2778602408 Hartrees.
 NAtoms=  171 NActive=  171 NUniq=  171 SFac= 1.00D+00 NAtFMM=   60 NAOKFM=T Big=T
 Integral buffers will be    131072 words long.
 Raffenetti 2 integral format.
 Two-electron integral symmetry is turned on.
 Nuclear repulsion after empirical dispersion term =    14522.0159324774 Hartrees.
 One-electron integrals computed using PRISM.
   1 Symmetry operations used in ECPInt.
 ECPInt:  NShTT=  736291 NPrTT= 2187061 LenC2=  480897 LenP2D=  907306.
 LDataN:  DoStor=T MaxTD1= 6 Len=  172
 Number of processors reduced to  13 by ecpmxn.
 NBasis=  2913 RedAO= T EigKep=  2.60D-06  NBF=  2913
 NBsUse=  2913 1.00D-06 EigRej= -1.00D+00 NBFU=  2913
 ExpMin= 9.04D-02 ExpMax= 5.24D+04 ExpMxC= 1.79D+03 IAcc=3 IRadAn=         5 AccDes= 0.00D+00
 Harris functional with IExCor= 1009 and IRadAn=       5 diagonalized for initial guess.
 HarFok:  IExCor= 1009 AccDes= 0.00D+00 IRadAn=         5 IDoV= 1 UseB2=F ITyADJ=14
 ICtDFT=  3500011 ScaDFX=  1.000000  1.000000  1.000000  1.000000
 FoFCou: FMM=F IPFlag=           0 FMFlag=      100000 FMFlg1=        2001
         NFxFlg=           0 DoJE=T BraDBF=F KetDBF=T FulRan=T
         wScrn=  0.000000 ICntrl=       500 IOpCl=  0 I1Cent=   200000004 NGrid=           0
         NMat0=    1 NMatS0=      1 NMatT0=    0 NMatD0=    1 NMtDS0=    0 NMtDT0=    0
 Petite list used in FoFCou.
 Requested convergence on RMS density matrix=1.00D-08 within 128 cycles.
 Requested convergence on MAX density matrix=1.00D-06.
 Requested convergence on             energy=1.00D-06.
 No special actions if energy rises.
 Integral accuracy reduced to 1.0D-05 until final iterations.
 Problem detected with inexpensive integrals.
 Switching to full accuracy and repeating last cycle.
 SCF Done:  E(RPBE1PBE) =  -3594.07701620     A.U. after   16 cycles
            NFock= 16  Conv=0.15D-08     -V/T= 2.0055
 DoSCS=F DFT=T ScalE2(SS,OS)=  1.000000  1.000000
 Range of M.O.s used for correlation:     1  2913
 NBasis=  2913 NAE=   284 NBE=   284 NFC=     0 NFV=     0
 NROrb=   2913 NOA=   284 NOB=   284 NVA=  2629 NVB=  2629

 **** Warning!!: The largest alpha MO coefficient is  0.40166509D+02

          Differentiating once with respect to magnetic field using GIAOs.
          Electric field/nuclear overlap derivatives assumed to be zero.
 FoFCou: FMM=F IPFlag=           0 FMFlag=      100000 FMFlg1=        2001
         NFxFlg=           0 DoJE=F BraDBF=F KetDBF=T FulRan=T
         wScrn=  0.000000 ICntrl=      6100 IOpCl=  0 I1Cent=           7 NGrid=         171
         NMat0=    1 NMatS0=      1 NMatT0=    0 NMatD0=    1 NMtDS0=    0 NMtDT0=    0
 Symmetry not used in FoFCou.
   1 Symmetry operations used in ECPInt.
 ECPInt:  NShTT=  736291 NPrTT= 2187061 LenC2=  736292 LenP2D= 2187061.
 LDataN:  DoStor=T MaxTD1= 7 Len=  274
 Number of processors reduced to   8 by ecpmxn.
 FoFJK:  IHMeth= 1 ICntrl=    6127 DoSepK=F KAlg= 0 I1Cent=           0 FoldK=F
 IRaf=         1 NMat=       1 IRICut=       1 DoRegI=T DoRafI=F ISym2E= 0 IDoP0=0 IntGTp=1.
          There are     3 degrees of freedom in the 1st order CPHF.  IDoFFX=0 NUNeed=     3.
      3 vectors produced by pass  0 Test12= 2.49D-11 3.33D-08 XBig12= 5.34D+02 1.73D+00.
 AX will form     3 AO Fock derivatives at one time.
      3 vectors produced by pass  1 Test12= 2.49D-11 3.33D-08 XBig12= 1.51D+00 1.94D-01.
      3 vectors produced by pass  2 Test12= 2.49D-11 3.33D-08 XBig12= 1.15D-02 1.82D-02.
      3 vectors produced by pass  3 Test12= 2.49D-11 3.33D-08 XBig12= 3.57D-05 1.07D-03.
      3 vectors produced by pass  4 Test12= 2.49D-11 3.33D-08 XBig12= 1.47D-07 1.30D-04.
      3 vectors produced by pass  5 Test12= 2.49D-11 3.33D-08 XBig12= 1.16D-09 1.12D-05.
      3 vectors produced by pass  6 Test12= 2.49D-11 3.33D-08 XBig12= 4.73D-12 5.88D-07.
      2 vectors produced by pass  7 Test12= 2.49D-11 3.33D-08 XBig12= 3.74D-13 4.18D-08.
 InvSVY:  IOpt=1 It=  1 EMax= 6.10D-16
 Solved reduced A of dimension    23 with     3 vectors.
 Calculating GIAO nuclear magnetic shielding tensors.
 SCF GIAO Magnetic shielding tensor (ppm):
      1  P    Isotropic =   295.4780   Anisotropy =    56.0172
   XX=   291.5787   YX=    10.7470   ZX=   -40.8818
   XY=   -28.4156   YY=   286.3358   ZY=   -26.0383
   XZ=    -4.0674   YZ=   -29.9646   ZZ=   308.5195
   Eigenvalues:   255.4588   298.1524   332.8228
      2  P    Isotropic =   293.3685   Anisotropy =    37.7655
   XX=   287.4155   YX=    12.4261   ZX=    40.5899
   XY=   -17.0655   YY=   286.1538   ZY=     1.8578
   XZ=    -3.9804   YZ=    13.5420   ZZ=   306.5362
   Eigenvalues:   273.3800   288.1800   318.5455
      3  O    Isotropic =   216.0722   Anisotropy =   122.5914
   XX=   279.1904   YX=     2.6735   ZX=   -48.5667
   XY=   -20.4555   YY=   186.0583   ZY=    70.7035
   XZ=   -25.6982   YZ=    26.1666   ZZ=   182.9680
   Eigenvalues:   132.9641   217.4528   297.7998
      4  O    Isotropic =   219.7508   Anisotropy =    97.8172
   XX=   265.6621   YX=     1.3406   ZX=    51.3307
   XY=     7.4776   YY=   204.9755   ZY=   -71.4528
   XZ=    25.9497   YZ=   -23.6513   ZZ=   188.6147
   Eigenvalues:   139.8999   234.3902   284.9622
      5  C    Isotropic =    43.4870   Anisotropy =   197.1292
   XX=   -23.4189   YX=   -29.9434   ZX=    -7.5527
   XY=   -37.7579   YY=    84.3528   ZY=  -101.0493
   XZ=    -1.3331   YZ=   -89.4138   ZZ=    69.5272
   Eigenvalues:   -48.5591     4.1137   174.9065
      6  C    Isotropic =    47.0839   Anisotropy =   173.0603
   XX=   -36.9212   YX=     5.3493   ZX=    45.7976
   XY=     9.6555   YY=   110.0679   ZY=   -58.1714
   XZ=    40.5358   YZ=   -78.1855   ZZ=    68.1049
   Eigenvalues:   -58.7436    37.5378   162.4574
      7  C    Isotropic =    28.7587   Anisotropy =   198.5722
   XX=   -17.3735   YX=   -12.6782   ZX=    18.9803
   XY=    -8.9959   YY=    66.0078   ZY=  -105.8517
   XZ=    19.9012   YZ=  -105.9601   ZZ=    37.6418
   Eigenvalues:   -56.5394   -18.3247   161.1402
      8  C    Isotropic =    60.1641   Anisotropy =   167.0763
   XX=    -2.9350   YX=   -39.4568   ZX=   -12.6637
   XY=   -42.6094   YY=    95.3115   ZY=   -76.6384
   XZ=   -10.0060   YZ=   -77.1044   ZZ=    88.1157
   Eigenvalues:   -33.1530    42.0969   171.5483
      9  C    Isotropic =    27.6489   Anisotropy =   200.6989
   XX=   -45.8853   YX=    -3.7845   ZX=    33.6674
   XY=    -7.8738   YY=    75.6904   ZY=   -90.7655
   XZ=    29.4427   YZ=   -95.7080   ZZ=    53.1416
   Eigenvalues:   -61.1295   -17.3719   161.4481
     10  C    Isotropic =    47.5713   Anisotropy =   186.4962
   XX=    23.6136   YX=    -4.4063   ZX=    20.9913
   XY=     5.7392   YY=    73.4740   ZY=  -104.3844
   XZ=    19.4701   YZ=  -116.3155   ZZ=    45.6262
   Eigenvalues:   -54.8133    25.6251   171.9021
     11  C    Isotropic =    44.2074   Anisotropy =   197.4522
   XX=   117.4260   YX=    14.6643   ZX=    88.6250
   XY=    12.6678   YY=   -38.7490   ZY=   -17.0043
   XZ=    80.0742   YZ=   -13.2190   ZZ=    53.9451
   Eigenvalues:   -48.1235     4.9035   175.8421
     12  C    Isotropic =    47.9025   Anisotropy =   183.9338
   XX=   124.8465   YX=   -26.3543   ZX=    73.3077
   XY=   -11.3202   YY=   -29.1447   ZY=    34.1673
   XZ=    76.1741   YZ=    40.6297   ZZ=    48.0056
   Eigenvalues:   -58.0273    31.2097   170.5250
     13  C    Isotropic =    30.0324   Anisotropy =   202.0589
   XX=    95.3153   YX=     5.0816   ZX=    99.3434
   XY=     2.9187   YY=   -15.7565   ZY=     3.0893
   XZ=   107.4046   YZ=    -1.0159   ZZ=    10.5383
   Eigenvalues:   -58.8439   -15.7973   164.7383
     14  C    Isotropic =    52.8200   Anisotropy =   184.2977
   XX=   123.8966   YX=    18.9932   ZX=    76.0549
   XY=    17.3636   YY=   -31.3058   ZY=   -26.9116
   XZ=    74.7722   YZ=   -26.1137   ZZ=    65.8692
   Eigenvalues:   -47.9617    30.7366   175.6852
     15  C    Isotropic =    29.8919   Anisotropy =   201.4883
   XX=   104.9374   YX=   -11.9351   ZX=    87.9155
   XY=   -10.7307   YY=   -46.4737   ZY=    11.4351
   XZ=    89.6424   YZ=    16.1519   ZZ=    31.2119
   Eigenvalues:   -57.2837   -17.2580   164.2174
     16  C    Isotropic =    49.2930   Anisotropy =   171.7622
   XX=    94.2044   YX=    -3.5647   ZX=   106.5361
   XY=     0.7840   YY=    38.3954   ZY=    -0.5782
   XZ=    96.0800   YZ=   -18.3587   ZZ=    15.2791
   Eigenvalues:   -54.5142    38.5921   163.8011
     17  C    Isotropic =    33.0386   Anisotropy =   197.0861
   XX=    91.6851   YX=   -31.0268   ZX=   -81.7941
   XY=   -41.2921   YY=   -13.7841   ZY=    40.5848
   XZ=   -86.7279   YZ=    46.6331   ZZ=    21.2148
   Eigenvalues:   -48.3828   -16.9307   164.4294
     18  C    Isotropic =    55.3397   Anisotropy =   182.9534
   XX=    89.2428   YX=   -50.7071   ZX=  -101.0537
   XY=   -57.5888   YY=    42.7442   ZY=    -4.5754
   XZ=   -93.5931   YZ=     5.1889   ZZ=    34.0322
   Eigenvalues:   -51.7714    40.4820   177.3087
     19  C    Isotropic =    52.3563   Anisotropy =   184.0389
   XX=   110.4094   YX=   -63.2146   ZX=   -60.3792
   XY=   -70.0387   YY=   -31.6665   ZY=    18.4501
   XZ=   -55.5431   YZ=    19.2560   ZZ=    78.3259
   Eigenvalues:   -58.1443    40.1642   175.0489
     20  C    Isotropic =    69.2886   Anisotropy =   170.4257
   XX=   122.4511   YX=   -24.1496   ZX=   -79.1503
   XY=   -19.6680   YY=    37.4812   ZY=    58.0507
   XZ=   -64.9201   YZ=    54.1246   ZZ=    47.9334
   Eigenvalues:   -23.3007    48.2607   182.9057
     21  C    Isotropic =    22.7188   Anisotropy =   142.7270
   XX=    46.4164   YX=   -44.1805   ZX=   -86.2854
   XY=   -31.2287   YY=    28.8152   ZY=     3.2439
   XZ=   -77.4860   YZ=     3.0987   ZZ=    -7.0750
   Eigenvalues:   -70.5716    20.8580   117.8702
     22  C    Isotropic =    46.4143   Anisotropy =   163.1116
   XX=   100.0835   YX=   -58.3560   ZX=   -48.8532
   XY=   -57.3499   YY=   -17.7998   ZY=    22.9840
   XZ=   -60.4322   YZ=     2.6914   ZZ=    56.9592
   Eigenvalues:   -42.4039    26.4915   155.1554
     23  C    Isotropic =    45.7664   Anisotropy =   163.5848
   XX=    85.0934   YX=   -69.1087   ZX=    45.1362
   XY=   -62.9289   YY=   -10.4913   ZY=   -40.0675
   XZ=    53.5598   YZ=   -19.8622   ZZ=    62.6970
   Eigenvalues:   -44.4088    26.8849   154.8229
     24  C    Isotropic =    17.8742   Anisotropy =   143.0221
   XX=    26.0007   YX=   -43.7592   ZX=    85.1696
   XY=   -41.3596   YY=    18.0996   ZY=    -7.4293
   XZ=    77.1134   YZ=    -4.9918   ZZ=     9.5224
   Eigenvalues:   -70.8279    11.2282   113.2223
     25  C    Isotropic =    63.8757   Anisotropy =   158.1555
   XX=   103.0689   YX=   -20.0703   ZX=    73.2395
   XY=   -25.4661   YY=    46.9055   ZY=   -57.3495
   XZ=    63.2054   YZ=   -57.9509   ZZ=    41.6526
   Eigenvalues:   -25.1402    47.4545   169.3126
     26  C    Isotropic =    51.9888   Anisotropy =   183.3688
   XX=    94.0172   YX=   -72.1740   ZX=    51.7035
   XY=   -76.2986   YY=   -19.5840   ZY=   -44.0952
   XZ=    44.2691   YZ=   -46.0517   ZZ=    81.5332
   Eigenvalues:   -59.3164    41.0482   174.2347
     27  C    Isotropic =    55.8905   Anisotropy =   185.4097
   XX=    63.5335   YX=   -62.5542   ZX=   102.4554
   XY=   -69.2960   YY=    46.1321   ZY=    -8.2210
   XZ=    89.0457   YZ=   -10.4803   ZZ=    58.0058
   Eigenvalues:   -53.0494    41.2238   179.4970
     28  C    Isotropic =    35.0393   Anisotropy =   195.1432
   XX=    66.1545   YX=   -42.9343   ZX=    84.9710
   XY=   -45.5619   YY=    10.5442   ZY=   -53.7889
   XZ=    82.5475   YZ=   -59.7429   ZZ=    28.4193
   Eigenvalues:   -47.5652   -12.4517   165.1348
     29  C    Isotropic =    43.2448   Anisotropy =   190.0858
   XX=   -25.3823   YX=   -12.7229   ZX=    24.4132
   XY=   -14.4313   YY=    32.6735   ZY=    89.5434
   XZ=    26.9775   YZ=    69.1969   ZZ=   122.4432
   Eigenvalues:   -45.5517     5.3175   169.9687
     30  C    Isotropic =    47.5714   Anisotropy =   174.8583
   XX=   -42.8804   YX=    26.4010   ZX=    -8.0385
   XY=    37.1013   YY=    64.8345   ZY=    55.1413
   XZ=   -11.5246   YZ=    75.1927   ZZ=   120.7603
   Eigenvalues:   -56.2868    34.8574   164.1437
     31  C    Isotropic =    30.1622   Anisotropy =   198.3150
   XX=   -16.0477   YX=    10.5907   ZX=     6.3360
   XY=    10.9351   YY=     4.6686   ZY=    94.3875
   XZ=     2.2497   YZ=    99.8928   ZZ=   101.8658
   Eigenvalues:   -56.5389   -15.3466   162.3722
     32  C    Isotropic =    58.0053   Anisotropy =   170.1322
   XX=    -9.3531   YX=   -16.2394   ZX=    27.8787
   XY=   -30.4060   YY=    54.0131   ZY=    72.6929
   XZ=    36.8538   YZ=    64.5018   ZZ=   129.3559
   Eigenvalues:   -37.0565    39.6456   171.4267
     33  C    Isotropic =    27.4591   Anisotropy =   199.7302
   XX=   -50.9164   YX=    22.0048   ZX=     9.1308
   XY=    22.8348   YY=    22.3813   ZY=    77.8613
   XZ=     6.4138   YZ=    84.3597   ZZ=   110.9123
   Eigenvalues:   -59.3921   -18.8432   160.6126
     34  C    Isotropic =    55.0645   Anisotropy =   173.4870
   XX=    34.7848   YX=    24.1027   ZX=    -0.2764
   XY=    18.1556   YY=    16.1817   ZY=    87.1768
   XZ=     6.1427   YZ=    96.6896   ZZ=   114.2271
   Eigenvalues:   -42.5872    37.0582   170.7226
     35  C    Isotropic =    45.3465   Anisotropy =   194.4637
   XX=   114.3289   YX=    15.6235   ZX=   -85.0562
   XY=    13.8695   YY=   -43.3471   ZY=    12.2426
   XZ=   -77.9418   YZ=     8.0644   ZZ=    65.0578
   Eigenvalues:   -48.8701     9.9208   174.9890
     36  C    Isotropic =    48.3788   Anisotropy =   173.6602
   XX=    88.2347   YX=     8.3851   ZX=  -107.6871
   XY=     5.5685   YY=    35.6202   ZY=     4.7746
   XZ=  -100.5921   YZ=    11.3571   ZZ=    21.2815
   Eigenvalues:   -55.8646    36.8487   164.1523
     37  C    Isotropic =    29.5194   Anisotropy =   202.9150
   XX=    95.7851   YX=    -9.5905   ZX=   -92.9271
   XY=    -9.9250   YY=   -41.2011   ZY=   -15.1651
   XZ=   -97.0501   YZ=   -19.6308   ZZ=    33.9742
   Eigenvalues:   -58.1712   -18.0666   164.7961
     38  C    Isotropic =    55.4570   Anisotropy =   179.7130
   XX=   122.7403   YX=    29.1948   ZX=   -68.2531
   XY=    17.1020   YY=   -34.0494   ZY=    10.1372
   XZ=   -73.7927   YZ=    17.3160   ZZ=    77.6800
   Eigenvalues:   -43.4227    34.5280   175.2656
     39  C    Isotropic =    30.0641   Anisotropy =   201.7107
   XX=    83.0800   YX=     8.3655   ZX=  -105.0913
   XY=     9.9368   YY=   -15.0621   ZY=    -2.7484
   XZ=  -109.2647   YZ=    -4.1576   ZZ=    22.1744
   Eigenvalues:   -58.9683   -15.3773   164.5379
     40  C    Isotropic =    45.3051   Anisotropy =   188.8530
   XX=   113.7733   YX=   -24.7896   ZX=   -83.5940
   XY=   -16.0900   YY=   -25.3190   ZY=   -40.9139
   XZ=   -84.6358   YZ=   -39.4583   ZZ=    47.4610
   Eigenvalues:   -63.0298    27.7380   171.2071
     41  C    Isotropic =   107.3722   Anisotropy =    77.3468
   XX=    76.9283   YX=     6.1071   ZX=    18.2972
   XY=     2.8559   YY=    91.5217   ZY=   -13.9534
   XZ=    16.3930   YZ=    -8.6864   ZZ=   153.6665
   Eigenvalues:    70.8419    92.3379   158.9367
     42  H    Isotropic =    23.1808   Anisotropy =    13.9887
   XX=    20.1728   YX=     2.6047   ZX=     3.5670
   XY=     3.5914   YY=    23.7296   ZY=     4.7450
   XZ=     4.6985   YZ=     6.4227   ZZ=    25.6398
   Eigenvalues:    17.9470    19.0886    32.5066
     43  H    Isotropic =    23.9015   Anisotropy =    14.9829
   XX=    25.4705   YX=    -3.3456   ZX=    -4.7330
   XY=    -3.8893   YY=    21.6593   ZY=     5.8093
   XZ=    -5.1241   YZ=     6.5273   ZZ=    24.5748
   Eigenvalues:    16.7704    21.0441    33.8901
     44  H    Isotropic =    23.4123   Anisotropy =    17.6319
   XX=    33.4579   YX=     6.4347   ZX=     2.5237
   XY=     1.8511   YY=    19.2306   ZY=     1.9400
   XZ=     2.1437   YZ=     5.1884   ZZ=    17.5483
   Eigenvalues:    14.6925    20.3774    35.1669
     45  H    Isotropic =    23.7186   Anisotropy =    14.1579
   XX=    26.1423   YX=    -5.3381   ZX=    -1.7696
   XY=    -4.5425   YY=    20.2082   ZY=     4.3217
   XZ=    -3.6227   YZ=     8.5272   ZZ=    24.8052
   Eigenvalues:    15.0214    22.9772    33.1571
     46  H    Isotropic =    23.8542   Anisotropy =    13.9993
   XX=    23.6801   YX=     2.1418   ZX=    -5.4734
   XY=     2.5731   YY=    22.2519   ZY=    -5.3859
   XZ=    -5.0942   YZ=    -5.8238   ZZ=    25.6306
   Eigenvalues:    17.6257    20.7498    33.1871
     47  H    Isotropic =    23.5888   Anisotropy =    13.1048
   XX=    20.5334   YX=     1.5161   ZX=     1.3235
   XY=     1.2322   YY=    31.5372   ZY=    -2.8014
   XZ=    -0.6769   YZ=    -3.1233   ZZ=    18.6958
   Eigenvalues:    17.8976    20.5435    32.3253
     48  H    Isotropic =    25.0478   Anisotropy =    11.6503
   XX=    22.8577   YX=    -1.2518   ZX=     2.7806
   XY=    -4.6896   YY=    27.1849   ZY=    -5.3881
   XZ=     4.2920   YZ=    -3.5712   ZZ=    25.1007
   Eigenvalues:    20.2491    22.0795    32.8147
     49  H    Isotropic =    24.5605   Anisotropy =     3.9971
   XX=    24.5009   YX=     0.0621   ZX=     1.5420
   XY=    -0.6287   YY=    23.4760   ZY=    -1.3551
   XZ=     1.3084   YZ=    -1.7447   ZZ=    25.7044
   Eigenvalues:    22.5708    23.8853    27.2252
     50  H    Isotropic =    25.1267   Anisotropy =     4.9392
   XX=    24.0908   YX=     2.9004   ZX=    -0.1268
   XY=     1.9674   YY=    26.0645   ZY=     1.2854
   XZ=     0.8791   YZ=     1.8237   ZZ=    25.2249
   Eigenvalues:    22.3264    24.6343    28.4195
     51  H    Isotropic =    25.1659   Anisotropy =     4.8161
   XX=    25.2086   YX=     2.1232   ZX=     1.0050
   XY=     2.7124   YY=    26.4493   ZY=    -0.3501
   XZ=    -0.8251   YZ=    -1.0086   ZZ=    23.8399
   Eigenvalues:    23.0247    24.0963    28.3767
     52  H    Isotropic =    24.5462   Anisotropy =     4.5186
   XX=    24.7096   YX=     0.7282   ZX=    -1.5872
   XY=     0.0391   YY=    22.6970   ZY=     0.9724
   XZ=    -2.0397   YZ=     1.3362   ZZ=    26.2321
   Eigenvalues:    21.9880    24.0920    27.5586
     53  H    Isotropic =    24.2452   Anisotropy =    10.5655
   XX=    21.0550   YX=    -1.0044   ZX=    -2.6133
   XY=    -2.8910   YY=    25.3274   ZY=     4.2392
   XZ=    -5.4688   YZ=     2.8653   ZZ=    26.3531
   Eigenvalues:    18.8720    22.5747    31.2889
     54  H    Isotropic =    23.2461   Anisotropy =    14.6025
   XX=    20.5442   YX=     2.5414   ZX=    -2.5359
   XY=     4.5220   YY=    25.8779   ZY=    -5.8755
   XZ=    -2.9916   YZ=    -7.4158   ZZ=    23.3160
   Eigenvalues:    17.8179    18.9392    32.9810
     55  H    Isotropic =    23.8422   Anisotropy =    15.0521
   XX=    25.0354   YX=    -6.0531   ZX=     2.7016
   XY=    -6.2172   YY=    26.3270   ZY=    -4.5366
   XZ=     2.3110   YZ=    -5.0715   ZZ=    20.1643
   Eigenvalues:    17.3961    20.2536    33.8769
     56  H    Isotropic =    24.2237   Anisotropy =    17.4287
   XX=    34.1506   YX=     4.9273   ZX=    -3.7613
   XY=     0.6595   YY=    19.9600   ZY=    -2.3619
   XZ=    -3.6530   YZ=    -5.7226   ZZ=    18.5605
   Eigenvalues:    15.0930    21.7353    35.8428
     57  H    Isotropic =    23.7400   Anisotropy =    12.0206
   XX=    21.4379   YX=     1.3050   ZX=    -1.9514
   XY=     0.4095   YY=    30.5130   ZY=     3.6007
   XZ=     0.7582   YZ=     4.1300   ZZ=    19.2691
   Eigenvalues:    17.8763    21.5900    31.7537
     58  H    Isotropic =    23.9745   Anisotropy =    14.2232
   XX=    24.5365   YX=     1.5157   ZX=     6.5978
   XY=     2.4447   YY=    21.3452   ZY=     4.0780
   XZ=     6.6286   YZ=     3.8153   ZZ=    26.0418
   Eigenvalues:    17.9885    20.4783    33.4566
     59  H    Isotropic =    23.8918   Anisotropy =    14.6272
   XX=    26.5608   YX=    -5.8917   ZX=     1.3179
   XY=    -5.0583   YY=    22.0001   ZY=    -4.6128
   XZ=     3.0411   YZ=    -9.1121   ZZ=    23.1143
   Eigenvalues:    14.9968    23.0352    33.6433
     60  H    Isotropic =    27.7315   Anisotropy =     7.2007
   XX=    23.4142   YX=    -0.4323   ZX=     2.4964
   XY=     1.4597   YY=    28.0233   ZY=    -0.5727
   XZ=     2.5627   YZ=     1.4328   ZZ=    31.7569
   Eigenvalues:    22.6801    27.9824    32.5319
     61  C    Isotropic =   153.3332   Anisotropy =    26.3696
   XX=   139.1099   YX=   -14.6408   ZX=    -2.0679
   XY=    -6.4413   YY=   162.9051   ZY=   -10.8053
   XZ=    -2.0610   YZ=    -5.7624   ZZ=   157.9845
   Eigenvalues:   134.0556   155.0310   170.9129
     62  C    Isotropic =   114.2014   Anisotropy =    59.0965
   XX=    99.5977   YX=    -8.3618   ZX=   -17.9008
   XY=    -8.0711   YY=    93.3612   ZY=    -8.3971
   XZ=   -10.4130   YZ=    -3.4756   ZZ=   149.6451
   Eigenvalues:    84.9655   104.0396   153.5990
     63  H    Isotropic =    27.2618   Anisotropy =     7.1264
   XX=    23.5508   YX=    -2.1918   ZX=    -1.6447
   XY=    -1.7417   YY=    28.6195   ZY=    -1.6226
   XZ=    -1.0602   YZ=    -4.0678   ZZ=    29.6151
   Eigenvalues:    22.1587    27.6140    32.0128
     64  H    Isotropic =    29.2615   Anisotropy =     3.6322
   XX=    29.9817   YX=    -0.0273   ZX=    -2.6518
   XY=     1.3109   YY=    28.3523   ZY=     1.3211
   XZ=    -1.2408   YZ=    -0.1198   ZZ=    29.4505
   Eigenvalues:    27.1268    28.9748    31.6830
     65  H    Isotropic =    30.3733   Anisotropy =    12.2742
   XX=    26.2843   YX=    -1.9783   ZX=    -3.1834
   XY=    -0.6199   YY=    27.5538   ZY=    -2.5515
   XZ=    -3.3675   YZ=    -2.3110   ZZ=    37.2820
   Eigenvalues:    24.2063    28.3576    38.5562
     66  C    Isotropic =   156.2342   Anisotropy =    35.9296
   XX=   172.0105   YX=    10.2636   ZX=     3.7840
   XY=    16.8788   YY=   151.4042   ZY=     1.3074
   XZ=     9.0416   YZ=     4.7513   ZZ=   145.2879
   Eigenvalues:   143.8255   144.6898   180.1873
     67  C    Isotropic =   146.1415   Anisotropy =    14.4412
   XX=   139.5517   YX=    -1.1545   ZX=     0.6811
   XY=     1.8196   YY=   148.5575   ZY=     4.4449
   XZ=     5.1045   YZ=     7.3653   ZZ=   150.3153
   Eigenvalues:   138.6493   144.0062   155.7690
     68  C    Isotropic =   151.4558   Anisotropy =    44.0375
   XX=   156.4197   YX=   -19.6118   ZX=    12.7918
   XY=   -22.2707   YY=   157.9951   ZY=    -1.7901
   XZ=    12.4521   YZ=    -2.3264   ZZ=   139.9528
   Eigenvalues:   129.3261   144.2272   180.8142
     69  C    Isotropic =   150.3098   Anisotropy =    45.8422
   XX=   138.6192   YX=    11.9513   ZX=    -8.2306
   XY=    11.6993   YY=   143.0562   ZY=   -16.7345
   XZ=   -12.6855   YZ=   -12.7128   ZZ=   169.2539
   Eigenvalues:   128.7383   141.3197   180.8713
     70  H    Isotropic =    29.7391   Anisotropy =     8.6467
   XX=    34.1383   YX=    -2.1704   ZX=     2.5755
   XY=    -1.5930   YY=    26.3687   ZY=     0.9892
   XZ=     3.0903   YZ=     1.9262   ZZ=    28.7104
   Eigenvalues:    24.6994    29.0143    35.5036
     71  H    Isotropic =    30.2543   Anisotropy =     9.4877
   XX=    29.2512   YX=     1.9844   ZX=     1.7575
   XY=     1.4730   YY=    30.4586   ZY=     4.9851
   XZ=     1.3524   YZ=     5.1786   ZZ=    31.0531
   Eigenvalues:    25.6535    28.5299    36.5795
     72  H    Isotropic =    29.7890   Anisotropy =     7.9221
   XX=    31.0404   YX=     3.4700   ZX=    -2.6882
   XY=     3.9336   YY=    30.6406   ZY=    -0.1329
   XZ=    -2.0311   YZ=    -0.5039   ZZ=    27.6859
   Eigenvalues:    25.8030    28.4935    35.0703
     73  H    Isotropic =    29.2903   Anisotropy =    11.1606
   XX=    34.2302   YX=     0.3925   ZX=     4.2295
   XY=    -1.8490   YY=    27.3879   ZY=     2.4215
   XZ=     5.9934   YZ=     1.5909   ZZ=    26.2529
   Eigenvalues:    22.7798    28.3605    36.7307
     74  H    Isotropic =    30.0853   Anisotropy =     6.7773
   XX=    28.8836   YX=    -1.2333   ZX=     2.3664
   XY=    -0.7932   YY=    32.0775   ZY=    -1.8482
   XZ=     2.3586   YZ=    -3.6920   ZZ=    29.2950
   Eigenvalues:    26.4156    29.2368    34.6036
     75  H    Isotropic =    30.1806   Anisotropy =     8.3835
   XX=    29.3546   YX=    -2.7557   ZX=    -0.1607
   XY=    -2.6452   YY=    32.1297   ZY=     4.9592
   XZ=     0.9510   YZ=     3.5564   ZZ=    29.0575
   Eigenvalues:    25.1452    29.6269    35.7696
     76  H    Isotropic =    29.7238   Anisotropy =     6.8054
   XX=    30.4121   YX=     4.1641   ZX=     1.2425
   XY=     5.5036   YY=    28.1806   ZY=    -0.8278
   XZ=    -1.3374   YZ=     0.5846   ZZ=    30.5787
   Eigenvalues:    24.3347    30.5760    34.2608
     77  H    Isotropic =    30.1886   Anisotropy =     9.9034
   XX=    27.4730   YX=     0.2228   ZX=    -1.4649
   XY=     0.6484   YY=    26.9917   ZY=     0.6149
   XZ=    -1.9315   YZ=     3.4003   ZZ=    36.1012
   Eigenvalues:    26.0579    27.7172    36.7909
     78  H    Isotropic =    30.3487   Anisotropy =     7.8575
   XX=    28.4460   YX=    -0.6835   ZX=     1.6347
   XY=    -1.6281   YY=    30.0838   ZY=    -4.7270
   XZ=     1.8817   YZ=    -2.1933   ZZ=    32.5164
   Eigenvalues:    27.6095    27.8495    35.5871
     79  C    Isotropic =   152.3218   Anisotropy =    42.3385
   XX=   146.9959   YX=    -8.1769   ZX=     0.1717
   XY=    -7.1180   YY=   178.6786   ZY=    -1.4172
   XZ=     3.4919   YZ=    -2.7200   ZZ=   131.2909
   Eigenvalues:   131.0483   145.3696   180.5475
     80  C    Isotropic =   146.6862   Anisotropy =    14.4339
   XX=   156.0216   YX=     1.2019   ZX=     0.2779
   XY=    -2.6814   YY=   142.6078   ZY=    -1.4293
   XZ=    -4.2667   YZ=    -1.8730   ZZ=   141.4293
   Eigenvalues:   140.0002   143.7497   156.3088
     81  C    Isotropic =   150.4821   Anisotropy =    42.3115
   XX=   142.5295   YX=     2.7172   ZX=    -1.7787
   XY=     5.3056   YY=   132.0825   ZY=   -10.9174
   XZ=    -1.3186   YZ=    -6.9149   ZZ=   176.8343
   Eigenvalues:   129.3535   143.4030   178.6898
     82  C    Isotropic =   156.4304   Anisotropy =    36.3381
   XX=   161.4657   YX=    15.8678   ZX=    16.4675
   XY=     9.7872   YY=   153.9244   ZY=     9.5597
   XZ=     8.9266   YZ=     9.9759   ZZ=   153.9011
   Eigenvalues:   144.1350   144.5005   180.6558
     83  H    Isotropic =    30.6973   Anisotropy =     7.1000
   XX=    29.2916   YX=    -0.0283   ZX=     1.6576
   XY=    -2.1322   YY=    31.9413   ZY=    -3.1886
   XZ=     3.2755   YZ=    -2.8175   ZZ=    30.8590
   Eigenvalues:    27.2168    29.4444    35.4307
     84  H    Isotropic =    30.5454   Anisotropy =     9.2929
   XX=    34.5160   YX=    -2.4103   ZX=    -1.0228
   XY=    -4.4354   YY=    30.7616   ZY=     2.5430
   XZ=     0.2797   YZ=     1.7379   ZZ=    26.3586
   Eigenvalues:    25.3693    29.5262    36.7407
     85  H    Isotropic =    30.2457   Anisotropy =    11.1291
   XX=    33.1826   YX=     2.8659   ZX=     2.9286
   XY=     2.5042   YY=    32.0818   ZY=     4.5933
   XZ=     4.7420   YZ=     2.7148   ZZ=    25.4726
   Eigenvalues:    23.1633    29.9087    37.6651
     86  H    Isotropic =    30.3589   Anisotropy =     5.9755
   XX=    28.8370   YX=     0.4164   ZX=     0.8871
   XY=     1.2283   YY=    31.8146   ZY=    -3.2626
   XZ=    -1.1799   YZ=    -2.8297   ZZ=    30.4249
   Eigenvalues:    27.8245    28.9095    34.3425
     87  H    Isotropic =    29.8096   Anisotropy =     9.9830
   XX=    32.2626   YX=     3.9362   ZX=     2.5765
   XY=     3.2105   YY=    26.0584   ZY=     0.9320
   XZ=     2.7192   YZ=     4.9917   ZZ=    31.1079
   Eigenvalues:    23.9880    28.9758    36.4650
     88  H    Isotropic =    30.3382   Anisotropy =     9.0920
   XX=    33.0771   YX=     0.7111   ZX=    -3.0597
   XY=     1.2631   YY=    26.1928   ZY=     0.0965
   XZ=    -4.8003   YZ=     1.7470   ZZ=    31.7447
   Eigenvalues:    25.5622    29.0529    36.3995
     89  H    Isotropic =    29.8406   Anisotropy =     8.3949
   XX=    29.5266   YX=     3.0861   ZX=     0.1224
   XY=     2.2819   YY=    33.5943   ZY=     2.3575
   XZ=    -1.2364   YZ=     2.8839   ZZ=    26.4009
   Eigenvalues:    25.0672    29.0174    35.4372
     90  H    Isotropic =    30.4177   Anisotropy =     9.7696
   XX=    36.8425   YX=     0.8446   ZX=    -0.6491
   XY=     0.8709   YY=    27.1194   ZY=     1.4397
   XZ=    -0.3422   YZ=     1.8239   ZZ=    27.2912
   Eigenvalues:    25.4893    28.8329    36.9308
     91  H    Isotropic =    29.9835   Anisotropy =     8.7742
   XX=    30.4016   YX=     0.3911   ZX=     3.5271
   XY=    -1.1198   YY=    26.0536   ZY=     2.0104
   XZ=     3.0869   YZ=     1.9897   ZZ=    33.4953
   Eigenvalues:    25.2195    28.8979    35.8329
     92  C    Isotropic =   151.3841   Anisotropy =    45.8582
   XX=   169.7829   YX=   -21.4062   ZX=     2.8892
   XY=   -17.5558   YY=   146.5316   ZY=    -8.1464
   XZ=     4.7158   YZ=    -6.6954   ZZ=   137.8377
   Eigenvalues:   131.5339   140.6621   181.9562
     93  C    Isotropic =   146.8654   Anisotropy =    11.0732
   XX=   149.4233   YX=     1.1187   ZX=    -4.4998
   XY=    -1.1931   YY=   141.2984   ZY=     0.4808
   XZ=    -4.5309   YZ=    -3.3086   ZZ=   149.8745
   Eigenvalues:   140.9809   145.3677   154.2476
     94  C    Isotropic =   153.4847   Anisotropy =    41.2889
   XX=   146.9056   YX=    14.2739   ZX=    11.9823
   XY=    14.1646   YY=   149.1964   ZY=    12.2079
   XZ=    10.3398   YZ=    15.1827   ZZ=   164.3520
   Eigenvalues:   133.7261   145.7173   181.0106
     95  C    Isotropic =   156.6191   Anisotropy =    32.0996
   XX=   147.0848   YX=     9.3472   ZX=    -1.7079
   XY=     4.5864   YY=   174.4400   ZY=    -4.5225
   XZ=    -1.8433   YZ=   -10.0994   ZZ=   148.3324
   Eigenvalues:   145.4124   146.4261   178.0188
     96  H    Isotropic =    30.3272   Anisotropy =     8.3935
   XX=    34.3353   YX=    -0.1872   ZX=     2.2584
   XY=    -0.6035   YY=    28.4327   ZY=     1.5295
   XZ=     4.6891   YZ=     1.9905   ZZ=    28.2135
   Eigenvalues:    25.5550    29.5037    35.9228
     97  H    Isotropic =    30.3088   Anisotropy =    10.8618
   XX=    33.9111   YX=    -3.2661   ZX=    -5.4173
   XY=    -3.0299   YY=    28.3901   ZY=     1.7278
   XZ=    -3.0117   YZ=     1.1834   ZZ=    28.6253
   Eigenvalues:    26.2287    27.1478    37.5501
     98  H    Isotropic =    29.8654   Anisotropy =     7.9960
   XX=    29.9404   YX=    -3.9350   ZX=    -2.1331
   XY=    -0.8683   YY=    33.4999   ZY=    -2.4296
   XZ=    -0.5907   YZ=    -3.3761   ZZ=    26.1558
   Eigenvalues:    24.3320    30.0681    35.1960
     99  H    Isotropic =    29.8962   Anisotropy =     7.5376
   XX=    32.5384   YX=    -3.8557   ZX=     2.9775
   XY=    -2.6337   YY=    28.7353   ZY=     1.6679
   XZ=     2.4669   YZ=     0.8450   ZZ=    28.4147
   Eigenvalues:    24.9669    29.8003    34.9213
    100  H    Isotropic =    29.9505   Anisotropy =     7.0691
   XX=    27.2318   YX=     3.0641   ZX=    -0.5608
   XY=     1.8265   YY=    33.7886   ZY=    -0.0102
   XZ=    -1.0538   YZ=     1.8095   ZZ=    28.8311
   Eigenvalues:    26.0222    29.1661    34.6632
    101  H    Isotropic =    30.3453   Anisotropy =     9.9334
   XX=    27.7509   YX=    -0.7685   ZX=    -1.6271
   XY=    -1.0466   YY=    28.5316   ZY=     3.3610
   XZ=    -3.3290   YZ=     3.3400   ZZ=    34.7533
   Eigenvalues:    26.8773    27.1910    36.9675
    102  H    Isotropic =    29.4972   Anisotropy =     9.9013
   XX=    31.6850   YX=    -4.8568   ZX=    -0.0493
   XY=    -5.4325   YY=    29.9828   ZY=    -1.1450
   XZ=     0.1316   YZ=    -0.8502   ZZ=    26.8239
   Eigenvalues:    25.2641    27.1295    36.0981
    103  H    Isotropic =    30.5501   Anisotropy =     8.4533
   XX=    30.7288   YX=     0.2908   ZX=    -4.7648
   XY=     0.6957   YY=    28.8275   ZY=    -1.1433
   XZ=    -4.5076   YZ=    -0.1316   ZZ=    32.0939
   Eigenvalues:    26.7242    28.7404    36.1856
    104  H    Isotropic =    29.9510   Anisotropy =     9.0592
   XX=    30.9837   YX=     3.4494   ZX=     0.1619
   XY=     2.9865   YY=    31.0758   ZY=     4.2436
   XZ=     0.8865   YZ=     4.7108   ZZ=    27.7936
   Eigenvalues:    24.3213    29.5413    35.9905
    105  C    Isotropic =   153.0259   Anisotropy =    45.1909
   XX=   165.4148   YX=   -20.4637   ZX=     3.2622
   XY=   -20.6953   YY=   153.9212   ZY=    -8.8380
   XZ=     4.3219   YZ=   -12.5751   ZZ=   139.7418
   Eigenvalues:   131.8662   144.0583   183.1532
    106  C    Isotropic =   146.8339   Anisotropy =    11.9366
   XX=   146.8679   YX=     1.0396   ZX=    -1.2006
   XY=     4.0339   YY=   147.8064   ZY=    -8.6801
   XZ=    -1.5155   YZ=    -5.1338   ZZ=   145.8274
   Eigenvalues:   139.7776   145.9325   154.7916
    107  C    Isotropic =   154.2099   Anisotropy =    31.9628
   XX=   152.5034   YX=    -7.2858   ZX=   -13.4850
   XY=    -3.0065   YY=   145.5357   ZY=     1.3895
   XZ=   -14.4701   YZ=     9.1310   ZZ=   164.5907
   Eigenvalues:   142.1620   144.9492   175.5185
    108  C    Isotropic =   151.6133   Anisotropy =    40.2975
   XX=   151.7989   YX=    17.4050   ZX=    12.1169
   XY=    13.6364   YY=   146.5979   ZY=    13.2359
   XZ=    12.0662   YZ=    11.5956   ZZ=   156.4432
   Eigenvalues:   133.2602   143.1015   178.4783
    109  H    Isotropic =    29.8089   Anisotropy =     8.0670
   XX=    30.4775   YX=    -4.8240   ZX=    -4.5315
   XY=    -3.1013   YY=    29.8028   ZY=     0.4735
   XZ=    -3.1924   YZ=    -2.1190   ZZ=    29.1464
   Eigenvalues:    23.9505    30.2893    35.1869
    110  H    Isotropic =    30.3556   Anisotropy =    10.6357
   XX=    27.9376   YX=    -3.2107   ZX=     0.2212
   XY=    -1.1417   YY=    35.2323   ZY=    -3.6782
   XZ=    -0.8024   YZ=    -4.5463   ZZ=    27.8967
   Eigenvalues:    25.4457    28.1750    37.4460
    111  H    Isotropic =    30.4376   Anisotropy =     8.5798
   XX=    32.9581   YX=    -2.2337   ZX=     4.9655
   XY=    -0.9414   YY=    28.6574   ZY=    -0.5602
   XZ=     2.9960   YZ=    -1.8506   ZZ=    29.6972
   Eigenvalues:    27.0145    28.1408    36.1575
    112  H    Isotropic =    29.3779   Anisotropy =    10.3365
   XX=    33.6163   YX=    -3.6411   ZX=    -3.0409
   XY=    -3.2325   YY=    29.3475   ZY=    -1.4268
   XZ=    -4.2390   YZ=    -0.2417   ZZ=    25.1699
   Eigenvalues:    23.1078    28.7571    36.2689
    113  H    Isotropic =    29.8214   Anisotropy =     5.6154
   XX=    26.7562   YX=    -0.4996   ZX=     1.7241
   XY=     1.0194   YY=    29.7801   ZY=     1.2430
   XZ=     0.4774   YZ=     1.3062   ZZ=    32.9278
   Eigenvalues:    26.5652    29.3339    33.5649
    114  H    Isotropic =    30.2785   Anisotropy =     8.0670
   XX=    29.3570   YX=     0.5792   ZX=    -3.0699
   XY=     0.6312   YY=    31.4153   ZY=    -3.2916
   XZ=    -3.7622   YZ=    -3.9636   ZZ=    30.0631
   Eigenvalues:    25.4455    29.7335    35.6565
    115  H    Isotropic =    30.2506   Anisotropy =     6.8429
   XX=    32.7405   YX=    -2.4185   ZX=     1.9282
   XY=    -1.8052   YY=    30.0461   ZY=    -0.9692
   XZ=     2.5571   YZ=    -1.2581   ZZ=    27.9654
   Eigenvalues:    27.0463    28.8931    34.8126
    116  H    Isotropic =    30.3424   Anisotropy =     8.9539
   XX=    29.3934   YX=     4.0518   ZX=    -1.2096
   XY=     2.8586   YY=    34.5687   ZY=    -0.5116
   XZ=    -0.7635   YZ=     0.7012   ZZ=    27.0652
   Eigenvalues:    26.3843    28.3312    36.3117
    117  H    Isotropic =    30.1518   Anisotropy =     6.1999
   XX=    27.9158   YX=     1.6668   ZX=    -1.0630
   XY=    -0.2949   YY=    29.8933   ZY=     2.3047
   XZ=    -2.6721   YZ=     2.4386   ZZ=    32.6464
   Eigenvalues:    26.5311    29.6393    34.2851
    118  C    Isotropic =   149.8859   Anisotropy =    42.9831
   XX=   142.5314   YX=    -7.9336   ZX=   -14.5512
   XY=   -11.9918   YY=   159.5859   ZY=    14.0865
   XZ=   -15.4938   YZ=    17.6344   ZZ=   147.5403
   Eigenvalues:   129.4365   141.6799   178.5413
    119  C    Isotropic =   146.6754   Anisotropy =    12.5148
   XX=   141.2013   YX=    -1.3802   ZX=     0.8637
   XY=     3.3531   YY=   151.0543   ZY=    -6.1040
   XZ=    -1.6993   YZ=    -4.4521   ZZ=   147.7705
   Eigenvalues:   141.1007   143.9069   155.0186
    120  C    Isotropic =   153.2811   Anisotropy =    40.5854
   XX=   155.1684   YX=     7.6228   ZX=    19.1287
   XY=     6.6036   YY=   142.5242   ZY=    -0.4457
   XZ=    22.7575   YZ=    -0.9517   ZZ=   162.1507
   Eigenvalues:   133.4589   146.0464   180.3381
    121  C    Isotropic =   156.0746   Anisotropy =    36.5361
   XX=   171.2745   YX=     6.4209   ZX=    -9.4965
   XY=    12.9353   YY=   147.1158   ZY=    -5.7617
   XZ=   -15.5364   YZ=    -3.0802   ZZ=   149.8337
   Eigenvalues:   143.7155   144.0763   180.4320
    122  H    Isotropic =    30.1379   Anisotropy =     6.2257
   XX=    29.3072   YX=     1.1370   ZX=     0.1825
   XY=     1.4612   YY=    30.4375   ZY=     2.3516
   XZ=     0.8879   YZ=     4.4430   ZZ=    30.6691
   Eigenvalues:    27.0012    29.1242    34.2884
    123  H    Isotropic =    30.0960   Anisotropy =     8.4949
   XX=    28.9805   YX=    -1.8194   ZX=    -1.3091
   XY=    -2.0631   YY=    35.1797   ZY=    -2.1225
   XZ=    -2.0829   YZ=     0.2194   ZZ=    26.1276
   Eigenvalues:    25.0475    29.4811    35.7592
    124  H    Isotropic =    29.4732   Anisotropy =    10.8577
   XX=    33.2390   YX=     1.0161   ZX=    -4.7022
   XY=    -0.4240   YY=    28.4025   ZY=    -0.8326
   XZ=    -6.9838   YZ=    -0.0111   ZZ=    26.7780
   Eigenvalues:    23.3230    28.3850    36.7116
    125  H    Isotropic =    30.2238   Anisotropy =     7.4874
   XX=    27.8953   YX=     0.8370   ZX=     0.4658
   XY=     0.6518   YY=    28.6738   ZY=     3.7571
   XZ=     0.2365   YZ=     1.4961   ZZ=    34.1023
   Eigenvalues:    27.1593    28.2967    35.2154
    126  H    Isotropic =    29.3075   Anisotropy =     8.3874
   XX=    33.4573   YX=     2.4760   ZX=    -2.0463
   XY=     3.3028   YY=    26.3935   ZY=    -1.7839
   XZ=     0.1314   YZ=    -2.5790   ZZ=    28.0718
   Eigenvalues:    24.4637    28.5598    34.8991
    127  H    Isotropic =    30.2428   Anisotropy =     8.6839
   XX=    29.4227   YX=    -1.5814   ZX=     1.9301
   XY=    -0.5768   YY=    29.5742   ZY=    -3.5881
   XZ=     1.8253   YZ=    -5.5277   ZZ=    31.7316
   Eigenvalues:    25.9353    28.7612    36.0321
    128  H    Isotropic =    29.8686   Anisotropy =     8.7438
   XX=    31.3277   YX=    -2.2861   ZX=    -4.2642
   XY=    -1.5377   YY=    27.4997   ZY=     0.0238
   XZ=    -4.7001   YZ=    -0.8657   ZZ=    30.7785
   Eigenvalues:    25.3041    28.6040    35.6978
    129  H    Isotropic =    30.2332   Anisotropy =     9.3567
   XX=    29.2601   YX=     1.6577   ZX=    -1.8223
   XY=     1.1387   YY=    32.5550   ZY=    -4.7114
   XZ=    -1.5133   YZ=    -4.8880   ZZ=    28.8846
   Eigenvalues:    25.4806    28.7481    36.4710
    130  H    Isotropic =    29.6770   Anisotropy =     8.5142
   XX=    34.0468   YX=     2.2364   ZX=     2.3727
   XY=     2.7784   YY=    29.0775   ZY=    -1.0148
   XZ=     1.6604   YZ=    -0.6383   ZZ=    25.9068
   Eigenvalues:    24.9135    28.7645    35.3532
    131  C    Isotropic =   151.5329   Anisotropy =    45.6840
   XX=   145.1867   YX=    -5.8269   ZX=   -16.9311
   XY=   -10.7737   YY=   137.0570   ZY=     4.0922
   XZ=   -18.3741   YZ=     2.1210   ZZ=   172.3549
   Eigenvalues:   130.2904   142.3193   181.9889
    132  C    Isotropic =   146.4006   Anisotropy =    12.9249
   XX=   151.8136   YX=    -7.0925   ZX=     3.1871
   XY=    -3.8613   YY=   144.5957   ZY=    -0.4145
   XZ=     0.6667   YZ=     0.1587   ZZ=   142.7927
   Eigenvalues:   141.1817   143.0030   155.0172
    133  C    Isotropic =   155.0641   Anisotropy =    36.6343
   XX=   143.9303   YX=     0.1048   ZX=    -0.5621
   XY=     5.9957   YY=   168.1216   ZY=   -16.6852
   XZ=    -5.5259   YZ=   -16.8309   ZZ=   153.1403
   Eigenvalues:   141.7927   143.9126   179.4870
    134  C    Isotropic =   151.8781   Anisotropy =    44.4168
   XX=   154.3181   YX=    16.5281   ZX=    13.5715
   XY=    14.0596   YY=   158.5492   ZY=    11.9156
   XZ=    17.3532   YZ=    12.0952   ZZ=   142.7671
   Eigenvalues:   131.9508   142.1941   181.4893
    135  H    Isotropic =    29.9154   Anisotropy =     7.8547
   XX=    28.4385   YX=    -0.1941   ZX=    -2.3525
   XY=    -2.3716   YY=    29.8541   ZY=    -2.7335
   XZ=    -3.8259   YZ=    -5.2303   ZZ=    31.4537
   Eigenvalues:    24.3383    30.2561    35.1519
    136  H    Isotropic =    30.4526   Anisotropy =    10.6582
   XX=    34.7767   YX=    -2.1490   ZX=    -3.0752
   XY=    -3.3522   YY=    27.8248   ZY=     0.0873
   XZ=    -5.1928   YZ=     0.3701   ZZ=    28.7565
   Eigenvalues:    25.8595    27.9403    37.5581
    137  H    Isotropic =    30.5927   Anisotropy =     7.0556
   XX=    28.8244   YX=     1.3694   ZX=    -0.8639
   XY=    -0.2140   YY=    29.9086   ZY=     2.7732
   XZ=    -1.9469   YZ=     3.9229   ZZ=    33.0451
   Eigenvalues:    26.9258    29.5558    35.2964
    138  H    Isotropic =    30.0376   Anisotropy =    11.8617
   XX=    30.5487   YX=     2.1164   ZX=    -3.0810
   XY=     1.9895   YY=    27.1382   ZY=    -5.1047
   XZ=    -3.4497   YZ=    -6.0054   ZZ=    32.4258
   Eigenvalues:    23.6299    28.5374    37.9454
    139  H    Isotropic =    30.4639   Anisotropy =     8.6301
   XX=    31.9038   YX=     3.1209   ZX=    -1.5447
   XY=     2.7951   YY=    33.6129   ZY=    -0.5631
   XZ=    -3.1160   YZ=    -0.8155   ZZ=    25.8752
   Eigenvalues:    25.0669    30.1076    36.2173
    140  H    Isotropic =    30.6276   Anisotropy =     7.9546
   XX=    34.4419   YX=    -2.2085   ZX=    -0.1102
   XY=    -3.1192   YY=    30.4187   ZY=    -2.7066
   XZ=    -0.1941   YZ=    -2.9869   ZZ=    27.0221
   Eigenvalues:    25.1605    30.7916    35.9307
    141  H    Isotropic =    30.3512   Anisotropy =     6.3431
   XX=    29.2728   YX=     1.7623   ZX=     0.3517
   XY=     1.8120   YY=    28.9846   ZY=     3.3799
   XZ=     1.8741   YZ=     1.4354   ZZ=    32.7963
   Eigenvalues:    27.0872    29.3865    34.5800
    142  H    Isotropic =    30.3561   Anisotropy =    10.3504
   XX=    36.5517   YX=     0.7629   ZX=     1.6443
   XY=     1.7436   YY=    27.8500   ZY=    -0.0334
   XZ=     3.2199   YZ=    -0.6787   ZZ=    26.6665
   Eigenvalues:    25.8853    27.9266    37.2564
    143  H    Isotropic =    29.7832   Anisotropy =     7.7664
   XX=    29.6890   YX=     2.3876   ZX=     0.3937
   XY=     1.9184   YY=    33.8056   ZY=    -3.0295
   XZ=     2.9505   YZ=    -1.4135   ZZ=    25.8552
   Eigenvalues:    24.3538    30.0351    34.9609
    144  C    Isotropic =   151.0104   Anisotropy =    47.3316
   XX=   161.3720   YX=   -19.2764   ZX=   -12.9456
   XY=   -18.0870   YY=   146.1170   ZY=    11.4275
   XZ=   -11.2394   YZ=    16.3181   ZZ=   145.5423
   Eigenvalues:   130.5929   139.8736   182.5648
    145  C    Isotropic =   146.7835   Anisotropy =    11.6133
   XX=   147.0823   YX=     1.2457   ZX=     0.4605
   XY=     5.0894   YY=   146.9316   ZY=     7.5194
   XZ=     2.6124   YZ=     5.1970   ZZ=   146.3364
   Eigenvalues:   140.0803   145.7444   154.5256
    146  C    Isotropic =   154.6982   Anisotropy =    36.5974
   XX=   159.8655   YX=   -12.9619   ZX=    16.1093
   XY=    -5.3248   YY=   146.8193   ZY=    -3.4717
   XZ=    17.7238   YZ=    -8.0173   ZZ=   157.4099
   Eigenvalues:   140.4069   144.5912   179.0965
    147  C    Isotropic =   153.5743   Anisotropy =    40.5811
   XX=   145.4538   YX=    15.4683   ZX=    -9.8344
   XY=    13.5222   YY=   155.1196   ZY=   -16.3557
   XZ=    -7.1851   YZ=   -14.5698   ZZ=   160.1493
   Eigenvalues:   134.7121   145.3823   180.6283
    148  H    Isotropic =    30.0233   Anisotropy =     8.2451
   XX=    32.3930   YX=    -5.2283   ZX=     2.8232
   XY=    -3.3401   YY=    29.0768   ZY=     0.1185
   XZ=     1.7842   YZ=     2.7320   ZZ=    28.6001
   Eigenvalues:    24.5730    29.9769    35.5200
    149  H    Isotropic =    30.3255   Anisotropy =    10.7970
   XX=    27.8723   YX=    -3.2771   ZX=    -1.1703
   XY=    -1.1829   YY=    33.7702   ZY=     4.4173
   XZ=     0.4162   YZ=     5.6985   ZZ=    29.3340
   Eigenvalues:    25.5988    27.8542    37.5235
    150  H    Isotropic =    30.4541   Anisotropy =     8.0855
   XX=    31.4463   YX=    -1.2109   ZX=    -5.6927
   XY=    -0.3688   YY=    28.7615   ZY=     0.0669
   XZ=    -3.1243   YZ=     1.0923   ZZ=    31.1544
   Eigenvalues:    26.8795    28.6383    35.8444
    151  H    Isotropic =    29.8728   Anisotropy =    10.3914
   XX=    33.3151   YX=    -5.0063   ZX=     0.9690
   XY=    -4.7610   YY=    29.8323   ZY=     2.4463
   XZ=     3.1452   YZ=     1.1827   ZZ=    26.4710
   Eigenvalues:    23.7460    29.0720    36.8004
    152  H    Isotropic =    29.7392   Anisotropy =     5.3907
   XX=    26.7803   YX=    -1.1201   ZX=     0.2220
   XY=    -0.2104   YY=    30.3082   ZY=    -1.4887
   XZ=     1.8022   YZ=    -1.8259   ZZ=    32.1292
   Eigenvalues:    26.5558    29.3289    33.3330
    153  H    Isotropic =    30.4846   Anisotropy =     7.9433
   XX=    30.0363   YX=     0.4994   ZX=     3.8581
   XY=     0.1534   YY=    31.4209   ZY=     2.7589
   XZ=     4.9514   YZ=     3.2034   ZZ=    29.9966
   Eigenvalues:    25.0046    30.6691    35.7801
    154  H    Isotropic =    30.2514   Anisotropy =     6.8783
   XX=    31.5198   YX=    -2.2232   ZX=    -3.0975
   XY=    -1.3640   YY=    30.2450   ZY=     0.3618
   XZ=    -4.2008   YZ=     0.8453   ZZ=    28.9894
   Eigenvalues:    26.3068    29.6104    34.8369
    155  H    Isotropic =    30.4800   Anisotropy =     9.2612
   XX=    28.4193   YX=     3.2134   ZX=     1.2712
   XY=     2.7314   YY=    35.5208   ZY=     0.9491
   XZ=     0.8552   YZ=    -0.2394   ZZ=    27.4999
   Eigenvalues:    26.5157    28.2701    36.6541
    156  H    Isotropic =    29.9243   Anisotropy =     7.2896
   XX=    28.0552   YX=     0.8023   ZX=     2.5669
   XY=    -1.0689   YY=    30.6662   ZY=    -2.7730
   XZ=     3.9844   YZ=    -3.0295   ZZ=    31.0517
   Eigenvalues:    25.4673    29.5216    34.7841
    157  C    Isotropic =   150.7719   Anisotropy =    38.5510
   XX=   145.9238   YX=    -9.1779   ZX=   -14.4525
   XY=   -10.7324   YY=   142.7838   ZY=     7.8581
   XZ=   -13.6602   YZ=    10.8909   ZZ=   163.6080
   Eigenvalues:   134.0209   141.8221   176.4725
    158  C    Isotropic =   146.6469   Anisotropy =    14.5355
   XX=   150.4908   YX=    -5.6928   ZX=     4.3185
   XY=    -2.9036   YY=   141.6458   ZY=    -3.2493
   XZ=     4.3002   YZ=    -6.1331   ZZ=   147.8041
   Eigenvalues:   138.7704   144.8331   156.3373
    159  C    Isotropic =   149.8782   Anisotropy =    43.9764
   XX=   167.1273   YX=    19.2278   ZX=    -2.1657
   XY=    16.7344   YY=   146.9108   ZY=   -10.7121
   XZ=    -4.5706   YZ=    -9.8718   ZZ=   135.5966
   Eigenvalues:   128.0712   142.3677   179.1958
    160  C    Isotropic =   155.6995   Anisotropy =    36.0857
   XX=   146.5393   YX=   -11.1182   ZX=    -0.4316
   XY=    -4.8525   YY=   177.5161   ZY=     0.2428
   XZ=     1.0898   YZ=    -6.9493   ZZ=   143.0431
   Eigenvalues:   142.6285   144.7133   179.7567
    161  H    Isotropic =    30.5043   Anisotropy =     6.9649
   XX=    33.3726   YX=    -1.2195   ZX=    -3.2418
   XY=    -1.5119   YY=    28.0672   ZY=    -0.9342
   XZ=    -2.6730   YZ=    -1.7340   ZZ=    30.0730
   Eigenvalues:    26.3395    30.0258    35.1476
    162  H    Isotropic =    30.4105   Anisotropy =     8.8604
   XX=    29.0160   YX=    -1.5859   ZX=     2.1051
   XY=    -1.2009   YY=    27.0759   ZY=     0.3810
   XZ=     3.7197   YZ=    -0.0322   ZZ=    35.1395
   Eigenvalues:    26.0432    28.8708    36.3174
    163  H    Isotropic =    29.8946   Anisotropy =     8.8696
   XX=    30.2939   YX=    -5.9876   ZX=    -0.2080
   XY=    -4.3383   YY=    30.9591   ZY=    -0.7898
   XZ=     0.5387   YZ=     0.4540   ZZ=    28.4307
   Eigenvalues:    25.4529    28.4232    35.8077
    164  H    Isotropic =    30.3633   Anisotropy =     9.2049
   XX=    33.7840   YX=     0.2865   ZX=    -2.9284
   XY=     1.1322   YY=    27.9859   ZY=    -2.6150
   XZ=    -4.9519   YZ=    -2.3099   ZZ=    29.3201
   Eigenvalues:    25.5432    29.0468    36.4999
    165  H    Isotropic =    29.7906   Anisotropy =     7.0755
   XX=    30.6663   YX=     2.3854   ZX=     1.2796
   XY=     0.0702   YY=    32.3791   ZY=    -2.8906
   XZ=     0.0847   YZ=    -5.0268   ZZ=    26.3264
   Eigenvalues:    24.1625    30.7017    34.5076
    166  H    Isotropic =    30.3705   Anisotropy =     9.7957
   XX=    34.5947   YX=     0.8657   ZX=     5.2656
   XY=     1.2124   YY=    27.5881   ZY=    -0.6128
   XZ=     3.2661   YZ=    -1.5269   ZZ=    28.9288
   Eigenvalues:    25.5993    28.6113    36.9010
    167  H    Isotropic =    30.0028   Anisotropy =     8.5498
   XX=    29.9603   YX=    -4.3666   ZX=     0.2808
   XY=    -3.2863   YY=    31.9014   ZY=     3.3326
   XZ=    -0.6493   YZ=     2.5699   ZZ=    28.1468
   Eigenvalues:    25.5578    28.7480    35.7027
    168  H    Isotropic =    30.4065   Anisotropy =     9.9602
   XX=    30.3902   YX=    -2.8196   ZX=     4.5035
   XY=    -2.9141   YY=    30.4791   ZY=    -2.8221
   XZ=     4.1701   YZ=    -2.5290   ZZ=    30.3503
   Eigenvalues:    26.0274    28.1455    37.0466
    169  H    Isotropic =    29.8995   Anisotropy =     7.4612
   XX=    28.5590   YX=     1.7776   ZX=     1.0094
   XY=     2.9178   YY=    33.5586   ZY=    -1.8573
   XZ=     1.1744   YZ=    -2.4994   ZZ=    27.5809
   Eigenvalues:    25.6310    29.1939    34.8737
    170  H    Isotropic =    27.9791   Anisotropy =     8.1242
   XX=    28.2417   YX=    -2.9130   ZX=     0.7840
   XY=    -2.3322   YY=    23.1457   ZY=    -0.7234
   XZ=     2.7792   YZ=    -0.3234   ZZ=    32.5499
   Eigenvalues:    22.0327    28.5093    33.3952
    171  H    Isotropic =    26.9979   Anisotropy =     7.8333
   XX=    22.6897   YX=    -4.2946   ZX=    -0.0188
   XY=    -3.1298   YY=    26.7625   ZY=     0.1787
   XZ=    -2.8510   YZ=     1.4280   ZZ=    31.5415
   Eigenvalues:    20.4294    28.3442    32.2201
 End of Minotr F.D. properties file   721 does not exist.
 End of Minotr F.D. properties file   722 does not exist.
 End of Minotr F.D. properties file   788 does not exist.
 Hyperfine terms turned off by default for NAtoms > 100.

 **********************************************************************

            Population analysis using the SCF Density.

 **********************************************************************

 Orbital symmetries:
       Occupied  (A) (A) (A) (A) (A) (A) (A) (A) (A) (A) (A) (A)
                 (A) (A) (A) (A) (A) (A) (A) (A) (A) (A) (A) (A)
                 (A) (A) (A) (A) (A) (A) (A) (A) (A) (A) (A) (A)
                 (A) (A) (A) (A) (A) (A) (A) (A) (A) (A) (A) (A)
                 (A) (A) (A) (A) (A) (A) (A) (A) (A) (A) (A) (A)
                 (A) (A) (A) (A) (A) (A) (A) (A) (A) (A) (A) (A)
                 (A) (A) (A) (A) (A) (A) (A) (A) (A) (A) (A) (A)
                 (A) (A) (A) (A) (A) (A) (A) (A) (A) (A) (A) (A)
                 (A) (A) (A) (A) (A) (A) (A) (A) (A) (A) (A) (A)
                 (A) (A) (A) (A) (A) (A) (A) (A) (A) (A) (A) (A)
                 (A) (A) (A) (A) (A) (A) (A) (A) (A) (A) (A) (A)
                 (A) (A) (A) (A) (A) (A) (A) (A) (A) (A) (A) (A)
                 (A) (A) (A) (A) (A) (A) (A) (A) (A) (A) (A) (A)
                 (A) (A) (A) (A) (A) (A) (A) (A) (A) (A) (A) (A)
                 (A) (A) (A) (A) (A) (A) (A) (A) (A) (A) (A) (A)
                 (A) (A) (A) (A) (A) (A) (A) (A) (A) (A) (A) (A)
                 (A) (A) (A) (A) (A) (A) (A) (A) (A) (A) (A) (A)
                 (A) (A) (A) (A) (A) (A) (A) (A) (A) (A) (A) (A)
                 (A) (A) (A) (A) (A) (A) (A) (A) (A) (A) (A) (A)
                 (A) (A) (A) (A) (A) (A) (A) (A) (A) (A) (A) (A)
                 (A) (A) (A) (A) (A) (A) (A) (A) (A) (A) (A) (A)
                 (A) (A) (A) (A) (A) (A) (A) (A) (A) (A) (A) (A)
                 (A) (A) (A) (A) (A) (A) (A) (A) (A) (A) (A) (A)
                 (A) (A) (A) (A) (A) (A) (A) (A)
       Virtual   (A) (A) (A) (A) (A) (A) (A) (A) (A) (A) (A) (A)
                 (A) (A) (A) (A) (A) (A) (A) (A) (A) (A) (A) (A)
                 (A) (A) (A) (A) (A) (A) (A) (A) (A) (A) (A) (A)
                 (A) (A) (A) (A) (A) (A) (A) (A) (A) (A) (A) (A)
                 (A) (A) (A) (A) (A) (A) (A) (A) (A) (A) (A) (A)
                 (A) (A) (A) (A) (A) (A) (A) (A) (A) (A) (A) (A)
                 (A) (A) (A) (A) (A) (A) (A) (A) (A) (A) (A) (A)
                 (A) (A) (A) (A) (A) (A) (A) (A) (A) (A) (A) (A)
                 (A) (A) (A) (A) (A) (A) (A) (A) (A) (A) (A) (A)
                 (A) (A) (A) (A) (A) (A) (A) (A) (A) (A) (A) (A)
                 (A) (A) (A) (A) (A) (A) (A) (A) (A) (A) (A) (A)
                 (A) (A) (A) (A) (A) (A) (A) (A) (A) (A) (A) (A)
                 (A) (A) (A) (A) (A) (A) (A) (A) (A) (A) (A) (A)
                 (A) (A) (A) (A) (A) (A) (A) (A) (A) (A) (A) (A)
                 (A) (A) (A) (A) (A) (A) (A) (A) (A) (A) (A) (A)
                 (A) (A) (A) (A) (A) (A) (A) (A) (A) (A) (A) (A)
                 (A) (A) (A) (A) (A) (A) (A) (A) (A) (A) (A) (A)
                 (A) (A) (A) (A) (A) (A) (A) (A) (A) (A) (A) (A)
                 (A) (A) (A) (A) (A) (A) (A) (A) (A) (A) (A) (A)
                 (A) (A) (A) (A) (A) (A) (A) (A) (A) (A) (A) (A)
                 (A) (A) (A) (A) (A) (A) (A) (A) (A) (A) (A) (A)
[...]
                                                    759(g),732(g)
  2762. BD*(   1) C  18 - H  48          0.01698     0.43297   
  2763. BD*(   1) C  19 - C  20          0.01305     0.55586   
  2764. BD*(   1) C  19 - H  49          0.01411     0.41372   
  2765. BD*(   1) C  20 - C  21          0.03187     0.53350   
  2766. BD*(   2) C  20 - C  21          0.37254     0.03624  2761(v),2759(v),784(g)
                                                    2726(v),2774(r)
  2767. BD*(   1) C  20 - H  50          0.01445     0.40719   
  2768. BD*(   1) C  21 - C  22          0.04105     0.51865   
  2769. BD*(   1) C  22 - C  23          0.03076     0.44517   
  2770. BD*(   1) C  23 - C  24          0.04379     0.52156   
  2771. BD*(   1) C  23 - C  28          0.03102     0.53328   
  2772. BD*(   2) C  23 - C  28          0.40257     0.04575  2778(v),2759(v),2774(v)
                                                    2745(r),2798(r),2724(v)
                                                    993(g),2768(v),2758(v)
                                                    2783(r),2747(r),966(v)
                                                    862(g),863(g)
  2773. BD*(   1) C  24 - C  25          0.03214     0.53575   
  2774. BD*(   2) C  24 - C  25          0.36793     0.03838  2778(v),2772(v),2728(v)
                                                    914(g),2747(r),2766(r)
  2775. BD*(   1) C  25 - C  26          0.01340     0.55880   
  2776. BD*(   1) C  25 - H  51          0.01358     0.40870   
  2777. BD*(   1) C  26 - C  27          0.01633     0.56125   
  2778. BD*(   2) C  26 - C  27          0.33525     0.04356  2772(v),2774(v),2783(r)
                                                    941(g),966(g),2798(r)
  2779. BD*(   1) C  26 - H  52          0.01409     0.41502   
  2780. BD*(   1) C  27 - C  28          0.02255     0.54675   
  2781. BD*(   1) C  27 - H  53          0.01787     0.43559   
  2782. BD*(   1) C  29 - C  30          0.02182     0.55316   
  2783. BD*(   2) C  29 - C  30          0.37312     0.04006  2788(v),2793(v),2778(r)
                                                    1044(g),2722(v),2772(r)
  2784. BD*(   1) C  29 - C  34          0.02872     0.56014   
  2785. BD*(   1) C  30 - C  31          0.02536     0.55484   
  2786. BD*(   1) C  30 - H  54          0.01904     0.42397   
  2787. BD*(   1) C  31 - C  32          0.02354     0.56415   
  2788. BD*(   2) C  31 - C  32          0.33617     0.05265  2793(v),2783(v),1096(g)
                                                    2866(v),2870(v),1071(g)
  2789. BD*(   1) C  31 - C 119          0.03991     0.38430   
  2790. BD*(   1) C  32 - C  33          0.02231     0.55308   
  2791. BD*(   1) C  32 - H  55          0.01823     0.42401   
  2792. BD*(   1) C  33 - C  34          0.02556     0.56355   
  2793. BD*(   2) C  33 - C  34          0.32401     0.05488  2788(v),2783(v),1148(g)
                                                    2878(v),2883(v),2798(r)
  2794. BD*(   1) C  33 - C 132          0.03975     0.38532   
  2795. BD*(   1) C  34 - H  56          0.01892     0.43757   
  2796. BD*(   1) C  35 - C  36          0.02396     0.55152   
  2797. BD*(   1) C  35 - C  40          0.03259     0.55165   
  2798. BD*(   2) C  35 - C  40          0.36146     0.04350  2805(v),2800(v),2759(r)
                                                    1304(g),2723(v),2772(r)
                                                    2722(v),2793(r),1175(g)
                                                    2778(r)
  2799. BD*(   1) C  36 - C  37          0.02629     0.56646   
  2800. BD*(   2) C  36 - C  37          0.31538     0.05779  2805(v),2798(v),1200(g)
                                                    2890(v),2895(v),1227(g)
  2801. BD*(   1) C  36 - H  57          0.01832     0.43148   
  2802. BD*(   1) C  37 - C  38          0.02290     0.55211   
  2803. BD*(   1) C  37 - C 145          0.03964     0.38786   
  2804. BD*(   1) C  38 - C  39          0.02332     0.56195   
  2805. BD*(   2) C  38 - C  39          0.32755     0.05353  2800(v),2798(v),1252(g)
                                                    2902(v),2906(v),1279(g)
  2806. BD*(   1) C  38 - H  58          0.01822     0.42507   
  2807. BD*(   1) C  39 - C  40          0.02573     0.54529   
  2808. BD*(   1) C  39 - C 158          0.04048     0.38342   
  2809. BD*(   1) C  40 - H  59          0.01746     0.43068   
  2810. BD*(   1) C  41 - H  60          0.02284     0.34037   
  2811. BD*(   1) C  41 - C  61          0.02498     0.33840   
  2812. BD*(   1) C  41 - H 171          0.02180     0.34365   
  2813. BD*(   1) C  61 - C  62          0.02732     0.33893   
  2814. BD*(   1) C  61 - H  64          0.01587     0.35212   
  2815. BD*(   1) C  61 - H  65          0.00926     0.34280   
  2816. BD*(   1) C  62 - H  63          0.02733     0.33835   
  2817. BD*(   1) C  62 - H 170          0.01890     0.34656   
  2818. BD*(   1) C  66 - C  67          0.02089     0.34333   
  2819. BD*(   1) C  66 - H  70          0.00741     0.38128   
  2820. BD*(   1) C  66 - H  71          0.00713     0.38507   
  2821. BD*(   1) C  66 - H  72          0.00722     0.38088   
  2822. BD*(   1) C  67 - C  68          0.02405     0.33578   
  2823. BD*(   1) C  67 - C  69          0.02467     0.33330   
  2824. BD*(   1) C  68 - H  73          0.00703     0.39263   
  2825. BD*(   1) C  68 - H  74          0.00674     0.38358   
  2826. BD*(   1) C  68 - H  75          0.00776     0.38163   
  2827. BD*(   1) C  69 - H  76          0.00646     0.38902   
  2828. BD*(   1) C  69 - H  77          0.00788     0.38032   
  2829. BD*(   1) C  69 - H  78          0.00660     0.38555   
  2830. BD*(   1) C  79 - C  80          0.02408     0.33531   
  2831. BD*(   1) C  79 - H  83          0.00662     0.38738   
  2832. BD*(   1) C  79 - H  84          0.00764     0.38126   
  2833. BD*(   1) C  79 - H  85          0.00676     0.39068   
  2834. BD*(   1) C  80 - C  81          0.02446     0.33430   
  2835. BD*(   1) C  80 - C  82          0.02086     0.34409   
  2836. BD*(   1) C  81 - H  86          0.00673     0.38559   
  2837. BD*(   1) C  81 - H  87          0.00719     0.38925   
  2838. BD*(   1) C  81 - H  88          0.00795     0.38069   
  2839. BD*(   1) C  82 - H  89          0.00741     0.38166   
  2840. BD*(   1) C  82 - H  90          0.00716     0.38544   
  2841. BD*(   1) C  82 - H  91          0.00732     0.38234   
  2842. BD*(   1) C  92 - C  93          0.02420     0.33670   
  2843. BD*(   1) C  92 - H  96          0.00680     0.38537   
  2844. BD*(   1) C  92 - H  97          0.00786     0.38107   
  2845. BD*(   1) C  92 - H  98          0.00697     0.38642   
  2846. BD*(   1) C  93 - C  94          0.02503     0.33564   
  2847. BD*(   1) C  93 - C  95          0.02053     0.34606   
  2848. BD*(   1) C  94 - H  99          0.00740     0.39310   
  2849. BD*(   1) C  94 - H 100          0.00702     0.38584   
  2850. BD*(   1) C  94 - H 101          0.00806     0.38038   
  2851. BD*(   1) C  95 - H 102          0.00796     0.39819   
  2852. BD*(   1) C  95 - H 103          0.00717     0.38718   
  2853. BD*(   1) C  95 - H 104          0.00793     0.38639   
  2854. BD*(   1) C 105 - C 106          0.02417     0.33708   
  2855. BD*(   1) C 105 - H 109          0.00693     0.38569   
  2856. BD*(   1) C 105 - H 110          0.00767     0.38124   
  2857. BD*(   1) C 105 - H 111          0.00665     0.38645   
  2858. BD*(   1) C 106 - C 107          0.02073     0.34460   
  2859. BD*(   1) C 106 - C 108          0.02472     0.33502   
  2860. BD*(   1) C 107 - H 112          0.00829     0.38816   
  2861. BD*(   1) C 107 - H 113          0.00734     0.38728   
  2862. BD*(   1) C 107 - H 114          0.00723     0.38762   
  2863. BD*(   1) C 108 - H 115          0.00697     0.39203   
  2864. BD*(   1) C 108 - H 116          0.00801     0.38217   
  2865. BD*(   1) C 108 - H 117          0.00674     0.38560   
  2866. BD*(   1) C 118 - C 119          0.02473     0.33312   
  2867. BD*(   1) C 118 - H 122          0.00681     0.38350   
  2868. BD*(   1) C 118 - H 123          0.00806     0.37992   
  2869. BD*(   1) C 118 - H 124          0.00746     0.39106   
  2870. BD*(   1) C 119 - C 120          0.02386     0.33498   
  2871. BD*(   1) C 119 - C 121          0.02074     0.34310   
  2872. BD*(   1) C 120 - H 125          0.00652     0.38784   
  2873. BD*(   1) C 120 - H 126          0.00691     0.39094   
  2874. BD*(   1) C 120 - H 127          0.00751     0.38120   
  2875. BD*(   1) C 121 - H 128          0.00724     0.38233   
  2876. BD*(   1) C 121 - H 129          0.00711     0.38507   
  2877. BD*(   1) C 121 - H 130          0.00740     0.38041   
  2878. BD*(   1) C 131 - C 132          0.02456     0.33569   
  2879. BD*(   1) C 131 - H 135          0.00685     0.38729   
  2880. BD*(   1) C 131 - H 136          0.00791     0.38134   
  2881. BD*(   1) C 131 - H 137          0.00661     0.38743   
  2882. BD*(   1) C 132 - C 133          0.02078     0.34741   
  2883. BD*(   1) C 132 - C 134          0.02459     0.33588   
  2884. BD*(   1) C 133 - H 138          0.00773     0.39021   
  2885. BD*(   1) C 133 - H 139          0.00728     0.38719   
  2886. BD*(   1) C 133 - H 140          0.00713     0.38759   
  2887. BD*(   1) C 134 - H 141          0.00669     0.38551   
  2888. BD*(   1) C 134 - H 142          0.00780     0.38105   
  2889. BD*(   1) C 134 - H 143          0.00687     0.38679   
  2890. BD*(   1) C 144 - C 145          0.02496     0.33651   
  2891. BD*(   1) C 144 - H 148          0.00671     0.38535   
  2892. BD*(   1) C 144 - H 149          0.00796     0.38111   
  2893. BD*(   1) C 144 - H 150          0.00664     0.38666   
  2894. BD*(   1) C 145 - C 146          0.02110     0.34705   
  2895. BD*(   1) C 145 - C 147          0.02417     0.33659   
  2896. BD*(   1) C 146 - H 151          0.00738     0.39329   
  2897. BD*(   1) C 146 - H 152          0.00737     0.38663   
  2898. BD*(   1) C 146 - H 153          0.00720     0.38935   
  2899. BD*(   1) C 147 - H 154          0.00742     0.39282   
  2900. BD*(   1) C 147 - H 155          0.00773     0.38209   
  2901. BD*(   1) C 147 - H 156          0.00700     0.38605   
  2902. BD*(   1) C 157 - C 158          0.02475     0.33756   
  2903. BD*(   1) C 157 - H 161          0.00697     0.38678   
  2904. BD*(   1) C 157 - H 162          0.00816     0.38192   
  2905. BD*(   1) C 157 - H 163          0.00679     0.39656   
  2906. BD*(   1) C 158 - C 159          0.02428     0.33583   
  2907. BD*(   1) C 158 - C 160          0.02082     0.34287   
  2908. BD*(   1) C 159 - H 164          0.00677     0.38775   
  2909. BD*(   1) C 159 - H 165          0.00700     0.38690   
  2910. BD*(   1) C 159 - H 166          0.00798     0.38185   
  2911. BD*(   1) C 160 - H 167          0.00741     0.38204   
  2912. BD*(   1) C 160 - H 168          0.00724     0.38510   
  2913. BD*(   1) C 160 - H 169          0.00749     0.38047   
       -------------------------------
              Total Lewis  557.50565  ( 98.1524%)
        Valence non-Lewis    9.54354  (  1.6802%)
        Rydberg non-Lewis    0.95081  (  0.1674%)
       -------------------------------
            Total unit  1  568.00000  (100.0000%)
           Charge unit  1    0.00000
 1\1\GINC-NOTCH076\SP\RPBE1PBE\def2TZVP\C71H96O2P2\U1010977\02-Nov-2021
 \0\\# PBE1PBE/def2TZVP int=(grid=ultrafine) empiricaldispersion=GD3BJ 
 pop=nbo guess=read geom=check\\title\\0,1\P,0,-5.0468231581,-0.1405571
 622,2.5020052234\P,0,-2.2011250229,0.1979577948,0.7898423771\O,0,-1.60
 44366668,3.5276789848,3.885346275\O,0,-4.2629227545,4.378133405,3.1653
 106295\C,0,-6.1146078388,-1.1601407383,3.5887464324\C,0,-5.7279609971,
 -2.4796340308,3.8699032604\C,0,-6.4740993952,-3.2699242814,4.760803945
 \C,0,-7.6111511401,-2.6945777532,5.3624769165\C,0,-8.0230992654,-1.376
 3538301,5.0924220574\C,0,-7.2559578298,-0.6155268967,4.1925713493\C,0,
 -6.1071499884,1.1597255695,1.7899247271\C,0,-6.5991899118,2.2294508738
 ,2.5575439301\C,0,-7.4369529011,3.1915614548,1.9711979732\C,0,-7.72411
 8496,3.0630036537,0.5974048106\C,0,-7.2330104003,2.008064328,-0.195349
 5006\C,0,-6.4267089845,1.0433681331,0.4289653556\C,0,-3.941658528,0.71
 07708265,3.7166232263\C,0,-3.796365507,0.1614096635,5.0063865845\C,0,-
 2.9149996674,0.7381883071,5.9274251002\C,0,-2.1729942876,1.8736229947,
 5.5856911392\C,0,-2.3244488521,2.4307010273,4.3086894826\C,0,-3.192377
 8217,1.8541325816,3.3512998885\C,0,-3.2835210958,2.5271598888,2.022097
 655\C,0,-3.7866946608,3.8481241014,1.9845807909\C,0,-3.8661099487,4.56
 80995074,0.7851183462\C,0,-3.4155473197,3.9770320735,-0.3988048999\C,0
 ,-2.8980398166,2.6765971201,-0.3857751692\C,0,-2.8286151671,1.94194935
 58,0.8147287196\C,0,-1.4336009416,0.0403529401,-0.8641047958\C,0,-2.30
 80130408,-0.1319853127,-1.9472734949\C,0,-1.8164602586,-0.2847164726,-
 3.2548055277\C,0,-0.4228293169,-0.2822633293,-3.4287241293\C,0,0.48072
 89193,-0.1309316257,-2.3561090253\C,0,-0.0436020101,0.0443368831,-1.06
 48589055\C,0,-0.8806940487,0.1319578409,2.0478933062\C,0,-0.8843209917
 ,-0.9783421534,2.9107915266\C,0,0.0914118393,-1.1056973472,3.906929668
 4\C,0,1.0911691275,-0.112020782,3.9799990583\C,0,1.1276130035,1.002565
 7372,3.1248852551\C,0,0.1032788866,1.1261037617,2.1632160134\C,0,-3.66
 45386516,5.6008089775,3.6475371348\H,0,-4.8585146014,-2.8955292344,3.3
 526833416\H,0,-8.2007243726,-3.2991317775,6.0535608754\H,0,-7.56004056
 26,0.4049909467,3.9468170403\H,0,-6.2963277989,2.3219192285,3.60310850
 55\H,0,-8.353565444,3.8241713349,0.1227586514\H,0,-6.0313252808,0.1843
 563424,-0.1202447493\H,0,-4.3805071686,-0.7173173874,5.2902484968\H,0,
 -2.8069350555,0.2981488393,6.9241469609\H,0,-1.4709963801,2.3145048102
 ,6.29910288\H,0,-4.2949209129,5.5749130393,0.7880466404\H,0,-3.4727778
 608,4.5295163477,-1.3422926084\H,0,-2.538608779,2.2306075334,-1.315675
 6027\H,0,-3.3849950809,-0.1873160059,-1.7545696398\H,0,-0.0165059013,-
 0.4241915494,-4.4335929681\H,0,0.619872632,0.1478546929,-0.2040826423\
 H,0,-1.6700534667,-1.7269633753,2.7783629339\H,0,1.8705799273,-0.21896
 62709,4.7388419979\H,0,0.0661274809,1.9999068936,1.5040548443\H,0,-2.9
 909699577,6.0214210948,2.8780173997\C,0,-2.91869069,5.3252813704,4.957
 2535791\C,0,-1.5513780578,4.6631451947,4.7642398151\H,0,-1.1063489407,
 4.3947668069,5.7418509117\H,0,-3.5647447831,4.6911838113,5.590822885\H
 ,0,-2.7668342089,6.2765447175,5.501560331\C,0,-6.9039638718,-5.4180747
 419,6.0805123966\C,0,-6.0549645939,-4.7311257698,4.9942939284\C,0,-4.5
 717491069,-4.7847688151,5.4308750187\C,0,-6.2268416871,-5.5038141557,3
 .6630394154\H,0,-7.9695663262,-5.4695855823,5.7968580149\H,0,-6.550648
 3378,-6.453512761,6.2243221404\H,0,-6.8274546736,-4.8980232942,7.05212
 29015\H,0,-3.9012385311,-4.37527757,4.6577094968\H,0,-4.4100960388,-4.
 2138165559,6.3625138436\H,0,-4.268299835,-5.8312821091,5.6113694049\H,
 0,-5.6500117009,-5.0436956828,2.843214427\H,0,-5.8897900972,-6.5492066
 027,3.7838826655\H,0,-7.2861468652,-5.5146892798,3.3538606157\C,0,-10.
 2347693767,-0.262729134,4.6271661172\C,0,-9.2654789038,-0.7355438697,5
 .737354435\C,0,-8.8209636072,0.484181425,6.5803711401\C,0,-10.01969055
 24,-1.7141201634,6.6570059685\H,0,-10.5609492231,-1.1115250931,4.00238
 42485\H,0,-11.1306989147,0.2021192065,5.0766149931\H,0,-9.7659291579,0
 .4825178562,3.9618459473\H,0,-8.1334618047,0.1763389119,7.387216859\H,
 0,-8.2992810249,1.2354851498,5.9623279934\H,0,-9.6979254778,0.97375474
 77,7.0408401589\H,0,-9.3882378875,-2.0585708725,7.4945028032\H,0,-10.9
 023294088,-1.2118954164,7.0890260593\H,0,-10.3751693358,-2.6007111421,
 6.1039027205\C,0,-9.5701840346,4.315214024,2.6820071012\C,0,-8.0269047
 459,4.3642965075,2.774157812\C,0,-7.5094475114,5.6956467023,2.17992188
 96\C,0,-7.6280434966,4.3120122505,4.2617600685\H,0,-9.957559873,3.3728
 056611,3.107453359\H,0,-10.0140774761,5.155903195,3.2447823801\H,0,-9.
 9224078395,4.3834573271,1.6390119906\H,0,-6.409897362,5.7407139898,2.2
 550428594\H,0,-7.7841537524,5.8035841481,1.1169569459\H,0,-7.935876208
 8,6.5542576622,2.7292166005\H,0,-6.5331308667,4.3566433689,4.386419588
 1\H,0,-8.0706408236,5.1718310443,4.793770353\H,0,-7.998069024,3.393114
 6119,4.7508574833\C,0,-9.075185414,1.9927919342,-1.9213085973\C,0,-7.5
 456173815,1.9505189731,-1.6996429467\C,0,-6.9957933372,0.6678503883,-2
 .3533024444\C,0,-6.885178127,3.1737021053,-2.3807354008\H,0,-9.5282813
 554,2.9092408583,-1.5064086212\H,0,-9.302520274,1.9662427713,-3.001784
 683\H,0,-9.5639567846,1.1257355994,-1.4452249483\H,0,-5.8963511346,0.6
 101600212,-2.2775278334\H,0,-7.4127153309,-0.2438047916,-1.892050499\H
 ,0,-7.2534630131,0.6571807085,-3.4262963467\H,0,-5.7926039692,3.163416
 0614,-2.2217349303\H,0,-7.0795463769,3.1597627331,-3.4681851213\H,0,-7
 .2758941988,4.1234836609,-1.9759717339\C,0,-3.6023016673,0.8621349243,
 -4.5844029766\C,0,-2.8086483788,-0.4563960256,-4.4171083592\C,0,-3.783
 3269058,-1.6158024761,-4.0981156612\C,0,-2.099739744,-0.7705356558,-5.
 7481026447\H,0,-2.9287975304,1.6968811159,-4.8478337566\H,0,-4.3554255
 814,0.7594861855,-5.3863432631\H,0,-4.1339875072,1.1349180607,-3.65698
 75538\H,0,-3.2345147447,-2.5585833659,-3.9369781921\H,0,-4.3793395041,
 -1.4280450691,-3.1899861148\H,0,-4.4870434509,-1.7574106551,-4.9377694
 056\H,0,-1.5090321771,-1.7007105859,-5.6826955158\H,0,-2.8518768666,-0
 .9053986166,-6.5440973166\H,0,-1.4277693003,0.0479433228,-6.0615118226
 \C,0,2.3391231362,-1.5683671396,-3.2442478251\C,0,1.9937597947,-0.1898
 251813,-2.6317032419\C,0,2.8285814692,-0.006336136,-1.350929798\C,0,2.
 3794993935,0.9303993288,-3.6266273093\H,0,1.799272731,-1.7419960862,-4
 .1902279048\H,0,3.4218227982,-1.6320537675,-3.4553042332\H,0,2.0710940
 918,-2.3823853961,-2.5495050861\H,0,2.6455796188,0.9762838003,-0.88379
 54318\H,0,2.6111508634,-0.7896672961,-0.604225095\H,0,3.9028969717,-0.
 0653068949,-1.5969411767\H,0,2.1524494677,1.9253383742,-3.2056449135\H
 ,0,3.4608824315,0.8884700957,-3.8489059005\H,0,1.8356415932,0.83518813
 63,-4.581529524\C,0,1.3597771486,-3.1483172941,4.6263630871\C,0,0.1018
 638336,-2.2875977076,4.890000316\C,0,-1.149291586,-3.174112403,4.73369
 62682\C,0,0.1351807893,-1.7516016987,6.3407564414\H,0,2.2857407418,-2.
 5599875614,4.7482330179\H,0,1.39927359,-3.9958170398,5.3339685137\H,0,
 1.3469868543,-3.5548921317,3.6007749939\H,0,-2.0744861133,-2.595138084
 9,4.9019325931\H,0,-1.2080077157,-3.6349065322,3.7325099824\H,0,-1.122
 577017,-3.9898004573,5.4767316221\H,0,-0.746368662,-1.1188995674,6.540
 9002046\H,0,0.1295954665,-2.5932813213,7.0558356226\H,0,1.0380947521,-
 1.1496101525,6.539966797\C,0,1.6297115344,3.4342877399,3.5758930502\C,
 0,2.2413975466,2.0646302455,3.2021059869\C,0,2.9326711354,2.1748795541
 ,1.8226850685\C,0,3.3157248287,1.7135177282,4.2492102411\H,0,1.1730083
 045,3.3938838608,4.5795179861\H,0,2.4150508149,4.2116870251,3.58136660
 02\H,0,0.8427513563,3.7369858256,2.8664611549\H,0,3.3772257847,1.20957
 18622,1.5261122909\H,0,2.2229035128,2.4767401345,1.0339998222\H,0,3.73
 77562404,2.9305381829,1.8573013374\H,0,3.8036233597,0.7485468921,4.027
 3248508\H,0,4.0976902445,2.4921714243,4.2509087435\H,0,2.8942403877,1.
 6630958588,5.2683643055\H,0,-0.8519488034,5.3510716314,4.2601308242\H,
 0,-4.4874616093,6.3171570331,3.8208764908\\Version=ES64L-G16RevB.01\St
 ate=1-A\HF=-3594.0770162\RMSD=4.194e-09\Dipole=0.2587103,1.0168805,0.6
 152357\Quadrupole=-6.4986742,3.5767398,2.9219344,1.4984287,2.739237,1.
 8318516\PG=C01 [X(C71H96O2P2)]\\@


 The mind is not a vessel to be filled but a fire to be kindled.
                                  -- Plutarch
 Job cpu time:       0 days  7 hours 35 minutes  9.6 seconds.
 Elapsed time:       0 days  0 hours 14 minutes 19.9 seconds.
 File lengths (MBytes):  RWF=   4318 Int=      0 D2E=      0 Chk=    650 Scr=      1
 Normal termination of Gaussian 16 at Tue Nov  2 14:52:26 2021.
