 Entering Gaussian System, Link 0=/uufs/chpc.utah.edu/sys/installdir/gaussian16/B01/E6B/g16/g16
 Input=S-35tBu-C3-Tunephos_2_SPE_NoPd.com
 Output=S-35tBu-C3-Tunephos_2_SPE_NoPd.log
 Initial command:
 /uufs/chpc.utah.edu/sys/installdir/gaussian16/B01/E6B/g16/l1.exe "/scratch/general/lustre/u1010977/3356303/notchpeak.peaks/Gau-31020.inp" -scrdir="/scratch/general/lustre/u1010977/3356303/notchpeak.peaks/"
 Entering Link 1 = /uufs/chpc.utah.edu/sys/installdir/gaussian16/B01/E6B/g16/l1.exe PID=     31022.
  
 Copyright (c) 1988-2017, Gaussian, Inc.  All Rights Reserved.
  
 This is part of the Gaussian(R) 16 program.  It is based on
 the Gaussian(R) 09 system (copyright 2009, Gaussian, Inc.),
 the Gaussian(R) 03 system (copyright 2003, Gaussian, Inc.),
 the Gaussian(R) 98 system (copyright 1998, Gaussian, Inc.),
 the Gaussian(R) 94 system (copyright 1995, Gaussian, Inc.),
 the Gaussian 92(TM) system (copyright 1992, Gaussian, Inc.),
 the Gaussian 90(TM) system (copyright 1990, Gaussian, Inc.),
 the Gaussian 88(TM) system (copyright 1988, Gaussian, Inc.),
 the Gaussian 86(TM) system (copyright 1986, Carnegie Mellon
 University), and the Gaussian 82(TM) system (copyright 1983,
 Carnegie Mellon University). Gaussian is a federally registered
 trademark of Gaussian, Inc.
  
 This software contains proprietary and confidential information,
 including trade secrets, belonging to Gaussian, Inc.
  
 This software is provided under written license and may be
 used, copied, transmitted, or stored only in accord with that
 written license.
  
 The following legend is applicable only to US Government
 contracts under FAR:
  
                    RESTRICTED RIGHTS LEGEND
  
 Use, reproduction and disclosure by the US Government is
 subject to restrictions as set forth in subparagraphs (a)
 and (c) of the Commercial Computer Software - Restricted
 Rights clause in FAR 52.227-19.
  
 Gaussian, Inc.
 340 Quinnipiac St., Bldg. 40, Wallingford CT 06492
  
  
 ---------------------------------------------------------------
 Warning -- This program may not be used in any manner that
 competes with the business of Gaussian, Inc. or will provide
 assistance to any competitor of Gaussian, Inc.  The licensee
 of this program is prohibited from giving any competitor of
 Gaussian, Inc. access to this program.  By using this program,
 the user acknowledges that Gaussian, Inc. is engaged in the
 business of creating and licensing software in the field of
 computational chemistry and represents and warrants to the
 licensee that it is not a competitor of Gaussian, Inc. and that
 it will not use this program in any manner prohibited above.
 ---------------------------------------------------------------
  

 Cite this work as:
 Gaussian 16, Revision B.01,
 M. J. Frisch, G. W. Trucks, H. B. Schlegel, G. E. Scuseria, 
 M. A. Robb, J. R. Cheeseman, G. Scalmani, V. Barone, 
 G. A. Petersson, H. Nakatsuji, X. Li, M. Caricato, A. V. Marenich, 
 J. Bloino, B. G. Janesko, R. Gomperts, B. Mennucci, H. P. Hratchian, 
 J. V. Ortiz, A. F. Izmaylov, J. L. Sonnenberg, D. Williams-Young, 
 F. Ding, F. Lipparini, F. Egidi, J. Goings, B. Peng, A. Petrone, 
 T. Henderson, D. Ranasinghe, V. G. Zakrzewski, J. Gao, N. Rega, 
 G. Zheng, W. Liang, M. Hada, M. Ehara, K. Toyota, R. Fukuda, 
 J. Hasegawa, M. Ishida, T. Nakajima, Y. Honda, O. Kitao, H. Nakai, 
 T. Vreven, K. Throssell, J. A. Montgomery, Jr., J. E. Peralta, 
 F. Ogliaro, M. J. Bearpark, J. J. Heyd, E. N. Brothers, K. N. Kudin, 
 V. N. Staroverov, T. A. Keith, R. Kobayashi, J. Normand, 
 K. Raghavachari, A. P. Rendell, J. C. Burant, S. S. Iyengar, 
 J. Tomasi, M. Cossi, J. M. Millam, M. Klene, C. Adamo, R. Cammi, 
 J. W. Ochterski, R. L. Martin, K. Morokuma, O. Farkas, 
 J. B. Foresman, and D. J. Fox, Gaussian, Inc., Wallingford CT, 2016.
 
 ******************************************
 Gaussian 16:  ES64L-G16RevB.01 20-Dec-2017
                 2-Nov-2021 
 ******************************************
 %NProcShared=52
 Will use up to   52 processors via shared memory.
 %mem=18GB
 %chk=S-35tBu-C3-Tunephos_2_SPE_NoPd.chk
 ----------------------------------------------------------------------
 # PBE1PBE/def2TZVP int=(grid=ultrafine) empiricaldispersion=GD3BJ nmr=
 giao
 ----------------------------------------------------------------------
 1/38=1,172=1/1;
 2/12=2,17=6,18=5,40=1/2;
 3/5=44,7=101,11=2,25=1,30=1,74=-13,75=-5,124=41/1,2,3,8;
 4//1;
 5/5=2,38=5/2;
 8/6=1,10=90,11=11/1;
 10/13=100,45=16/2;
 6/7=2,8=2,9=2,10=2,28=1/1;
 99/9=1/99;
 -----
 title
 -----
 Symbolic Z-matrix:
 Charge =  0 Multiplicity = 1
 P                    -5.05614  -0.12684   2.53287 
 P                    -2.27177   0.079     0.74751 
 O                    -1.47762   3.47411   3.78213 
 O                    -4.13834   4.3827    3.08164 
 C                    -6.1205   -1.10585   3.65685 
 C                    -5.72464  -2.41962   3.97295 
 C                    -6.47435  -3.1899    4.86985 
 C                    -7.62458  -2.60465   5.44724 
 C                    -8.0418   -1.2997    5.14624 
 C                    -7.26747  -0.55381   4.23422 
 C                    -6.0959    1.18953   1.8212 
 C                    -6.56101   2.27509   2.58928 
 C                    -7.38492   3.24675   2.00691 
 C                    -7.70071   3.11429   0.63491 
 C                    -7.23534   2.05077  -0.154 
 C                    -6.43123   1.07649   0.46821 
 C                    -3.89893   0.71554   3.7079 
 C                    -3.73733   0.18312   5.00255 
 C                    -2.82332   0.75369   5.89508 
 C                    -2.06328   1.86588   5.51866 
 C                    -2.22944   2.40702   4.23704 
 C                    -3.13186   1.83613   3.30822 
 C                    -3.24038   2.47623   1.96507 
 C                    -3.71081   3.80796   1.90332 
 C                    -3.8127    4.49282   0.68507 
 C                    -3.42811   3.85033  -0.49531 
 C                    -2.95108   2.53501  -0.46032 
 C                    -2.85087   1.83958   0.7608 
 C                    -1.47612  -0.05652  -0.89632 
 C                    -2.27894  -0.44569  -1.98576 
 C                    -1.74704  -0.49124  -3.27953 
 C                    -0.39117  -0.12919  -3.45224 
 C                     0.43186   0.2535   -2.38272 
 C                    -0.13486   0.28359  -1.09182 
 C                    -0.95491  -0.00641   2.00432 
 C                    -0.01528   1.02665   2.16572 
 C                     1.00104   0.91111   3.12711 
 C                     1.01564  -0.24509   3.93262 
 C                     0.06313  -1.27527   3.81606 
 C                    -0.91738  -1.14735   2.81949 
 C                    -3.49325   5.59898   3.51559 
 H                    -4.84885  -2.83763   3.47194 
 H                    -8.21848  -3.20458   6.14215 
 H                    -7.57668   0.45777   3.95918 
 H                    -6.2454    2.36562   3.63119 
 H                    -8.32986   3.87951   0.17153 
 H                    -6.05327   0.21306  -0.09018 
 H                    -4.33398  -0.67793   5.31304 
 H                    -2.70129   0.32575   6.89545 
 H                    -1.3329    2.29891   6.20805 
 H                    -4.21237   5.51151   0.67153 
 H                    -3.50795   4.37349  -1.45371 
 H                    -2.65118   2.04441  -1.3891 
 H                    -3.31064  -0.74832  -1.79348 
 H                     0.03163  -0.16715  -4.45986 
 H                     0.48284   0.55806  -0.23295 
 H                    -0.1053    1.93068   1.55896 
 H                     1.79716  -0.33999   4.69482 
 H                    -1.67489  -1.91939   2.65822 
 H                    -2.81734   5.97251   2.72412 
 C                    -2.73871   5.33516   4.82247 
 C                    -1.39216   4.63221   4.63159 
 H                    -0.94436   4.37738   5.61164 
 H                    -3.39423   4.73489   5.47883 
 H                    -2.55302   6.29423   5.34206 
 C                    -7.27251  -5.56228   4.74694 
 C                    -6.107    -4.64735   5.19415 
 C                    -5.88231  -4.7953    6.71705 
 C                    -4.82952  -5.10133   4.46135 
 H                    -7.44443  -5.46685   3.6615 
 H                    -7.03442  -6.61769   4.9702 
 H                    -8.21346  -5.3105    5.2655 
 H                    -5.04458  -4.15971   7.05398 
 H                    -6.778    -4.51063   7.29548 
 H                    -5.63963  -5.84376   6.96613 
 H                    -3.95065  -4.50367   4.76131 
 H                    -4.61588  -6.1546    4.71242 
 H                    -4.93781  -5.03044   3.36533 
 C                    -10.05144  -1.61274   6.69785 
 C                    -9.29619  -0.65277   5.75988 
 C                    -10.25649  -0.21984   4.62597 
 C                    -8.87156   0.59368   6.57351 
 H                    -10.39465  -2.51626   6.16471 
 H                    -10.94209  -1.10673   7.1083 
 H                    -9.42496  -1.92981   7.54985 
 H                    -9.78589   0.50974   3.94484 
 H                    -10.56896  -1.08878   4.02227 
 H                    -11.16091   0.25048   5.0521 
 H                    -8.3499    1.33262   5.94068 
 H                    -9.75799   1.08788   7.01018 
 H                    -8.19081   0.31456   7.39636 
 C                    -9.47985   4.41936   2.75301 
 C                    -7.93412   4.44102   2.80628 
 C                    -7.40679   5.75391   2.18015 
 C                    -7.49785   4.40338   4.28373 
 H                    -9.87346   3.49055   3.202 
 H                    -9.89446   5.27626   3.31369 
 H                    -9.85621   4.47904   1.71793 
 H                    -6.30491   5.77881   2.22745 
 H                    -7.70611   5.85287   1.12302 
 H                    -7.80296   6.6279    2.72784 
 H                    -6.39915   4.4271    4.37857 
 H                    -7.90842   5.28037   4.81338 
 H                    -7.87316   3.50006   4.79715 
 C                    -8.44586   3.04208  -2.17595 
 C                    -7.54827   1.90609  -1.65213 
 C                    -8.26521   0.55559  -1.89228 
 C                    -6.21631   1.92917  -2.4412 
 H                    -7.96714   4.03048  -2.05864 
 H                    -8.6436    2.89213  -3.25106 
 H                    -9.42034   3.06412  -1.65724 
 H                    -7.66015  -0.30054  -1.54954 
 H                    -9.22825   0.52263  -1.35414 
 H                    -8.46705   0.42006  -2.96984 
 H                    -5.54101   1.11807  -2.1204 
 H                    -5.68536   2.8849   -2.28963 
 H                    -6.40996   1.80321  -3.52167 
 C                    -4.01609  -1.34764  -4.08288 
 C                    -2.58089  -0.95546  -4.48518 
 C                    -1.90086  -2.19474  -5.11518 
 C                    -2.6529    0.18623  -5.52607 
 H                    -4.57458  -0.48998  -3.66805 
 H                    -4.56455  -1.69951  -4.97362 
 H                    -4.02533  -2.16039  -3.33626 
 H                    -0.87679  -1.97126  -5.45997 
 H                    -1.84294  -3.0183   -4.38362 
 H                    -2.48219  -2.54446  -5.98699 
 H                    -1.64999   0.49272  -5.86998 
 H                    -3.22847  -0.13971  -6.41083 
 H                    -3.15199   1.07429  -5.09972 
 C                     2.10173   2.10958  -2.10521 
 C                     1.91147   0.6407   -2.5547 
 C                     2.38513   0.51288  -4.01453 
 C                     2.7883   -0.28112  -1.67342 
 H                     1.80498   2.25287  -1.05161 
 H                     3.16141   2.40698  -2.2018 
 H                     1.49299   2.79291  -2.72233 
 H                     2.28713  -0.52236  -4.38472 
 H                     1.81732   1.17755  -4.68885 
 H                     3.44951   0.7954   -4.08562 
 H                     2.66544  -1.33774  -1.96598 
 H                     3.85416  -0.01175  -1.78361 
 H                     2.5279   -0.19695  -0.60439 
 C                     3.46248   1.39893   3.03492 
 C                     2.06793   2.00125   3.32703 
 C                     2.0132    2.50509   4.78864 
 C                     1.85021   3.20759   2.39345 
 H                     3.52305   1.04148   1.99197 
 H                     4.24923   2.15989   3.1853 
 H                     3.68513   0.54498   3.69687 
 H                     1.01862   2.92842   5.00881 
 H                     2.2047    1.69381   5.51084 
 H                     2.77246   3.29036   4.95371 
 H                     0.86029   3.66699   2.55527 
 H                     2.62231   3.97159   2.58901 
 H                     1.93044   2.92117   1.32962 
 C                     1.40735  -3.2809    4.50932 
 C                     0.10536  -2.48581   4.76313 
 C                    -1.09993  -3.42324   4.55109 
 C                     0.07659  -1.98851   6.22794 
 H                     2.30221  -2.65519   4.67069 
 H                     1.46848  -4.14511   5.19475 
 H                     1.43903  -3.65889   3.47329 
 H                    -2.05434  -2.89386   4.72208 
 H                    -1.12302  -3.84941   3.53355 
 H                    -1.04686  -4.26293   5.26542 
 H                    -0.83807  -1.40162   6.42021 
 H                     0.09132  -2.84817   6.9212 
 H                     0.94503  -1.35096   6.46598 
 H                    -0.68073   5.28945   4.10341 
 H                    -4.2883    6.34855   3.67873 
 
 Stoichiometry    C71H96O2P2
 Framework group  C1[X(C71H96O2P2)]
 Deg. of freedom   507
 Full point group                 C1      NOp   1
 Largest Abelian subgroup         C1      NOp   1
 Largest concise Abelian subgroup C1      NOp   1
                         Standard orientation:                         
 ---------------------------------------------------------------------
 Center     Atomic      Atomic             Coordinates (Angstroms)
 Number     Number       Type             X           Y           Z
 ---------------------------------------------------------------------
      1         15           0       -1.650356    0.012825   -0.758558
      2         15           0        1.663459    0.046567   -0.767956
      3          8           0        0.932654   -1.288233    3.596745
      4          8           0       -0.891693    0.959783    3.714381
      5          6           0       -3.205608   -0.701344   -1.411092
      6          6           0       -3.117860   -1.675134   -2.424325
      7          6           0       -4.273988   -2.290974   -2.918235
      8          6           0       -5.517459   -1.911139   -2.362871
      9          6           0       -5.631811   -0.941609   -1.355652
     10          6           0       -4.448334   -0.336608   -0.885482
     11          6           0       -2.072963    1.614585    0.000503
     12          6           0       -2.807667    1.705539    1.199102
     13          6           0       -3.137103    2.959849    1.728534
     14          6           0       -2.685146    4.110312    1.041643
     15          6           0       -1.937840    4.044019   -0.144596
     16          6           0       -1.646428    2.768347   -0.664874
     17          6           0       -1.243201   -1.125497    0.644262
     18          6           0       -1.824861   -2.408744    0.669813
     19          6           0       -1.490167   -3.319213    1.678084
     20          6           0       -0.580424   -2.966113    2.680089
     21          6           0       -0.009003   -1.686940    2.666591
     22          6           0       -0.314677   -0.754846    1.646423
     23          6           0        0.344106    0.582132    1.709916
     24          6           0        0.059579    1.407323    2.821998
     25          6           0        0.660490    2.664029    2.974119
     26          6           0        1.572432    3.107384    2.011925
     27          6           0        1.877715    2.305886    0.905927
     28          6           0        1.273221    1.043561    0.744960
     29          6           0        3.199412    0.840354   -1.371566
     30          6           0        3.074113    1.918036   -2.269219
     31          6           0        4.206906    2.615286   -2.704474
     32          6           0        5.467236    2.207573   -2.209893
     33          6           0        5.619803    1.132210   -1.322188
     34          6           0        4.458134    0.448484   -0.907978
     35          6           0        2.106120   -1.611102   -0.153799
     36          6           0        2.877958   -1.790378    1.007358
     37          6           0        3.221135   -3.083315    1.432883
     38          6           0        2.736567   -4.172842    0.681899
     39          6           0        1.930251   -4.020013   -0.462056
     40          6           0        1.636756   -2.713390   -0.883391
     41          6           0       -0.502331    0.796373    5.094780
     42          1           0       -2.136871   -1.906419   -2.844946
     43          1           0       -6.424431   -2.382962   -2.750598
     44          1           0       -4.502850    0.439517   -0.117881
     45          1           0       -3.087383    0.789431    1.724351
     46          1           0       -2.925398    5.091762    1.460149
     47          1           0       -1.083117    2.651957   -1.597232
     48          1           0       -2.546237   -2.692452   -0.100198
     49          1           0       -1.943014   -4.316036    1.682264
     50          1           0       -0.301740   -3.684814    3.455997
     51          1           0        0.391302    3.289746    3.830665
     52          1           0        2.044491    4.089546    2.117407
     53          1           0        2.593881    2.662175    0.162000
     54          1           0        2.081203    2.170924   -2.647557
     55          1           0        6.356560    2.745287   -2.549710
     56          1           0        4.542088   -0.406533   -0.232373
     57          1           0        3.178126   -0.916270    1.589905
     58          1           0        2.987949   -5.186976    1.012150
     59          1           0        1.034707   -2.520489   -1.775694
     60          1           0        0.511462    1.208381    5.253772
     61          6           0       -0.572662   -0.687246    5.469981
     62          6           0        0.624911   -1.508384    4.984882
     63          1           0        0.468880   -2.584365    5.194344
     64          1           0       -1.511336   -1.098688    5.057134
     65          1           0       -0.632854   -0.787730    6.570232
     66          6           0       -5.027680   -2.755811   -5.262639
     67          6           0       -4.223402   -3.314865   -4.064261
     68          6           0       -4.849373   -4.647843   -3.592101
     69          6           0       -2.781982   -3.587544   -4.536488
     70          1           0       -4.592092   -1.803848   -5.610286
     71          1           0       -5.008541   -3.474313   -6.101571
     72          1           0       -6.083158   -2.572334   -4.998070
     73          1           0       -4.280824   -5.070391   -2.745050
     74          1           0       -5.896291   -4.519497   -3.267521
     75          1           0       -4.839600   -5.385495   -4.414272
     76          1           0       -2.161336   -4.018149   -3.730902
     77          1           0       -2.798124   -4.313967   -5.367212
     78          1           0       -2.288451   -2.669665   -4.899734
     79          6           0       -8.172935   -1.232891   -1.400574
     80          6           0       -6.978867   -0.511650   -0.748074
     81          6           0       -7.164007    1.013012   -0.939142
     82          6           0       -6.975371   -0.840301    0.764509
     83          1           0       -8.235427   -1.019859   -2.481821
     84          1           0       -9.113164   -0.889455   -0.936050
     85          1           0       -8.113735   -2.327048   -1.265558
     86          1           0       -6.360788    1.589320   -0.448846
     87          1           0       -7.161018    1.278225   -2.010034
     88          1           0       -8.126361    1.337000   -0.503636
     89          1           0       -6.153990   -0.322798    1.290017
     90          1           0       -7.926651   -0.523741    1.228773
     91          1           0       -6.852530   -1.924325    0.932402
     92          6           0       -5.233493    3.927490    2.723128
     93          6           0       -3.952941    3.113622    3.023777
     94          6           0       -3.095547    3.855951    4.076213
     95          6           0       -4.369169    1.752932    3.615279
     96          1           0       -5.860637    3.408130    1.977358
     97          1           0       -5.829422    4.058028    3.644200
     98          1           0       -4.999679    4.930057    2.327171
     99          1           0       -2.187067    3.272516    4.302640
    100          1           0       -2.782511    4.852256    3.720850
    101          1           0       -3.667959    3.993971    5.011125
    102          1           0       -3.488643    1.134440    3.857859
    103          1           0       -4.944027    1.913188    4.543752
    104          1           0       -5.013429    1.185600    2.919928
    105          6           0       -1.830192    6.597764   -0.200543
    106          6           0       -1.417367    5.284102   -0.889292
    107          6           0       -1.978336    5.281896   -2.331804
    108          6           0        0.128850    5.220189   -0.938250
    109          1           0       -1.427568    6.667149    0.825593
    110          1           0       -1.436783    7.455406   -0.772489
    111          1           0       -2.928026    6.704904   -0.151108
    112          1           0       -1.700028    4.367588   -2.882374
    113          1           0       -3.080121    5.346147   -2.323343
    114          1           0       -1.586214    6.149326   -2.892206
    115          1           0        0.480929    4.305319   -1.444094
    116          1           0        0.555532    5.223808    0.079700
    117          1           0        0.530023    6.089567   -1.489639
    118          6           0        2.661461    4.027544   -4.168897
    119          6           0        4.112400    3.766684   -3.719246
    120          6           0        4.946413    3.399527   -4.970147
    121          6           0        4.672263    5.058553   -3.079151
    122          1           0        2.021168    4.342220   -3.325936
    123          1           0        2.648276    4.840391   -4.915317
    124          1           0        2.208747    3.134212   -4.632677
    125          1           0        6.008899    3.234482   -4.722288
    126          1           0        4.557829    2.479295   -5.438087
    127          1           0        4.895527    4.215468   -5.713088
    128          1           0        5.721408    4.937217   -2.758823
    129          1           0        4.634548    5.891078   -3.804267
    130          1           0        4.077948    5.346734   -2.194136
    131          6           0        6.997643    0.828882    0.756290
    132          6           0        6.985937    0.671527   -0.783502
    133          6           0        8.152485    1.491299   -1.365694
    134          6           0        7.204747   -0.816877   -1.146831
    135          1           0        6.196954    0.235115    1.230630
    136          1           0        7.963184    0.486865    1.170340
    137          1           0        6.851169    1.883823    1.046092
    138          1           0        8.203069    1.402786   -2.464771
    139          1           0        8.069811    2.561499   -1.107374
    140          1           0        9.107595    1.121457   -0.954879
    141          1           0        7.191860   -0.960576   -2.240593
    142          1           0        8.181026   -1.163032   -0.762379
    143          1           0        6.423043   -1.464760   -0.714504
    144          6           0        5.381579   -4.060701    2.258936
    145          6           0        4.083664   -3.333151    2.681981
    146          6           0        3.293301   -4.213726    3.678518
    147          6           0        4.467322   -2.023025    3.396549
    148          1           0        5.963874   -3.442404    1.553369
    149          1           0        6.013464   -4.264603    3.141992
    150          1           0        5.167385   -5.023616    1.765081
    151          1           0        2.360986   -3.706395    3.978969
    152          1           0        3.023418   -5.189445    3.240843
    153          1           0        3.895626   -4.405041    4.584602
    154          1           0        3.572059   -1.459006    3.708873
    155          1           0        5.063052   -2.252673    4.296797
    156          1           0        5.081611   -1.369974    2.751276
    157          6           0        2.578399   -6.041381   -1.805219
    158          6           0        1.390745   -5.253322   -1.205039
    159          6           0        0.426826   -4.862284   -2.342756
    160          6           0        0.620261   -6.152117   -0.208885
    161          1           0        3.287710   -6.363205   -1.023144
    162          1           0        2.214509   -6.944607   -2.326917
    163          1           0        3.131344   -5.422064   -2.531807
    164          1           0       -0.439022   -4.294831   -1.957179
    165          1           0        0.920726   -4.248873   -3.115625
    166          1           0        0.042296   -5.773494   -2.832656
    167          1           0       -0.219769   -5.597645    0.243803
    168          1           0        0.213251   -7.035990   -0.731349
    169          1           0        1.267304   -6.514134    0.608176
    170          1           0        1.546405   -1.199704    5.507028
    171          1           0       -1.215889    1.378491    5.705142
 ---------------------------------------------------------------------
 Rotational constants (GHZ):           0.0312279           0.0232416           0.0205326
 Standard basis: def2TZVP (5D, 7F)
 There are  3288 symmetry adapted cartesian basis functions of A   symmetry.
 There are  2913 symmetry adapted basis functions of A   symmetry.
  2913 basis functions,  4629 primitive gaussians,  3288 cartesian basis functions
   284 alpha electrons      284 beta electrons
       nuclear repulsion energy     14542.2959921989 Hartrees.
 NAtoms=  171 NActive=  171 NUniq=  171 SFac= 1.00D+00 NAtFMM=   60 NAOKFM=T Big=T
 Integral buffers will be    131072 words long.
 Raffenetti 2 integral format.
 Two-electron integral symmetry is turned on.
 Nuclear repulsion after empirical dispersion term =    14542.0338834665 Hartrees.
 One-electron integrals computed using PRISM.
   1 Symmetry operations used in ECPInt.
 ECPInt:  NShTT=  736291 NPrTT= 2187061 LenC2=  481538 LenP2D=  908488.
 LDataN:  DoStor=T MaxTD1= 6 Len=  172
 Number of processors reduced to  13 by ecpmxn.
 NBasis=  2913 RedAO= T EigKep=  2.64D-06  NBF=  2913
 NBsUse=  2913 1.00D-06 EigRej= -1.00D+00 NBFU=  2913
 ExpMin= 9.04D-02 ExpMax= 5.24D+04 ExpMxC= 1.79D+03 IAcc=3 IRadAn=         5 AccDes= 0.00D+00
 Harris functional with IExCor= 1009 and IRadAn=       5 diagonalized for initial guess.
 HarFok:  IExCor= 1009 AccDes= 0.00D+00 IRadAn=         5 IDoV= 1 UseB2=F ITyADJ=14
 ICtDFT=  3500011 ScaDFX=  1.000000  1.000000  1.000000  1.000000
 FoFCou: FMM=F IPFlag=           0 FMFlag=      100000 FMFlg1=        2001
         NFxFlg=           0 DoJE=T BraDBF=F KetDBF=T FulRan=T
         wScrn=  0.000000 ICntrl=       500 IOpCl=  0 I1Cent=   200000004 NGrid=           0
         NMat0=    1 NMatS0=      1 NMatT0=    0 NMatD0=    1 NMtDS0=    0 NMtDT0=    0
 Petite list used in FoFCou.
 Requested convergence on RMS density matrix=1.00D-08 within 128 cycles.
 Requested convergence on MAX density matrix=1.00D-06.
 Requested convergence on             energy=1.00D-06.
 No special actions if energy rises.
 Integral accuracy reduced to 1.0D-05 until final iterations.
 Problem detected with inexpensive integrals.
 Switching to full accuracy and repeating last cycle.
 SCF Done:  E(RPBE1PBE) =  -3594.07864680     A.U. after   16 cycles
            NFock= 16  Conv=0.14D-08     -V/T= 2.0055
 DoSCS=F DFT=T ScalE2(SS,OS)=  1.000000  1.000000
 Range of M.O.s used for correlation:     1  2913
 NBasis=  2913 NAE=   284 NBE=   284 NFC=     0 NFV=     0
 NROrb=   2913 NOA=   284 NOB=   284 NVA=  2629 NVB=  2629

 **** Warning!!: The largest alpha MO coefficient is  0.43011135D+02

          Differentiating once with respect to magnetic field using GIAOs.
          Electric field/nuclear overlap derivatives assumed to be zero.
 PrsmSu:  requested number of processors reduced to:  49 ShMem   1 Linda.
 FoFCou: FMM=F IPFlag=           0 FMFlag=      100000 FMFlg1=        2001
         NFxFlg=           0 DoJE=F BraDBF=F KetDBF=T FulRan=T
         wScrn=  0.000000 ICntrl=      6100 IOpCl=  0 I1Cent=           7 NGrid=         171
         NMat0=    1 NMatS0=      1 NMatT0=    0 NMatD0=    1 NMtDS0=    0 NMtDT0=    0
 Symmetry not used in FoFCou.
   1 Symmetry operations used in ECPInt.
 ECPInt:  NShTT=  736291 NPrTT= 2187061 LenC2=  736292 LenP2D= 2187061.
 LDataN:  DoStor=T MaxTD1= 7 Len=  274
 Number of processors reduced to   8 by ecpmxn.
 FoFJK:  IHMeth= 1 ICntrl=    6127 DoSepK=F KAlg= 0 I1Cent=           0 FoldK=F
 IRaf=         1 NMat=       1 IRICut=       1 DoRegI=T DoRafI=F ISym2E= 0 IDoP0=0 IntGTp=1.
          There are     3 degrees of freedom in the 1st order CPHF.  IDoFFX=0 NUNeed=     3.
      3 vectors produced by pass  0 Test12= 2.49D-11 3.33D-08 XBig12= 5.18D+02 1.83D+00.
 AX will form     3 AO Fock derivatives at one time.
      3 vectors produced by pass  1 Test12= 2.49D-11 3.33D-08 XBig12= 1.43D+00 2.12D-01.
      3 vectors produced by pass  2 Test12= 2.49D-11 3.33D-08 XBig12= 1.09D-02 1.81D-02.
      3 vectors produced by pass  3 Test12= 2.49D-11 3.33D-08 XBig12= 3.48D-05 9.83D-04.
      3 vectors produced by pass  4 Test12= 2.49D-11 3.33D-08 XBig12= 1.42D-07 1.18D-04.
      3 vectors produced by pass  5 Test12= 2.49D-11 3.33D-08 XBig12= 1.12D-09 1.05D-05.
      3 vectors produced by pass  6 Test12= 2.49D-11 3.33D-08 XBig12= 4.74D-12 5.93D-07.
      2 vectors produced by pass  7 Test12= 2.49D-11 3.33D-08 XBig12= 3.72D-13 5.81D-08.
 InvSVY:  IOpt=1 It=  1 EMax= 1.07D-14
 Solved reduced A of dimension    23 with     3 vectors.
 Calculating GIAO nuclear magnetic shielding tensors.
 SCF GIAO Magnetic shielding tensor (ppm):
      1  P    Isotropic =   296.0687   Anisotropy =    53.3619
   XX=   288.5874   YX=     8.3232   ZX=   -40.9971
   XY=   -29.5474   YY=   287.4895   ZY=   -19.2281
   XZ=    -2.7320   YZ=   -28.9329   ZZ=   312.1293
   Eigenvalues:   257.9064   298.6564   331.6433
      2  P    Isotropic =   297.8861   Anisotropy =    50.4015
   XX=   291.1079   YX=     2.7277   ZX=    41.8285
   XY=   -26.3354   YY=   285.4895   ZY=    14.5049
   XZ=    -1.2278   YZ=    24.1643   ZZ=   317.0607
   Eigenvalues:   262.0557   300.1154   331.4871
      3  O    Isotropic =   219.3176   Anisotropy =   119.0092
   XX=   275.0045   YX=     0.3647   ZX=   -51.0128
   XY=   -17.8846   YY=   188.8403   ZY=    76.9951
   XZ=   -26.0435   YZ=    27.9373   ZZ=   194.1079
   Eigenvalues:   135.7673   223.5284   298.6570
      4  O    Isotropic =   220.4193   Anisotropy =    96.3490
   XX=   270.3508   YX=    -1.1744   ZX=    43.7434
   XY=     2.4738   YY=   203.5801   ZY=   -73.1265
   XZ=    19.3029   YZ=   -24.7377   ZZ=   187.3271
   Eigenvalues:   141.0800   235.5260   284.6519
      5  C    Isotropic =    43.3883   Anisotropy =   195.5597
   XX=   -24.1322   YX=   -26.6517   ZX=    -9.5488
   XY=   -33.2066   YY=    78.6693   ZY=  -101.0432
   XZ=    -4.2798   YZ=   -89.3635   ZZ=    75.6277
   Eigenvalues:   -47.8933     4.2967   173.7614
      6  C    Isotropic =    50.4408   Anisotropy =   167.3405
   XX=   -30.7739   YX=     6.6310   ZX=    36.6376
   XY=    19.5205   YY=   106.0540   ZY=   -59.4279
   XZ=    41.3250   YZ=   -76.9923   ZZ=    76.0424
   Eigenvalues:   -52.0394    41.3608   162.0012
      7  C    Isotropic =    28.9981   Anisotropy =   198.6137
   XX=   -16.9456   YX=    -8.3690   ZX=    15.8185
   XY=   -10.7356   YY=    60.5519   ZY=  -107.1052
   XZ=    13.5269   YZ=  -107.8536   ZZ=    43.3879
   Eigenvalues:   -56.3374   -18.0756   161.4072
      8  C    Isotropic =    57.3373   Anisotropy =   172.3983
   XX=    -9.6938   YX=   -40.6840   ZX=   -19.8393
   XY=   -34.4302   YY=    90.0802   ZY=   -81.5040
   XZ=    -9.0005   YZ=   -78.3040   ZZ=    91.6254
   Eigenvalues:   -38.4242    38.1665   172.2694
      9  C    Isotropic =    27.7535   Anisotropy =   201.2105
   XX=   -48.5370   YX=     0.4045   ZX=    28.4902
   XY=    -2.7014   YY=    71.6689   ZY=   -91.4169
   XZ=    24.7649   YZ=   -96.7296   ZZ=    60.1284
   Eigenvalues:   -60.8429   -17.7905   161.8938
     10  C    Isotropic =    47.4998   Anisotropy =   185.5493
   XX=    25.1796   YX=    -2.8857   ZX=    15.5309
   XY=     2.5420   YY=    64.8660   ZY=  -105.5575
   XZ=     9.1613   YZ=  -118.1596   ZZ=    52.4538
   Eigenvalues:   -54.3596    25.6597   171.1993
     11  C    Isotropic =    44.7902   Anisotropy =   196.8743
   XX=   124.9592   YX=     8.7649   ZX=    85.0093
   XY=     5.9576   YY=   -37.7351   ZY=   -23.4525
   XZ=    77.0092   YZ=   -18.7972   ZZ=    47.1467
   Eigenvalues:   -48.4864     6.8174   176.0398
     12  C    Isotropic =    48.5063   Anisotropy =   182.9141
   XX=   127.7529   YX=   -29.8326   ZX=    73.1556
   XY=   -18.9790   YY=   -23.8231   ZY=    34.5000
   XZ=    75.0740   YZ=    38.0268   ZZ=    41.5892
   Eigenvalues:   -57.5302    32.6001   170.4491
     13  C    Isotropic =    30.0126   Anisotropy =   202.1539
   XX=   103.8757   YX=    -1.1095   ZX=    96.4521
   XY=    -2.5727   YY=   -16.0794   ZY=     1.7926
   XZ=   102.5114   YZ=    -1.8391   ZZ=     2.2415
   Eigenvalues:   -58.6716   -16.0725   164.7819
     14  C    Isotropic =    55.8990   Anisotropy =   178.5702
   XX=   131.6637   YX=    11.6868   ZX=    69.6296
   XY=    16.1825   YY=   -25.0606   ZY=   -36.1605
   XZ=    70.5907   YZ=   -23.9017   ZZ=    61.0937
   Eigenvalues:   -42.9084    35.6596   174.9457
     15  C    Isotropic =    30.0822   Anisotropy =   201.5767
   XX=   110.1235   YX=   -14.5001   ZX=    86.4894
   XY=   -17.6790   YY=   -43.3852   ZY=    13.5223
   XZ=    88.0398   YZ=    12.2124   ZZ=    23.5084
   Eigenvalues:   -57.5749   -16.6451   164.4667
     16  C    Isotropic =    45.5161   Anisotropy =   178.1745
   XX=   100.1322   YX=   -10.1606   ZX=   105.2449
   XY=     0.2397   YY=    33.9547   ZY=    -8.0348
   XZ=    96.9930   YZ=   -12.2872   ZZ=     2.4615
   Eigenvalues:   -61.3726    33.6218   164.2991
     17  C    Isotropic =    32.8950   Anisotropy =   197.3980
   XX=    79.7351   YX=   -32.9372   ZX=   -83.5188
   XY=   -42.8902   YY=    -9.6628   ZY=    46.2109
   XZ=   -88.0194   YZ=    52.7471   ZZ=    28.6127
   Eigenvalues:   -49.1847   -16.6239   164.4937
     18  C    Isotropic =    55.2308   Anisotropy =   183.4770
   XX=    75.3675   YX=   -52.5589   ZX=  -103.3269
   XY=   -59.9102   YY=    46.7259   ZY=     1.9763
   XZ=   -95.3437   YZ=    10.8911   ZZ=    43.5990
   Eigenvalues:   -52.3664    40.5099   177.5488
     19  C    Isotropic =    52.5871   Anisotropy =   183.7684
   XX=    99.9217   YX=   -67.3592   ZX=   -60.1377
   XY=   -74.3855   YY=   -26.4207   ZY=    25.3154
   XZ=   -54.8195   YZ=    25.2670   ZZ=    84.2604
   Eigenvalues:   -58.1904    40.8524   175.0994
     20  C    Isotropic =    68.4409   Anisotropy =   170.8334
   XX=   113.2175   YX=   -23.8965   ZX=   -80.8438
   XY=   -20.4115   YY=    38.6709   ZY=    62.3141
   XZ=   -65.9138   YZ=    57.5273   ZZ=    53.4343
   Eigenvalues:   -24.5025    47.4954   182.3298
     21  C    Isotropic =    23.0002   Anisotropy =   140.8096
   XX=    33.5156   YX=   -43.8882   ZX=   -88.0017
   XY=   -32.0325   YY=    32.7947   ZY=     7.3697
   XZ=   -78.6165   YZ=     7.6464   ZZ=     2.6902
   Eigenvalues:   -70.1765    22.3038   116.8732
     22  C    Isotropic =    46.1887   Anisotropy =   164.0087
   XX=    89.3078   YX=   -64.4229   ZX=   -49.2889
   XY=   -61.0303   YY=   -12.8979   ZY=    29.5111
   XZ=   -61.0439   YZ=     9.7613   ZZ=    62.1561
   Eigenvalues:   -43.1214    26.1596   155.5278
     23  C    Isotropic =    46.4130   Anisotropy =   164.5106
   XX=    88.6829   YX=   -73.6232   ZX=    42.6817
   XY=   -67.7454   YY=    -6.1363   ZY=   -35.1088
   XZ=    53.1980   YZ=   -16.0376   ZZ=    56.6924
   Eigenvalues:   -43.8381    26.9903   156.0867
     24  C    Isotropic =    18.2974   Anisotropy =   142.5183
   XX=    33.2834   YX=   -43.2855   ZX=    83.7843
   XY=   -40.0787   YY=    21.3274   ZY=    -8.0359
   XZ=    75.8959   YZ=    -5.6492   ZZ=     0.2814
   Eigenvalues:   -70.0417    11.6244   113.3096
     25  C    Isotropic =    64.2238   Anisotropy =   157.8111
   XX=   110.9652   YX=   -22.4537   ZX=    68.8105
   XY=   -29.8903   YY=    45.3674   ZY=   -58.1291
   XZ=    57.1012   YZ=   -56.8144   ZZ=    36.3387
   Eigenvalues:   -24.5589    47.7990   169.4312
     26  C    Isotropic =    52.0671   Anisotropy =   183.8103
   XX=    97.8262   YX=   -75.5825   ZX=    51.6346
   XY=   -81.9837   YY=   -17.9263   ZY=   -37.5355
   XZ=    44.6519   YZ=   -38.1227   ZZ=    76.3013
   Eigenvalues:   -59.0392    40.6332   174.6073
     27  C    Isotropic =    53.6709   Anisotropy =   186.4575
   XX=    72.5969   YX=   -67.5485   ZX=    98.1365
   XY=   -70.1369   YY=    49.6250   ZY=    -3.9807
   XZ=    87.6903   YZ=   -12.8148   ZZ=    38.7906
   Eigenvalues:   -54.8706    37.9073   177.9759
     28  C    Isotropic =    33.5529   Anisotropy =   195.6513
   XX=    78.3760   YX=   -44.5892   ZX=    77.9624
   XY=   -52.2261   YY=     5.2646   ZY=   -50.0980
   XZ=    80.8049   YZ=   -56.4542   ZZ=    17.0181
   Eigenvalues:   -47.9421   -15.3863   163.9871
     29  C    Isotropic =    43.5790   Anisotropy =   195.8869
   XX=   -22.5557   YX=   -27.1667   ZX=     6.8929
   XY=   -32.7770   YY=    56.8491   ZY=   100.5720
   XZ=     1.5562   YZ=    87.8389   ZZ=    96.4437
   Eigenvalues:   -47.6504     4.2172   174.1703
     30  C    Isotropic =    50.6296   Anisotropy =   166.8641
   XX=   -32.3601   YX=     8.6035   ZX=   -35.7421
   XY=    23.0990   YY=    90.9464   ZY=    60.0462
   XZ=   -38.5865   YZ=    76.8558   ZZ=    93.3024
   Eigenvalues:   -51.9347    41.9511   161.8723
     31  C    Isotropic =    29.1742   Anisotropy =   198.3613
   XX=   -16.6502   YX=    -6.6325   ZX=   -18.6031
   XY=    -8.8769   YY=    35.6296   ZY=   105.8257
   XZ=   -15.9545   YZ=   106.5874   ZZ=    68.5432
   Eigenvalues:   -56.1430   -17.7495   161.4151
     32  C    Isotropic =    57.2912   Anisotropy =   172.1958
   XX=    -7.2691   YX=   -43.9187   ZX=    13.9949
   XY=   -36.5659   YY=    68.8573   ZY=    80.3610
   XZ=     4.4601   YZ=    75.7962   ZZ=   110.2854
   Eigenvalues:   -38.4760    38.2611   172.0884
     33  C    Isotropic =    27.5787   Anisotropy =   200.6817
   XX=   -49.1075   YX=     2.0004   ZX=   -29.1006
   XY=    -1.8865   YY=    49.8044   ZY=    89.2786
   XZ=   -26.1925   YZ=    94.5273   ZZ=    82.0392
   Eigenvalues:   -60.6802   -17.9502   161.3665
     34  C    Isotropic =    48.1286   Anisotropy =   185.8421
   XX=    25.5744   YX=    -0.1512   ZX=   -17.3738
   XY=     4.8545   YY=    41.1732   ZY=   103.4345
   XZ=   -11.0265   YZ=   117.6264   ZZ=    77.6383
   Eigenvalues:   -54.1384    26.5008   172.0234
     35  C    Isotropic =    44.2627   Anisotropy =   196.9485
   XX=   118.5234   YX=    12.4739   ZX=   -86.4309
   XY=    10.5230   YY=   -42.1602   ZY=    14.3906
   XZ=   -78.3660   YZ=     9.4152   ZZ=    56.4249
   Eigenvalues:   -47.8359     5.0623   175.5617
     36  C    Isotropic =    48.0807   Anisotropy =   183.4007
   XX=   122.5148   YX=   -26.9046   ZX=   -77.9647
   XY=   -12.7051   YY=   -20.9484   ZY=   -35.6518
   XZ=   -78.1530   YZ=   -43.5013   ZZ=    42.6758
   Eigenvalues:   -57.8537    31.7480   170.3478
     37  C    Isotropic =    30.4145   Anisotropy =   202.0628
   XX=    97.2019   YX=     7.4963   ZX=   -99.7738
   XY=     6.1746   YY=   -15.9305   ZY=    -0.5743
   XZ=  -105.2614   YZ=     3.9113   ZZ=     9.9719
   Eigenvalues:   -58.4510   -15.4286   165.1230
     38  C    Isotropic =    52.6340   Anisotropy =   185.2756
   XX=   126.1546   YX=    18.8598   ZX=   -71.7684
   XY=    17.6542   YY=   -37.1799   ZY=    20.4677
   XZ=   -74.5308   YZ=    20.1305   ZZ=    68.9275
   Eigenvalues:   -48.1441    29.8951   176.1511
     39  C    Isotropic =    29.7169   Anisotropy =   202.3147
   XX=   101.5311   YX=   -13.6416   ZX=   -89.7064
   XY=   -13.3712   YY=   -43.5751   ZY=   -11.8203
   XZ=   -93.6342   YZ=   -16.6341   ZZ=    31.1948
   Eigenvalues:   -57.9728   -17.4698   164.5934
     40  C    Isotropic =    48.7327   Anisotropy =   173.2539
   XX=    94.2004   YX=     7.2353   ZX=  -105.6864
   XY=     4.4996   YY=    34.6105   ZY=     7.9244
   XZ=   -96.9739   YZ=    20.1491   ZZ=    17.3870
   Eigenvalues:   -55.0433    37.0060   164.2352
     41  C    Isotropic =   107.5386   Anisotropy =    77.2052
   XX=    80.2450   YX=     6.4781   ZX=    22.2216
   XY=     2.5877   YY=    90.7842   ZY=   -13.9597
   XZ=    20.7232   YZ=    -9.1608   ZZ=   151.5865
   Eigenvalues:    71.2534    92.3536   159.0087
     42  H    Isotropic =    23.2945   Anisotropy =    14.4557
   XX=    20.9710   YX=     2.9847   ZX=     3.7221
   XY=     3.5543   YY=    23.3815   ZY=     5.4143
   XZ=     4.1629   YZ=     6.9648   ZZ=    25.5310
   Eigenvalues:    18.1722    18.7797    32.9316
     43  H    Isotropic =    23.7910   Anisotropy =    14.8051
   XX=    24.8807   YX=    -3.6404   ZX=    -4.4043
   XY=    -4.8226   YY=    22.3131   ZY=     5.3813
   XZ=    -5.1678   YZ=     6.0031   ZZ=    24.1790
   Eigenvalues:    17.4738    20.2381    33.6610
     44  H    Isotropic =    23.5353   Anisotropy =    17.7573
   XX=    34.1628   YX=     5.9819   ZX=     2.2647
   XY=     1.1176   YY=    18.8343   ZY=     1.7831
   XZ=     1.8616   YZ=     4.8120   ZZ=    17.6088
   Eigenvalues:    14.8400    20.3925    35.3735
     45  H    Isotropic =    23.8389   Anisotropy =    14.2546
   XX=    25.7254   YX=    -5.1862   ZX=    -1.7035
   XY=    -4.7043   YY=    20.7153   ZY=     4.6843
   XZ=    -3.2557   YZ=     8.8566   ZZ=    25.0758
   Eigenvalues:    15.0706    23.1040    33.3419
     46  H    Isotropic =    24.0440   Anisotropy =    14.1021
   XX=    22.9854   YX=     2.1987   ZX=    -5.7333
   XY=     2.3441   YY=    23.1815   ZY=    -4.8937
   XZ=    -5.4680   YZ=    -5.9085   ZZ=    25.9651
   Eigenvalues:    17.8650    20.8216    33.4454
     47  H    Isotropic =    23.5417   Anisotropy =    12.1756
   XX=    21.0734   YX=     1.3165   ZX=     2.0738
   XY=     0.5166   YY=    31.0540   ZY=    -2.2761
   XZ=    -0.2764   YZ=    -3.1238   ZZ=    18.4977
   Eigenvalues:    17.6107    21.3557    31.6588
     48  H    Isotropic =    24.9521   Anisotropy =    11.6630
   XX=    22.8594   YX=    -1.1035   ZX=     2.7995
   XY=    -4.5640   YY=    27.0791   ZY=    -5.2447
   XZ=     4.4580   YZ=    -3.8614   ZZ=    24.9177
   Eigenvalues:    20.0452    22.0836    32.7274
     49  H    Isotropic =    24.6119   Anisotropy =     4.1334
   XX=    24.7734   YX=     0.1423   ZX=     1.6016
   XY=    -0.6258   YY=    23.3782   ZY=    -1.3084
   XZ=     1.5559   YZ=    -1.7832   ZZ=    25.6841
   Eigenvalues:    22.4631    24.0051    27.3675
     50  H    Isotropic =    25.0666   Anisotropy =     4.9502
   XX=    24.9063   YX=     2.9284   ZX=    -0.2315
   XY=     2.1541   YY=    25.6335   ZY=     1.1730
   XZ=     1.3182   YZ=     1.5729   ZZ=    24.6599
   Eigenvalues:    22.5644    24.2686    28.3668
     51  H    Isotropic =    25.2208   Anisotropy =     4.6124
   XX=    25.4075   YX=     2.0966   ZX=     0.8534
   XY=     2.5681   YY=    26.2542   ZY=    -0.5080
   XZ=    -0.9549   YZ=    -1.0580   ZZ=    24.0007
   Eigenvalues:    23.1737    24.1930    28.2957
     52  H    Isotropic =    24.6710   Anisotropy =     4.5897
   XX=    24.7677   YX=     0.5703   ZX=    -1.6094
   XY=    -0.2231   YY=    22.8573   ZY=     1.2278
   XZ=    -1.7867   YZ=     1.6526   ZZ=    26.3881
   Eigenvalues:    22.0972    24.1850    27.7308
     53  H    Isotropic =    25.1178   Anisotropy =    11.5948
   XX=    22.7283   YX=    -1.0660   ZX=    -2.4583
   XY=    -3.9355   YY=    26.2661   ZY=     5.4640
   XZ=    -4.8025   YZ=     3.8644   ZZ=    26.3590
   Eigenvalues:    20.4408    22.0649    32.8477
     54  H    Isotropic =    23.3046   Anisotropy =    14.5442
   XX=    20.7601   YX=     3.1580   ZX=    -3.3181
   XY=     4.0275   YY=    24.8547   ZY=    -5.6513
   XZ=    -3.3911   YZ=    -7.2375   ZZ=    24.2990
   Eigenvalues:    18.1214    18.7917    33.0008
     55  H    Isotropic =    23.7924   Anisotropy =    14.8324
   XX=    25.2880   YX=    -4.2330   ZX=     4.0282
   XY=    -5.4557   YY=    23.2500   ZY=    -5.3018
   XZ=     4.6576   YZ=    -5.8850   ZZ=    22.8393
   Eigenvalues:    17.4339    20.2627    33.6807
     56  H    Isotropic =    23.5085   Anisotropy =    17.6766
   XX=    33.9466   YX=     6.1904   ZX=    -1.9300
   XY=     1.4681   YY=    19.4813   ZY=    -1.7200
   XZ=    -1.9232   YZ=    -4.7491   ZZ=    17.0974
   Eigenvalues:    14.8197    20.4128    35.2928
     57  H    Isotropic =    23.8792   Anisotropy =    14.4826
   XX=    25.9876   YX=    -5.5155   ZX=     1.2777
   XY=    -4.7925   YY=    21.9683   ZY=    -4.9604
   XZ=     3.2147   YZ=    -9.1639   ZZ=    23.6815
   Eigenvalues:    15.0974    23.0059    33.5342
     58  H    Isotropic =    23.8546   Anisotropy =    13.8853
   XX=    23.9508   YX=     1.8525   ZX=     5.7739
   XY=     2.4236   YY=    21.1504   ZY=     4.4276
   XZ=     5.6237   YZ=     4.8414   ZZ=    26.4625
   Eigenvalues:    18.0773    20.3749    33.1115
     59  H    Isotropic =    23.6744   Anisotropy =    12.4221
   XX=    20.9592   YX=     1.7065   ZX=    -1.3112
   XY=     1.1848   YY=    30.5937   ZY=     3.6473
   XZ=     1.0001   YZ=     4.0437   ZZ=    19.4705
   Eigenvalues:    18.1455    20.9220    31.9558
     60  H    Isotropic =    27.6989   Anisotropy =     7.0965
   XX=    23.9115   YX=    -0.1369   ZX=     2.8358
   XY=     1.5187   YY=    27.8714   ZY=    -0.6091
   XZ=     3.1183   YZ=     1.2943   ZZ=    31.3136
   Eigenvalues:    22.8053    27.8614    32.4299
     61  C    Isotropic =   153.0396   Anisotropy =    26.2517
   XX=   137.7600   YX=   -13.6990   ZX=    -1.6041
   XY=    -6.0174   YY=   163.2406   ZY=   -10.3372
   XZ=    -0.9436   YZ=    -5.0773   ZZ=   158.1180
   Eigenvalues:   133.7938   154.7842   170.5407
     62  C    Isotropic =   113.3226   Anisotropy =    60.0329
   XX=    95.8973   YX=    -9.3766   ZX=   -15.4847
   XY=    -9.1349   YY=    93.0077   ZY=    -5.8257
   XZ=    -7.1224   YZ=    -1.4990   ZZ=   151.0628
   Eigenvalues:    83.5206   103.1026   153.3445
     63  H    Isotropic =    27.0704   Anisotropy =     6.9044
   XX=    22.9973   YX=    -2.5932   ZX=    -1.7036
   XY=    -1.7926   YY=    28.5745   ZY=    -1.3121
   XZ=    -0.9870   YZ=    -3.6782   ZZ=    29.6395
   Eigenvalues:    21.6576    27.8804    31.6733
     64  H    Isotropic =    29.2205   Anisotropy =     3.6810
   XX=    29.8785   YX=    -0.2681   ZX=    -2.7180
   XY=     1.2228   YY=    28.2280   ZY=     1.3236
   XZ=    -1.1817   YZ=    -0.1053   ZZ=    29.5550
   Eigenvalues:    27.1876    28.7994    31.6745
     65  H    Isotropic =    30.3078   Anisotropy =    12.2470
   XX=    25.7958   YX=    -2.1137   ZX=    -2.7408
   XY=    -0.7733   YY=    27.5321   ZY=    -2.1784
   XZ=    -2.7841   YZ=    -1.8938   ZZ=    37.5954
   Eigenvalues:    24.1159    28.3351    38.4724
     66  C    Isotropic =   151.0532   Anisotropy =    45.7975
   XX=   148.0332   YX=   -11.2806   ZX=    15.9976
   XY=   -11.2221   YY=   137.6266   ZY=    -9.7872
   XZ=    19.4277   YZ=    -5.9191   ZZ=   167.4997
   Eigenvalues:   130.0597   141.5150   181.5848
     67  C    Isotropic =   146.2533   Anisotropy =    11.7161
   XX=   141.1140   YX=    -0.7863   ZX=     0.5596
   XY=    -3.5629   YY=   148.1450   ZY=     4.6985
   XZ=    -3.2661   YZ=     4.7582   ZZ=   149.5009
   Eigenvalues:   140.4958   144.2001   154.0641
     68  C    Isotropic =   152.3942   Anisotropy =    43.4937
   XX=   144.4449   YX=    13.2144   ZX=    -8.5014
   XY=    16.4005   YY=   172.4029   ZY=    -7.3914
   XZ=    -7.3712   YZ=    -8.1661   ZZ=   140.3349
   Eigenvalues:   133.8135   141.9791   181.3900
     69  C    Isotropic =   155.2045   Anisotropy =    33.5932
   XX=   175.8525   YX=    -1.2160   ZX=    -2.9580
   XY=    -7.2840   YY=   143.4584   ZY=     0.7334
   XZ=    -9.1896   YZ=     0.8677   ZZ=   146.3025
   Eigenvalues:   142.9100   145.1035   177.6000
     70  H    Isotropic =    30.3025   Anisotropy =     7.5884
   XX=    27.7537   YX=     0.1540   ZX=     1.7537
   XY=     0.6308   YY=    30.5870   ZY=    -4.7745
   XZ=     0.8806   YZ=    -2.3476   ZZ=    32.5667
   Eigenvalues:    26.6650    28.8811    35.3614
     71  H    Isotropic =    30.2263   Anisotropy =    10.4996
   XX=    28.1485   YX=     0.5829   ZX=     2.8751
   XY=    -0.0868   YY=    27.1612   ZY=     1.8980
   XZ=     2.5439   YZ=     4.4473   ZZ=    35.3693
   Eigenvalues:    25.8305    27.6225    37.2261
     72  H    Isotropic =    29.7875   Anisotropy =     7.7961
   XX=    33.8933   YX=    -1.7093   ZX=     0.5338
   XY=    -3.4343   YY=    25.4489   ZY=    -0.0097
   XZ=     2.7717   YZ=     1.9464   ZZ=    30.0202
   Eigenvalues:    24.3796    29.9980    34.9848
     73  H    Isotropic =    30.1085   Anisotropy =     6.7651
   XX=    28.6432   YX=     0.3171   ZX=     1.3504
   XY=    -0.2754   YY=    32.5163   ZY=    -2.3498
   XZ=     2.1743   YZ=    -4.1029   ZZ=    29.1658
   Eigenvalues:    26.2174    29.4895    34.6185
     74  H    Isotropic =    29.6075   Anisotropy =     7.7293
   XX=    33.2148   YX=     0.8787   ZX=    -2.3669
   XY=     3.2155   YY=    29.6375   ZY=     1.5113
   XZ=    -3.4049   YZ=     0.4054   ZZ=    25.9701
   Eigenvalues:    24.4532    29.6089    34.7603
     75  H    Isotropic =    30.1407   Anisotropy =     9.9636
   XX=    27.9665   YX=     2.1332   ZX=     0.8472
   XY=     2.0720   YY=    34.3103   ZY=     4.9191
   XZ=     0.5226   YZ=     2.9819   ZZ=    28.1452
   Eigenvalues:    26.1469    27.4920    36.7831
     76  H    Isotropic =    29.5527   Anisotropy =    11.9638
   XX=    33.7341   YX=    -2.8458   ZX=     5.5159
   XY=    -3.1837   YY=    27.3072   ZY=     0.7884
   XZ=     5.4646   YZ=     0.0870   ZZ=    27.6166
   Eigenvalues:    23.3625    27.7669    37.5285
     77  H    Isotropic =    30.2337   Anisotropy =     7.8699
   XX=    29.9013   YX=    -1.4488   ZX=    -1.2063
   XY=    -1.0578   YY=    29.1670   ZY=     4.3613
   XZ=    -0.6364   YZ=     4.6670   ZZ=    31.6329
   Eigenvalues:    25.6726    29.5482    35.4803
     78  H    Isotropic =    29.5662   Anisotropy =     6.8656
   XX=    31.2068   YX=     4.2824   ZX=    -0.9777
   XY=     3.5821   YY=    28.1208   ZY=    -0.3910
   XZ=    -1.6518   YZ=     0.3541   ZZ=    29.3709
   Eigenvalues:    25.3056    29.2497    34.1432
     79  C    Isotropic =   156.4937   Anisotropy =    36.3468
   XX=   163.4753   YX=    16.1880   ZX=    16.1797
   XY=     9.8476   YY=   153.3254   ZY=     8.4825
   XZ=     8.9654   YZ=     8.9737   ZZ=   152.6803
   Eigenvalues:   144.2679   144.4882   180.7249
     80  C    Isotropic =   146.7925   Anisotropy =    14.3533
   XX=   155.8191   YX=     0.4398   ZX=    -0.1401
   XY=    -4.0227   YY=   142.6639   ZY=    -1.5453
   XZ=    -4.4830   YZ=    -1.7455   ZZ=   141.8945
   Eigenvalues:   140.0472   143.9689   156.3614
     81  C    Isotropic =   152.4335   Anisotropy =    42.4996
   XX=   146.1678   YX=    -6.4294   ZX=     0.0674
   XY=    -5.2065   YY=   179.4329   ZY=    -3.0027
   XZ=     3.0457   YZ=    -4.8191   ZZ=   131.6999
   Eigenvalues:   131.2992   145.2348   180.7666
     82  C    Isotropic =   150.8009   Anisotropy =    42.3544
   XX=   142.9606   YX=     1.8512   ZX=    -1.7147
   XY=     3.9583   YY=   131.6456   ZY=    -9.2573
   XZ=    -1.2155   YZ=    -5.4333   ZZ=   177.7965
   Eigenvalues:   129.9633   143.4023   179.0372
     83  H    Isotropic =    29.9858   Anisotropy =     8.7636
   XX=    30.5256   YX=     0.3787   ZX=     3.6778
   XY=    -1.2038   YY=    26.1772   ZY=     2.1087
   XZ=     3.2056   YZ=     2.0428   ZZ=    33.2546
   Eigenvalues:    25.2032    28.9259    35.8282
     84  H    Isotropic =    30.4170   Anisotropy =     9.7939
   XX=    36.9009   YX=     0.3091   ZX=    -0.7748
   XY=     0.3228   YY=    27.1335   ZY=     1.4839
   XZ=    -0.4866   YZ=     1.8270   ZZ=    27.2167
   Eigenvalues:    25.4802    28.8246    36.9463
     85  H    Isotropic =    29.8634   Anisotropy =     8.3978
   XX=    29.8591   YX=     3.3870   ZX=     0.1164
   XY=     2.5229   YY=    33.4693   ZY=     2.0182
   XZ=    -1.2997   YZ=     2.5895   ZZ=    26.2618
   Eigenvalues:    25.0972    29.0311    35.4619
     86  H    Isotropic =    30.2883   Anisotropy =    10.9738
   XX=    33.7434   YX=     2.9087   ZX=     2.9288
   XY=     2.6198   YY=    31.9501   ZY=     4.0448
   XZ=     4.5058   YZ=     2.0402   ZZ=    25.1714
   Eigenvalues:    23.3114    29.9493    37.6042
     87  H    Isotropic =    30.7172   Anisotropy =     7.0862
   XX=    29.2926   YX=     0.1011   ZX=     1.4987
   XY=    -1.9568   YY=    31.7996   ZY=    -3.2717
   XZ=     3.1034   YZ=    -3.0562   ZZ=    31.0594
   Eigenvalues:    27.3122    29.3981    35.4413
     88  H    Isotropic =    30.5758   Anisotropy =     9.3164
   XX=    34.1054   YX=    -2.6380   ZX=    -0.9340
   XY=    -4.5976   YY=    31.3327   ZY=     2.5007
   XZ=     0.3146   YZ=     1.5590   ZZ=    26.2893
   Eigenvalues:    25.4515    29.4891    36.7867
     89  H    Isotropic =    29.8177   Anisotropy =    10.1932
   XX=    32.8149   YX=     3.8490   ZX=     2.4754
   XY=     3.0315   YY=    25.6836   ZY=     1.0008
   XZ=     2.9020   YZ=     4.9622   ZZ=    30.9545
   Eigenvalues:    23.7735    29.0664    36.6131
     90  H    Isotropic =    30.3606   Anisotropy =     9.0997
   XX=    33.0331   YX=     0.2479   ZX=    -3.0694
   XY=     0.6504   YY=    26.1655   ZY=     0.5054
   XZ=    -4.7229   YZ=     2.2311   ZZ=    31.8833
   Eigenvalues:    25.5436    29.1112    36.4271
     91  H    Isotropic =    30.3795   Anisotropy =     5.9971
   XX=    28.9022   YX=     0.5756   ZX=     0.6852
   XY=     1.3056   YY=    31.5110   ZY=    -3.3368
   XZ=    -1.3422   YZ=    -2.8196   ZZ=    30.7252
   Eigenvalues:    27.8601    28.9008    34.3775
     92  C    Isotropic =   151.6478   Anisotropy =    45.7348
   XX=   169.0658   YX=   -22.2140   ZX=     1.5344
   XY=   -18.5775   YY=   147.9141   ZY=    -7.1170
   XZ=     3.4642   YZ=    -5.5672   ZZ=   137.9636
   Eigenvalues:   132.2165   140.5893   182.1377
     93  C    Isotropic =   146.6789   Anisotropy =    11.2168
   XX=   148.9700   YX=     0.4258   ZX=    -4.4780
   XY=    -1.3746   YY=   140.7854   ZY=     0.7216
   XZ=    -4.4416   YZ=    -3.0097   ZZ=   150.2814
   Eigenvalues:   140.4976   145.3824   154.1568
     94  C    Isotropic =   153.4802   Anisotropy =    41.4117
   XX=   149.0048   YX=    15.0934   ZX=    13.0106
   XY=    14.8423   YY=   148.4430   ZY=    11.3432
   XZ=    11.3930   YZ=    14.4347   ZZ=   162.9929
   Eigenvalues:   133.7307   145.6219   181.0880
     95  C    Isotropic =   156.5285   Anisotropy =    31.8823
   XX=   147.5734   YX=     9.4103   ZX=    -1.9638
   XY=     5.1274   YY=   173.5204   ZY=    -5.1476
   XZ=    -1.8631   YZ=   -11.0585   ZZ=   148.4916
   Eigenvalues:   145.6077   146.1944   177.7833
     96  H    Isotropic =    30.3454   Anisotropy =     8.5158
   XX=    34.6760   YX=    -0.2950   ZX=     2.1053
   XY=    -0.7460   YY=    28.4232   ZY=     1.5561
   XZ=     4.4817   YZ=     1.9368   ZZ=    27.9371
   Eigenvalues:    25.4771    29.5365    36.0226
     97  H    Isotropic =    30.3253   Anisotropy =    10.8970
   XX=    33.3225   YX=    -3.4491   ZX=    -5.5050
   XY=    -3.1829   YY=    28.6162   ZY=     2.1041
   XZ=    -3.1568   YZ=     1.4794   ZZ=    29.0371
   Eigenvalues:    26.2887    27.0972    37.5899
     98  H    Isotropic =    29.8693   Anisotropy =     7.9653
   XX=    29.7377   YX=    -3.9856   ZX=    -2.2585
   XY=    -0.9071   YY=    33.5719   ZY=    -2.3213
   XZ=    -0.8379   YZ=    -3.2116   ZZ=    26.2984
   Eigenvalues:    24.3638    30.0647    35.1795
     99  H    Isotropic =    29.9576   Anisotropy =     7.5855
   XX=    32.6570   YX=    -3.9346   ZX=     2.8618
   XY=    -2.6897   YY=    28.9529   ZY=     1.6903
   XZ=     2.3569   YZ=     0.9763   ZZ=    28.2628
   Eigenvalues:    24.9875    29.8706    35.0146
    100  H    Isotropic =    29.9536   Anisotropy =     6.9930
   XX=    27.3069   YX=     3.3381   ZX=    -0.5244
   XY=     1.9756   YY=    33.6057   ZY=    -0.1319
   XZ=    -0.8666   YZ=     1.6315   ZZ=    28.9482
   Eigenvalues:    26.0475    29.1977    34.6156
    101  H    Isotropic =    30.3731   Anisotropy =     9.9612
   XX=    27.5247   YX=    -0.5969   ZX=    -1.1554
   XY=    -0.9012   YY=    28.6533   ZY=     3.5456
   XZ=    -2.8284   YZ=     3.5519   ZZ=    34.9413
   Eigenvalues:    26.9215    27.1839    37.0139
    102  H    Isotropic =    29.5788   Anisotropy =     9.9167
   XX=    31.3680   YX=    -5.0188   ZX=    -0.2744
   XY=    -5.5692   YY=    30.3367   ZY=    -0.8901
   XZ=    -0.0445   YZ=    -0.6857   ZZ=    27.0318
   Eigenvalues:    25.2614    27.2851    36.1900
    103  H    Isotropic =    30.5716   Anisotropy =     8.4687
   XX=    30.3295   YX=     0.1395   ZX=    -4.7038
   XY=     0.4973   YY=    28.7617   ZY=    -0.9918
   XZ=    -4.4028   YZ=     0.0141   ZZ=    32.6235
   Eigenvalues:    26.7797    28.7177    36.2174
    104  H    Isotropic =    29.9879   Anisotropy =     8.7901
   XX=    31.3266   YX=     3.5576   ZX=     0.1129
   XY=     3.0786   YY=    30.8377   ZY=     3.9710
   XZ=     0.8236   YZ=     4.4197   ZZ=    27.7994
   Eigenvalues:    24.4643    29.6514    35.8480
    105  C    Isotropic =   156.7360   Anisotropy =    35.5678
   XX=   149.1868   YX=    -7.8138   ZX=    -4.6551
   XY=   -12.3520   YY=   167.8981   ZY=    18.1422
   XZ=    -5.1603   YZ=    10.1176   ZZ=   153.1230
   Eigenvalues:   143.8638   145.8962   180.4479
    106  C    Isotropic =   146.5790   Anisotropy =    13.6037
   XX=   144.7514   YX=     2.6557   ZX=     2.4086
   XY=     0.4606   YY=   153.2965   ZY=    -3.0694
   XZ=     1.2773   YZ=    -8.2377   ZZ=   141.6890
   Eigenvalues:   138.5389   145.5499   155.6481
    107  C    Isotropic =   152.2783   Anisotropy =    43.7537
   XX=   138.1015   YX=    -1.3246   ZX=    17.2581
   XY=     1.2724   YY=   143.1370   ZY=    -4.2534
   XZ=    13.6952   YZ=    -2.7866   ZZ=   175.5965
   Eigenvalues:   132.4092   142.9783   181.4475
    108  C    Isotropic =   149.4110   Anisotropy =    39.3815
   XX=   174.9623   YX=    -4.3190   ZX=    -5.0719
   XY=    -1.2050   YY=   143.0772   ZY=    -1.5302
   XZ=    -4.0477   YZ=     2.8843   ZZ=   130.1936
   Eigenvalues:   129.7219   142.8458   175.6653
    109  H    Isotropic =    30.0102   Anisotropy =     6.9281
   XX=    26.4035   YX=     0.6968   ZX=    -0.4555
   XY=     0.3641   YY=    30.8021   ZY=     3.1569
   XZ=    -0.2791   YZ=     2.0978   ZZ=    32.8252
   Eigenvalues:    26.2519    29.1499    34.6290
    110  H    Isotropic =    30.4058   Anisotropy =     9.5966
   XX=    27.0217   YX=    -0.0738   ZX=    -1.4322
   XY=     0.6407   YY=    36.4913   ZY=    -1.7265
   XZ=    -1.7591   YZ=    -1.4596   ZZ=    27.7045
   Eigenvalues:    25.6716    28.7423    36.8036
    111  H    Isotropic =    30.0239   Anisotropy =     9.1726
   XX=    32.3307   YX=    -4.2957   ZX=    -2.4918
   XY=    -3.9929   YY=    30.6876   ZY=     0.2868
   XZ=    -3.0712   YZ=    -1.1864   ZZ=    27.0535
   Eigenvalues:    24.8781    29.0547    36.1390
    112  H    Isotropic =    29.7439   Anisotropy =     5.2125
   XX=    25.6248   YX=    -1.5190   ZX=     2.3648
   XY=    -0.8543   YY=    31.7922   ZY=     0.9514
   XZ=    -1.4412   YZ=     1.8068   ZZ=    31.8146
   Eigenvalues:    25.3246    30.6881    33.2188
    113  H    Isotropic =    30.5446   Anisotropy =     8.5086
   XX=    33.2723   YX=    -2.5940   ZX=     4.1999
   XY=    -0.3397   YY=    28.2957   ZY=    -0.7202
   XZ=     3.1945   YZ=    -2.1849   ZZ=    30.0658
   Eigenvalues:    27.3055    28.1113    36.2170
    114  H    Isotropic =    30.3767   Anisotropy =     9.8382
   XX=    26.8708   YX=    -1.0036   ZX=     0.6377
   XY=     0.5020   YY=    31.4100   ZY=    -4.1019
   XZ=    -1.5102   YZ=    -5.3959   ZZ=    32.8491
   Eigenvalues:    26.5702    27.6242    36.9355
    115  H    Isotropic =    29.7498   Anisotropy =     9.6645
   XX=    31.4054   YX=    -4.2623   ZX=    -3.9325
   XY=    -3.0685   YY=    31.9995   ZY=    -0.2784
   XZ=    -3.5973   YZ=     0.9150   ZZ=    25.8445
   Eigenvalues:    23.6816    29.3750    36.1928
    116  H    Isotropic =    30.3947   Anisotropy =     5.9470
   XX=    32.0716   YX=    -1.4511   ZX=     3.0477
   XY=    -1.4369   YY=    29.4834   ZY=    -1.4369
   XZ=     1.9984   YZ=    -0.9357   ZZ=    29.6291
   Eigenvalues:    27.9839    28.8409    34.3594
    117  H    Isotropic =    30.3102   Anisotropy =     8.2096
   XX=    32.0749   YX=     2.3973   ZX=    -3.9037
   XY=     1.4965   YY=    31.7923   ZY=    -2.3911
   XZ=    -3.3988   YZ=    -1.5763   ZZ=    27.0635
   Eigenvalues:    25.0208    30.1266    35.7833
    118  C    Isotropic =   155.2699   Anisotropy =    33.3234
   XX=   175.9098   YX=    -0.3220   ZX=     3.1070
   XY=    -6.5869   YY=   143.4130   ZY=    -1.1398
   XZ=     9.0431   YZ=    -0.5635   ZZ=   146.4869
   Eigenvalues:   143.0306   145.2936   177.4855
    119  C    Isotropic =   146.8264   Anisotropy =    12.8148
   XX=   142.3839   YX=    -1.8860   ZX=     0.4559
   XY=    -5.1656   YY=   148.9997   ZY=    -5.2309
   XZ=     3.3046   YZ=    -5.1472   ZZ=   149.0954
   Eigenvalues:   140.8352   144.2744   155.3695
    120  C    Isotropic =   151.5916   Anisotropy =    45.1894
   XX=   149.5359   YX=    -9.3279   ZX=   -17.3280
   XY=    -8.7220   YY=   136.3228   ZY=     4.5152
   XZ=   -20.6741   YZ=     1.3028   ZZ=   168.9162
   Eigenvalues:   130.2828   142.7741   181.7179
    121  C    Isotropic =   152.2923   Anisotropy =    42.9080
   XX=   143.5335   YX=    10.3917   ZX=     9.5342
   XY=    13.4978   YY=   171.2149   ZY=    11.1488
   XZ=     8.3053   YZ=    12.4645   ZZ=   142.1285
   Eigenvalues:   133.8690   142.1103   180.8977
    122  H    Isotropic =    29.4245   Anisotropy =    11.5191
   XX=    33.2410   YX=    -2.0138   ZX=    -6.0193
   XY=    -2.1767   YY=    27.1991   ZY=    -0.9249
   XZ=    -5.4671   YZ=    -0.2392   ZZ=    27.8334
   Eigenvalues:    23.4616    27.7080    37.1039
    123  H    Isotropic =    30.1995   Anisotropy =     7.8812
   XX=    29.9353   YX=    -1.6356   ZX=     1.1597
   XY=    -1.1174   YY=    30.0005   ZY=    -4.4930
   XZ=     0.6950   YZ=    -4.7777   ZZ=    30.6626
   Eigenvalues:    25.6492    29.4956    35.4536
    124  H    Isotropic =    29.5462   Anisotropy =     6.8840
   XX=    30.8299   YX=     4.2206   ZX=     1.4474
   XY=     3.5643   YY=    28.3612   ZY=     0.3567
   XZ=     2.1597   YZ=    -0.4039   ZZ=    29.4474
   Eigenvalues:    25.2170    29.2860    34.1355
    125  H    Isotropic =    29.7682   Anisotropy =     7.8895
   XX=    34.1412   YX=    -1.3889   ZX=    -0.6698
   XY=    -2.7602   YY=    25.5044   ZY=    -0.6405
   XZ=    -3.0122   YZ=    -2.6001   ZZ=    29.6589
   Eigenvalues:    24.2699    30.0067    35.0278
    126  H    Isotropic =    30.2782   Anisotropy =     7.7033
   XX=    27.7641   YX=     0.1183   ZX=    -1.9140
   XY=     0.5568   YY=    29.6821   ZY=     4.4155
   XZ=    -0.9346   YZ=     2.0543   ZZ=    33.3885
   Eigenvalues:    26.7095    28.7114    35.4137
    127  H    Isotropic =    30.2263   Anisotropy =    10.4651
   XX=    28.1613   YX=     0.8859   ZX=    -2.7171
   XY=     0.2226   YY=    28.1092   ZY=    -2.9750
   XZ=    -2.3607   YZ=    -5.3994   ZZ=    34.4084
   Eigenvalues:    25.7904    27.6854    37.2031
    128  H    Isotropic =    29.6491   Anisotropy =     7.7069
   XX=    33.1156   YX=     0.7127   ZX=     2.3991
   XY=     2.9342   YY=    29.9408   ZY=    -0.8816
   XZ=     3.7183   YZ=     0.3469   ZZ=    25.8907
   Eigenvalues:    24.6170    29.5432    34.7870
    129  H    Isotropic =    30.1266   Anisotropy =     9.9275
   XX=    27.8425   YX=     1.8927   ZX=    -0.5739
   XY=     1.8237   YY=    35.3007   ZY=    -4.0953
   XZ=    -0.2922   YZ=    -2.0557   ZZ=    27.2368
   Eigenvalues:    26.1718    27.4631    36.7450
    130  H    Isotropic =    30.1467   Anisotropy =     6.6306
   XX=    28.9727   YX=     0.3340   ZX=    -1.7609
   XY=    -0.1705   YY=    31.5398   ZY=     2.5459
   XZ=    -2.6046   YZ=     4.2891   ZZ=    29.9275
   Eigenvalues:    26.0713    29.8017    34.5670
    131  C    Isotropic =   150.5415   Anisotropy =    42.7556
   XX=   142.6605   YX=     1.8826   ZX=     2.2225
   XY=     4.1828   YY=   130.1430   ZY=     3.9210
   XZ=     2.1292   YZ=    -0.0058   ZZ=   178.8211
   Eigenvalues:   129.4057   143.1736   179.0452
    132  C    Isotropic =   146.4752   Anisotropy =    14.5513
   XX=   155.8663   YX=     0.7283   ZX=    -0.1308
   XY=    -3.6966   YY=   141.7772   ZY=     1.6073
   XZ=     3.4657   YZ=     1.8058   ZZ=   141.7821
   Eigenvalues:   139.7646   143.4849   156.1760
    133  C    Isotropic =   156.3933   Anisotropy =    36.3604
   XX=   162.4281   YX=    17.9112   ZX=   -14.2154
   XY=    10.9604   YY=   155.7357   ZY=    -8.6166
   XZ=    -7.7004   YZ=    -9.2008   ZZ=   151.0162
   Eigenvalues:   144.1313   144.4151   180.6336
    134  C    Isotropic =   152.4254   Anisotropy =    42.5308
   XX=   146.3737   YX=    -7.1413   ZX=    -1.1403
   XY=    -5.5678   YY=   177.6123   ZY=     8.3890
   XZ=    -4.2878   YZ=    10.0233   ZZ=   133.2901
   Eigenvalues:   131.3114   145.1855   180.7793
    135  H    Isotropic =    29.8030   Anisotropy =    10.2510
   XX=    32.5775   YX=     4.1265   ZX=    -2.0800
   XY=     3.4087   YY=    26.5319   ZY=    -1.6988
   XZ=    -2.4631   YZ=    -5.6574   ZZ=    30.2997
   Eigenvalues:    23.7069    29.0651    36.6371
    136  H    Isotropic =    30.3559   Anisotropy =     9.1070
   XX=    33.1263   YX=     0.0022   ZX=     3.0569
   XY=     0.2210   YY=    26.5077   ZY=    -1.0591
   XZ=     4.8048   YZ=    -2.7272   ZZ=    31.4336
   Eigenvalues:    25.5243    29.1161    36.4272
    137  H    Isotropic =    30.3693   Anisotropy =     5.9252
   XX=    28.8970   YX=     0.5870   ZX=    -0.6699
   XY=     1.1175   YY=    30.8169   ZY=     3.2855
   XZ=     1.4541   YZ=     2.8392   ZZ=    31.3940
   Eigenvalues:    27.8802    28.9083    34.3194
    138  H    Isotropic =    29.9734   Anisotropy =     8.7815
   XX=    30.4319   YX=     0.7960   ZX=    -3.5183
   XY=    -0.8325   YY=    26.6891   ZY=    -2.9281
   XZ=    -3.2390   YZ=    -2.8718   ZZ=    32.7991
   Eigenvalues:    25.1459    28.9465    35.8277
    139  H    Isotropic =    29.8443   Anisotropy =     8.3359
   XX=    29.7642   YX=     3.2072   ZX=     0.2362
   XY=     2.2153   YY=    33.9849   ZY=    -1.1905
   XZ=     1.5590   YZ=    -1.7396   ZZ=    25.7839
   Eigenvalues:    25.0758    29.0556    35.4016
    140  H    Isotropic =    30.4082   Anisotropy =     9.7956
   XX=    36.8948   YX=     0.3953   ZX=     0.7036
   XY=     0.4371   YY=    27.4930   ZY=    -1.4503
   XZ=     0.4401   YZ=    -1.8072   ZZ=    26.8368
   Eigenvalues:    25.4598    28.8261    36.9386
    141  H    Isotropic =    30.6949   Anisotropy =     7.2519
   XX=    29.1771   YX=     0.1619   ZX=    -1.5292
   XY=    -1.7264   YY=    31.0061   ZY=     3.3091
   XZ=    -3.3591   YZ=     2.9878   ZZ=    31.9014
   Eigenvalues:    27.3307    29.2244    35.5295
    142  H    Isotropic =    30.5583   Anisotropy =     9.3634
   XX=    34.2318   YX=    -2.7285   ZX=     0.5496
   XY=    -4.5702   YY=    31.4992   ZY=    -1.8048
   XZ=    -0.9095   YZ=    -0.9573   ZZ=    25.9440
   Eigenvalues:    25.4701    29.4043    36.8006
    143  H    Isotropic =    30.2456   Anisotropy =    10.6818
   XX=    33.3516   YX=     3.0791   ZX=    -2.6726
   XY=     2.8881   YY=    32.6422   ZY=    -3.3180
   XZ=    -4.2809   YZ=    -1.3346   ZZ=    24.7429
   Eigenvalues:    23.3379    30.0320    37.3668
    144  C    Isotropic =   151.0225   Anisotropy =    46.3389
   XX=   170.1622   YX=   -20.6327   ZX=    -4.4366
   XY=   -17.0159   YY=   145.1689   ZY=     8.2389
   XZ=    -6.9522   YZ=     6.5782   ZZ=   137.7365
   Eigenvalues:   131.7742   139.3783   181.9152
    145  C    Isotropic =   146.9037   Anisotropy =    10.9017
   XX=   149.6512   YX=     0.3043   ZX=     4.7738
   XY=    -1.8224   YY=   140.8221   ZY=    -1.9084
   XZ=     3.6201   YZ=     1.9175   ZZ=   150.2377
   Eigenvalues:   140.7401   145.7994   154.1715
    146  C    Isotropic =   153.4298   Anisotropy =    40.9055
   XX=   147.8747   YX=    15.6120   ZX=    -9.3901
   XY=    15.5795   YY=   151.7196   ZY=   -13.3540
   XZ=    -8.9574   YZ=   -16.7217   ZZ=   160.6952
   Eigenvalues:   133.5453   146.0440   180.7002
    147  C    Isotropic =   156.4968   Anisotropy =    31.4644
   XX=   147.0758   YX=     7.9880   ZX=     3.0920
   XY=     4.3507   YY=   171.9444   ZY=     7.2079
   XZ=     1.8448   YZ=    13.2025   ZZ=   150.4702
   Eigenvalues:   145.6232   146.3941   177.4731
    148  H    Isotropic =    30.3222   Anisotropy =     8.5341
   XX=    34.4576   YX=     0.2113   ZX=    -2.2664
   XY=    -0.1448   YY=    28.8260   ZY=    -1.7399
   XZ=    -4.6758   YZ=    -2.1794   ZZ=    27.6831
   Eigenvalues:    25.2946    29.6604    36.0116
    149  H    Isotropic =    30.2841   Anisotropy =    10.9810
   XX=    33.8730   YX=    -3.8163   ZX=     5.0990
   XY=    -3.3421   YY=    28.6860   ZY=    -1.9250
   XZ=     2.6715   YZ=    -1.3721   ZZ=    28.2932
   Eigenvalues:    26.2653    26.9822    37.6047
    150  H    Isotropic =    29.9176   Anisotropy =     7.9440
   XX=    30.0976   YX=    -4.1625   ZX=     1.5997
   XY=    -0.9971   YY=    32.8716   ZY=     2.9364
   XZ=     0.3356   YZ=     3.8999   ZZ=    26.7835
   Eigenvalues:    24.5255    30.0137    35.2135
    151  H    Isotropic =    30.0817   Anisotropy =     7.5043
   XX=    32.8751   YX=    -3.4186   ZX=    -3.4186
   XY=    -2.1410   YY=    28.7902   ZY=    -1.4813
   XZ=    -2.6030   YZ=    -0.9104   ZZ=    28.5799
   Eigenvalues:    25.2751    29.8855    35.0846
    152  H    Isotropic =    29.8603   Anisotropy =     7.0829
   XX=    27.0570   YX=     2.9731   ZX=     1.1057
   XY=     1.7631   YY=    33.8366   ZY=     0.6484
   XZ=     1.4031   YZ=    -1.3471   ZZ=    28.6872
   Eigenvalues:    25.7375    29.2611    34.5822
    153  H    Isotropic =    30.3739   Anisotropy =     9.9876
   XX=    27.7879   YX=    -0.7910   ZX=     1.5647
   XY=    -1.1951   YY=    29.2297   ZY=    -3.9562
   XZ=     3.1696   YZ=    -3.9899   ZZ=    34.1042
   Eigenvalues:    26.7628    27.3267    37.0323
    154  H    Isotropic =    29.7059   Anisotropy =     9.2841
   XX=    31.6370   YX=    -4.8063   ZX=    -0.2979
   XY=    -5.0658   YY=    29.9567   ZY=     1.0199
   XZ=    -0.4516   YZ=     0.8001   ZZ=    27.5239
   Eigenvalues:    25.6738    27.5485    35.8952
    155  H    Isotropic =    30.5747   Anisotropy =     8.5756
   XX=    30.4529   YX=    -0.1206   ZX=     4.7517
   XY=     0.2869   YY=    28.6853   ZY=     0.6936
   XZ=     4.5413   YZ=    -0.3271   ZZ=    32.5859
   Eigenvalues:    26.7508    28.6815    36.2917
    156  H    Isotropic =    29.9565   Anisotropy =     8.9013
   XX=    30.9823   YX=     3.4753   ZX=     0.2515
   XY=     3.1454   YY=    31.8193   ZY=    -3.7652
   XZ=    -0.3324   YZ=    -4.2358   ZZ=    27.0678
   Eigenvalues:    24.3462    29.6325    35.8907
    157  C    Isotropic =   151.3647   Anisotropy =    46.9725
   XX=   161.0022   YX=   -20.3593   ZX=   -11.1004
   XY=   -18.9673   YY=   148.4856   ZY=    11.5726
   XZ=    -9.6220   YZ=    16.1832   ZZ=   144.6065
   Eigenvalues:   130.7527   140.6618   182.6797
    158  C    Isotropic =   146.9723   Anisotropy =    11.5561
   XX=   146.9733   YX=     1.0199   ZX=     0.6048
   XY=     5.0776   YY=   147.1907   ZY=     7.8586
   XZ=     2.4012   YZ=     4.7953   ZZ=   146.7529
   Eigenvalues:   140.4525   145.7880   154.6764
    159  C    Isotropic =   154.7233   Anisotropy =    35.6091
   XX=   157.2020   YX=   -12.8476   ZX=    15.5382
   XY=    -5.1690   YY=   147.6566   ZY=    -4.1617
   XZ=    16.5848   YZ=    -9.7522   ZZ=   159.3114
   Eigenvalues:   141.0051   144.7021   178.4627
    160  C    Isotropic =   153.1823   Anisotropy =    40.5475
   XX=   147.0409   YX=    16.8996   ZX=   -10.6349
   XY=    14.3515   YY=   152.9159   ZY=   -15.4783
   XZ=    -8.2862   YZ=   -13.4196   ZZ=   159.5902
   Eigenvalues:   133.8508   145.4822   180.2140
    161  H    Isotropic =    30.0151   Anisotropy =     8.1580
   XX=    31.7327   YX=    -5.4490   ZX=     3.0602
   XY=    -3.4032   YY=    29.5029   ZY=    -0.0981
   XZ=     2.1188   YZ=     2.6130   ZZ=    28.8097
   Eigenvalues:    24.4628    30.1288    35.4538
    162  H    Isotropic =    30.3277   Anisotropy =    10.8929
   XX=    27.6386   YX=    -3.1623   ZX=    -0.9643
   XY=    -0.9689   YY=    34.0638   ZY=     4.4431
   XZ=     0.5845   YZ=     5.6214   ZZ=    29.2807
   Eigenvalues:    25.5932    27.8002    37.5896
    163  H    Isotropic =    30.4603   Anisotropy =     8.1506
   XX=    31.6258   YX=    -1.4955   ZX=    -5.6387
   XY=    -0.4099   YY=    28.8101   ZY=     0.3365
   XZ=    -3.1088   YZ=     1.2939   ZZ=    30.9450
   Eigenvalues:    26.8971    28.5898    35.8940
    164  H    Isotropic =    29.7831   Anisotropy =    10.2934
   XX=    32.9375   YX=    -4.9372   ZX=     1.7431
   XY=    -4.5650   YY=    30.1682   ZY=     2.2292
   XZ=     3.3735   YZ=     0.6602   ZZ=    26.2435
   Eigenvalues:    23.6685    29.0354    36.6453
    165  H    Isotropic =    29.7108   Anisotropy =     5.6581
   XX=    26.4199   YX=    -0.9299   ZX=    -0.0574
   XY=     0.3870   YY=    30.3256   ZY=    -1.5710
   XZ=     1.1452   YZ=    -2.0296   ZZ=    32.3869
   Eigenvalues:    26.3673    29.2823    33.4828
    166  H    Isotropic =    30.3700   Anisotropy =     8.0699
   XX=    29.4982   YX=     0.5357   ZX=     3.7731
   XY=     0.4826   YY=    31.3298   ZY=     2.8744
   XZ=     4.6208   YZ=     3.2554   ZZ=    30.2820
   Eigenvalues:    25.1495    30.2106    35.7500
    167  H    Isotropic =    30.2576   Anisotropy =     6.6653
   XX=    31.5406   YX=    -1.9692   ZX=    -2.9850
   XY=    -1.2330   YY=    30.2462   ZY=     0.7760
   XZ=    -3.8365   YZ=     1.2135   ZZ=    28.9861
   Eigenvalues:    26.6184    29.4534    34.7011
    168  H    Isotropic =    30.4297   Anisotropy =     9.2967
   XX=    28.6461   YX=     3.6605   ZX=     1.3365
   XY=     3.0551   YY=    35.1094   ZY=     1.0762
   XZ=     0.8757   YZ=    -0.0650   ZZ=    27.5335
   Eigenvalues:    26.5070    28.1545    36.6275
    169  H    Isotropic =    29.9371   Anisotropy =     7.0398
   XX=    27.6596   YX=     1.1269   ZX=     2.2619
   XY=    -0.8270   YY=    30.6731   ZY=    -2.7070
   XZ=     3.7164   YZ=    -2.8599   ZZ=    31.4785
   Eigenvalues:    25.5319    29.6491    34.6303
    170  H    Isotropic =    27.7510   Anisotropy =     8.4230
   XX=    27.7906   YX=    -2.9273   ZX=     1.0440
   XY=    -2.3720   YY=    23.1773   ZY=    -0.5565
   XZ=     3.2975   YZ=    -0.2842   ZZ=    32.2852
   Eigenvalues:    21.9433    27.9434    33.3664
    171  H    Isotropic =    26.9991   Anisotropy =     7.8831
   XX=    22.2741   YX=    -3.9872   ZX=     0.5477
   XY=    -2.9755   YY=    27.0684   ZY=     0.5039
   XZ=    -2.1118   YZ=     1.8755   ZZ=    31.6547
   Eigenvalues:    20.4427    28.3001    32.2545
 End of Minotr F.D. properties file   721 does not exist.
 End of Minotr F.D. properties file   722 does not exist.
 End of Minotr F.D. properties file   788 does not exist.
 Hyperfine terms turned off by default for NAtoms > 100.

 **********************************************************************

            Population analysis using the SCF Density.

 **********************************************************************

 Orbital symmetries:
       Occupied  (A) (A) (A) (A) (A) (A) (A) (A) (A) (A) (A) (A)
                 (A) (A) (A) (A) (A) (A) (A) (A) (A) (A) (A) (A)
                 (A) (A) (A) (A) (A) (A) (A) (A) (A) (A) (A) (A)
                 (A) (A) (A) (A) (A) (A) (A) (A) (A) (A) (A) (A)
                 (A) (A) (A) (A) (A) (A) (A) (A) (A) (A) (A) (A)
                 (A) (A) (A) (A) (A) (A) (A) (A) (A) (A) (A) (A)
                 (A) (A) (A) (A) (A) (A) (A) (A) (A) (A) (A) (A)
                 (A) (A) (A) (A) (A) (A) (A) (A) (A) (A) (A) (A)
                 (A) (A) (A) (A) (A) (A) (A) (A) (A) (A) (A) (A)
                 (A) (A) (A) (A) (A) (A) (A) (A) (A) (A) (A) (A)
                 (A) (A) (A) (A) (A) (A) (A) (A) (A) (A) (A) (A)
                 (A) (A) (A) (A) (A) (A) (A) (A) (A) (A) (A) (A)
                 (A) (A) (A) (A) (A) (A) (A) (A) (A) (A) (A) (A)
                 (A) (A) (A) (A) (A) (A) (A) (A) (A) (A) (A) (A)
                 (A) (A) (A) (A) (A) (A) (A) (A) (A) (A) (A) (A)
                 (A) (A) (A) (A) (A) (A) (A) (A) (A) (A) (A) (A)
                 (A) (A) (A) (A) (A) (A) (A) (A) (A) (A) (A) (A)
                 (A) (A) (A) (A) (A) (A) (A) (A) (A) (A) (A) (A)
                 (A) (A) (A) (A) (A) (A) (A) (A) (A) (A) (A) (A)
                 (A) (A) (A) (A) (A) (A) (A) (A) (A) (A) (A) (A)
                 (A) (A) (A) (A) (A) (A) (A) (A) (A) (A) (A) (A)
                 (A) (A) (A) (A) (A) (A) (A) (A) (A) (A) (A) (A)
                 (A) (A) (A) (A) (A) (A) (A) (A) (A) (A) (A) (A)
                 (A) (A) (A) (A) (A) (A) (A) (A)
       Virtual   (A) (A) (A) (A) (A) (A) (A) (A) (A) (A) (A) (A)
                 (A) (A) (A) (A) (A) (A) (A) (A) (A) (A) (A) (A)
                 (A) (A) (A) (A) (A) (A) (A) (A) (A) (A) (A) (A)
                 (A) (A) (A) (A) (A) (A) (A) (A) (A) (A) (A) (A)
                 (A) (A) (A) (A) (A) (A) (A) (A) (A) (A) (A) (A)
                 (A) (A) (A) (A) (A) (A) (A) (A) (A) (A) (A) (A)
                 (A) (A) (A) (A) (A) (A) (A) (A) (A) (A) (A) (A)
                 (A) (A) (A) (A) (A) (A) (A) (A) (A) (A) (A) (A)
                 (A) (A) (A) (A) (A) (A) (A) (A) (A) (A) (A) (A)
                 (A) (A) (A) (A) (A) (A) (A) (A) (A) (A) (A) (A)
                 (A) (A) (A) (A) (A) (A) (A) (A) (A) (A) (A) (A)
                 (A) (A) (A) (A) (A) (A) (A) (A) (A) (A) (A) (A)
                 (A) (A) (A) (A) (A) (A) (A) (A) (A) (A) (A) (A)
                 (A) (A) (A) (A) (A) (A) (A) (A) (A) (A) (A) (A)
                 (A) (A) (A) (A) (A) (A) (A) (A) (A) (A) (A) (A)
                 (A) (A) (A) (A) (A) (A) (A) (A) (A) (A) (A) (A)
                 (A) (A) (A) (A) (A) (A) (A) (A) (A) (A) (A) (A)
                 (A) (A) (A) (A) (A) (A) (A) (A) (A) (A) (A) (A)
                 (A) (A) (A) (A) (A) (A) (A) (A) (A) (A) (A) (A)
                 (A) (A) (A) (A) (A) (A) (A) (A) (A) (A) (A) (A)
[...]
  2761. BD*(   2) C  18 - C  19          0.33463     0.04305  2759(v),2766(v),759(g)
                                                    732(g)
  2762. BD*(   1) C  18 - H  48          0.01711     0.43302   
  2763. BD*(   1) C  19 - C  20          0.01317     0.55641   
  2764. BD*(   1) C  19 - H  49          0.01409     0.41358   
  2765. BD*(   1) C  20 - C  21          0.03176     0.53380   
  2766. BD*(   2) C  20 - C  21          0.37193     0.03646  2761(v),2759(v),784(g)
                                                    2726(v),2774(r)
  2767. BD*(   1) C  20 - H  50          0.01449     0.40732   
  2768. BD*(   1) C  21 - C  22          0.04140     0.51869   
  2769. BD*(   1) C  22 - C  23          0.03077     0.44648   
  2770. BD*(   1) C  23 - C  24          0.04389     0.52218   
  2771. BD*(   1) C  23 - C  28          0.03171     0.53392   
  2772. BD*(   2) C  23 - C  28          0.40534     0.04577  2778(v),2759(v),2774(v)
                                                    2745(r),2798(r),2724(v)
                                                    2768(v),993(g),2758(v)
                                                    2784(r),966(v),2747(r)
                                                    862(g),863(g)
  2773. BD*(   1) C  24 - C  25          0.03217     0.53558   
  2774. BD*(   2) C  24 - C  25          0.36896     0.03845  2778(v),2772(v),2728(v)
                                                    914(g),2766(r)
  2775. BD*(   1) C  25 - C  26          0.01340     0.55889   
  2776. BD*(   1) C  25 - H  51          0.01354     0.40875   
  2777. BD*(   1) C  26 - C  27          0.01634     0.56111   
  2778. BD*(   2) C  26 - C  27          0.33461     0.04435  2772(v),2774(v),941(g)
                                                    966(g),2786(r)
  2779. BD*(   1) C  26 - H  52          0.01411     0.41490   
  2780. BD*(   1) C  27 - C  28          0.02227     0.54446   
  2781. BD*(   1) C  27 - H  53          0.01705     0.43562   
  2782. BD*(   1) C  29 - C  30          0.02263     0.55041   
  2783. BD*(   1) C  29 - C  34          0.03046     0.56687   
  2784. BD*(   2) C  29 - C  34          0.34826     0.04480  2791(v),2786(v),1148(g)
                                                    2722(v),2772(r),1020(g)
  2785. BD*(   1) C  30 - C  31          0.02567     0.56660   
  2786. BD*(   2) C  30 - C  31          0.32119     0.05253  2791(v),2784(v),1044(g)
                                                    2870(v),2871(v)
  2787. BD*(   1) C  30 - H  54          0.01872     0.42933   
  2788. BD*(   1) C  31 - C  32          0.02281     0.54815   
  2789. BD*(   1) C  31 - C 119          0.03973     0.38455   
  2790. BD*(   1) C  32 - C  33          0.02314     0.56618   
  2791. BD*(   2) C  32 - C  33          0.32315     0.05246  2786(v),2784(v),1096(g)
                                                    2878(v),2883(v),1123(g)
  2792. BD*(   1) C  32 - H  55          0.01812     0.42222   
  2793. BD*(   1) C  33 - C  34          0.02584     0.55057   
  2794. BD*(   1) C  33 - C 132          0.04010     0.38351   
  2795. BD*(   1) C  34 - H  56          0.02042     0.43589   
  2796. BD*(   1) C  35 - C  36          0.03289     0.55130   
  2797. BD*(   1) C  35 - C  40          0.02391     0.55708   
  2798. BD*(   2) C  35 - C  40          0.36565     0.04674  2805(v),2800(v),2759(r)
                                                    2772(r),1304(g),2723(v)
                                                    2722(v)
  2799. BD*(   1) C  36 - C  37          0.02732     0.56019   
  2800. BD*(   2) C  36 - C  37          0.32830     0.05710  2805(v),2798(v),1200(g)
                                                    2890(v),2894(v),1227(g)
                                                    2759(r)
  2801. BD*(   1) C  36 - H  57          0.01767     0.43938   
  2802. BD*(   1) C  37 - C  38          0.02303     0.55291   
  2803. BD*(   1) C  37 - C 145          0.04030     0.38689   
  2804. BD*(   1) C  38 - C  39          0.02263     0.55484   
  2805. BD*(   2) C  38 - C  39          0.33645     0.05198  2798(v),2800(v),1252(g)
                                                    2902(v),2907(v),1279(g)
  2806. BD*(   1) C  38 - H  58          0.01835     0.41844   
  2807. BD*(   1) C  39 - C  40          0.02618     0.56131   
  2808. BD*(   1) C  39 - C 158          0.03965     0.38708   
  2809. BD*(   1) C  40 - H  59          0.01833     0.42976   
  2810. BD*(   1) C  41 - H  60          0.02277     0.34007   
  2811. BD*(   1) C  41 - C  61          0.02482     0.33826   
  2812. BD*(   1) C  41 - H 171          0.02201     0.34338   
  2813. BD*(   1) C  61 - C  62          0.02768     0.33830   
  2814. BD*(   1) C  61 - H  64          0.01580     0.35176   
  2815. BD*(   1) C  61 - H  65          0.00923     0.34228   
  2816. BD*(   1) C  62 - H  63          0.02733     0.33702   
  2817. BD*(   1) C  62 - H 170          0.01892     0.34377   
  2818. BD*(   1) C  66 - C  67          0.02461     0.33385   
  2819. BD*(   1) C  66 - H  70          0.00652     0.38619   
  2820. BD*(   1) C  66 - H  71          0.00786     0.38039   
  2821. BD*(   1) C  66 - H  72          0.00683     0.38526   
  2822. BD*(   1) C  67 - C  68          0.02463     0.33484   
  2823. BD*(   1) C  67 - C  69          0.02049     0.34402   
  2824. BD*(   1) C  68 - H  73          0.00671     0.38301   
  2825. BD*(   1) C  68 - H  74          0.00681     0.38447   
  2826. BD*(   1) C  68 - H  75          0.00778     0.37971   
  2827. BD*(   1) C  69 - H  76          0.00766     0.38864   
  2828. BD*(   1) C  69 - H  77          0.00715     0.38615   
  2829. BD*(   1) C  69 - H  78          0.00715     0.38473   
  2830. BD*(   1) C  79 - C  80          0.02087     0.34394   
  2831. BD*(   1) C  79 - H  83          0.00734     0.38182   
  2832. BD*(   1) C  79 - H  84          0.00713     0.38512   
  2833. BD*(   1) C  79 - H  85          0.00743     0.38108   
  2834. BD*(   1) C  80 - C  81          0.02408     0.33518   
  2835. BD*(   1) C  80 - C  82          0.02444     0.33413   
  2836. BD*(   1) C  81 - H  86          0.00671     0.39068   
  2837. BD*(   1) C  81 - H  87          0.00661     0.38731   
  2838. BD*(   1) C  81 - H  88          0.00761     0.38111   
  2839. BD*(   1) C  82 - H  89          0.00721     0.38907   
  2840. BD*(   1) C  82 - H  90          0.00789     0.38054   
  2841. BD*(   1) C  82 - H  91          0.00671     0.38549   
  2842. BD*(   1) C  92 - C  93          0.02440     0.33709   
  2843. BD*(   1) C  92 - H  96          0.00680     0.38543   
  2844. BD*(   1) C  92 - H  97          0.00787     0.38135   
  2845. BD*(   1) C  92 - H  98          0.00695     0.38704   
  2846. BD*(   1) C  93 - C  94          0.02507     0.33595   
  2847. BD*(   1) C  93 - C  95          0.02056     0.34654   
  2848. BD*(   1) C  94 - H  99          0.00734     0.39298   
  2849. BD*(   1) C  94 - H 100          0.00702     0.38671   
  2850. BD*(   1) C  94 - H 101          0.00804     0.38084   
  2851. BD*(   1) C  95 - H 102          0.00790     0.39791   
  2852. BD*(   1) C  95 - H 103          0.00717     0.38767   
  2853. BD*(   1) C  95 - H 104          0.00795     0.38693   
  2854. BD*(   1) C 105 - C 106          0.02089     0.34554   
  2855. BD*(   1) C 105 - H 109          0.00732     0.38167   
  2856. BD*(   1) C 105 - H 110          0.00710     0.38623   
  2857. BD*(   1) C 105 - H 111          0.00738     0.38233   
  2858. BD*(   1) C 106 - C 107          0.02426     0.33637   
  2859. BD*(   1) C 106 - C 108          0.02458     0.33600   
  2860. BD*(   1) C 107 - H 112          0.00666     0.39018   
  2861. BD*(   1) C 107 - H 113          0.00667     0.38695   
  2862. BD*(   1) C 107 - H 114          0.00772     0.38214   
  2863. BD*(   1) C 108 - H 115          0.00716     0.39285   
  2864. BD*(   1) C 108 - H 116          0.00709     0.39223   
  2865. BD*(   1) C 108 - H 117          0.00802     0.38304   
  2866. BD*(   1) C 118 - C 119          0.02052     0.34334   
  2867. BD*(   1) C 118 - H 122          0.00784     0.38779   
  2868. BD*(   1) C 118 - H 123          0.00715     0.38601   
  2869. BD*(   1) C 118 - H 124          0.00714     0.38448   
  2870. BD*(   1) C 119 - C 120          0.02448     0.33391   
  2871. BD*(   1) C 119 - C 121          0.02470     0.33454   
  2872. BD*(   1) C 120 - H 125          0.00686     0.38525   
  2873. BD*(   1) C 120 - H 126          0.00654     0.38601   
  2874. BD*(   1) C 120 - H 127          0.00781     0.38032   
  2875. BD*(   1) C 121 - H 128          0.00677     0.38434   
  2876. BD*(   1) C 121 - H 129          0.00782     0.37960   
  2877. BD*(   1) C 121 - H 130          0.00667     0.38359   
  2878. BD*(   1) C 131 - C 132          0.02445     0.33391   
  2879. BD*(   1) C 131 - H 135          0.00726     0.38884   
  2880. BD*(   1) C 131 - H 136          0.00790     0.38030   
  2881. BD*(   1) C 131 - H 137          0.00671     0.38533   
  2882. BD*(   1) C 132 - C 133          0.02086     0.34369   
  2883. BD*(   1) C 132 - C 134          0.02408     0.33495   
  2884. BD*(   1) C 133 - H 138          0.00733     0.38168   
  2885. BD*(   1) C 133 - H 139          0.00743     0.38091   
  2886. BD*(   1) C 133 - H 140          0.00713     0.38493   
  2887. BD*(   1) C 134 - H 141          0.00661     0.38707   
  2888. BD*(   1) C 134 - H 142          0.00760     0.38087   
  2889. BD*(   1) C 134 - H 143          0.00673     0.39013   
  2890. BD*(   1) C 144 - C 145          0.02452     0.33555   
  2891. BD*(   1) C 144 - H 148          0.00677     0.38450   
  2892. BD*(   1) C 144 - H 149          0.00793     0.38018   
  2893. BD*(   1) C 144 - H 150          0.00687     0.38530   
  2894. BD*(   1) C 145 - C 146          0.02483     0.33458   
  2895. BD*(   1) C 145 - C 147          0.02052     0.34541   
  2896. BD*(   1) C 146 - H 151          0.00726     0.39013   
  2897. BD*(   1) C 146 - H 152          0.00708     0.38491   
  2898. BD*(   1) C 146 - H 153          0.00800     0.37974   
  2899. BD*(   1) C 147 - H 154          0.00765     0.39584   
  2900. BD*(   1) C 147 - H 155          0.00715     0.38666   
  2901. BD*(   1) C 147 - H 156          0.00796     0.38627   
  2902. BD*(   1) C 157 - C 158          0.02481     0.33645   
  2903. BD*(   1) C 157 - H 161          0.00669     0.38490   
  2904. BD*(   1) C 157 - H 162          0.00792     0.38083   
  2905. BD*(   1) C 157 - H 163          0.00662     0.38669   
  2906. BD*(   1) C 158 - C 159          0.02103     0.34549   
  2907. BD*(   1) C 158 - C 160          0.02413     0.33582   
  2908. BD*(   1) C 159 - H 164          0.00733     0.38792   
  2909. BD*(   1) C 159 - H 165          0.00731     0.38697   
  2910. BD*(   1) C 159 - H 166          0.00721     0.38755   
  2911. BD*(   1) C 160 - H 167          0.00729     0.39161   
  2912. BD*(   1) C 160 - H 168          0.00778     0.38179   
  2913. BD*(   1) C 160 - H 169          0.00697     0.38537   
       -------------------------------
              Total Lewis  557.61781  ( 98.1721%)
        Valence non-Lewis    9.42846  (  1.6599%)
        Rydberg non-Lewis    0.95372  (  0.1679%)
       -------------------------------
            Total unit  1  568.00000  (100.0000%)
           Charge unit  1    0.00000
 1\1\GINC-NOTCH207\SP\RPBE1PBE\def2TZVP\C71H96O2P2\U1010977\02-Nov-2021
 \0\\# PBE1PBE/def2TZVP int=(grid=ultrafine) empiricaldispersion=GD3BJ 
 pop=nbo guess=read geom=check\\title\\0,1\P,0,-5.0561439301,-0.1268411
 47,2.5328676737\P,0,-2.2717728185,0.0789979749,0.7475083024\O,0,-1.477
 6188988,3.4741115095,3.7821262411\O,0,-4.1383408813,4.3827000336,3.081
 6423434\C,0,-6.1204959204,-1.1058531543,3.6568506265\C,0,-5.7246358253
 ,-2.4196201571,3.9729495735\C,0,-6.4743534027,-3.1899021109,4.86984892
 25\C,0,-7.6245770035,-2.6046450217,5.4472433237\C,0,-8.0418004213,-1.2
 997021625,5.1462370939\C,0,-7.2674733679,-0.5538122698,4.2342239265\C,
 0,-6.095900528,1.1895344333,1.821202771\C,0,-6.5610070495,2.2750928523
 ,2.5892786283\C,0,-7.3849224697,3.2467545806,2.0069080916\C,0,-7.70071
 01604,3.1142921363,0.63490943\C,0,-7.2353350877,2.0507715434,-0.153998
 5146\C,0,-6.4312277408,1.0764907971,0.4682053257\C,0,-3.8989315329,0.7
 155401313,3.7079034398\C,0,-3.7373314007,0.1831206083,5.0025530674\C,0
 ,-2.8233156077,0.7536866091,5.8950849694\C,0,-2.0632780219,1.865879856
 2,5.5186561294\C,0,-2.229443252,2.4070192057,4.2370383671\C,0,-3.13186
 27708,1.8361308641,3.3082193051\C,0,-3.2403802279,2.4762268073,1.96507
 46195\C,0,-3.7108107338,3.8079556546,1.9033201607\C,0,-3.8126994476,4.
 4928207232,0.6850731798\C,0,-3.4281061985,3.8503265336,-0.4953114616\C
 ,0,-2.9510796006,2.5350129962,-0.4603183375\C,0,-2.8508714475,1.839584
 5324,0.7607982675\C,0,-1.4761191127,-0.0565188583,-0.8963174539\C,0,-2
 .2789449354,-0.4456915087,-1.9857643475\C,0,-1.7470377078,-0.491237372
 3,-3.2795285936\C,0,-0.3911744464,-0.1291893765,-3.4522359987\C,0,0.43
 1863272,0.2535027842,-2.3827229683\C,0,-0.1348647096,0.2835909056,-1.0
 918165663\C,0,-0.9549102505,-0.006410663,2.0043227983\C,0,-0.015282120
 7,1.0266468587,2.1657190516\C,0,1.0010382604,0.9111085525,3.1271110817
 \C,0,1.015636156,-0.2450864149,3.9326238629\C,0,0.0631297846,-1.275270
 6312,3.8160598147\C,0,-0.917382927,-1.1473504848,2.8194872592\C,0,-3.4
 932451332,5.5989836741,3.5155935291\H,0,-4.8488482902,-2.8376324869,3.
 4719354517\H,0,-8.2184841121,-3.2045782607,6.142154082\H,0,-7.57668339
 84,0.4577677173,3.9591804294\H,0,-6.2453966312,2.3656206855,3.63118901
 77\H,0,-8.3298574837,3.8795137257,0.1715293241\H,0,-6.0532736617,0.213
 0564052,-0.0901759582\H,0,-4.333976795,-0.6779282877,5.3130362117\H,0,
 -2.7012886525,0.3257540112,6.8954477387\H,0,-1.3329007989,2.298910169,
 6.2080488343\H,0,-4.2123724237,5.5115124806,0.6715329869\H,0,-3.507948
 6913,4.3734926581,-1.4537114226\H,0,-2.651180238,2.0444137073,-1.38910
 03433\H,0,-3.3106431814,-0.7483206549,-1.793475148\H,0,0.0316266284,-0
 .1671482663,-4.4598611058\H,0,0.4828355506,0.5580570269,-0.2329450345\
 H,0,-0.1052992759,1.9306766169,1.5589630494\H,0,1.7971563435,-0.339994
 1904,4.6948223043\H,0,-1.6748928743,-1.9193925418,2.6582183287\H,0,-2.
 8173371561,5.9725100181,2.7241198099\C,0,-2.7387135012,5.3351593715,4.
 8224700695\C,0,-1.392161442,4.6322128078,4.6315945794\H,0,-0.944357205
 8,4.3773762659,5.6116376381\H,0,-3.39422764,4.7348867287,5.478830245\H
 ,0,-2.5530173424,6.2942295178,5.3420609568\C,0,-7.2725084812,-5.562284
 1542,4.7469361185\C,0,-6.1069983976,-4.647353259,5.1941516724\C,0,-5.8
 823107414,-4.7953024367,6.7170543847\C,0,-4.8295187518,-5.1013334631,4
 .461354533\H,0,-7.4444271997,-5.4668468445,3.6615031403\H,0,-7.0344219
 075,-6.6176913781,4.9702035955\H,0,-8.2134623483,-5.3104997086,5.26549
 78908\H,0,-5.0445807994,-4.1597078264,7.0539791108\H,0,-6.7779962867,-
 4.5106294312,7.2954751464\H,0,-5.6396267247,-5.843758261,6.9661265394\
 H,0,-3.9506467242,-4.5036679537,4.7613067079\H,0,-4.615880946,-6.15460
 46333,4.7124166819\H,0,-4.9378135413,-5.0304379995,3.3653300864\C,0,-1
 0.0514444018,-1.6127401134,6.6978531477\C,0,-9.2961885862,-0.652768396
 2,5.7598840798\C,0,-10.2564914624,-0.219835038,4.6259691091\C,0,-8.871
 5560043,0.5936770604,6.5735143652\H,0,-10.3946512211,-2.5162588138,6.1
 64706769\H,0,-10.942087218,-1.1067282381,7.1083026098\H,0,-9.424957103
 7,-1.9298088728,7.5498486403\H,0,-9.7858938007,0.5097398611,3.94483755
 \H,0,-10.5689644441,-1.0887779528,4.0222678152\H,0,-11.1609088946,0.25
 04826763,5.0521021322\H,0,-8.3498969389,1.3326150537,5.9406815675\H,0,
 -9.7579923977,1.0878811051,7.0101808472\H,0,-8.1908140783,0.3145581474
 ,7.3963554258\C,0,-9.4798533474,4.4193603893,2.7530060021\C,0,-7.93412
 37693,4.4410211803,2.8062811644\C,0,-7.4067919394,5.7539109909,2.18014
 95514\C,0,-7.4978512693,4.403381526,4.2837273393\H,0,-9.8734635681,3.4
 905467171,3.2019964771\H,0,-9.8944609028,5.276264574,3.3136855001\H,0,
 -9.8562056794,4.4790402895,1.7179268538\H,0,-6.3049100281,5.7788064171
 ,2.2274517612\H,0,-7.7061120478,5.8528722424,1.1230245792\H,0,-7.80295
 69189,6.6278965212,2.727842286\H,0,-6.3991489725,4.4270962615,4.378567
 8733\H,0,-7.9084233777,5.2803657313,4.8133836192\H,0,-7.8731553202,3.5
 000576824,4.7971500272\C,0,-8.4458551058,3.0420762802,-2.1759498689\C,
 0,-7.5482719635,1.9060883744,-1.6521336307\C,0,-8.2652132431,0.5555867
 841,-1.8922819363\C,0,-6.2163138763,1.9291713856,-2.441197864\H,0,-7.9
 67144702,4.0304832274,-2.0586383962\H,0,-8.6435987936,2.8921311227,-3.
 2510578057\H,0,-9.4203353049,3.0641208582,-1.6572350978\H,0,-7.6601461
 034,-0.3005438228,-1.5495371154\H,0,-9.2282520663,0.5226265079,-1.3541
 375913\H,0,-8.4670481901,0.4200627153,-2.9698446119\H,0,-5.5410103259,
 1.1180724893,-2.1204045133\H,0,-5.6853589501,2.8848952791,-2.289631788
 5\H,0,-6.4099566108,1.8032062585,-3.5216712173\C,0,-4.0160922091,-1.34
 76425864,-4.0828775897\C,0,-2.5808893996,-0.9554627187,-4.4851807317\C
 ,0,-1.9008610631,-2.1947360577,-5.1151781635\C,0,-2.652901314,0.186228
 9407,-5.5260686379\H,0,-4.5745830118,-0.4899786408,-3.6680527427\H,0,-
 4.5645504547,-1.699512341,-4.9736179741\H,0,-4.0253275131,-2.160389209
 1,-3.3362576723\H,0,-0.8767864958,-1.9712649193,-5.4599728252\H,0,-1.8
 429434405,-3.0183029231,-4.3836212798\H,0,-2.4821876252,-2.5444610256,
 -5.9869939725\H,0,-1.6499912815,0.492715364,-5.8699821608\H,0,-3.22846
 87557,-0.1397144374,-6.4108268081\H,0,-3.1519947626,1.0742864616,-5.09
 9723468\C,0,2.1017344175,2.1095845663,-2.1052115244\C,0,1.9114700546,0
 .6407004219,-2.5546952789\C,0,2.3851272834,0.5128814231,-4.0145310044\
 C,0,2.7883032609,-0.2811194264,-1.6734208779\H,0,1.8049806441,2.252867
 5202,-1.0516142311\H,0,3.1614092819,2.4069761445,-2.2018030468\H,0,1.4
 929948067,2.7929114758,-2.7223340039\H,0,2.2871310767,-0.5223582618,-4
 .3847205772\H,0,1.8173182908,1.1775487753,-4.6888464025\H,0,3.44951144
 3,0.7954042585,-4.085621906\H,0,2.6654387258,-1.3377387801,-1.96597808
 41\H,0,3.854156935,-0.0117511411,-1.7836141322\H,0,2.5278964438,-0.196
 9542749,-0.6043909988\C,0,3.4624794082,1.3989331936,3.0349224151\C,0,2
 .0679280246,2.0012466381,3.3270253944\C,0,2.013195051,2.5050887281,4.7
 886404269\C,0,1.8502076332,3.2075920206,2.3934525384\H,0,3.5230492714,
 1.041482494,1.9919723539\H,0,4.2492321003,2.1598867715,3.1852981734\H,
 0,3.6851284986,0.54498136,3.6968666508\H,0,1.018616956,2.9284151149,5.
 0088130636\H,0,2.2047022553,1.6938088504,5.510840832\H,0,2.7724632537,
 3.2903591345,4.9537063137\H,0,0.8602931763,3.6669851082,2.5552743527\H
 ,0,2.6223077178,3.9715925188,2.5890124343\H,0,1.9304360646,2.921166750
 1,1.3296249154\C,0,1.4073533598,-3.2809036729,4.5093197539\C,0,0.10535
 99197,-2.4858146752,4.7631300432\C,0,-1.0999317533,-3.423237931,4.5510
 870174\C,0,0.0765947981,-1.9885078252,6.2279366311\H,0,2.3022140147,-2
 .655189677,4.6706901291\H,0,1.4684777102,-4.1451068375,5.1947532181\H,
 0,1.439031861,-3.6588908077,3.4732915803\H,0,-2.0543355053,-2.89386083
 16,4.722082858\H,0,-1.1230224734,-3.8494065356,3.5335483119\H,0,-1.046
 8572395,-4.2629290397,5.2654195234\H,0,-0.8380709062,-1.4016245501,6.4
 202146007\H,0,0.0913243716,-2.8481723974,6.9212031496\H,0,0.9450286438
 ,-1.3509587961,6.4659769349\H,0,-0.6807290036,5.2894490569,4.103413407
 6\H,0,-4.2882996136,6.3485458313,3.6787305709\\Version=ES64L-G16RevB.0
 1\State=1-A\HF=-3594.0786468\RMSD=4.344e-09\Dipole=0.2915844,1.0337278
 ,0.517091\Quadrupole=-6.8552116,3.8283349,3.0268767,2.7339594,2.137822
 2,1.3176408\PG=C01 [X(C71H96O2P2)]\\@


 GOD DOES NOT PLAY WITH DICE.
               -- A. EINSTEIN
 Job cpu time:       0 days  7 hours 48 minutes 57.9 seconds.
 Elapsed time:       0 days  0 hours  9 minutes  5.4 seconds.
 File lengths (MBytes):  RWF=   4318 Int=      0 D2E=      0 Chk=    650 Scr=      1
 Normal termination of Gaussian 16 at Tue Nov  2 13:11:22 2021.
