 Entering Gaussian System, Link 0=/uufs/chpc.utah.edu/sys/installdir/gaussian16/B01/E6B/g16/g16
 Input=S-35tBu-C3-Tunephos_1_SPE.com
 Output=S-35tBu-C3-Tunephos_1_SPE.log
 Initial command:
 /uufs/chpc.utah.edu/sys/installdir/gaussian16/B01/E6B/g16/l1.exe "/scratch/general/lustre/u1010977/3356300/notchpeak.peaks/Gau-234467.inp" -scrdir="/scratch/general/lustre/u1010977/3356300/notchpeak.peaks/"
 Entering Link 1 = /uufs/chpc.utah.edu/sys/installdir/gaussian16/B01/E6B/g16/l1.exe PID=    234469.
  
 Copyright (c) 1988-2017, Gaussian, Inc.  All Rights Reserved.
  
 This is part of the Gaussian(R) 16 program.  It is based on
 the Gaussian(R) 09 system (copyright 2009, Gaussian, Inc.),
 the Gaussian(R) 03 system (copyright 2003, Gaussian, Inc.),
 the Gaussian(R) 98 system (copyright 1998, Gaussian, Inc.),
 the Gaussian(R) 94 system (copyright 1995, Gaussian, Inc.),
 the Gaussian 92(TM) system (copyright 1992, Gaussian, Inc.),
 the Gaussian 90(TM) system (copyright 1990, Gaussian, Inc.),
 the Gaussian 88(TM) system (copyright 1988, Gaussian, Inc.),
 the Gaussian 86(TM) system (copyright 1986, Carnegie Mellon
 University), and the Gaussian 82(TM) system (copyright 1983,
 Carnegie Mellon University). Gaussian is a federally registered
 trademark of Gaussian, Inc.
  
 This software contains proprietary and confidential information,
 including trade secrets, belonging to Gaussian, Inc.
  
 This software is provided under written license and may be
 used, copied, transmitted, or stored only in accord with that
 written license.
  
 The following legend is applicable only to US Government
 contracts under FAR:
  
                    RESTRICTED RIGHTS LEGEND
  
 Use, reproduction and disclosure by the US Government is
 subject to restrictions as set forth in subparagraphs (a)
 and (c) of the Commercial Computer Software - Restricted
 Rights clause in FAR 52.227-19.
  
 Gaussian, Inc.
 340 Quinnipiac St., Bldg. 40, Wallingford CT 06492
  
  
 ---------------------------------------------------------------
 Warning -- This program may not be used in any manner that
 competes with the business of Gaussian, Inc. or will provide
 assistance to any competitor of Gaussian, Inc.  The licensee
 of this program is prohibited from giving any competitor of
 Gaussian, Inc. access to this program.  By using this program,
 the user acknowledges that Gaussian, Inc. is engaged in the
 business of creating and licensing software in the field of
 computational chemistry and represents and warrants to the
 licensee that it is not a competitor of Gaussian, Inc. and that
 it will not use this program in any manner prohibited above.
 ---------------------------------------------------------------
  

 Cite this work as:
 Gaussian 16, Revision B.01,
 M. J. Frisch, G. W. Trucks, H. B. Schlegel, G. E. Scuseria, 
 M. A. Robb, J. R. Cheeseman, G. Scalmani, V. Barone, 
 G. A. Petersson, H. Nakatsuji, X. Li, M. Caricato, A. V. Marenich, 
 J. Bloino, B. G. Janesko, R. Gomperts, B. Mennucci, H. P. Hratchian, 
 J. V. Ortiz, A. F. Izmaylov, J. L. Sonnenberg, D. Williams-Young, 
 F. Ding, F. Lipparini, F. Egidi, J. Goings, B. Peng, A. Petrone, 
 T. Henderson, D. Ranasinghe, V. G. Zakrzewski, J. Gao, N. Rega, 
 G. Zheng, W. Liang, M. Hada, M. Ehara, K. Toyota, R. Fukuda, 
 J. Hasegawa, M. Ishida, T. Nakajima, Y. Honda, O. Kitao, H. Nakai, 
 T. Vreven, K. Throssell, J. A. Montgomery, Jr., J. E. Peralta, 
 F. Ogliaro, M. J. Bearpark, J. J. Heyd, E. N. Brothers, K. N. Kudin, 
 V. N. Staroverov, T. A. Keith, R. Kobayashi, J. Normand, 
 K. Raghavachari, A. P. Rendell, J. C. Burant, S. S. Iyengar, 
 J. Tomasi, M. Cossi, J. M. Millam, M. Klene, C. Adamo, R. Cammi, 
 J. W. Ochterski, R. L. Martin, K. Morokuma, O. Farkas, 
 J. B. Foresman, and D. J. Fox, Gaussian, Inc., Wallingford CT, 2016.
 
 ******************************************
 Gaussian 16:  ES64L-G16RevB.01 20-Dec-2017
                 2-Nov-2021 
 ******************************************
 %NProcShared=32
 Will use up to   32 processors via shared memory.
 %mem=18GB
 %chk=S-35tBu-C3-Tunephos_1_SPE.chk
 ----------------------------------------------------------------------
 # PBE1PBE gen pseudo=read int=(grid=ultrafine) empiricaldispersion=GD3
 BJ nmr=giao
 ----------------------------------------------------------------------
 1/38=1,172=1/1;
 2/12=2,17=6,18=5,40=1/2;
 3/5=7,11=2,16=1,17=8,25=1,30=1,74=-13,75=-5,124=41/1,2,3,8;
 4//1;
 5/5=2,38=5/2;
 8/6=1,10=90,11=11/1;
 10/13=100,45=16/2;
 6/7=2,8=2,9=2,10=2,28=1/1;
 99/9=1/99;
 -----
 title
 -----
 Symbolic Z-matrix:
 Charge =  0 Multiplicity = 1
 Pd                   -4.16896  -1.26785   0.85319 
 P                    -5.13326   0.06411   2.44995 
 P                    -2.34708   0.08377   0.63968 
 O                    -1.46131   3.60816   3.52529 
 O                    -4.09945   4.51652   2.79642 
 C                    -6.08956  -0.98866   3.60325 
 C                    -5.62356  -2.30268   3.80292 
 C                    -6.24601  -3.14682   4.72893 
 C                    -7.338    -2.6306    5.46306 
 C                    -7.82726  -1.32845   5.27897 
 C                    -7.18323  -0.50803   4.32859 
 C                    -6.20222   1.40186   1.81813 
 C                    -6.71531   2.41671   2.64003 
 C                    -7.57544   3.39731   2.10437 
 C                    -7.8291    3.36137   0.7229 
 C                    -7.28111   2.38147  -0.13325 
 C                    -6.48766   1.38173   0.44133 
 C                    -3.94621   0.90892   3.59269 
 C                    -3.81489   0.45471   4.91964 
 C                    -2.90451   1.0646    5.78993 
 C                    -2.11582   2.13493   5.35698 
 C                    -2.24574   2.59241   4.03874 
 C                    -3.14914   1.98502   3.13601 
 C                    -3.24511   2.55429   1.7604 
 C                    -3.70188   3.88752   1.63998 
 C                    -3.80484   4.51694   0.39218 
 C                    -3.42606   3.81844  -0.7588 
 C                    -2.95752   2.50282  -0.66536 
 C                    -2.86314   1.86105   0.58609 
 C                    -1.46284  -0.13319  -0.95047 
 C                    -2.21386  -0.47324  -2.08711 
 C                    -1.60153  -0.57619  -3.34689 
 C                    -0.21532  -0.33571  -3.42962 
 C                     0.56231  -0.0078   -2.30385 
 C                    -0.08433   0.09224  -1.05857 
 C                    -1.1006   -0.06263   1.96091 
 C                    -1.15261  -1.20711   2.76343 
 C                    -0.20374  -1.41076   3.78426 
 C                     0.79593  -0.43921   3.94766 
 C                     0.87095   0.7269    3.15127 
 C                    -0.10213   0.91106   2.16061 
 C                    -3.44649   5.75021   3.15673 
 H                    -4.79602  -2.66322   3.18686 
 H                    -7.82913  -3.28297   6.18994 
 H                    -7.55165   0.50439   4.14279 
 H                    -6.43344   2.45115   3.69752 
 H                    -8.47748   4.12538   0.28585 
 H                    -6.06941   0.56776  -0.15628 
 H                    -4.42927  -0.37608   5.27304 
 H                    -2.80657   0.69764   6.81681 
 H                    -1.3921    2.5999    6.03245 
 H                    -4.19637   5.53718   0.33375 
 H                    -3.50026   4.29967  -1.73944 
 H                    -2.65703   1.97038  -1.57103 
 H                    -3.27941  -0.69184  -1.96967 
 H                     0.27396  -0.41972  -4.40133 
 H                     0.49451   0.3299   -0.16268 
 H                    -1.94991  -1.93523   2.57679 
 H                     1.54774  -0.58201   4.7289 
 H                    -0.11441   1.81934   1.55349 
 H                    -2.77709   6.07889   2.34001 
 Cl                   -6.28829  -2.34034   0.57595 
 Cl                   -3.02849  -3.04015  -0.25827 
 C                    -2.67813   5.55072   4.46747 
 C                    -1.34633   4.81313   4.30328 
 H                    -0.89018   4.60858   5.29142 
 H                    -3.33543   5.0028    5.16633 
 H                    -2.46903   6.53553   4.92648 
 C                    -6.99602  -5.54262   4.66792 
 C                    -5.79532  -4.60291   4.9328 
 C                    -5.30407  -4.78174   6.38862 
 C                    -4.6571   -5.00052   3.97189 
 H                    -7.35949  -5.42457   3.63315 
 H                    -6.69167  -6.59477   4.81095 
 H                    -7.83817  -5.34006   5.35139 
 H                    -4.43463  -4.13154   6.59138 
 H                    -6.09239  -4.53281   7.12007 
 H                    -4.99852  -5.82895   6.563 
 H                    -3.74019  -4.41307   4.15274 
 H                    -4.40149  -6.06313   4.12567 
 H                    -4.9463   -4.87045   2.91484 
 C                    -8.5434    0.44415   6.90678 
 C                    -9.02272  -0.76461   6.06742 
 C                    -9.63975  -1.80407   7.02194 
 C                    -10.11814  -0.3021    5.07714 
 H                    -8.11263   1.23525   6.26953 
 H                    -9.38865   0.88356   7.46631 
 H                    -7.77022   0.13729   7.63248 
 H                    -10.01206  -2.68792   6.47558 
 H                    -8.9144   -2.14545   7.78105 
 H                    -10.49465  -1.35484   7.55591 
 H                    -10.47395  -1.14709   4.46351 
 H                    -10.97986   0.11344   5.62979 
 H                    -9.74969   0.47922   4.3914 
 C                    -9.1903    5.37442   2.29151 
 C                    -8.21216   4.44581   3.03623 
 C                    -7.10716   5.31738   3.67635 
 C                    -8.99695   3.71555   4.15271 
 H                    -10.01468   4.80921   1.82321 
 H                    -9.63578   6.08971   3.00402 
 H                    -8.68124   5.96009   1.50623 
 H                    -6.37243   4.70707   4.226 
 H                    -6.55636   5.8748    2.89972 
 H                    -7.55505   6.04291   4.37923 
 H                    -8.3366    3.08134   4.76829 
 H                    -9.47823   4.44775   4.82551 
 H                    -9.78379   3.06985   3.72575 
 C                    -6.77405   1.3444   -2.40762 
 C                    -7.5668    2.42355  -1.64316 
 C                    -7.16022   3.80811  -2.20114 
 C                    -9.07802   2.19221  -1.87768 
 H                    -7.04858   0.32421  -2.08859 
 H                    -6.98319   1.42664  -3.48828 
 H                    -5.68603   1.4696   -2.26373 
 H                    -7.72943   4.62759  -1.73 
 H                    -6.08668   3.99621  -2.02757 
 H                    -7.35006   3.84975  -3.28842 
 H                    -9.68925   2.9559   -1.36618 
 H                    -9.30959   2.23835  -2.95692 
 H                    -9.38465   1.20183  -1.50043 
 C                    -1.65492  -0.9602   -5.87449 
 C                    -2.45392  -0.99043  -4.55809 
 C                    -3.65651  -0.02628  -4.69756 
 C                    -2.97185  -2.43065  -4.32247 
 H                    -0.81238  -1.67326  -5.85829 
 H                    -2.3136   -1.24623  -6.71232 
 H                    -1.2544    0.04658  -6.08962 
 H                    -4.30921  -0.05155  -3.80907 
 H                    -3.31597   1.01429  -4.84371 
 H                    -4.27213  -0.31224  -5.56882 
 H                    -3.53957  -2.51649  -3.38091 
 H                    -3.62832  -2.7395   -5.15594 
 H                    -2.12988  -3.1414   -4.26258 
 C                     2.36207   1.70881  -1.94709 
 C                     2.07841   0.2494   -2.37768 
 C                     2.64006   0.04289  -3.79691 
 C                     2.81146  -0.7177   -1.41702 
 H                     2.00525   1.90433  -0.92094 
 H                     3.44746   1.91374  -1.97334 
 H                     1.85857   2.42383  -2.62054 
 H                     2.47686  -0.98905  -4.15297 
 H                     2.1827    0.73667  -4.52372 
 H                     3.7277    0.22986  -3.79624 
 H                     2.61848  -1.76819  -1.69348 
 H                     3.90151  -0.54219  -1.45909 
 H                     2.48819  -0.58166  -0.37072 
 C                    -0.34151  -3.92691   3.78793 
 C                    -0.32223  -2.65888   4.67471 
 C                    -1.6462   -2.56747   5.47215 
 C                     0.84279  -2.778     5.67461 
 H                     0.59729  -4.01991   3.21527 
 H                    -0.45176  -4.82707   4.41851 
 H                    -1.17429  -3.91792   3.06503 
 H                    -1.648    -1.68172   6.13068 
 H                    -2.5188   -2.48501   4.80257 
 H                    -1.77974  -3.46889   6.09741 
 H                     0.87412  -1.92328   6.37326 
 H                     0.72165  -3.6948    6.27645 
 H                     1.81707  -2.84163   5.15902 
 C                     3.3623    1.05291   3.18878 
 C                     1.99573   1.74771   3.39558 
 C                     1.89382   2.2781    4.84526 
 C                     1.91018   2.95044   2.43625 
 H                     3.45531   0.67375   2.15592 
 H                     4.18631   1.76615   3.36991 
 H                     3.49668   0.19944   3.87449 
 H                     0.9271    2.78754   4.99772 
 H                     1.97059   1.46503   5.58662 
 H                     2.70474   3.00028   5.04853 
 H                     0.94933   3.4818    2.54259 
 H                     2.72437   3.66116   2.66011 
 H                     2.02165   2.64049   1.38195 
 H                    -0.63039   5.42479   3.72861 
 H                    -4.23482   6.51231   3.29232 
 
 Stoichiometry    C71H96Cl2O2P2Pd
 Framework group  C1[X(C71H96Cl2O2P2Pd)]
 Deg. of freedom   516
 Full point group                 C1      NOp   1
 Largest Abelian subgroup         C1      NOp   1
 Largest concise Abelian subgroup C1      NOp   1
                         Standard orientation:                         
 ---------------------------------------------------------------------
 Center     Atomic      Atomic             Coordinates (Angstroms)
 Number     Number       Type             X           Y           Z
 ---------------------------------------------------------------------
      1         46           0        0.064625    0.014263   -1.930589
      2         15           0       -1.629904    0.021354   -0.387167
      3         15           0        1.691989    0.074374   -0.336913
      4          8           0        0.823883   -0.493078    4.186036
      5          8           0       -1.015916    1.699522    3.834153
      6          6           0       -3.041361   -0.938324   -1.050296
      7          6           0       -2.736918   -1.995464   -1.929759
      8          6           0       -3.747905   -2.830655   -2.417473
      9          6           0       -5.071242   -2.587814   -1.984229
     10          6           0       -5.403485   -1.537744   -1.114858
     11          6           0       -4.360803   -0.707556   -0.651496
     12          6           0       -2.208529    1.670638    0.138663
     13          6           0       -3.099903    1.858523    1.205828
     14          6           0       -3.549279    3.153663    1.535978
     15          6           0       -3.015766    4.235174    0.815022
     16          6           0       -2.077056    4.074851   -0.227394
     17          6           0       -1.704518    2.771564   -0.576448
     18          6           0       -1.261598   -0.874484    1.190961
     19          6           0       -1.861035   -2.125205    1.437364
     20          6           0       -1.574685   -2.828284    2.612887
     21          6           0       -0.693703   -2.298560    3.560691
     22          6           0       -0.097843   -1.052932    3.321344
     23          6           0       -0.360839   -0.328471    2.135610
     24          6           0        0.292861    1.002907    1.975280
     25          6           0       -0.046933    2.009588    2.908960
     26          6           0        0.530895    3.285083    2.854103
     27          6           0        1.482198    3.562394    1.867051
     28          6           0        1.846195    2.579145    0.939763
     29          6           0        1.259362    1.298272    0.983254
     30          6           0        3.298398    0.696971   -0.960874
     31          6           0        3.285866    1.663623   -1.979226
     32          6           0        4.483272    2.233465   -2.441943
     33          6           0        5.690537    1.799333   -1.858618
     34          6           0        5.731520    0.821990   -0.847330
     35          6           0        4.513136    0.276346   -0.403837
     36          6           0        2.029129   -1.507674    0.502283
     37          6           0        1.569427   -2.671934   -0.122009
     38          6           0        1.819364   -3.936505    0.445724
     39          6           0        2.557176   -3.980551    1.638890
     40          6           0        3.032597   -2.819384    2.291080
     41          6           0        2.746293   -1.575961    1.713032
     42          6           0       -0.680234    1.811151    5.231659
     43          1           0       -1.702272   -2.120371   -2.258769
     44          1           0       -5.867111   -3.236777   -2.359178
     45          1           0       -4.585994    0.133982    0.009071
     46          1           0       -3.434622    0.994997    1.789956
     47          1           0       -3.336921    5.248558    1.070036
     48          1           0       -1.017208    2.573841   -1.402966
     49          1           0       -2.556072   -2.547778    0.708721
     50          1           0       -2.041422   -3.802820    2.789415
     51          1           0       -0.456911   -2.856450    4.471152
     52          1           0        0.217330    4.050198    3.570946
     53          1           0        1.942167    4.554568    1.814628
     54          1           0        2.596527    2.805479    0.178322
     55          1           0        2.329295    1.940751   -2.432141
     56          1           0        6.628482    2.228788   -2.214305
     57          1           0        4.512452   -0.495979    0.369255
     58          1           0        1.010682   -2.571490   -1.059239
     59          1           0        2.769828   -4.952825    2.092107
     60          1           0        3.049972   -0.649208    2.205595
     61          1           0        0.319160    2.270525    5.347257
     62         17           0       -1.552150    0.588102   -3.596542
     63         17           0        1.651964   -0.654965   -3.576660
     64          6           0       -0.738864    0.422743    5.877491
     65          6           0        0.481715   -0.453738    5.583107
     66          1           0        0.334783   -1.474234    5.987244
     67          1           0       -1.661014   -0.075535    5.528172
     68          1           0       -0.826106    0.529548    6.975322
     69          6           0       -4.309040   -3.736296   -4.691468
     70          6           0       -3.456429   -3.960170   -3.419527
     71          6           0       -3.826910   -5.316732   -2.775173
     72          6           0       -1.973512   -3.998088   -3.839640
     73          1           0       -4.057609   -2.770513   -5.161409
     74          1           0       -4.114039   -4.539837   -5.423855
     75          1           0       -5.389964   -3.737777   -4.470157
     76          1           0       -3.214972   -5.502909   -1.874794
     77          1           0       -4.889176   -5.351775   -2.477208
     78          1           0       -3.647909   -6.140562   -3.489096
     79          1           0       -1.308831   -4.223604   -2.987652
     80          1           0       -1.825155   -4.793047   -4.590743
     81          1           0       -1.647726   -3.043281   -4.286998
     82          6           0       -6.912793   -1.427726    0.888799
     83          6           0       -6.843952   -1.261704   -0.648426
     84          6           0       -7.862771   -2.224533   -1.286606
     85          6           0       -7.237676    0.185768   -1.028322
     86          1           0       -6.218262   -0.741246    1.402468
     87          1           0       -7.933015   -1.212158    1.253872
     88          1           0       -6.649628   -2.457985    1.185350
     89          1           0       -7.867204   -2.141465   -2.387239
     90          1           0       -7.657368   -3.275706   -1.018716
     91          1           0       -8.877456   -1.981095   -0.927523
     92          1           0       -7.192488    0.330345   -2.121120
     93          1           0       -8.267672    0.400843   -0.691392
     94          1           0       -6.569241    0.929628   -0.563213
     95          6           0       -5.039509    4.806126    2.801034
     96          6           0       -4.604598    3.336555    2.643220
     97          6           0       -4.034186    2.850992    3.995720
     98          6           0       -5.856842    2.499294    2.287410
     99          1           0       -5.471382    5.207392    1.867840
    100          1           0       -5.810294    4.881022    3.587189
    101          1           0       -4.195978    5.452953    3.099142
    102          1           0       -3.703588    1.800902    3.946430
    103          1           0       -3.159772    3.457738    4.286417
    104          1           0       -4.801955    2.939347    4.785517
    105          1           0       -5.624067    1.422667    2.224878
    106          1           0       -6.636537    2.627702    3.059402
    107          1           0       -6.278220    2.810973    1.315999
    108          6           0       -0.405673    4.915402   -1.960980
    109          6           0       -1.502305    5.304381   -0.949287
    110          6           0       -0.880098    6.263625    0.093002
    111          6           0       -2.643491    6.026183   -1.703609
    112          1           0       -0.793295    4.263145   -2.762388
    113          1           0        0.000956    5.825458   -2.435085
    114          1           0        0.430052    4.391362   -1.463884
    115          1           0       -1.626179    6.622424    0.822483
    116          1           0       -0.073557    5.758642    0.651996
    117          1           0       -0.453028    7.147960   -0.412493
    118          1           0       -3.445865    6.345063   -1.015888
    119          1           0       -2.255947    6.925914   -2.214285
    120          1           0       -3.090032    5.362748   -2.463643
    121          6           0        5.809874    3.857052   -3.905906
    122          6           0        4.426881    3.259073   -3.586543
    123          6           0        3.475578    4.416084   -3.197184
    124          6           0        3.886023    2.550233   -4.852653
    125          1           0        6.520973    3.084506   -4.246648
    126          1           0        5.712758    4.597771   -4.718021
    127          1           0        6.247563    4.371311   -3.031688
    128          1           0        2.446795    4.060801   -3.019875
    129          1           0        3.825016    4.926139   -2.281839
    130          1           0        3.432756    5.161397   -4.011142
    131          1           0        2.900992    2.086373   -4.677270
    132          1           0        3.788762    3.274603   -5.681411
    133          1           0        4.573007    1.747980   -5.172178
    134          6           0        7.026535    0.680526    1.301174
    135          6           0        7.043010    0.332158   -0.206843
    136          6           0        8.285511    0.983079   -0.843084
    137          6           0        7.155638   -1.202312   -0.374873
    138          1           0        6.168912    0.212571    1.815010
    139          1           0        7.950753    0.322008    1.789085
    140          1           0        6.955754    1.771459    1.453361
    141          1           0        8.356481    0.756827   -1.921087
    142          1           0        8.282702    2.080016   -0.718661
    143          1           0        9.197344    0.594680   -0.357678
    144          1           0        7.158828   -1.482012   -1.442094
    145          1           0        8.092767   -1.567407    0.082585
    146          1           0        6.316269   -1.731649    0.107842
    147          6           0        1.740243   -5.227799   -1.716746
    148          6           0        1.257816   -5.189369   -0.246907
    149          6           0       -0.288344   -5.115634   -0.213714
    150          6           0        1.699615   -6.490647    0.447898
    151          1           0        2.840927   -5.290061   -1.767274
    152          1           0        1.320672   -6.111951   -2.228912
    153          1           0        1.430017   -4.332677   -2.281279
    154          1           0       -0.659303   -5.109864    0.825799
    155          1           0       -0.662024   -4.201292   -0.704540
    156          1           0       -0.724627   -5.986204   -0.736318
    157          1           0        1.335333   -6.545074    1.489035
    158          1           0        1.286664   -7.358311   -0.094365
    159          1           0        2.798870   -6.593846    0.458205
    160          6           0        5.103392   -3.789629    3.332676
    161          6           0        3.831194   -2.950953    3.599438
    162          6           0        2.954054   -3.656180    4.660823
    163          6           0        4.258995   -1.581644    4.161733
    164          1           0        5.745524   -3.297026    2.581528
    165          1           0        5.687822   -3.906128    4.262941
    166          1           0        4.859129   -4.797928    2.958045
    167          1           0        2.050485   -3.057669    4.867404
    168          1           0        2.630635   -4.656687    4.327679
    169          1           0        3.515366   -3.777816    5.604530
    170          1           0        3.384938   -0.941060    4.368065
    171          1           0        4.812105   -1.725610    5.105911
    172          1           0        4.927163   -1.044856    3.464993
    173          1           0        1.385123   -0.036294    6.059073
    174          1           0       -1.428489    2.477235    5.697577
 ---------------------------------------------------------------------
 Rotational constants (GHZ):           0.0285905           0.0217479           0.0203580
 General basis read from cards:  (5D, 7F)
 ======================================================================================================
                                       Pseudopotential Parameters
 ======================================================================================================
  Center     Atomic      Valence      Angular      Power
  Number     Number     Electrons     Momentum     of R      Exponent        Coefficient   SO-Coeffient
 ======================================================================================================
    1         46           18
                                      G and up 
                                                     2        1.0000000        0.00000000    0.00000000
                                      S - G
                                                     2       12.4300000      240.22904000    0.00000000
                                                     2        6.1707590       35.17194300    0.00000000
                                      P - G
                                                     2       11.0800000      170.41727600    0.00000000
                                                     2        5.8295540       28.47213300    0.00000000
                                      D - G
                                                     2        9.5100000       69.01384500    0.00000000
                                                     2        4.1397810       11.75086200    0.00000000
                                      F - G
                                                     2       13.2700000      -31.92955400    0.00000000
                                                     2        6.6300000       -5.39821700    0.00000000
    2         15
                                   No pseudopotential on this center.
    3         15
                                   No pseudopotential on this center.
    4          8
                                   No pseudopotential on this center.
    5          8
                                   No pseudopotential on this center.
    6          6
                                   No pseudopotential on this center.
    7          6
                                   No pseudopotential on this center.
    8          6
                                   No pseudopotential on this center.
    9          6
                                   No pseudopotential on this center.
   10          6
                                   No pseudopotential on this center.
   11          6
                                   No pseudopotential on this center.
   12          6
                                   No pseudopotential on this center.
   13          6
                                   No pseudopotential on this center.
   14          6
                                   No pseudopotential on this center.
   15          6
                                   No pseudopotential on this center.
   16          6
                                   No pseudopotential on this center.
   17          6
                                   No pseudopotential on this center.
   18          6
                                   No pseudopotential on this center.
   19          6
                                   No pseudopotential on this center.
   20          6
                                   No pseudopotential on this center.
   21          6
                                   No pseudopotential on this center.
   22          6
                                   No pseudopotential on this center.
   23          6
                                   No pseudopotential on this center.
   24          6
                                   No pseudopotential on this center.
   25          6
                                   No pseudopotential on this center.
   26          6
                                   No pseudopotential on this center.
   27          6
                                   No pseudopotential on this center.
   28          6
                                   No pseudopotential on this center.
   29          6
                                   No pseudopotential on this center.
   30          6
                                   No pseudopotential on this center.
   31          6
                                   No pseudopotential on this center.
   32          6
                                   No pseudopotential on this center.
   33          6
                                   No pseudopotential on this center.
   34          6
                                   No pseudopotential on this center.
   35          6
                                   No pseudopotential on this center.
   36          6
                                   No pseudopotential on this center.
   37          6
                                   No pseudopotential on this center.
   38          6
                                   No pseudopotential on this center.
   39          6
                                   No pseudopotential on this center.
   40          6
                                   No pseudopotential on this center.
   41          6
                                   No pseudopotential on this center.
   42          6
                                   No pseudopotential on this center.
   43          1
                                   No pseudopotential on this center.
   44          1
                                   No pseudopotential on this center.
   45          1
                                   No pseudopotential on this center.
   46          1
                                   No pseudopotential on this center.
   47          1
                                   No pseudopotential on this center.
   48          1
                                   No pseudopotential on this center.
   49          1
                                   No pseudopotential on this center.
   50          1
                                   No pseudopotential on this center.
   51          1
                                   No pseudopotential on this center.
   52          1
                                   No pseudopotential on this center.
   53          1
                                   No pseudopotential on this center.
   54          1
                                   No pseudopotential on this center.
   55          1
                                   No pseudopotential on this center.
   56          1
                                   No pseudopotential on this center.
   57          1
                                   No pseudopotential on this center.
   58          1
                                   No pseudopotential on this center.
   59          1
                                   No pseudopotential on this center.
   60          1
                                   No pseudopotential on this center.
   61          1
                                   No pseudopotential on this center.
   62         17
                                   No pseudopotential on this center.
   63         17
                                   No pseudopotential on this center.
   64          6
                                   No pseudopotential on this center.
   65          6
                                   No pseudopotential on this center.
   66          1
                                   No pseudopotential on this center.
   67          1
                                   No pseudopotential on this center.
   68          1
                                   No pseudopotential on this center.
   69          6
                                   No pseudopotential on this center.
   70          6
                                   No pseudopotential on this center.
   71          6
                                   No pseudopotential on this center.
   72          6
                                   No pseudopotential on this center.
   73          1
                                   No pseudopotential on this center.
   74          1
                                   No pseudopotential on this center.
   75          1
                                   No pseudopotential on this center.
   76          1
                                   No pseudopotential on this center.
   77          1
                                   No pseudopotential on this center.
   78          1
                                   No pseudopotential on this center.
   79          1
                                   No pseudopotential on this center.
   80          1
                                   No pseudopotential on this center.
   81          1
                                   No pseudopotential on this center.
   82          6
                                   No pseudopotential on this center.
   83          6
                                   No pseudopotential on this center.
   84          6
                                   No pseudopotential on this center.
   85          6
                                   No pseudopotential on this center.
   86          1
                                   No pseudopotential on this center.
   87          1
                                   No pseudopotential on this center.
   88          1
                                   No pseudopotential on this center.
   89          1
                                   No pseudopotential on this center.
   90          1
                                   No pseudopotential on this center.
   91          1
                                   No pseudopotential on this center.
   92          1
                                   No pseudopotential on this center.
   93          1
                                   No pseudopotential on this center.
   94          1
                                   No pseudopotential on this center.
   95          6
                                   No pseudopotential on this center.
   96          6
                                   No pseudopotential on this center.
   97          6
                                   No pseudopotential on this center.
   98          6
                                   No pseudopotential on this center.
   99          1
                                   No pseudopotential on this center.
  100          1
                                   No pseudopotential on this center.
  101          1
                                   No pseudopotential on this center.
  102          1
                                   No pseudopotential on this center.
  103          1
                                   No pseudopotential on this center.
  104          1
                                   No pseudopotential on this center.
  105          1
                                   No pseudopotential on this center.
  106          1
                                   No pseudopotential on this center.
  107          1
                                   No pseudopotential on this center.
  108          6
                                   No pseudopotential on this center.
  109          6
                                   No pseudopotential on this center.
  110          6
                                   No pseudopotential on this center.
  111          6
                                   No pseudopotential on this center.
  112          1
                                   No pseudopotential on this center.
  113          1
                                   No pseudopotential on this center.
  114          1
                                   No pseudopotential on this center.
  115          1
                                   No pseudopotential on this center.
  116          1
                                   No pseudopotential on this center.
  117          1
                                   No pseudopotential on this center.
  118          1
                                   No pseudopotential on this center.
  119          1
                                   No pseudopotential on this center.
  120          1
                                   No pseudopotential on this center.
  121          6
                                   No pseudopotential on this center.
  122          6
                                   No pseudopotential on this center.
  123          6
                                   No pseudopotential on this center.
  124          6
                                   No pseudopotential on this center.
  125          1
                                   No pseudopotential on this center.
  126          1
                                   No pseudopotential on this center.
  127          1
                                   No pseudopotential on this center.
  128          1
                                   No pseudopotential on this center.
  129          1
                                   No pseudopotential on this center.
  130          1
                                   No pseudopotential on this center.
  131          1
                                   No pseudopotential on this center.
  132          1
                                   No pseudopotential on this center.
  133          1
                                   No pseudopotential on this center.
  134          6
                                   No pseudopotential on this center.
  135          6
                                   No pseudopotential on this center.
  136          6
                                   No pseudopotential on this center.
  137          6
                                   No pseudopotential on this center.
  138          1
                                   No pseudopotential on this center.
  139          1
                                   No pseudopotential on this center.
  140          1
                                   No pseudopotential on this center.
  141          1
                                   No pseudopotential on this center.
  142          1
                                   No pseudopotential on this center.
  143          1
                                   No pseudopotential on this center.
  144          1
                                   No pseudopotential on this center.
  145          1
                                   No pseudopotential on this center.
  146          1
                                   No pseudopotential on this center.
  147          6
                                   No pseudopotential on this center.
  148          6
                                   No pseudopotential on this center.
  149          6
                                   No pseudopotential on this center.
  150          6
                                   No pseudopotential on this center.
  151          1
                                   No pseudopotential on this center.
  152          1
                                   No pseudopotential on this center.
  153          1
                                   No pseudopotential on this center.
  154          1
                                   No pseudopotential on this center.
  155          1
                                   No pseudopotential on this center.
  156          1
                                   No pseudopotential on this center.
  157          1
                                   No pseudopotential on this center.
  158          1
                                   No pseudopotential on this center.
  159          1
                                   No pseudopotential on this center.
  160          6
                                   No pseudopotential on this center.
  161          6
                                   No pseudopotential on this center.
  162          6
                                   No pseudopotential on this center.
  163          6
                                   No pseudopotential on this center.
  164          1
                                   No pseudopotential on this center.
  165          1
                                   No pseudopotential on this center.
  166          1
                                   No pseudopotential on this center.
  167          1
                                   No pseudopotential on this center.
  168          1
                                   No pseudopotential on this center.
  169          1
                                   No pseudopotential on this center.
  170          1
                                   No pseudopotential on this center.
  171          1
                                   No pseudopotential on this center.
  172          1
                                   No pseudopotential on this center.
  173          1
                                   No pseudopotential on this center.
  174          1
                                   No pseudopotential on this center.
 ======================================================================================================
 There are  3411 symmetry adapted cartesian basis functions of A   symmetry.
 There are  3023 symmetry adapted basis functions of A   symmetry.
  3023 basis functions,  4832 primitive gaussians,  3411 cartesian basis functions
   310 alpha electrons      310 beta electrons
       nuclear repulsion energy     17410.7162302211 Hartrees.
 NAtoms=  174 NActive=  174 NUniq=  174 SFac= 1.00D+00 NAtFMM=   60 NAOKFM=T Big=T
 Integral buffers will be    131072 words long.
 Raffenetti 2 integral format.
 Two-electron integral symmetry is turned on.
 Nuclear repulsion after empirical dispersion term =    17410.4234615660 Hartrees.
 One-electron integrals computed using PRISM.
   1 Symmetry operations used in ECPInt.
 ECPInt:  NShTT=  785631 NPrTT= 2346744 LenC2=  528736 LenP2D= 1006294.
 LDataN:  DoStor=T MaxTD1= 7 Len=  274
 Number of processors reduced to  13 by ecpmxn.
 NBasis=  3023 RedAO= T EigKep=  2.27D-06  NBF=  3023
 NBsUse=  3023 1.00D-06 EigRej= -1.00D+00 NBFU=  3023
 Defaulting to unpruned grid for atomic number  46.
 ExpMin= 1.60D-02 ExpMax= 6.95D+04 ExpMxC= 2.37D+03 IAcc=3 IRadAn=         5 AccDes= 0.00D+00
 Harris functional with IExCor= 1009 and IRadAn=       5 diagonalized for initial guess.
 HarFok:  IExCor= 1009 AccDes= 0.00D+00 IRadAn=         5 IDoV= 1 UseB2=F ITyADJ=14
 ICtDFT=  3500011 ScaDFX=  1.000000  1.000000  1.000000  1.000000
 Defaulting to unpruned grid for atomic number  46.
 FoFCou: FMM=F IPFlag=           0 FMFlag=      100000 FMFlg1=        2001
         NFxFlg=           0 DoJE=T BraDBF=F KetDBF=T FulRan=T
         wScrn=  0.000000 ICntrl=       500 IOpCl=  0 I1Cent=   200000004 NGrid=           0
         NMat0=    1 NMatS0=      1 NMatT0=    0 NMatD0=    1 NMtDS0=    0 NMtDT0=    0
 Petite list used in FoFCou.
 Requested convergence on RMS density matrix=1.00D-08 within 128 cycles.
 Requested convergence on MAX density matrix=1.00D-06.
 Requested convergence on             energy=1.00D-06.
 No special actions if energy rises.
 Defaulting to unpruned grid for atomic number  46.
 Defaulting to unpruned grid for atomic number  46.
 Defaulting to unpruned grid for atomic number  46.
 Defaulting to unpruned grid for atomic number  46.
 Defaulting to unpruned grid for atomic number  46.
 Defaulting to unpruned grid for atomic number  46.
 Defaulting to unpruned grid for atomic number  46.
 Defaulting to unpruned grid for atomic number  46.
 Defaulting to unpruned grid for atomic number  46.
 Defaulting to unpruned grid for atomic number  46.
 Defaulting to unpruned grid for atomic number  46.
 Defaulting to unpruned grid for atomic number  46.
 Defaulting to unpruned grid for atomic number  46.
 Defaulting to unpruned grid for atomic number  46.
 Defaulting to unpruned grid for atomic number  46.
 Defaulting to unpruned grid for atomic number  46.
 Defaulting to unpruned grid for atomic number  46.
 Defaulting to unpruned grid for atomic number  46.
 Defaulting to unpruned grid for atomic number  46.
 Defaulting to unpruned grid for atomic number  46.
 Defaulting to unpruned grid for atomic number  46.
 Defaulting to unpruned grid for atomic number  46.
 Defaulting to unpruned grid for atomic number  46.
 Defaulting to unpruned grid for atomic number  46.
 Defaulting to unpruned grid for atomic number  46.
 Defaulting to unpruned grid for atomic number  46.
 Defaulting to unpruned grid for atomic number  46.
 Defaulting to unpruned grid for atomic number  46.
 Defaulting to unpruned grid for atomic number  46.
 Defaulting to unpruned grid for atomic number  46.
 Defaulting to unpruned grid for atomic number  46.
 Defaulting to unpruned grid for atomic number  46.
 EnCoef did     9 forward-backward iterations
 EnCoef did   100 forward-backward iterations
 SCF Done:  E(RPBE1PBE) =  -4642.27818077     A.U. after   20 cycles
            NFock= 20  Conv=0.39D-08     -V/T= 2.0223
 DoSCS=F DFT=T ScalE2(SS,OS)=  1.000000  1.000000
 Range of M.O.s used for correlation:     1  3023
 NBasis=  3023 NAE=   310 NBE=   310 NFC=     0 NFV=     0
 NROrb=   3023 NOA=   310 NOB=   310 NVA=  2713 NVB=  2713

 **** Warning!!: The largest alpha MO coefficient is  0.42798378D+02

          Differentiating once with respect to magnetic field using GIAOs.
          Electric field/nuclear overlap derivatives assumed to be zero.
 Defaulting to unpruned grid for atomic number  46.
 FoFCou: FMM=F IPFlag=           0 FMFlag=      100000 FMFlg1=        2001
         NFxFlg=           0 DoJE=F BraDBF=F KetDBF=T FulRan=T
         wScrn=  0.000000 ICntrl=      6100 IOpCl=  0 I1Cent=           7 NGrid=         174
         NMat0=    1 NMatS0=      1 NMatT0=    0 NMatD0=    1 NMtDS0=    0 NMtDT0=    0
 Symmetry not used in FoFCou.
   1 Symmetry operations used in ECPInt.
 ECPInt:  NShTT=  785631 NPrTT= 2346744 LenC2=  785632 LenP2D= 2346744.
 LDataN:  DoStor=T MaxTD1= 8 Len=  415
 Number of processors reduced to   8 by ecpmxn.
 FoFJK:  IHMeth= 1 ICntrl=    6127 DoSepK=F KAlg= 0 I1Cent=           0 FoldK=F
 IRaf=         1 NMat=       1 IRICut=       1 DoRegI=T DoRafI=F ISym2E= 0 IDoP0=0 IntGTp=1.
 Defaulting to unpruned grid for atomic number  46.
 Defaulting to unpruned grid for atomic number  46.
 Defaulting to unpruned grid for atomic number  46.
 Defaulting to unpruned grid for atomic number  46.
 Defaulting to unpruned grid for atomic number  46.
 Defaulting to unpruned grid for atomic number  46.
 Defaulting to unpruned grid for atomic number  46.
 Defaulting to unpruned grid for atomic number  46.
 Defaulting to unpruned grid for atomic number  46.
 Defaulting to unpruned grid for atomic number  46.
 Defaulting to unpruned grid for atomic number  46.
 Defaulting to unpruned grid for atomic number  46.
 Defaulting to unpruned grid for atomic number  46.
 Defaulting to unpruned grid for atomic number  46.
 Defaulting to unpruned grid for atomic number  46.
 Defaulting to unpruned grid for atomic number  46.
 Defaulting to unpruned grid for atomic number  46.
 Defaulting to unpruned grid for atomic number  46.
 Defaulting to unpruned grid for atomic number  46.
 Defaulting to unpruned grid for atomic number  46.
 Defaulting to unpruned grid for atomic number  46.
 Defaulting to unpruned grid for atomic number  46.
 Defaulting to unpruned grid for atomic number  46.
 Defaulting to unpruned grid for atomic number  46.
 Defaulting to unpruned grid for atomic number  46.
 Defaulting to unpruned grid for atomic number  46.
 Defaulting to unpruned grid for atomic number  46.
 Defaulting to unpruned grid for atomic number  46.
 Defaulting to unpruned grid for atomic number  46.
 Defaulting to unpruned grid for atomic number  46.
 Defaulting to unpruned grid for atomic number  46.
 Defaulting to unpruned grid for atomic number  46.
          There are     3 degrees of freedom in the 1st order CPHF.  IDoFFX=0 NUNeed=     3.
      3 vectors produced by pass  0 Test12= 2.80D-11 3.33D-08 XBig12= 5.39D+02 2.06D+00.
 AX will form     3 AO Fock derivatives at one time.
      3 vectors produced by pass  1 Test12= 2.80D-11 3.33D-08 XBig12= 1.66D+00 2.73D-01.
      3 vectors produced by pass  2 Test12= 2.80D-11 3.33D-08 XBig12= 1.85D-02 2.74D-02.
      3 vectors produced by pass  3 Test12= 2.80D-11 3.33D-08 XBig12= 3.36D-04 8.87D-03.
      3 vectors produced by pass  4 Test12= 2.80D-11 3.33D-08 XBig12= 3.57D-06 5.63D-04.
      3 vectors produced by pass  5 Test12= 2.80D-11 3.33D-08 XBig12= 1.55D-08 3.39D-05.
      3 vectors produced by pass  6 Test12= 2.80D-11 3.33D-08 XBig12= 3.66D-10 6.86D-06.
      3 vectors produced by pass  7 Test12= 2.80D-11 3.33D-08 XBig12= 4.56D-12 5.79D-07.
      1 vectors produced by pass  8 Test12= 2.80D-11 3.33D-08 XBig12= 2.72D-14 3.68D-08.
 InvSVY:  IOpt=1 It=  1 EMax= 3.55D-15
 Solved reduced A of dimension    25 with     3 vectors.
 Calculating GIAO nuclear magnetic shielding tensors.
 SCF GIAO Magnetic shielding tensor (ppm):
      1  Pd   Isotropic =  -154.4520   Anisotropy =   278.4922
   XX=    -3.3339   YX=   -24.1189   ZX=    -3.9945
   XY=   -86.3328   YY=  -490.2740   ZY=    20.9580
   XZ=     4.8015   YZ=    20.9645   ZZ=    30.2520
   Eigenvalues:  -497.2849     2.7195    31.2095
      2  P    Isotropic =   236.0270   Anisotropy =   137.3410
   XX=   264.7756   YX=   -17.5743   ZX=   -88.3544
   XY=    10.0775   YY=   213.5992   ZY=    24.7402
   XZ=   -64.3147   YZ=    14.3860   ZZ=   229.7061
   Eigenvalues:   165.3281   215.1652   327.5876
      3  P    Isotropic =   231.5445   Anisotropy =   140.5294
   XX=   239.2119   YX=     6.3380   ZX=    89.6986
   XY=    24.7953   YY=   196.2289   ZY=   -36.8040
   XZ=    59.0716   YZ=   -19.5265   ZZ=   259.1927
   Eigenvalues:   152.7467   216.6560   325.2308
      4  O    Isotropic =   216.0323   Anisotropy =   124.9952
   XX=   272.8682   YX=   -15.6439   ZX=   -49.4100
   XY=   -28.9321   YY=   206.6906   ZY=    79.2815
   XZ=   -17.5478   YZ=    26.1754   ZZ=   168.5381
   Eigenvalues:   129.9083   218.8261   299.3624
      5  O    Isotropic =   216.2853   Anisotropy =   104.1775
   XX=   267.5142   YX=     6.7668   ZX=    49.7860
   XY=     5.4212   YY=   181.4375   ZY=   -74.6610
   XZ=    22.6049   YZ=   -25.0566   ZZ=   199.9043
   Eigenvalues:   133.9249   229.1941   285.7370
      6  C    Isotropic =    46.0839   Anisotropy =   172.7203
   XX=    -6.1159   YX=   -32.5255   ZX=    -9.0084
   XY=   -42.3259   YY=    42.8652   ZY=   -92.0864
   XZ=    -4.9437   YZ=   -72.7481   ZZ=   101.5024
   Eigenvalues:   -46.1456    23.1665   161.2308
      7  C    Isotropic =    43.4056   Anisotropy =   181.7344
   XX=   -41.0673   YX=    -1.4021   ZX=    32.0072
   XY=     6.9194   YY=    80.5731   ZY=   -69.1253
   XZ=    40.9501   YZ=   -82.2745   ZZ=    90.7110
   Eigenvalues:   -55.0817    20.7367   164.5618
      8  C    Isotropic =    28.4141   Anisotropy =   198.9561
   XX=   -20.3706   YX=    -7.8608   ZX=    27.2113
   XY=   -10.1124   YY=    32.9237   ZY=  -104.1653
   XZ=    23.5771   YZ=  -101.4390   ZZ=    72.6892
   Eigenvalues:   -54.6281   -21.1811   161.0515
      9  C    Isotropic =    54.4242   Anisotropy =   176.3276
   XX=    -0.3743   YX=   -47.8535   ZX=    -7.2338
   XY=   -39.4150   YY=    55.2889   ZY=   -84.6653
   XZ=    -0.9204   YZ=   -81.2333   ZZ=   108.3581
   Eigenvalues:   -41.6824    32.9792   171.9760
     10  C    Isotropic =    29.9005   Anisotropy =   195.3100
   XX=   -47.5310   YX=    -8.4001   ZX=    28.8088
   XY=   -11.4701   YY=    48.8867   ZY=   -83.7499
   XZ=    28.4469   YZ=   -86.8323   ZZ=    88.3458
   Eigenvalues:   -54.2680   -16.1377   160.1072
     11  C    Isotropic =    51.8229   Anisotropy =   182.4040
   XX=    28.3451   YX=     3.0955   ZX=    25.7450
   XY=     7.5502   YY=    39.2550   ZY=  -103.6107
   XZ=    24.4134   YZ=  -106.8603   ZZ=    87.8686
   Eigenvalues:   -49.5448    31.5880   173.4256
     12  C    Isotropic =    52.2641   Anisotropy =   169.3186
   XX=   101.9367   YX=    24.2269   ZX=    76.3369
   XY=    28.5594   YY=   -30.4758   ZY=   -12.3298
   XZ=    63.9289   YZ=    -7.8773   ZZ=    85.3315
   Eigenvalues:   -41.1133    32.7625   165.1432
     13  C    Isotropic =    48.6823   Anisotropy =   187.9822
   XX=   109.0033   YX=   -16.1971   ZX=    84.3358
   XY=   -10.1680   YY=   -18.0327   ZY=    49.0231
   XZ=    88.9548   YZ=    37.0900   ZZ=    55.0764
   Eigenvalues:   -56.6534    28.6965   174.0038
     14  C    Isotropic =    30.1617   Anisotropy =   199.1132
   XX=    66.7977   YX=    12.9824   ZX=   105.4848
   XY=    15.4926   YY=   -14.8015   ZY=     7.1219
   XZ=   110.5050   YZ=     7.2453   ZZ=    38.4888
   Eigenvalues:   -56.6659   -15.7529   162.9038
     15  C    Isotropic =    53.4243   Anisotropy =   180.9796
   XX=   108.3656   YX=    33.4286   ZX=    71.4286
   XY=    20.7542   YY=   -36.3341   ZY=    -3.8624
   XZ=    76.2955   YZ=    -9.6932   ZZ=    88.2412
   Eigenvalues:   -45.1289    31.3243   174.0774
     16  C    Isotropic =    28.1210   Anisotropy =   202.7805
   XX=    79.4100   YX=    -6.4215   ZX=    96.4857
   XY=    -6.8464   YY=   -41.3641   ZY=    16.0971
   XZ=   101.2122   YZ=    20.2733   ZZ=    46.3170
   Eigenvalues:   -57.7510   -21.1940   163.3080
     17  C    Isotropic =    43.1912   Anisotropy =   179.8004
   XX=    71.4173   YX=     9.9252   ZX=   111.0318
   XY=     8.1627   YY=    21.9157   ZY=    -0.1076
   XZ=   104.0674   YZ=    -2.8112   ZZ=    36.2405
   Eigenvalues:   -55.7757    22.2911   163.0582
     18  C    Isotropic =    37.5002   Anisotropy =   190.5571
   XX=    99.4229   YX=   -35.0780   ZX=   -67.7361
   XY=   -66.1968   YY=    10.1333   ZY=    49.4016
   XZ=   -63.4491   YZ=    58.2230   ZZ=     2.9445
   Eigenvalues:   -49.4074    -2.6303   164.5383
     19  C    Isotropic =    49.1527   Anisotropy =   193.2832
   XX=    82.1292   YX=   -74.4717   ZX=   -84.7610
   XY=   -80.6947   YY=    40.3386   ZY=     3.9838
   XZ=   -84.7554   YZ=    11.7950   ZZ=    24.9903
   Eigenvalues:   -56.3485    25.7985   178.0082
     20  C    Isotropic =    52.2205   Anisotropy =   186.1751
   XX=   100.8174   YX=   -80.2198   ZX=   -47.9314
   XY=   -81.7000   YY=    -9.4922   ZY=    44.8140
   XZ=   -41.9820   YZ=    41.4731   ZZ=    65.3363
   Eigenvalues:   -55.1626    35.4868   176.3373
     21  C    Isotropic =    63.3050   Anisotropy =   179.4600
   XX=   112.0610   YX=   -44.2732   ZX=   -77.8849
   XY=   -34.6237   YY=    56.0778   ZY=    67.3640
   XZ=   -58.7994   YZ=    56.5267   ZZ=    21.7761
   Eigenvalues:   -34.0088    40.9787   182.9450
     22  C    Isotropic =    22.9910   Anisotropy =   142.2777
   XX=    39.3682   YX=   -58.4847   ZX=   -75.8085
   XY=   -50.6853   YY=    31.8620   ZY=    -1.1125
   XZ=   -68.5003   YZ=     2.3423   ZZ=    -2.2572
   Eigenvalues:   -68.3746    19.5048   117.8428
     23  C    Isotropic =    43.7252   Anisotropy =   165.5197
   XX=    92.8766   YX=   -71.2469   ZX=   -32.0236
   XY=   -79.9100   YY=   -10.8290   ZY=    25.6430
   XZ=   -47.6661   YZ=    26.3112   ZZ=    49.1281
   Eigenvalues:   -50.8545    27.9585   154.0717
     24  C    Isotropic =    46.3263   Anisotropy =   161.4382
   XX=    88.1531   YX=   -60.6912   ZX=    50.1830
   XY=   -60.9583   YY=   -14.1641   ZY=    -6.9576
   XZ=    67.1036   YZ=   -12.7759   ZZ=    64.9898
   Eigenvalues:   -45.2628    30.2899   153.9518
     25  C    Isotropic =    18.0333   Anisotropy =   146.2489
   XX=    30.6536   YX=   -26.1584   ZX=    92.1533
   XY=   -29.2245   YY=    12.5987   ZY=    -8.4208
   XZ=    81.7249   YZ=   -11.4863   ZZ=    10.8476
   Eigenvalues:   -68.3319     6.8992   115.5326
     26  C    Isotropic =    59.6754   Anisotropy =   166.0288
   XX=    99.0404   YX=    -6.8291   ZX=    81.9329
   XY=   -11.7922   YY=    18.7028   ZY=   -61.2702
   XZ=    67.7962   YZ=   -54.6470   ZZ=    61.2830
   Eigenvalues:   -34.1063    42.7712   170.3612
     27  C    Isotropic =    50.5370   Anisotropy =   187.4160
   XX=    93.7591   YX=   -62.2662   ZX=    66.6767
   XY=   -65.5839   YY=   -30.4622   ZY=   -24.0622
   XZ=    63.6834   YZ=   -22.1016   ZZ=    88.3140
   Eigenvalues:   -57.6236    33.7535   175.4809
     28  C    Isotropic =    50.4222   Anisotropy =   192.7094
   XX=    68.5673   YX=   -50.6001   ZX=   104.4126
   XY=   -54.4357   YY=    37.4025   ZY=    -8.9634
   XZ=   104.8201   YZ=   -18.0417   ZZ=    45.2967
   Eigenvalues:   -55.8688    28.2402   178.8951
     29  C    Isotropic =    40.3763   Anisotropy =   187.5668
   XX=    92.8546   YX=   -12.6287   ZX=    78.1904
   XY=   -39.1849   YY=   -14.0547   ZY=   -43.2313
   XZ=    83.4161   YZ=   -49.2381   ZZ=    42.3289
   Eigenvalues:   -43.8515    -0.4405   165.4208
     30  C    Isotropic =    49.0327   Anisotropy =   170.9564
   XX=   -21.9054   YX=   -24.3151   ZX=    17.0943
   XY=   -35.3013   YY=    81.3631   ZY=    86.9074
   XZ=    13.7862   YZ=    68.9547   ZZ=    87.6403
   Eigenvalues:   -43.1970    27.2915   163.0036
     31  C    Isotropic =    40.4348   Anisotropy =   191.1138
   XX=   -35.4343   YX=    15.7146   ZX=   -35.8057
   XY=    16.8220   YY=    96.6396   ZY=    77.6944
   XZ=   -32.3527   YZ=    96.6657   ZZ=    60.0992
   Eigenvalues:   -62.0316    15.4920   167.8440
     32  C    Isotropic =    28.9931   Anisotropy =   198.6362
   XX=   -19.9914   YX=    -7.9473   ZX=   -10.8100
   XY=    -6.2423   YY=    60.2645   ZY=   107.0188
   XZ=   -12.3485   YZ=   106.5231   ZZ=    46.7062
   Eigenvalues:   -53.8896   -20.5484   161.4172
     33  C    Isotropic =    57.4322   Anisotropy =   170.7083
   XX=   -15.7853   YX=   -30.9367   ZX=    13.5744
   XY=   -34.2854   YY=    96.0518   ZY=    75.2608
   XZ=    12.7293   YZ=    76.8468   ZZ=    92.0303
   Eigenvalues:   -35.9604    37.0193   171.2378
     34  C    Isotropic =    30.0160   Anisotropy =   196.8465
   XX=   -42.2586   YX=     4.4766   ZX=   -23.8889
   XY=     1.9729   YY=    71.7972   ZY=    92.3835
   XZ=   -20.2966   YZ=    95.8415   ZZ=    60.5094
   Eigenvalues:   -55.3236   -15.8753   161.2470
     35  C    Isotropic =    51.1176   Anisotropy =   182.7313
   XX=    28.7543   YX=    -4.5165   ZX=    -8.6462
   XY=     6.3157   YY=    65.0150   ZY=   110.5007
   XZ=   -11.0968   YZ=   110.1681   ZZ=    59.5834
   Eigenvalues:   -48.8333    29.2476   172.9385
     36  C    Isotropic =    52.6735   Anisotropy =   171.9848
   XX=   127.4080   YX=     8.9352   ZX=   -69.8919
   XY=     7.2095   YY=   -24.0624   ZY=    37.4218
   XZ=   -63.0112   YZ=    28.8425   ZZ=    54.6749
   Eigenvalues:   -42.8379    33.5283   167.3300
     37  C    Isotropic =    40.6970   Anisotropy =   185.8837
   XX=   100.5416   YX=   -19.0441   ZX=  -104.0588
   XY=    -7.0849   YY=    21.8750   ZY=     8.8869
   XZ=   -97.2324   YZ=    12.0871   ZZ=    -0.3254
   Eigenvalues:   -62.5177    19.9893   164.6195
     38  C    Isotropic =    27.8991   Anisotropy =   203.7345
   XX=   108.9574   YX=   -21.6604   ZX=   -86.2205
   XY=   -24.2458   YY=   -46.1128   ZY=    -7.4275
   XZ=   -87.9239   YZ=    -5.9936   ZZ=    20.8526
   Eigenvalues:   -59.1555   -20.8694   163.7220
     39  C    Isotropic =    53.4157   Anisotropy =   181.4862
   XX=   130.9469   YX=     2.4061   ZX=   -71.0409
   XY=     8.6134   YY=   -26.9348   ZY=    39.8023
   XZ=   -70.2863   YZ=    29.3856   ZZ=    56.2351
   Eigenvalues:   -45.5372    31.3779   174.4066
     40  C    Isotropic =    30.5472   Anisotropy =   200.8000
   XX=   106.3143   YX=    -8.2660   ZX=   -95.1273
   XY=    -8.5893   YY=   -15.9876   ZY=     2.4999
   XZ=   -98.3808   YZ=     7.0371   ZZ=     1.3151
   Eigenvalues:   -56.2662   -16.5060   164.4139
     41  C    Isotropic =    51.7717   Anisotropy =   184.5183
   XX=   132.8544   YX=   -29.9717   ZX=   -70.7937
   XY=   -23.8398   YY=   -23.4119   ZY=   -30.4665
   XZ=   -75.4670   YZ=   -31.9853   ZZ=    45.8727
   Eigenvalues:   -52.5002    33.0315   174.7839
     42  C    Isotropic =   107.9829   Anisotropy =    77.8423
   XX=    78.5012   YX=    11.1593   ZX=    18.4404
   XY=     6.3566   YY=    89.7128   ZY=    -1.0962
   XZ=    17.5421   YZ=     3.9924   ZZ=   155.7347
   Eigenvalues:    70.8875    93.1833   159.8778
     43  H    Isotropic =    22.2391   Anisotropy =    17.1119
   XX=    18.9789   YX=     7.1884   ZX=     2.5855
   XY=     5.9308   YY=    27.6747   ZY=     4.3091
   XZ=     2.2394   YZ=     6.1937   ZZ=    20.0639
   Eigenvalues:    15.4066    17.6637    33.6470
     44  H    Isotropic =    23.6350   Anisotropy =    14.6685
   XX=    27.2100   YX=    -3.8839   ZX=    -4.4544
   XY=    -4.9279   YY=    21.7906   ZY=     4.4253
   XZ=    -5.2180   YZ=     4.9225   ZZ=    21.9045
   Eigenvalues:    17.1605    20.3305    33.4141
     45  H    Isotropic =    23.6618   Anisotropy =    16.5609
   XX=    33.2020   YX=     6.1799   ZX=     1.2110
   XY=     2.3580   YY=    20.6798   ZY=     1.8066
   XZ=     0.3965   YZ=     4.9712   ZZ=    17.1036
   Eigenvalues:    14.9178    21.3653    34.7024
     46  H    Isotropic =    23.9784   Anisotropy =    14.7220
   XX=    27.2201   YX=    -6.0952   ZX=    -1.2131
   XY=    -4.4476   YY=    22.2719   ZY=     4.2582
   XZ=    -4.2190   YZ=     8.6592   ZZ=    22.4433
   Eigenvalues:    15.5324    22.6098    33.7931
     47  H    Isotropic =    23.7711   Anisotropy =    14.2825
   XX=    25.1131   YX=     1.4620   ZX=    -6.9158
   XY=     2.4490   YY=    21.1732   ZY=    -3.6433
   XZ=    -7.0278   YZ=    -3.4298   ZZ=    25.0270
   Eigenvalues:    17.5948    20.4257    33.2928
     48  H    Isotropic =    22.3819   Anisotropy =    14.7215
   XX=    16.9966   YX=    -0.4710   ZX=     1.4439
   XY=    -0.3102   YY=    32.1834   ZY=    -0.2762
   XZ=    -1.2240   YZ=    -0.1196   ZZ=    17.9659
   Eigenvalues:    16.9754    17.9742    32.1962
     49  H    Isotropic =    25.1145   Anisotropy =    11.4717
   XX=    23.2511   YX=     0.2008   ZX=     1.4144
   XY=    -3.7889   YY=    24.5451   ZY=    -7.0119
   XZ=     3.2189   YZ=    -4.2207   ZZ=    27.5472
   Eigenvalues:    20.2326    22.3485    32.7623
     50  H    Isotropic =    24.5996   Anisotropy =     4.6338
   XX=    24.2282   YX=     0.8413   ZX=     1.1626
   XY=     0.1254   YY=    22.6177   ZY=    -0.9432
   XZ=     1.4003   YZ=    -1.7020   ZZ=    26.9529
   Eigenvalues:    21.9282    24.1818    27.6888
     51  H    Isotropic =    24.6747   Anisotropy =     4.6932
   XX=    24.5963   YX=     2.7070   ZX=    -1.1075
   XY=     2.4328   YY=    25.4492   ZY=     1.2573
   XZ=     0.9782   YZ=     0.9708   ZZ=    23.9786
   Eigenvalues:    22.0842    24.1363    27.8035
     52  H    Isotropic =    24.9363   Anisotropy =     4.7527
   XX=    23.9832   YX=     2.7269   ZX=     0.6004
   XY=     2.5525   YY=    25.8571   ZY=    -1.3052
   XZ=    -0.8369   YZ=    -1.1853   ZZ=    24.9686
   Eigenvalues:    21.9802    24.7239    28.1048
     53  H    Isotropic =    24.3234   Anisotropy =     4.2746
   XX=    24.3875   YX=     0.3238   ZX=    -1.5638
   XY=    -0.6046   YY=    23.6025   ZY=     1.7259
   XZ=    -1.4799   YZ=     2.5262   ZZ=    24.9801
   Eigenvalues:    21.7838    24.0131    27.1731
     54  H    Isotropic =    24.3619   Anisotropy =    11.4021
   XX=    22.2992   YX=     0.4425   ZX=    -2.0456
   XY=    -4.4136   YY=    27.3693   ZY=     4.9498
   XZ=    -4.1581   YZ=     5.0196   ZZ=    23.4173
   Eigenvalues:    19.0878    22.0347    31.9633
     55  H    Isotropic =    22.3756   Anisotropy =    16.7199
   XX=    21.4679   YX=     7.9436   ZX=    -4.3051
   XY=     7.1678   YY=    24.6047   ZY=    -2.7942
   XZ=    -4.9859   YZ=    -4.7462   ZZ=    21.0541
   Eigenvalues:    14.9400    18.6645    33.5222
     56  H    Isotropic =    23.7981   Anisotropy =    14.7720
   XX=    24.5802   YX=    -3.2139   ZX=     3.9613
   XY=    -3.7445   YY=    22.7671   ZY=    -6.5622
   XZ=     4.5029   YZ=    -7.2489   ZZ=    24.0469
   Eigenvalues:    16.4587    21.2895    33.6460
     57  H    Isotropic =    23.8438   Anisotropy =    17.8592
   XX=    35.0990   YX=     5.2851   ZX=    -1.4831
   XY=     0.5169   YY=    18.0703   ZY=    -2.0061
   XZ=    -0.7531   YZ=    -5.1775   ZZ=    18.3622
   Eigenvalues:    14.5323    21.2492    35.7500
     58  H    Isotropic =    22.1872   Anisotropy =    14.7164
   XX=    17.6025   YX=     0.2877   ZX=    -1.4812
   XY=    -0.2437   YY=    31.9106   ZY=    -1.3150
   XZ=     1.1930   YZ=    -0.9716   ZZ=    17.0486
   Eigenvalues:    16.9311    17.6324    31.9981
     59  H    Isotropic =    23.8301   Anisotropy =    14.0244
   XX=    22.7661   YX=     2.2040   ZX=     5.9442
   XY=     2.4790   YY=    23.0842   ZY=     4.6331
   XZ=     5.6693   YZ=     5.5875   ZZ=    25.6400
   Eigenvalues:    17.6598    20.6509    33.1797
     60  H    Isotropic =    23.9417   Anisotropy =    14.7111
   XX=    25.5698   YX=    -4.8347   ZX=     2.5751
   XY=    -3.9419   YY=    19.6522   ZY=    -4.2868
   XZ=     3.7815   YZ=    -8.9654   ZZ=    26.6031
   Eigenvalues:    15.1403    22.9356    33.7491
     61  H    Isotropic =    27.8969   Anisotropy =     7.7984
   XX=    23.5494   YX=     0.4658   ZX=     2.5377
   XY=     2.0880   YY=    28.2673   ZY=     0.2424
   XZ=     2.5848   YZ=     2.2287   ZZ=    31.8740
   Eigenvalues:    22.6759    27.9190    33.0959
     62  Cl   Isotropic =   849.0283   Anisotropy =   534.2169
   XX=   700.4183   YX=   104.7214   ZX=   157.7685
   XY=   230.4668   YY=  1136.8229   ZY=  -109.4803
   XZ=   119.7243   YZ=  -135.0755   ZZ=   709.8436
   Eigenvalues:   499.7762   842.1358  1205.1729
     63  Cl   Isotropic =   849.9785   Anisotropy =   481.5974
   XX=   727.0649   YX=   104.6473   ZX=  -137.8423
   XY=   201.5508   YY=  1110.6198   ZY=    85.2174
   XZ=  -124.4024   YZ=   118.4395   ZZ=   712.2507
   Eigenvalues:   532.3005   846.5915  1171.0434
     64  C    Isotropic =   153.4449   Anisotropy =    26.0242
   XX=   138.7353   YX=   -14.5965   ZX=    -0.3987
   XY=    -6.5081   YY=   160.0243   ZY=   -10.6566
   XZ=    -0.1948   YZ=    -5.9401   ZZ=   161.5752
   Eigenvalues:   133.9337   155.6067   170.7944
     65  C    Isotropic =   113.5791   Anisotropy =    61.4030
   XX=    96.6392   YX=   -12.3447   ZX=   -14.7001
   XY=   -11.1383   YY=    92.9193   ZY=     4.4577
   XZ=    -6.8548   YZ=     8.9085   ZZ=   151.1789
   Eigenvalues:    82.8318   103.3911   154.5144
     66  H    Isotropic =    27.0364   Anisotropy =     7.3862
   XX=    22.7917   YX=    -2.9291   ZX=    -1.3242
   XY=    -2.1137   YY=    27.5782   ZY=    -0.9942
   XZ=    -0.7137   YZ=    -3.6098   ZZ=    30.7392
   Eigenvalues:    21.3308    27.8179    31.9605
     67  H    Isotropic =    29.3520   Anisotropy =     3.8381
   XX=    29.8696   YX=    -0.8934   ZX=    -2.6802
   XY=     0.9858   YY=    28.5074   ZY=     1.4997
   XZ=    -1.4805   YZ=    -0.1734   ZZ=    29.6790
   Eigenvalues:    27.4376    28.7077    31.9108
     68  H    Isotropic =    30.3453   Anisotropy =    12.6001
   XX=    25.9169   YX=    -2.6411   ZX=    -2.5468
   XY=    -1.3096   YY=    26.9423   ZY=    -0.2093
   XZ=    -2.8226   YZ=    -0.0577   ZZ=    38.1767
   Eigenvalues:    24.0316    28.2590    38.7454
     69  C    Isotropic =   152.5046   Anisotropy =    44.6747
   XX=   152.9830   YX=    -7.7737   ZX=    17.0607
   XY=    -7.0621   YY=   134.7358   ZY=    -0.7839
   XZ=    20.6991   YZ=     2.5875   ZZ=   169.7950
   Eigenvalues:   130.2325   144.9935   182.2878
     70  C    Isotropic =   145.9051   Anisotropy =    11.3313
   XX=   142.1513   YX=    -2.2086   ZX=    -0.4262
   XY=    -4.5841   YY=   147.7943   ZY=     4.7600
   XZ=    -3.3838   YZ=     4.0831   ZZ=   147.7696
   Eigenvalues:   140.5522   143.7037   153.4592
     71  C    Isotropic =   151.3963   Anisotropy =    44.1314
   XX=   140.3646   YX=     6.9254   ZX=    -6.8747
   XY=     9.5306   YY=   173.6381   ZY=   -12.6938
   XZ=    -5.7841   YZ=   -14.2776   ZZ=   140.1864
   Eigenvalues:   133.3001   140.0717   180.8173
     72  C    Isotropic =   155.6134   Anisotropy =    32.9495
   XX=   176.5493   YX=     5.3013   ZX=    -2.4430
   XY=    -0.0890   YY=   144.0256   ZY=     2.1325
   XZ=    -7.9127   YZ=     0.1670   ZZ=   146.2651
   Eigenvalues:   142.8910   146.3694   177.5797
     73  H    Isotropic =    30.0499   Anisotropy =     7.0223
   XX=    27.6732   YX=     0.5783   ZX=     2.9169
   XY=     1.1758   YY=    29.6437   ZY=    -3.7607
   XZ=     1.8084   YZ=    -1.5236   ZZ=    32.8328
   Eigenvalues:    25.7925    29.6257    34.7315
     74  H    Isotropic =    30.2868   Anisotropy =    10.7570
   XX=    28.1075   YX=     0.9862   ZX=     2.3067
   XY=     0.4457   YY=    28.5222   ZY=     3.6942
   XZ=     1.7040   YZ=     5.9673   ZZ=    34.2309
   Eigenvalues:    25.6970    27.7053    37.4582
     75  H    Isotropic =    29.8586   Anisotropy =     8.6381
   XX=    34.9970   YX=     0.1639   ZX=     0.8860
   XY=    -1.0408   YY=    25.1804   ZY=     0.9683
   XZ=     3.0260   YZ=     3.2347   ZZ=    29.3985
   Eigenvalues:    24.1841    29.7744    35.6173
     76  H    Isotropic =    30.1449   Anisotropy =     6.7219
   XX=    29.5071   YX=     0.6274   ZX=     2.8907
   XY=    -0.1713   YY=    31.3376   ZY=    -2.4132
   XZ=     3.9166   YZ=    -3.9205   ZZ=    29.5900
   Eigenvalues:    25.1342    30.6742    34.6261
     77  H    Isotropic =    29.7830   Anisotropy =     8.2071
   XX=    33.0089   YX=     1.4802   ZX=    -2.0140
   XY=     3.6197   YY=    30.7075   ZY=     0.3998
   XZ=    -3.1776   YZ=    -1.1170   ZZ=    25.6327
   Eigenvalues:    24.7757    29.3190    35.2544
     78  H    Isotropic =    30.0867   Anisotropy =    10.1592
   XX=    27.5089   YX=     1.0245   ZX=     0.3685
   XY=     0.8407   YY=    35.7981   ZY=     4.1024
   XZ=     0.3664   YZ=     2.0146   ZZ=    26.9533
   Eigenvalues:    25.9949    27.4057    36.8595
     79  H    Isotropic =    29.4109   Anisotropy =    10.6355
   XX=    32.5300   YX=    -0.2780   ZX=     6.0432
   XY=    -0.6213   YY=    27.9005   ZY=     1.1210
   XZ=     5.7098   YZ=     0.5317   ZZ=    27.8021
   Eigenvalues:    23.6267    28.1048    36.5012
     80  H    Isotropic =    30.2492   Anisotropy =     7.8361
   XX=    30.1091   YX=    -1.1980   ZX=    -1.4856
   XY=    -0.6938   YY=    30.0728   ZY=     4.4983
   XZ=    -0.9141   YZ=     4.9334   ZZ=    30.5657
   Eigenvalues:    25.5924    29.6820    35.4733
     81  H    Isotropic =    29.0879   Anisotropy =     9.6104
   XX=    28.6449   YX=     6.0173   ZX=    -0.5587
   XY=     5.1731   YY=    30.9101   ZY=    -0.0458
   XZ=    -1.3789   YZ=     0.9623   ZZ=    27.7089
   Eigenvalues:    23.7922    27.9768    35.4949
     82  C    Isotropic =   150.4292   Anisotropy =    42.6438
   XX=   142.3689   YX=     2.9618   ZX=    -4.1089
   XY=     5.7777   YY=   130.7960   ZY=    -4.3098
   XZ=    -5.0779   YZ=    -0.0609   ZZ=   178.1228
   Eigenvalues:   129.3235   143.1058   178.8584
     83  C    Isotropic =   146.5135   Anisotropy =    15.0987
   XX=   156.4034   YX=     2.5497   ZX=     0.5036
   XY=    -1.6785   YY=   141.3566   ZY=    -1.5182
   XZ=    -3.5000   YZ=    -1.7786   ZZ=   141.7803
   Eigenvalues:   139.8790   143.0822   156.5793
     84  C    Isotropic =   156.2671   Anisotropy =    36.1680
   XX=   157.5977   YX=    17.8550   ZX=    13.4983
   XY=    10.7929   YY=   159.3706   ZY=    10.4367
   XZ=     6.7176   YZ=    10.8399   ZZ=   151.8331
   Eigenvalues:   144.1062   144.3161   180.3791
     85  C    Isotropic =   152.7155   Anisotropy =    41.4000
   XX=   149.2198   YX=   -10.3585   ZX=     2.4825
   XY=    -8.9083   YY=   175.1508   ZY=    -7.9130
   XZ=     5.4390   YZ=    -9.6701   ZZ=   133.7760
   Eigenvalues:   131.7326   146.0984   180.3155
     86  H    Isotropic =    29.9331   Anisotropy =     8.7636
   XX=    31.3853   YX=     4.1921   ZX=     1.4084
   XY=     3.4314   YY=    28.1334   ZY=     1.6678
   XZ=     0.9826   YZ=     5.7214   ZZ=    30.2805
   Eigenvalues:    24.4152    29.6085    35.7755
     87  H    Isotropic =    30.3552   Anisotropy =     9.6036
   XX=    33.5477   YX=     0.7240   ZX=    -3.3065
   XY=     0.9773   YY=    26.6538   ZY=     0.5565
   XZ=    -5.3911   YZ=     2.0087   ZZ=    30.8641
   Eigenvalues:    25.5374    28.7706    36.7576
     88  H    Isotropic =    30.4034   Anisotropy =     6.1617
   XX=    29.0480   YX=     0.4577   ZX=     0.6809
   XY=     0.9476   YY=    30.8835   ZY=    -3.3784
   XZ=    -1.5781   YZ=    -3.2305   ZZ=    31.2788
   Eigenvalues:    27.7365    28.9625    34.5112
     89  H    Isotropic =    29.8831   Anisotropy =     8.5625
   XX=    30.3171   YX=     1.1728   ZX=     2.9380
   XY=    -0.4053   YY=    26.5530   ZY=     3.2564
   XZ=     2.6739   YZ=     3.2313   ZZ=    32.7792
   Eigenvalues:    25.0447    29.0132    35.5914
     90  H    Isotropic =    29.8592   Anisotropy =     8.3169
   XX=    29.5397   YX=     2.6041   ZX=    -0.2730
   XY=     1.6361   YY=    34.5399   ZY=     1.1105
   XZ=    -1.6781   YZ=     1.5428   ZZ=    25.4980
   Eigenvalues:    24.9269    29.2469    35.4038
     91  H    Isotropic =    30.3743   Anisotropy =    10.1708
   XX=    36.9009   YX=     1.5210   ZX=    -0.4324
   XY=     1.5792   YY=    27.6664   ZY=     1.3799
   XZ=    -0.2518   YZ=     1.7322   ZZ=    26.5557
   Eigenvalues:    25.3364    28.6317    37.1549
     92  H    Isotropic =    30.5161   Anisotropy =     6.9611
   XX=    29.4802   YX=    -0.0743   ZX=     1.6382
   XY=    -1.8519   YY=    30.3462   ZY=    -3.1767
   XZ=     3.4058   YZ=    -2.5267   ZZ=    31.7219
   Eigenvalues:    27.4568    28.9347    35.1569
     93  H    Isotropic =    30.5527   Anisotropy =     9.7445
   XX=    35.3909   YX=    -2.3866   ZX=    -0.3912
   XY=    -4.1849   YY=    30.4976   ZY=     1.6044
   XZ=     1.0254   YZ=     1.0028   ZZ=    25.7697
   Eigenvalues:    25.2826    29.3265    37.0491
     94  H    Isotropic =    30.1332   Anisotropy =    10.3931
   XX=    32.1376   YX=     2.6407   ZX=     2.4387
   XY=     2.4655   YY=    33.2598   ZY=     4.1962
   XZ=     3.9969   YZ=     2.4027   ZZ=    25.0023
   Eigenvalues:    23.2319    30.1059    37.0620
     95  C    Isotropic =   155.8349   Anisotropy =    36.1256
   XX=   146.8022   YX=   -12.1154   ZX=     0.8108
   XY=    -5.3438   YY=   177.5448   ZY=    -1.5406
   XZ=    -1.4350   YZ=     4.6433   ZZ=   143.1575
   Eigenvalues:   143.0834   144.5026   179.9186
     96  C    Isotropic =   146.6851   Anisotropy =    15.0800
   XX=   151.3782   YX=    -6.6253   ZX=    -4.0594
   XY=    -2.7846   YY=   142.0052   ZY=     3.2935
   XZ=    -4.5632   YZ=     5.8680   ZZ=   146.6720
   Eigenvalues:   138.8535   144.4634   156.7385
     97  C    Isotropic =   151.0558   Anisotropy =    37.5653
   XX=   143.9070   YX=    -7.5233   ZX=    12.5302
   XY=    -8.8040   YY=   142.8088   ZY=    -7.9886
   XZ=    12.4720   YZ=   -10.1369   ZZ=   166.4517
   Eigenvalues:   134.9635   142.1046   176.0993
     98  C    Isotropic =   149.8083   Anisotropy =    45.2078
   XX=   167.0253   YX=    19.0714   ZX=     2.5551
   XY=    16.4929   YY=   148.9749   ZY=    12.0679
   XZ=     5.3351   YZ=    11.4015   ZZ=   133.4247
   Eigenvalues:   126.3132   143.1649   179.9468
     99  H    Isotropic =    29.9077   Anisotropy =     8.7225
   XX=    29.8375   YX=    -4.3643   ZX=    -0.2016
   XY=    -3.0775   YY=    31.6726   ZY=    -3.6767
   XZ=     0.7409   YZ=    -3.1175   ZZ=    28.2129
   Eigenvalues:    25.2414    28.7589    35.7227
    100  H    Isotropic =    30.3264   Anisotropy =    10.3155
   XX=    31.0980   YX=    -3.2746   ZX=    -4.5589
   XY=    -3.3379   YY=    30.6418   ZY=     2.5727
   XZ=    -4.2287   YZ=     2.2416   ZZ=    29.2394
   Eigenvalues:    25.6632    28.1125    37.2034
    101  H    Isotropic =    29.8485   Anisotropy =     7.7623
   XX=    28.4480   YX=     1.4232   ZX=    -1.1340
   XY=     2.6422   YY=    33.9286   ZY=     2.0118
   XZ=    -1.3842   YZ=     2.5350   ZZ=    27.1688
   Eigenvalues:    25.3385    29.1836    35.0233
    102  H    Isotropic =    29.9578   Anisotropy =     8.8287
   XX=    30.1695   YX=    -5.9086   ZX=     0.3963
   XY=    -4.5162   YY=    31.0487   ZY=     0.2757
   XZ=    -0.6333   YZ=    -0.9345   ZZ=    28.6553
   Eigenvalues:    25.3491    28.6808    35.8436
    103  H    Isotropic =    30.4353   Anisotropy =     6.1885
   XX=    32.3554   YX=    -1.1199   ZX=     3.3165
   XY=    -1.4361   YY=    28.4071   ZY=     1.0759
   XZ=     2.6336   YZ=     2.0562   ZZ=    30.5434
   Eigenvalues:    26.3533    30.3916    34.5610
    104  H    Isotropic =    30.3176   Anisotropy =     9.0798
   XX=    29.3323   YX=    -1.7576   ZX=    -2.7111
   XY=    -1.3247   YY=    27.1080   ZY=    -0.1183
   XZ=    -4.3454   YZ=     0.3614   ZZ=    34.5125
   Eigenvalues:    25.9520    28.6301    36.3708
    105  H    Isotropic =    29.6802   Anisotropy =     9.0073
   XX=    30.5840   YX=     2.4178   ZX=    -1.4513
   XY=     0.2844   YY=    33.7839   ZY=     3.1938
   XZ=    -0.1537   YZ=     5.4292   ZZ=    24.6727
   Eigenvalues:    22.7560    30.5995    35.6851
    106  H    Isotropic =    30.2682   Anisotropy =    10.1096
   XX=    35.3145   YX=     0.5645   ZX=    -5.0603
   XY=     1.1069   YY=    28.0158   ZY=     0.9561
   XZ=    -2.9585   YZ=     1.8152   ZZ=    27.4744
   Eigenvalues:    24.9496    28.8471    37.0079
[...]
  2877. BD*(   1) C  22 - C  23          0.04133     0.49578   
  2878. BD*(   2) C  22 - C  23          0.37669     0.02003  2882(v),2868(v),2873(v)
                                                    2907(r),2880(v),2881(v)
                                                    2836(v),835(v),887(g)
  2879. BD*(   1) C  23 - C  24          0.02957     0.42110   
  2880. BD*(   1) C  24 - C  25          0.04364     0.49672   
  2881. BD*(   1) C  24 - C  29          0.03231     0.50948   
  2882. BD*(   2) C  24 - C  29          0.40291     0.01979  2878(v),2888(v),2884(v)
                                                    2834(v),2854(r),2877(v)
                                                    2869(v),913(g),1043(g)
                                                    1016(v),912(g),2907(r)
  2883. BD*(   1) C  25 - C  26          0.03215     0.51492   
  2884. BD*(   2) C  25 - C  26          0.35666     0.01657  2882(v),2888(v),965(g)
                                                    2838(v)
  2885. BD*(   1) C  26 - C  27          0.01300     0.53584   
  2886. BD*(   1) C  26 - H  52          0.01308     0.38867   
  2887. BD*(   1) C  27 - C  28          0.01541     0.53904   
  2888. BD*(   2) C  27 - C  28          0.32746     0.02215  2882(v),2884(v),991(g)
                                                    1016(g)
  2889. BD*(   1) C  27 - H  53          0.01362     0.39592   
  2890. BD*(   1) C  28 - C  29          0.02173     0.51856   
  2891. BD*(   1) C  28 - H  54          0.01634     0.41620   
  2892. BD*(   1) C  30 - C  31          0.02314     0.54532   
  2893. BD*(   1) C  30 - C  35          0.02623     0.55148   
  2894. BD*(   2) C  30 - C  35          0.38017     0.03337  2901(v),2896(v),2832(v)
                                                    1198(g),1070(g)
  2895. BD*(   1) C  31 - C  32          0.02538     0.55697   
  2896. BD*(   2) C  31 - C  32          0.31770     0.05171  2901(v),2894(v),2981(v)
                                                    1094(g),2980(v),1121(g)
  2897. BD*(   1) C  31 - H  55          0.01714     0.45058   
  2898. BD*(   1) C  32 - C  33          0.02351     0.55506   
  2899. BD*(   1) C  32 - C 122          0.03992     0.38611   
  2900. BD*(   1) C  33 - C  34          0.02295     0.55655   
  2901. BD*(   2) C  33 - C  34          0.33433     0.04743  2896(v),2894(v),1146(g)
                                                    2988(v),2993(v),1173(g)
  2902. BD*(   1) C  33 - H  56          0.01778     0.42607   
  2903. BD*(   1) C  34 - C  35          0.02366     0.54753   
  2904. BD*(   1) C  34 - C 135          0.03952     0.37896   
  2905. BD*(   1) C  35 - H  57          0.01980     0.42354   
  2906. BD*(   1) C  36 - C  37          0.02354     0.54190   
  2907. BD*(   2) C  36 - C  37          0.34965     0.03135  2912(v),2917(v),1250(g)
                                                    2878(r),2833(v),2832(v)
  2908. BD*(   1) C  36 - C  41          0.02814     0.52758   
  2909. BD*(   1) C  37 - C  38          0.02525     0.54137   
  2910. BD*(   1) C  37 - H  58          0.01831     0.43926   
  2911. BD*(   1) C  38 - C  39          0.02330     0.55224   
  2912. BD*(   2) C  38 - C  39          0.30908     0.04285  2917(v),2907(v),1302(g)
                                                    3004(v),3000(v)
  2913. BD*(   1) C  38 - C 148          0.04003     0.37769   
  2914. BD*(   1) C  39 - C  40          0.02296     0.53414   
  2915. BD*(   1) C  39 - H  59          0.01807     0.41235   
  2916. BD*(   1) C  40 - C  41          0.02541     0.54703   
  2917. BD*(   2) C  40 - C  41          0.31582     0.04143  2912(v),2907(v),1354(g)
                                                    3016(v),3012(v),1329(g)
  2918. BD*(   1) C  40 - C 161          0.03991     0.37376   
  2919. BD*(   1) C  41 - H  60          0.01742     0.41998   
  2920. BD*(   1) C  42 - H  61          0.02253     0.32389   
  2921. BD*(   1) C  42 - C  64          0.02439     0.32232   
  2922. BD*(   1) C  42 - H 174          0.02228     0.32980   
  2923. BD*(   1) C  64 - C  65          0.02707     0.32176   
  2924. BD*(   1) C  64 - H  67          0.01573     0.33622   
  2925. BD*(   1) C  64 - H  68          0.00901     0.32853   
  2926. BD*(   1) C  65 - H  66          0.02695     0.32100   
  2927. BD*(   1) C  65 - H 173          0.01859     0.32884   
  2928. BD*(   1) C  69 - C  70          0.02391     0.34026   
  2929. BD*(   1) C  69 - H  73          0.00627     0.39840   
  2930. BD*(   1) C  69 - H  74          0.00742     0.38728   
  2931. BD*(   1) C  69 - H  75          0.00698     0.39028   
  2932. BD*(   1) C  70 - C  71          0.02471     0.33800   
  2933. BD*(   1) C  70 - C  72          0.02009     0.35213   
  2934. BD*(   1) C  71 - H  76          0.00693     0.38669   
  2935. BD*(   1) C  71 - H  77          0.00702     0.38587   
  2936. BD*(   1) C  71 - H  78          0.00781     0.38308   
  2937. BD*(   1) C  72 - H  79          0.00787     0.39694   
  2938. BD*(   1) C  72 - H  80          0.00675     0.39538   
  2939. BD*(   1) C  72 - H  81          0.00668     0.40922   
  2940. BD*(   1) C  82 - C  83          0.02467     0.32897   
  2941. BD*(   1) C  82 - H  86          0.00737     0.38267   
  2942. BD*(   1) C  82 - H  87          0.00794     0.37566   
  2943. BD*(   1) C  82 - H  88          0.00684     0.37928   
  2944. BD*(   1) C  83 - C  84          0.02059     0.33995   
  2945. BD*(   1) C  83 - C  85          0.02404     0.33198   
  2946. BD*(   1) C  84 - H  89          0.00719     0.38016   
  2947. BD*(   1) C  84 - H  90          0.00741     0.37779   
  2948. BD*(   1) C  84 - H  91          0.00704     0.38212   
  2949. BD*(   1) C  85 - H  92          0.00648     0.38657   
  2950. BD*(   1) C  85 - H  93          0.00750     0.37800   
  2951. BD*(   1) C  85 - H  94          0.00685     0.38817   
  2952. BD*(   1) C  95 - C  96          0.02050     0.33378   
  2953. BD*(   1) C  95 - H  99          0.00724     0.37457   
  2954. BD*(   1) C  95 - H 100          0.00708     0.37688   
  2955. BD*(   1) C  95 - H 101          0.00741     0.37195   
  2956. BD*(   1) C  96 - C  97          0.02489     0.32665   
  2957. BD*(   1) C  96 - C  98          0.02414     0.32486   
  2958. BD*(   1) C  97 - H 102          0.00692     0.38372   
  2959. BD*(   1) C  97 - H 103          0.00699     0.37574   
  2960. BD*(   1) C  97 - H 104          0.00812     0.37243   
  2961. BD*(   1) C  98 - H 105          0.00760     0.37804   
  2962. BD*(   1) C  98 - H 106          0.00786     0.37308   
  2963. BD*(   1) C  98 - H 107          0.00671     0.37736   
  2964. BD*(   1) C 108 - C 109          0.02059     0.34591   
  2965. BD*(   1) C 108 - H 112          0.00698     0.39785   
  2966. BD*(   1) C 108 - H 113          0.00683     0.38968   
  2967. BD*(   1) C 108 - H 114          0.00729     0.39028   
  2968. BD*(   1) C 109 - C 110          0.02411     0.33249   
  2969. BD*(   1) C 109 - C 111          0.02458     0.33496   
  2970. BD*(   1) C 110 - H 115          0.00716     0.38106   
  2971. BD*(   1) C 110 - H 116          0.00737     0.38601   
  2972. BD*(   1) C 110 - H 117          0.00765     0.37899   
  2973. BD*(   1) C 111 - H 118          0.00674     0.38308   
  2974. BD*(   1) C 111 - H 119          0.00761     0.38064   
  2975. BD*(   1) C 111 - H 120          0.00639     0.38961   
  2976. BD*(   1) C 121 - C 122          0.02095     0.34818   
  2977. BD*(   1) C 121 - H 125          0.00741     0.38574   
  2978. BD*(   1) C 121 - H 126          0.00704     0.39001   
  2979. BD*(   1) C 121 - H 127          0.00759     0.38358   
  2980. BD*(   1) C 122 - C 123          0.02408     0.33945   
  2981. BD*(   1) C 122 - C 124          0.02363     0.34462   
  2982. BD*(   1) C 123 - H 128          0.00693     0.39791   
  2983. BD*(   1) C 123 - H 129          0.00698     0.38532   
  2984. BD*(   1) C 123 - H 130          0.00762     0.38657   
  2985. BD*(   1) C 124 - H 131          0.00664     0.41616   
  2986. BD*(   1) C 124 - H 132          0.00741     0.39236   
  2987. BD*(   1) C 124 - H 133          0.00631     0.39932   
  2988. BD*(   1) C 134 - C 135          0.02471     0.32947   
  2989. BD*(   1) C 134 - H 138          0.00746     0.38290   
  2990. BD*(   1) C 134 - H 139          0.00798     0.37582   
  2991. BD*(   1) C 134 - H 140          0.00680     0.38041   
  2992. BD*(   1) C 135 - C 136          0.02058     0.34065   
  2993. BD*(   1) C 135 - C 137          0.02403     0.33182   
  2994. BD*(   1) C 136 - H 141          0.00718     0.38073   
  2995. BD*(   1) C 136 - H 142          0.00736     0.37877   
  2996. BD*(   1) C 136 - H 143          0.00705     0.38256   
  2997. BD*(   1) C 137 - H 144          0.00650     0.38649   
  2998. BD*(   1) C 137 - H 145          0.00758     0.37807   
  2999. BD*(   1) C 137 - H 146          0.00676     0.38640   
  3000. BD*(   1) C 147 - C 148          0.02326     0.33508   
  3001. BD*(   1) C 147 - H 151          0.00655     0.38778   
  3002. BD*(   1) C 147 - H 152          0.00718     0.38250   
  3003. BD*(   1) C 147 - H 153          0.00647     0.39926   
  3004. BD*(   1) C 148 - C 149          0.02466     0.32974   
  3005. BD*(   1) C 148 - C 150          0.02095     0.33956   
  3006. BD*(   1) C 149 - H 154          0.00747     0.38336   
  3007. BD*(   1) C 149 - H 155          0.00728     0.39345   
  3008. BD*(   1) C 149 - H 156          0.00800     0.37845   
  3009. BD*(   1) C 150 - H 157          0.00756     0.37474   
  3010. BD*(   1) C 150 - H 158          0.00696     0.38190   
  3011. BD*(   1) C 150 - H 159          0.00728     0.37742   
  3012. BD*(   1) C 160 - C 161          0.02421     0.32528   
  3013. BD*(   1) C 160 - H 164          0.00667     0.37597   
  3014. BD*(   1) C 160 - H 165          0.00765     0.37138   
  3015. BD*(   1) C 160 - H 166          0.00681     0.37695   
  3016. BD*(   1) C 161 - C 162          0.02500     0.32291   
  3017. BD*(   1) C 161 - C 163          0.02051     0.33405   
  3018. BD*(   1) C 162 - H 167          0.00734     0.37598   
  3019. BD*(   1) C 162 - H 168          0.00699     0.37449   
  3020. BD*(   1) C 162 - H 169          0.00788     0.36927   
  3021. BD*(   1) C 163 - H 170          0.00796     0.38420   
  3022. BD*(   1) C 163 - H 171          0.00702     0.37609   
  3023. BD*(   1) C 163 - H 172          0.00804     0.37635   
       -------------------------------
              Total Lewis  636.57371  ( 98.2367%)
        Valence non-Lewis   10.39076  (  1.6035%)
        Rydberg non-Lewis    1.03553  (  0.1598%)
       -------------------------------
            Total unit  1  648.00000  (100.0000%)
           Charge unit  1    0.00000
 1\1\GINC-NOTCH079\SP\RPBE1PBE\Gen\C71H96Cl2O2P2Pd1\U1010977\02-Nov-202
 1\0\\# PBE1PBE gen pseudo=read int=(grid=ultrafine) empiricaldispersio
 n=GD3BJ pop=nbo guess=read geom=check\\title\\0,1\Pd,0,-4.1689606371,-
 1.2678507457,0.8531899712\P,0,-5.1332617339,0.0641096082,2.4499480642\
 P,0,-2.3470756368,0.083768843,0.6396754046\O,0,-1.4613076052,3.6081590
 663,3.5252883562\O,0,-4.0994517784,4.5165210538,2.7964172457\C,0,-6.08
 95608031,-0.9886575252,3.6032507629\C,0,-5.6235555401,-2.3026801793,3.
 8029239523\C,0,-6.2460065642,-3.1468200265,4.7289290804\C,0,-7.3380032
 064,-2.630596449,5.4630600576\C,0,-7.8272617411,-1.3284535832,5.278970
 6189\C,0,-7.1832282499,-0.5080306152,4.3285871757\C,0,-6.2022213802,1.
 4018589996,1.8181303132\C,0,-6.7153073561,2.4167082277,2.6400263942\C,
 0,-7.5754389882,3.3973052643,2.1043680982\C,0,-7.8290965291,3.36137192
 28,0.7229029639\C,0,-7.2811083761,2.3814656735,-0.1332532623\C,0,-6.48
 76577727,1.3817319863,0.4413326979\C,0,-3.9462078524,0.9089189634,3.59
 26918814\C,0,-3.8148916415,0.4547101855,4.9196402767\C,0,-2.9045094617
 ,1.0646041655,5.7899304178\C,0,-2.1158190863,2.1349250454,5.3569772347
 \C,0,-2.2457356829,2.5924079974,4.0387369992\C,0,-3.1491408577,1.98501
 6496,3.1360126805\C,0,-3.2451050665,2.5542925322,1.7604001073\C,0,-3.7
 018798322,3.8875150022,1.6399831799\C,0,-3.8048441883,4.5169430334,0.3
 921843304\C,0,-3.4260624316,3.8184439332,-0.7588036905\C,0,-2.95751905
 11,2.5028182221,-0.6653599271\C,0,-2.8631386834,1.8610538763,0.5860909
 888\C,0,-1.4628418292,-0.133191001,-0.9504703353\C,0,-2.2138643031,-0.
 4732435909,-2.0871065722\C,0,-1.601526781,-0.5761895682,-3.3468895956\
 C,0,-0.2153243492,-0.3357149001,-3.4296156458\C,0,0.562309108,-0.00779
 76678,-2.303854586\C,0,-0.0843286673,0.0922421298,-1.058572615\C,0,-1.
 1006016385,-0.0626267923,1.9609094981\C,0,-1.1526119732,-1.2071051155,
 2.7634254424\C,0,-0.2037406885,-1.4107614602,3.7842564587\C,0,0.795929
 3216,-0.4392105823,3.9476618234\C,0,0.8709508584,0.7269002617,3.151269
 0022\C,0,-0.1021289803,0.9110645905,2.1606072193\C,0,-3.4464931906,5.7
 502080768,3.1567317169\H,0,-4.7960174645,-2.6632229168,3.1868631421\H,
 0,-7.8291262017,-3.2829660299,6.189943947\H,0,-7.5516523912,0.50438655
 84,4.142786497\H,0,-6.433440032,2.4511501515,3.6975161359\H,0,-8.47747
 70992,4.1253781623,0.2858468691\H,0,-6.0694092785,0.5677582699,-0.1562
 754243\H,0,-4.4292737148,-0.376078524,5.2730366763\H,0,-2.806566885,0.
 6976429139,6.8168056027\H,0,-1.3920952679,2.5999037689,6.0324546197\H,
 0,-4.196373691,5.5371771238,0.3337523372\H,0,-3.5002634427,4.299671710
 5,-1.7394371958\H,0,-2.6570299936,1.9703810613,-1.5710288114\H,0,-3.27
 94095323,-0.6918374292,-1.969671289\H,0,0.2739562221,-0.4197229655,-4.
 4013319864\H,0,0.4945138176,0.3298983268,-0.162683669\H,0,-1.949907118
 8,-1.935234677,2.5767894573\H,0,1.5477421691,-0.5820114148,4.728897299
 8\H,0,-0.1144141105,1.8193403282,1.5534868812\H,0,-2.7770880107,6.0788
 907206,2.3400069032\Cl,0,-6.288289744,-2.3403395733,0.5759490999\Cl,0,
 -3.0284884479,-3.0401512537,-0.2582662061\C,0,-2.6781318472,5.55072330
 87,4.4674726548\C,0,-1.3463337326,4.8131259201,4.3032807155\H,0,-0.890
 1807678,4.6085805983,5.291416575\H,0,-3.3354330516,5.0028008516,5.1663
 296735\H,0,-2.4690346572,6.5355315924,4.9264753299\C,0,-6.9960164007,-
 5.5426236218,4.6679205826\C,0,-5.7953199203,-4.6029080046,4.9328006915
 \C,0,-5.3040745909,-4.7817407575,6.3886183234\C,0,-4.657103597,-5.0005
 233266,3.9718936929\H,0,-7.3594945341,-5.4245679042,3.6331522729\H,0,-
 6.6916678763,-6.5947684497,4.810949868\H,0,-7.838168555,-5.3400613115,
 5.3513854884\H,0,-4.4346299843,-4.1315350615,6.5913771178\H,0,-6.09238
 88426,-4.5328140324,7.1200663213\H,0,-4.9985218388,-5.8289524688,6.562
 9973063\H,0,-3.7401896145,-4.4130676709,4.1527426784\H,0,-4.4014861248
 ,-6.0631312998,4.1256711098\H,0,-4.9462983806,-4.8704531501,2.91483634
 14\C,0,-8.5434047572,0.4441543883,6.9067773383\C,0,-9.0227202779,-0.76
 46075077,6.0674242325\C,0,-9.6397494038,-1.8040698224,7.0219394984\C,0
 ,-10.1181374105,-0.3021045196,5.0771378248\H,0,-8.1126301676,1.2352480
 297,6.2695264972\H,0,-9.3886528735,0.8835595491,7.4663127481\H,0,-7.77
 0218316,0.1372889994,7.6324832377\H,0,-10.0120597389,-2.6879152668,6.4
 755750712\H,0,-8.9143988989,-2.1454489356,7.7810481878\H,0,-10.4946543
 729,-1.3548442816,7.5559093452\H,0,-10.4739528782,-1.1470918082,4.4635
 060452\H,0,-10.9798580358,0.1134449209,5.6297920667\H,0,-9.7496939344,
 0.4792235208,4.3914005261\C,0,-9.1902954689,5.3744249235,2.2915074251\
 C,0,-8.2121550016,4.4458102599,3.0362279101\C,0,-7.1071571949,5.317375
 3963,3.6763474651\C,0,-8.9969539616,3.7155519985,4.1527109072\H,0,-10.
 0146794407,4.80920843,1.8232123096\H,0,-9.6357842423,6.0897080445,3.00
 40161437\H,0,-8.6812427017,5.9600904546,1.5062306935\H,0,-6.3724315407
 ,4.7070727622,4.2260028054\H,0,-6.556358699,5.8747988969,2.8997239402\
 H,0,-7.5550546793,6.0429088939,4.3792303385\H,0,-8.3366035189,3.081342
 5713,4.7682882158\H,0,-9.4782252351,4.4477473338,4.8255062292\H,0,-9.7
 837932889,3.0698492846,3.7257531574\C,0,-6.7740503387,1.3444026471,-2.
 407623981\C,0,-7.566803207,2.4235544099,-1.6431601383\C,0,-7.160215674
 6,3.8081125571,-2.2011402934\C,0,-9.0780223182,2.1922109763,-1.8776836
 33\H,0,-7.0485805908,0.3242105103,-2.0885853418\H,0,-6.9831889344,1.42
 66425228,-3.4882816099\H,0,-5.6860346578,1.4696027963,-2.2637285587\H,
 0,-7.7294307328,4.6275874899,-1.7300008927\H,0,-6.0866784246,3.9962082
 555,-2.0275672668\H,0,-7.3500582208,3.8497521112,-3.2884248217\H,0,-9.
 6892485575,2.9558983729,-1.366181945\H,0,-9.309591359,2.2383520971,-2.
 9569165735\H,0,-9.3846526061,1.2018305912,-1.5004304034\C,0,-1.6549197
 477,-0.9601958128,-5.8744940976\C,0,-2.453918465,-0.9904257413,-4.5580
 866261\C,0,-3.6565120652,-0.0262843843,-4.6975572923\C,0,-2.9718460319
 ,-2.4306525956,-4.3224725139\H,0,-0.8123843926,-1.6732636287,-5.858291
 1531\H,0,-2.3136026282,-1.2462294004,-6.7123174275\H,0,-1.2543983078,0
 .0465785709,-6.0896198933\H,0,-4.309207837,-0.051546073,-3.8090708492\
 H,0,-3.3159740647,1.0142884464,-4.8437118937\H,0,-4.2721320286,-0.3122
 442329,-5.5688163513\H,0,-3.5395683408,-2.5164914859,-3.3809137563\H,0
 ,-3.6283205363,-2.7395004283,-5.1559393049\H,0,-2.129877232,-3.1413952
 428,-4.2625848295\C,0,2.3620684953,1.7088065579,-1.9470899511\C,0,2.07
 8411108,0.2493963826,-2.3776804037\C,0,2.6400603573,0.0428882522,-3.79
 69106015\C,0,2.811460126,-0.7177035498,-1.4170177518\H,0,2.0052525945,
 1.9043268516,-0.9209413685\H,0,3.4474642954,1.9137367208,-1.9733387167
 \H,0,1.8585749376,2.423831939,-2.6205420759\H,0,2.4768643319,-0.989054
 9445,-4.1529716784\H,0,2.182702111,0.7366665314,-4.5237221126\H,0,3.72
 76972203,0.2298576414,-3.7962351968\H,0,2.6184772272,-1.7681932958,-1.
 6934808072\H,0,3.9015055465,-0.5421924856,-1.4590853897\H,0,2.48819,-0
 .5816640922,-0.3707188353\C,0,-0.341510429,-3.9269057267,3.7879293974\
 C,0,-0.3222323914,-2.6588786169,4.6747077327\C,0,-1.6461986945,-2.5674
 724817,5.4721453856\C,0,0.8427895723,-2.7779951769,5.6746082659\H,0,0.
 597288276,-4.0199123821,3.2152679938\H,0,-0.4517559562,-4.8270667689,4
 .4185118407\H,0,-1.1742865726,-3.9179197454,3.0650298568\H,0,-1.648002
 0165,-1.681719192,6.1306807719\H,0,-2.5188041628,-2.4850128727,4.80257
 266\H,0,-1.7797435928,-3.4688924776,6.0974124737\H,0,0.8741166371,-1.9
 23284955,6.3732631357\H,0,0.72165269,-3.6947986868,6.2764521017\H,0,1.
 8170746892,-2.8416320642,5.1590151434\C,0,3.3622955327,1.052913879,3.1
 887757308\C,0,1.9957264471,1.747713086,3.3955821146\C,0,1.8938187632,2
 .2780979759,4.845260129\C,0,1.9101841316,2.9504406741,2.4362460807\H,0
 ,3.4553135196,0.6737452745,2.1559186853\H,0,4.186310932,1.7661547479,3
 .369907346\H,0,3.4966755148,0.1994412817,3.8744917154\H,0,0.9270964564
 ,2.787540372,4.9977187821\H,0,1.970591586,1.4650256959,5.5866224263\H,
 0,2.7047363872,3.0002769657,5.0485282622\H,0,0.9493284798,3.4818014816
 ,2.542592615\H,0,2.7243674526,3.6611588241,2.6601076915\H,0,2.02164715
 57,2.6404867319,1.3819499235\H,0,-0.6303921278,5.4247910557,3.72861297
 \H,0,-4.2348179106,6.5123058688,3.2923231302\\Version=ES64L-G16RevB.01
 \State=1-A\HF=-4642.2781808\RMSD=1.835e-09\Dipole=1.3924926,4.4848675,
 2.3356165\Quadrupole=-0.7870844,-6.5596704,7.3467548,-4.8077527,-3.161
 1165,-10.1807301\PG=C01 [X(C71H96Cl2O2P2Pd1)]\\@


            THE IRISH PIG
 'TWAS AN EVENING IN NOVEMBER,
 AS I VERY WELL REMEMBER
 I WAS STROLLING DOWN THE STREET IN DRUNKEN PRIDE,
 BUT MY KNEES WERE ALL A'FLUTTER
 SO I LANDED IN THE GUTTER,
 AND A PIG CAME UP AND LAY DOWN BY MY SIDE.

 YES, I LAY THERE IN THE GUTTER
 THINKING THOUGHTS I COULD NOT UTTER
 WHEN A COLLEEN PASSING BY DID SOFTLY SAY,
 'YE CAN TELL A MAN THAT BOOZES
 BY THE COMPANY THAT HE CHOOSES.' -
 AT THAT, THE PIG GOT UP AND WALKED AWAY!
     -- THE ECONOMIST, AUGUST 23, 1986
 Job cpu time:       0 days 12 hours 17 minutes 26.7 seconds.
 Elapsed time:       0 days  0 hours 23 minutes 11.6 seconds.
 File lengths (MBytes):  RWF=   4684 Int=      0 D2E=      0 Chk=    699 Scr=      1
 Normal termination of Gaussian 16 at Tue Nov  2 17:23:09 2021.
