 Entering Gaussian System, Link 0=/uufs/chpc.utah.edu/sys/installdir/gaussian16/B01/E6B/g16/g16
 Input=S-35tBu-C3-Tunephos_3_SPE.com
 Output=S-35tBu-C3-Tunephos_3_SPE.log
 Initial command:
 /uufs/chpc.utah.edu/sys/installdir/gaussian16/B01/E6B/g16/l1.exe "/scratch/general/lustre/u1010977/3356304/notchpeak.peaks/Gau-181602.inp" -scrdir="/scratch/general/lustre/u1010977/3356304/notchpeak.peaks/"
 Entering Link 1 = /uufs/chpc.utah.edu/sys/installdir/gaussian16/B01/E6B/g16/l1.exe PID=    181604.
  
 Copyright (c) 1988-2017, Gaussian, Inc.  All Rights Reserved.
  
 This is part of the Gaussian(R) 16 program.  It is based on
 the Gaussian(R) 09 system (copyright 2009, Gaussian, Inc.),
 the Gaussian(R) 03 system (copyright 2003, Gaussian, Inc.),
 the Gaussian(R) 98 system (copyright 1998, Gaussian, Inc.),
 the Gaussian(R) 94 system (copyright 1995, Gaussian, Inc.),
 the Gaussian 92(TM) system (copyright 1992, Gaussian, Inc.),
 the Gaussian 90(TM) system (copyright 1990, Gaussian, Inc.),
 the Gaussian 88(TM) system (copyright 1988, Gaussian, Inc.),
 the Gaussian 86(TM) system (copyright 1986, Carnegie Mellon
 University), and the Gaussian 82(TM) system (copyright 1983,
 Carnegie Mellon University). Gaussian is a federally registered
 trademark of Gaussian, Inc.
  
 This software contains proprietary and confidential information,
 including trade secrets, belonging to Gaussian, Inc.
  
 This software is provided under written license and may be
 used, copied, transmitted, or stored only in accord with that
 written license.
  
 The following legend is applicable only to US Government
 contracts under FAR:
  
                    RESTRICTED RIGHTS LEGEND
  
 Use, reproduction and disclosure by the US Government is
 subject to restrictions as set forth in subparagraphs (a)
 and (c) of the Commercial Computer Software - Restricted
 Rights clause in FAR 52.227-19.
  
 Gaussian, Inc.
 340 Quinnipiac St., Bldg. 40, Wallingford CT 06492
  
  
 ---------------------------------------------------------------
 Warning -- This program may not be used in any manner that
 competes with the business of Gaussian, Inc. or will provide
 assistance to any competitor of Gaussian, Inc.  The licensee
 of this program is prohibited from giving any competitor of
 Gaussian, Inc. access to this program.  By using this program,
 the user acknowledges that Gaussian, Inc. is engaged in the
 business of creating and licensing software in the field of
 computational chemistry and represents and warrants to the
 licensee that it is not a competitor of Gaussian, Inc. and that
 it will not use this program in any manner prohibited above.
 ---------------------------------------------------------------
  

 Cite this work as:
 Gaussian 16, Revision B.01,
 M. J. Frisch, G. W. Trucks, H. B. Schlegel, G. E. Scuseria, 
 M. A. Robb, J. R. Cheeseman, G. Scalmani, V. Barone, 
 G. A. Petersson, H. Nakatsuji, X. Li, M. Caricato, A. V. Marenich, 
 J. Bloino, B. G. Janesko, R. Gomperts, B. Mennucci, H. P. Hratchian, 
 J. V. Ortiz, A. F. Izmaylov, J. L. Sonnenberg, D. Williams-Young, 
 F. Ding, F. Lipparini, F. Egidi, J. Goings, B. Peng, A. Petrone, 
 T. Henderson, D. Ranasinghe, V. G. Zakrzewski, J. Gao, N. Rega, 
 G. Zheng, W. Liang, M. Hada, M. Ehara, K. Toyota, R. Fukuda, 
 J. Hasegawa, M. Ishida, T. Nakajima, Y. Honda, O. Kitao, H. Nakai, 
 T. Vreven, K. Throssell, J. A. Montgomery, Jr., J. E. Peralta, 
 F. Ogliaro, M. J. Bearpark, J. J. Heyd, E. N. Brothers, K. N. Kudin, 
 V. N. Staroverov, T. A. Keith, R. Kobayashi, J. Normand, 
 K. Raghavachari, A. P. Rendell, J. C. Burant, S. S. Iyengar, 
 J. Tomasi, M. Cossi, J. M. Millam, M. Klene, C. Adamo, R. Cammi, 
 J. W. Ochterski, R. L. Martin, K. Morokuma, O. Farkas, 
 J. B. Foresman, and D. J. Fox, Gaussian, Inc., Wallingford CT, 2016.
 
 ******************************************
 Gaussian 16:  ES64L-G16RevB.01 20-Dec-2017
                 2-Nov-2021 
 ******************************************
 %NProcShared=40
 Will use up to   40 processors via shared memory.
 %mem=18GB
 %chk=S-35tBu-C3-Tunephos_3_SPE.chk
 ----------------------------------------------------------------------
 # PBE1PBE gen pseudo=read int=(grid=ultrafine) empiricaldispersion=GD3
 BJ nmr=giao
 ----------------------------------------------------------------------
 1/38=1,172=1/1;
 2/12=2,17=6,18=5,40=1/2;
 3/5=7,11=2,16=1,17=8,25=1,30=1,74=-13,75=-5,124=41/1,2,3,8;
 4//1;
 5/5=2,38=5/2;
 8/6=1,10=90,11=11/1;
 10/13=100,45=16/2;
 6/7=2,8=2,9=2,10=2,28=1/1;
 99/9=1/99;
 -----
 title
 -----
 Symbolic Z-matrix:
 Charge =  0 Multiplicity = 1
 Pd                   -3.86182  -1.37037   0.98972 
 P                    -5.04682  -0.14056   2.50201 
 P                    -2.20113   0.19796   0.78984 
 O                    -1.60444   3.52768   3.88535 
 O                    -4.26292   4.37813   3.16531 
 C                    -6.11461  -1.16014   3.58875 
 C                    -5.72796  -2.47963   3.8699 
 C                    -6.4741   -3.26992   4.7608 
 C                    -7.61115  -2.69458   5.36248 
 C                    -8.0231   -1.37635   5.09242 
 C                    -7.25596  -0.61553   4.19257 
 C                    -6.10715   1.15973   1.78992 
 C                    -6.59919   2.22945   2.55754 
 C                    -7.43695   3.19156   1.9712 
 C                    -7.72412   3.063     0.5974 
 C                    -7.23301   2.00806  -0.19535 
 C                    -6.42671   1.04337   0.42897 
 C                    -3.94166   0.71077   3.71662 
 C                    -3.79637   0.16141   5.00639 
 C                    -2.915     0.73819   5.92743 
 C                    -2.17299   1.87362   5.58569 
 C                    -2.32445   2.4307    4.30869 
 C                    -3.19238   1.85413   3.3513 
 C                    -3.28352   2.52716   2.0221 
 C                    -3.78669   3.84812   1.98458 
 C                    -3.86611   4.5681    0.78512 
 C                    -3.41555   3.97703  -0.3988 
 C                    -2.89804   2.6766   -0.38578 
 C                    -2.82862   1.94195   0.81473 
 C                    -1.4336    0.04035  -0.8641 
 C                    -2.30801  -0.13199  -1.94727 
 C                    -1.81646  -0.28472  -3.25481 
 C                    -0.42283  -0.28226  -3.42872 
 C                     0.48073  -0.13093  -2.35611 
 C                    -0.0436    0.04434  -1.06486 
 C                    -0.88069   0.13196   2.04789 
 C                    -0.88432  -0.97834   2.91079 
 C                     0.09141  -1.1057    3.90693 
 C                     1.09117  -0.11202   3.98 
 C                     1.12761   1.00257   3.12489 
 C                     0.10328   1.1261    2.16322 
 C                    -3.66454   5.60081   3.64754 
 H                    -4.85851  -2.89553   3.35268 
 H                    -8.20072  -3.29913   6.05356 
 H                    -7.56004   0.40499   3.94682 
 H                    -6.29633   2.32192   3.60311 
 H                    -8.35357   3.82417   0.12276 
 H                    -6.03133   0.18436  -0.12024 
 H                    -4.38051  -0.71732   5.29025 
 H                    -2.80694   0.29815   6.92415 
 H                    -1.471     2.3145    6.2991 
 H                    -4.29492   5.57491   0.78805 
 H                    -3.47278   4.52952  -1.34229 
 H                    -2.53861   2.23061  -1.31568 
 H                    -3.385    -0.18732  -1.75457 
 H                    -0.01651  -0.42419  -4.43359 
 H                     0.61987   0.14785  -0.20408 
 H                    -1.67005  -1.72696   2.77836 
 H                     1.87058  -0.21897   4.73884 
 H                     0.06613   1.99991   1.50405 
 H                    -2.99097   6.02142   2.87802 
 Cl                   -5.78402  -2.73503   0.61158 
 Cl                   -2.42385  -2.94892  -0.0755 
 C                    -2.91869   5.32528   4.95725 
 C                    -1.55138   4.66315   4.76424 
 H                    -1.10635   4.39477   5.74185 
 H                    -3.56474   4.69118   5.59082 
 H                    -2.76683   6.27654   5.50156 
 C                    -6.90396  -5.41807   6.08051 
 C                    -6.05496  -4.73113   4.99429 
 C                    -4.57175  -4.78477   5.43088 
 C                    -6.22684  -5.50381   3.66304 
 H                    -7.96957  -5.46959   5.79686 
 H                    -6.55065  -6.45351   6.22432 
 H                    -6.82745  -4.89802   7.05212 
 H                    -3.90124  -4.37528   4.65771 
 H                    -4.4101   -4.21382   6.36251 
 H                    -4.2683   -5.83128   5.61137 
 H                    -5.65001  -5.0437    2.84321 
 H                    -5.88979  -6.54921   3.78388 
 H                    -7.28615  -5.51469   3.35386 
 C                    -10.23477  -0.26273   4.62717 
 C                    -9.26548  -0.73554   5.73735 
 C                    -8.82096   0.48418   6.58037 
 C                    -10.01969  -1.71412   6.65701 
 H                    -10.56095  -1.11153   4.00238 
 H                    -11.1307   0.20212   5.07661 
 H                    -9.76593   0.48252   3.96185 
 H                    -8.13346   0.17634   7.38722 
 H                    -8.29928   1.23549   5.96233 
 H                    -9.69793   0.97375   7.04084 
 H                    -9.38824  -2.05857   7.4945 
 H                    -10.90233  -1.2119    7.08903 
 H                    -10.37517  -2.60071   6.1039 
 C                    -9.57018   4.31521   2.68201 
 C                    -8.0269    4.3643    2.77416 
 C                    -7.50945   5.69565   2.17992 
 C                    -7.62804   4.31201   4.26176 
 H                    -9.95756   3.37281   3.10745 
 H                    -10.01408   5.1559    3.24478 
 H                    -9.92241   4.38346   1.63901 
 H                    -6.4099    5.74071   2.25504 
 H                    -7.78415   5.80358   1.11696 
 H                    -7.93588   6.55426   2.72922 
 H                    -6.53313   4.35664   4.38642 
 H                    -8.07064   5.17183   4.79377 
 H                    -7.99807   3.39311   4.75086 
 C                    -9.07519   1.99279  -1.92131 
 C                    -7.54562   1.95052  -1.69964 
 C                    -6.99579   0.66785  -2.3533 
 C                    -6.88518   3.1737   -2.38074 
 H                    -9.52828   2.90924  -1.50641 
 H                    -9.30252   1.96624  -3.00178 
 H                    -9.56396   1.12574  -1.44522 
 H                    -5.89635   0.61016  -2.27753 
 H                    -7.41272  -0.2438   -1.89205 
 H                    -7.25346   0.65718  -3.4263 
 H                    -5.7926    3.16342  -2.22173 
 H                    -7.07955   3.15976  -3.46819 
 H                    -7.27589   4.12348  -1.97597 
 C                    -3.6023    0.86213  -4.5844 
 C                    -2.80865  -0.4564   -4.41711 
 C                    -3.78333  -1.6158   -4.09812 
 C                    -2.09974  -0.77054  -5.7481 
 H                    -2.9288    1.69688  -4.84783 
 H                    -4.35543   0.75949  -5.38634 
 H                    -4.13399   1.13492  -3.65699 
 H                    -3.23451  -2.55858  -3.93698 
 H                    -4.37934  -1.42805  -3.18999 
 H                    -4.48704  -1.75741  -4.93777 
 H                    -1.50903  -1.70071  -5.6827 
 H                    -2.85188  -0.9054   -6.5441 
 H                    -1.42777   0.04794  -6.06151 
 C                     2.33912  -1.56837  -3.24425 
 C                     1.99376  -0.18983  -2.6317 
 C                     2.82858  -0.00634  -1.35093 
 C                     2.3795    0.9304   -3.62663 
 H                     1.79927  -1.742    -4.19023 
 H                     3.42182  -1.63205  -3.4553 
 H                     2.07109  -2.38239  -2.54951 
 H                     2.64558   0.97628  -0.8838 
 H                     2.61115  -0.78967  -0.60423 
 H                     3.9029   -0.06531  -1.59694 
 H                     2.15245   1.92534  -3.20564 
 H                     3.46088   0.88847  -3.84891 
 H                     1.83564   0.83519  -4.58153 
 C                     1.35978  -3.14832   4.62636 
 C                     0.10186  -2.2876    4.89 
 C                    -1.14929  -3.17411   4.7337 
 C                     0.13518  -1.7516    6.34076 
 H                     2.28574  -2.55999   4.74823 
 H                     1.39927  -3.99582   5.33397 
 H                     1.34699  -3.55489   3.60077 
 H                    -2.07449  -2.59514   4.90193 
 H                    -1.20801  -3.63491   3.73251 
 H                    -1.12258  -3.9898    5.47673 
 H                    -0.74637  -1.1189    6.5409 
 H                     0.1296   -2.59328   7.05584 
 H                     1.03809  -1.14961   6.53997 
 C                     1.62971   3.43429   3.57589 
 C                     2.2414    2.06463   3.20211 
 C                     2.93267   2.17488   1.82269 
 C                     3.31572   1.71352   4.24921 
 H                     1.17301   3.39388   4.57952 
 H                     2.41505   4.21169   3.58137 
 H                     0.84275   3.73699   2.86646 
 H                     3.37723   1.20957   1.52611 
 H                     2.2229    2.47674   1.034 
 H                     3.73776   2.93054   1.8573 
 H                     3.80362   0.74855   4.02732 
 H                     4.09769   2.49217   4.25091 
 H                     2.89424   1.6631    5.26836 
 H                    -0.85195   5.35107   4.26013 
 H                    -4.48746   6.31716   3.82088 
 
 Stoichiometry    C71H96Cl2O2P2Pd
 Framework group  C1[X(C71H96Cl2O2P2Pd)]
 Deg. of freedom   516
 Full point group                 C1      NOp   1
 Largest Abelian subgroup         C1      NOp   1
 Largest concise Abelian subgroup C1      NOp   1
                         Standard orientation:                         
 ---------------------------------------------------------------------
 Center     Atomic      Atomic             Coordinates (Angstroms)
 Number     Number       Type             X           Y           Z
 ---------------------------------------------------------------------
      1         46           0        0.134835    0.138577   -1.884539
      2         15           0       -1.626968   -0.070259   -0.450629
      3         15           0        1.697750    0.105936   -0.207123
      4          8           0        0.726330   -1.428653    4.003175
      5          8           0       -1.211746    0.702985    4.099395
      6          6           0       -3.107683   -0.823709   -1.225559
      7          6           0       -2.930342   -1.717922   -2.292584
      8          6           0       -4.031410   -2.378928   -2.863290
      9          6           0       -5.308862   -2.120177   -2.327487
     10          6           0       -5.513693   -1.223575   -1.262361
     11          6           0       -4.390370   -0.576055   -0.718340
     12          6           0       -2.175429    1.477031    0.341314
     13          6           0       -2.968380    1.484844    1.501840
     14          6           0       -3.390863    2.702299    2.059170
     15          6           0       -2.960021    3.892859    1.440106
     16          6           0       -2.155192    3.911156    0.284918
     17          6           0       -1.778901    2.676875   -0.267790
     18          6           0       -1.258538   -1.246481    0.928575
     19          6           0       -1.780423   -2.554191    0.865914
     20          6           0       -1.464413   -3.491737    1.855327
     21          6           0       -0.634635   -3.142593    2.925903
     22          6           0       -0.124323   -1.839417    2.998854
     23          6           0       -0.410623   -0.878831    2.000038
     24          6           0        0.179593    0.481110    2.173982
     25          6           0       -0.219809    1.234282    3.302144
     26          6           0        0.316853    2.501833    3.564235
     27          6           0        1.287232    3.025064    2.704797
     28          6           0        1.711522    2.292495    1.590151
     29          6           0        1.165463    1.023333    1.313050
     30          6           0        3.182703    1.019732   -0.763329
     31          6           0        2.958940    2.233984   -1.428966
     32          6           0        4.032469    2.999642   -1.914657
     33          6           0        5.328491    2.491265   -1.729350
     34          6           0        5.582494    1.264151   -1.081664
     35          6           0        4.488915    0.535186   -0.586019
     36          6           0        2.218467   -1.544804    0.371234
     37          6           0        1.771256   -2.647509   -0.378043
     38          6           0        2.121916   -3.949854   -0.001876
     39          6           0        2.967512   -4.106653    1.117333
     40          6           0        3.439404   -3.023904    1.878795
     41          6           0        3.029395   -1.728045    1.502006
     42          6           0       -0.914388    0.488926    5.496284
     43          1           0       -1.924830   -1.860939   -2.698679
     44          1           0       -6.172215   -2.624768   -2.764167
     45          1           0       -4.517857    0.140645    0.096771
     46          1           0       -3.223183    0.537479    1.982524
     47          1           0       -3.259981    4.849163    1.883250
     48          1           0       -1.175273    2.616453   -1.177649
     49          1           0       -2.440812   -2.835376    0.042031
     50          1           0       -1.871603   -4.506096    1.791780
     51          1           0       -0.373179   -3.879961    3.690144
     52          1           0       -0.042532    3.071645    4.426625
     53          1           0        1.713715    4.014550    2.898998
     54          1           0        2.478765    2.707635    0.933029
     55          1           0        1.927691    2.560218   -1.602703
     56          1           0        6.177959    3.057310   -2.120503
     57          1           0        4.639002   -0.427501   -0.093517
     58          1           0        1.144370   -2.452024   -1.252198
     59          1           0        3.265844   -5.119251    1.400888
     60          1           0        3.336728   -0.857613    2.091329
     61          1           0        0.058198    0.949404    5.750854
     62         17           0       -1.365264    0.833016   -3.607222
     63         17           0        1.889357   -0.258796   -3.452354
     64          6           0       -0.921020   -1.013240    5.797971
     65          6           0        0.352216   -1.739856    5.355116
     66          1           0        0.249428   -2.832295    5.502806
     67          1           0       -1.805268   -1.456217    5.305272
     68          1           0       -1.045907   -1.169631    6.886170
     69          6           0       -5.090054   -4.034257   -4.500399
     70          6           0       -3.804218   -3.302375   -4.071980
     71          6           0       -2.734270   -4.363998   -3.723299
     72          6           0       -3.303553   -2.437986   -5.255616
     73          1           0       -5.874917   -3.328975   -4.824726
     74          1           0       -4.869442   -4.697456   -5.354297
     75          1           0       -5.498559   -4.658572   -3.685728
     76          1           0       -1.762686   -3.903279   -3.480781
     77          1           0       -3.048309   -4.977008   -2.859778
     78          1           0       -2.575308   -5.037558   -4.584053
     79          1           0       -2.389404   -1.877398   -4.997493
     80          1           0       -3.085798   -3.078830   -6.129089
     81          1           0       -4.069704   -1.700086   -5.549475
     82          6           0       -7.186672    0.592495   -0.761224
     83          6           0       -6.903113   -0.926325   -0.669709
     84          6           0       -6.918443   -1.359842    0.816167
     85          6           0       -8.028129   -1.676335   -1.407294
     86          1           0       -7.171697    0.932677   -1.810630
     87          1           0       -8.180838    0.820436   -0.336423
     88          1           0       -6.438909    1.184652   -0.206198
     89          1           0       -6.726562   -2.442538    0.912999
     90          1           0       -6.148194   -0.828061    1.401413
     91          1           0       -7.901264   -1.140448    1.270815
     92          1           0       -7.900632   -2.771108   -1.344078
     93          1           0       -9.001577   -1.426747   -0.951194
     94          1           0       -8.074700   -1.394109   -2.473367
     95          6           0       -5.579389    3.540127    2.968519
     96          6           0       -4.284883    2.765411    3.310106
     97          6           0       -3.521896    3.494595    4.441262
     98          6           0       -4.677830    1.364441    3.817707
     99          1           0       -6.140169    3.029923    2.165765
    100          1           0       -6.232116    3.605460    3.857448
    101          1           0       -5.366428    4.567868    2.629470
    102          1           0       -2.604147    2.938754    4.697116
    103          1           0       -3.231176    4.516968    4.145893
    104          1           0       -4.152519    3.569260    5.345429
    105          1           0       -3.788701    0.770775    4.088590
    106          1           0       -5.313890    1.460978    4.714548
    107          1           0       -5.254812    0.803684    3.060639
    108          6           0       -2.897670    6.150981   -0.612125
    109          6           0       -1.680649    5.244742   -0.315324
    110          6           0       -0.897127    5.039632   -1.626369
    111          6           0       -0.751975    5.937139    0.711513
    112          1           0       -3.483910    6.367499    0.297139
    113          1           0       -2.559046    7.115618   -1.030005
    114          1           0       -3.570528    5.675170   -1.345751
    115          1           0        0.018748    4.445304   -1.465777
    116          1           0       -1.500890    4.525782   -2.393911
    117          1           0       -0.588322    6.018257   -2.032271
    118          1           0        0.117299    5.296642    0.942231
    119          1           0       -0.381096    6.896692    0.308739
    120          1           0       -1.278565    6.145083    1.659163
    121          6           0        3.158616    5.324499   -1.592553
    122          6           0        3.745767    4.332608   -2.625899
    123          6           0        2.724979    4.101247   -3.766268
    124          6           0        5.017316    4.956182   -3.231784
    125          1           0        3.885805    5.531369   -0.787442
    126          1           0        2.901522    6.281965   -2.080407
    127          1           0        2.240635    4.927512   -1.126814
    128          1           0        3.107993    3.367341   -4.494744
    129          1           0        1.759531    3.718272   -3.396912
    130          1           0        2.528938    5.051607   -4.294162
    131          1           0        5.484393    4.284382   -3.972705
    132          1           0        4.757671    5.896493   -3.747445
    133          1           0        5.767752    5.197926   -2.458425
    134          6           0        7.616039    0.580807   -2.387948
    135          6           0        7.031754    0.759204   -0.966100
    136          6           0        7.123225   -0.591334   -0.232168
    137          6           0        7.876311    1.793742   -0.185058
    138          1           0        7.614556    1.528473   -2.952208
    139          1           0        8.659673    0.222636   -2.329801
    140          1           0        7.026998   -0.153972   -2.962633
    141          1           0        6.746435   -0.518126    0.802199
    142          1           0        6.552745   -1.380099   -0.752605
    143          1           0        8.176999   -0.915755   -0.182540
    144          1           0        7.484371    1.929124    0.838044
    145          1           0        8.924681    1.453255   -0.110604
    146          1           0        7.876891    2.779456   -0.680086
    147          6           0        2.836778   -5.874558   -1.445176
    148          6           0        1.626259   -5.182207   -0.775862
    149          6           0        0.605287   -4.801765   -1.866095
    150          6           0        0.942652   -6.165684    0.203194
    151          1           0        3.588352   -6.186164   -0.699234
    152          1           0        2.507807   -6.775295   -1.993785
    153          1           0        3.328993   -5.194550   -2.161146
    154          1           0       -0.273075   -4.291914   -1.432468
    155          1           0        1.044757   -4.140040   -2.632345
    156          1           0        0.248085   -5.713262   -2.375743
    157          1           0        0.087097   -5.681936    0.704705
    158          1           0        0.570923   -7.049279   -0.345323
    159          1           0        1.636023   -6.523674    0.983202
    160          6           0        3.685822   -2.720766    4.372019
    161          6           0        4.382883   -3.211852    3.082532
    162          6           0        5.669180   -2.384143    2.851978
    163          6           0        4.790652   -4.683861    3.284521
    164          1           0        2.790657   -3.329795    4.584710
    165          1           0        4.375792   -2.803366    5.231237
    166          1           0        3.359185   -1.671959    4.285201
    167          1           0        6.188578   -2.709878    1.934631
    168          1           0        5.448874   -1.307888    2.751705
    169          1           0        6.361515   -2.507409    3.703951
    170          1           0        5.310604   -5.089700    2.399426
    171          1           0        5.479586   -4.761391    4.143086
    172          1           0        3.918207   -5.325483    3.499060
    173          1           0        1.219295   -1.405896    5.949435
    174          1           0       -1.704565    0.997859    6.076811
 ---------------------------------------------------------------------
 Rotational constants (GHZ):           0.0285139           0.0216768           0.0202513
 General basis read from cards:  (5D, 7F)
 ======================================================================================================
                                       Pseudopotential Parameters
 ======================================================================================================
  Center     Atomic      Valence      Angular      Power
  Number     Number     Electrons     Momentum     of R      Exponent        Coefficient   SO-Coeffient
 ======================================================================================================
    1         46           18
                                      G and up 
                                                     2        1.0000000        0.00000000    0.00000000
                                      S - G
                                                     2       12.4300000      240.22904000    0.00000000
                                                     2        6.1707590       35.17194300    0.00000000
                                      P - G
                                                     2       11.0800000      170.41727600    0.00000000
                                                     2        5.8295540       28.47213300    0.00000000
                                      D - G
                                                     2        9.5100000       69.01384500    0.00000000
                                                     2        4.1397810       11.75086200    0.00000000
                                      F - G
                                                     2       13.2700000      -31.92955400    0.00000000
                                                     2        6.6300000       -5.39821700    0.00000000
    2         15
                                   No pseudopotential on this center.
    3         15
                                   No pseudopotential on this center.
    4          8
                                   No pseudopotential on this center.
    5          8
                                   No pseudopotential on this center.
    6          6
                                   No pseudopotential on this center.
    7          6
                                   No pseudopotential on this center.
    8          6
                                   No pseudopotential on this center.
    9          6
                                   No pseudopotential on this center.
   10          6
                                   No pseudopotential on this center.
   11          6
                                   No pseudopotential on this center.
   12          6
                                   No pseudopotential on this center.
   13          6
                                   No pseudopotential on this center.
   14          6
                                   No pseudopotential on this center.
   15          6
                                   No pseudopotential on this center.
   16          6
                                   No pseudopotential on this center.
   17          6
                                   No pseudopotential on this center.
   18          6
                                   No pseudopotential on this center.
   19          6
                                   No pseudopotential on this center.
   20          6
                                   No pseudopotential on this center.
   21          6
                                   No pseudopotential on this center.
   22          6
                                   No pseudopotential on this center.
   23          6
                                   No pseudopotential on this center.
   24          6
                                   No pseudopotential on this center.
   25          6
                                   No pseudopotential on this center.
   26          6
                                   No pseudopotential on this center.
   27          6
                                   No pseudopotential on this center.
   28          6
                                   No pseudopotential on this center.
   29          6
                                   No pseudopotential on this center.
   30          6
                                   No pseudopotential on this center.
   31          6
                                   No pseudopotential on this center.
   32          6
                                   No pseudopotential on this center.
   33          6
                                   No pseudopotential on this center.
   34          6
                                   No pseudopotential on this center.
   35          6
                                   No pseudopotential on this center.
   36          6
                                   No pseudopotential on this center.
   37          6
                                   No pseudopotential on this center.
   38          6
                                   No pseudopotential on this center.
   39          6
                                   No pseudopotential on this center.
   40          6
                                   No pseudopotential on this center.
   41          6
                                   No pseudopotential on this center.
   42          6
                                   No pseudopotential on this center.
   43          1
                                   No pseudopotential on this center.
   44          1
                                   No pseudopotential on this center.
   45          1
                                   No pseudopotential on this center.
   46          1
                                   No pseudopotential on this center.
   47          1
                                   No pseudopotential on this center.
   48          1
                                   No pseudopotential on this center.
   49          1
                                   No pseudopotential on this center.
   50          1
                                   No pseudopotential on this center.
   51          1
                                   No pseudopotential on this center.
   52          1
                                   No pseudopotential on this center.
   53          1
                                   No pseudopotential on this center.
   54          1
                                   No pseudopotential on this center.
   55          1
                                   No pseudopotential on this center.
   56          1
                                   No pseudopotential on this center.
   57          1
                                   No pseudopotential on this center.
   58          1
                                   No pseudopotential on this center.
   59          1
                                   No pseudopotential on this center.
   60          1
                                   No pseudopotential on this center.
   61          1
                                   No pseudopotential on this center.
   62         17
                                   No pseudopotential on this center.
   63         17
                                   No pseudopotential on this center.
   64          6
                                   No pseudopotential on this center.
   65          6
                                   No pseudopotential on this center.
   66          1
                                   No pseudopotential on this center.
   67          1
                                   No pseudopotential on this center.
   68          1
                                   No pseudopotential on this center.
   69          6
                                   No pseudopotential on this center.
   70          6
                                   No pseudopotential on this center.
   71          6
                                   No pseudopotential on this center.
   72          6
                                   No pseudopotential on this center.
   73          1
                                   No pseudopotential on this center.
   74          1
                                   No pseudopotential on this center.
   75          1
                                   No pseudopotential on this center.
   76          1
                                   No pseudopotential on this center.
   77          1
                                   No pseudopotential on this center.
   78          1
                                   No pseudopotential on this center.
   79          1
                                   No pseudopotential on this center.
   80          1
                                   No pseudopotential on this center.
   81          1
                                   No pseudopotential on this center.
   82          6
                                   No pseudopotential on this center.
   83          6
                                   No pseudopotential on this center.
   84          6
                                   No pseudopotential on this center.
   85          6
                                   No pseudopotential on this center.
   86          1
                                   No pseudopotential on this center.
   87          1
                                   No pseudopotential on this center.
   88          1
                                   No pseudopotential on this center.
   89          1
                                   No pseudopotential on this center.
   90          1
                                   No pseudopotential on this center.
   91          1
                                   No pseudopotential on this center.
   92          1
                                   No pseudopotential on this center.
   93          1
                                   No pseudopotential on this center.
   94          1
                                   No pseudopotential on this center.
   95          6
                                   No pseudopotential on this center.
   96          6
                                   No pseudopotential on this center.
   97          6
                                   No pseudopotential on this center.
   98          6
                                   No pseudopotential on this center.
   99          1
                                   No pseudopotential on this center.
  100          1
                                   No pseudopotential on this center.
  101          1
                                   No pseudopotential on this center.
  102          1
                                   No pseudopotential on this center.
  103          1
                                   No pseudopotential on this center.
  104          1
                                   No pseudopotential on this center.
  105          1
                                   No pseudopotential on this center.
  106          1
                                   No pseudopotential on this center.
  107          1
                                   No pseudopotential on this center.
  108          6
                                   No pseudopotential on this center.
  109          6
                                   No pseudopotential on this center.
  110          6
                                   No pseudopotential on this center.
  111          6
                                   No pseudopotential on this center.
  112          1
                                   No pseudopotential on this center.
  113          1
                                   No pseudopotential on this center.
  114          1
                                   No pseudopotential on this center.
  115          1
                                   No pseudopotential on this center.
  116          1
                                   No pseudopotential on this center.
  117          1
                                   No pseudopotential on this center.
  118          1
                                   No pseudopotential on this center.
  119          1
                                   No pseudopotential on this center.
  120          1
                                   No pseudopotential on this center.
  121          6
                                   No pseudopotential on this center.
  122          6
                                   No pseudopotential on this center.
  123          6
                                   No pseudopotential on this center.
  124          6
                                   No pseudopotential on this center.
  125          1
                                   No pseudopotential on this center.
  126          1
                                   No pseudopotential on this center.
  127          1
                                   No pseudopotential on this center.
  128          1
                                   No pseudopotential on this center.
  129          1
                                   No pseudopotential on this center.
  130          1
                                   No pseudopotential on this center.
  131          1
                                   No pseudopotential on this center.
  132          1
                                   No pseudopotential on this center.
  133          1
                                   No pseudopotential on this center.
  134          6
                                   No pseudopotential on this center.
  135          6
                                   No pseudopotential on this center.
  136          6
                                   No pseudopotential on this center.
  137          6
                                   No pseudopotential on this center.
  138          1
                                   No pseudopotential on this center.
  139          1
                                   No pseudopotential on this center.
  140          1
                                   No pseudopotential on this center.
  141          1
                                   No pseudopotential on this center.
  142          1
                                   No pseudopotential on this center.
  143          1
                                   No pseudopotential on this center.
  144          1
                                   No pseudopotential on this center.
  145          1
                                   No pseudopotential on this center.
  146          1
                                   No pseudopotential on this center.
  147          6
                                   No pseudopotential on this center.
  148          6
                                   No pseudopotential on this center.
  149          6
                                   No pseudopotential on this center.
  150          6
                                   No pseudopotential on this center.
  151          1
                                   No pseudopotential on this center.
  152          1
                                   No pseudopotential on this center.
  153          1
                                   No pseudopotential on this center.
  154          1
                                   No pseudopotential on this center.
  155          1
                                   No pseudopotential on this center.
  156          1
                                   No pseudopotential on this center.
  157          1
                                   No pseudopotential on this center.
  158          1
                                   No pseudopotential on this center.
  159          1
                                   No pseudopotential on this center.
  160          6
                                   No pseudopotential on this center.
  161          6
                                   No pseudopotential on this center.
  162          6
                                   No pseudopotential on this center.
  163          6
                                   No pseudopotential on this center.
  164          1
                                   No pseudopotential on this center.
  165          1
                                   No pseudopotential on this center.
  166          1
                                   No pseudopotential on this center.
  167          1
                                   No pseudopotential on this center.
  168          1
                                   No pseudopotential on this center.
  169          1
                                   No pseudopotential on this center.
  170          1
                                   No pseudopotential on this center.
  171          1
                                   No pseudopotential on this center.
  172          1
                                   No pseudopotential on this center.
  173          1
                                   No pseudopotential on this center.
  174          1
                                   No pseudopotential on this center.
 ======================================================================================================
 There are  3411 symmetry adapted cartesian basis functions of A   symmetry.
 There are  3023 symmetry adapted basis functions of A   symmetry.
  3023 basis functions,  4832 primitive gaussians,  3411 cartesian basis functions
   310 alpha electrons      310 beta electrons
       nuclear repulsion energy     17387.9054108875 Hartrees.
 NAtoms=  174 NActive=  174 NUniq=  174 SFac= 1.00D+00 NAtFMM=   60 NAOKFM=T Big=T
 Integral buffers will be    131072 words long.
 Raffenetti 2 integral format.
 Two-electron integral symmetry is turned on.
 Nuclear repulsion after empirical dispersion term =    17387.6133448261 Hartrees.
 One-electron integrals computed using PRISM.
   1 Symmetry operations used in ECPInt.
 ECPInt:  NShTT=  785631 NPrTT= 2346744 LenC2=  527658 LenP2D= 1004168.
 LDataN:  DoStor=T MaxTD1= 7 Len=  274
 Number of processors reduced to  13 by ecpmxn.
 NBasis=  3023 RedAO= T EigKep=  2.24D-06  NBF=  3023
 NBsUse=  3023 1.00D-06 EigRej= -1.00D+00 NBFU=  3023
 Defaulting to unpruned grid for atomic number  46.
 ExpMin= 1.60D-02 ExpMax= 6.95D+04 ExpMxC= 2.37D+03 IAcc=3 IRadAn=         5 AccDes= 0.00D+00
 Harris functional with IExCor= 1009 and IRadAn=       5 diagonalized for initial guess.
 HarFok:  IExCor= 1009 AccDes= 0.00D+00 IRadAn=         5 IDoV= 1 UseB2=F ITyADJ=14
 ICtDFT=  3500011 ScaDFX=  1.000000  1.000000  1.000000  1.000000
 Defaulting to unpruned grid for atomic number  46.
 FoFCou: FMM=F IPFlag=           0 FMFlag=      100000 FMFlg1=        2001
         NFxFlg=           0 DoJE=T BraDBF=F KetDBF=T FulRan=T
         wScrn=  0.000000 ICntrl=       500 IOpCl=  0 I1Cent=   200000004 NGrid=           0
         NMat0=    1 NMatS0=      1 NMatT0=    0 NMatD0=    1 NMtDS0=    0 NMtDT0=    0
 Petite list used in FoFCou.
 Requested convergence on RMS density matrix=1.00D-08 within 128 cycles.
 Requested convergence on MAX density matrix=1.00D-06.
 Requested convergence on             energy=1.00D-06.
 No special actions if energy rises.
 Defaulting to unpruned grid for atomic number  46.
 Defaulting to unpruned grid for atomic number  46.
 Defaulting to unpruned grid for atomic number  46.
 Defaulting to unpruned grid for atomic number  46.
 Defaulting to unpruned grid for atomic number  46.
 Defaulting to unpruned grid for atomic number  46.
 Defaulting to unpruned grid for atomic number  46.
 Defaulting to unpruned grid for atomic number  46.
 Defaulting to unpruned grid for atomic number  46.
 Defaulting to unpruned grid for atomic number  46.
 Defaulting to unpruned grid for atomic number  46.
 Defaulting to unpruned grid for atomic number  46.
 Defaulting to unpruned grid for atomic number  46.
 Defaulting to unpruned grid for atomic number  46.
 Defaulting to unpruned grid for atomic number  46.
 Defaulting to unpruned grid for atomic number  46.
 Defaulting to unpruned grid for atomic number  46.
 Defaulting to unpruned grid for atomic number  46.
 Defaulting to unpruned grid for atomic number  46.
 Defaulting to unpruned grid for atomic number  46.
 Defaulting to unpruned grid for atomic number  46.
 Defaulting to unpruned grid for atomic number  46.
 Defaulting to unpruned grid for atomic number  46.
 Defaulting to unpruned grid for atomic number  46.
 Defaulting to unpruned grid for atomic number  46.
 Defaulting to unpruned grid for atomic number  46.
 Defaulting to unpruned grid for atomic number  46.
 Defaulting to unpruned grid for atomic number  46.
 Defaulting to unpruned grid for atomic number  46.
 Defaulting to unpruned grid for atomic number  46.
 Defaulting to unpruned grid for atomic number  46.
 Defaulting to unpruned grid for atomic number  46.
 Defaulting to unpruned grid for atomic number  46.
 Defaulting to unpruned grid for atomic number  46.
 Defaulting to unpruned grid for atomic number  46.
 Defaulting to unpruned grid for atomic number  46.
 Defaulting to unpruned grid for atomic number  46.
 Defaulting to unpruned grid for atomic number  46.
 Defaulting to unpruned grid for atomic number  46.
 Defaulting to unpruned grid for atomic number  46.
 EnCoef did    11 forward-backward iterations
 EnCoef did   100 forward-backward iterations
 EnCoef did   100 forward-backward iterations
 EnCoef did     5 forward-backward iterations
 Restarting incremental Fock formation.
 SCF Done:  E(RPBE1PBE) =  -4642.27713851     A.U. after   23 cycles
            NFock= 23  Conv=0.26D-08     -V/T= 2.0223
 DoSCS=F DFT=T ScalE2(SS,OS)=  1.000000  1.000000
 Range of M.O.s used for correlation:     1  3023
 NBasis=  3023 NAE=   310 NBE=   310 NFC=     0 NFV=     0
 NROrb=   3023 NOA=   310 NOB=   310 NVA=  2713 NVB=  2713

 **** Warning!!: The largest alpha MO coefficient is  0.50711397D+02

          Differentiating once with respect to magnetic field using GIAOs.
          Electric field/nuclear overlap derivatives assumed to be zero.
 Defaulting to unpruned grid for atomic number  46.
 FoFCou: FMM=F IPFlag=           0 FMFlag=      100000 FMFlg1=        2001
         NFxFlg=           0 DoJE=F BraDBF=F KetDBF=T FulRan=T
         wScrn=  0.000000 ICntrl=      6100 IOpCl=  0 I1Cent=           7 NGrid=         174
         NMat0=    1 NMatS0=      1 NMatT0=    0 NMatD0=    1 NMtDS0=    0 NMtDT0=    0
 Symmetry not used in FoFCou.
   1 Symmetry operations used in ECPInt.
 ECPInt:  NShTT=  785631 NPrTT= 2346744 LenC2=  785632 LenP2D= 2346744.
 LDataN:  DoStor=T MaxTD1= 8 Len=  415
 Number of processors reduced to   8 by ecpmxn.
 FoFJK:  IHMeth= 1 ICntrl=    6127 DoSepK=F KAlg= 0 I1Cent=           0 FoldK=F
 IRaf=         1 NMat=       1 IRICut=       1 DoRegI=T DoRafI=F ISym2E= 0 IDoP0=0 IntGTp=1.
 Defaulting to unpruned grid for atomic number  46.
 Defaulting to unpruned grid for atomic number  46.
 Defaulting to unpruned grid for atomic number  46.
 Defaulting to unpruned grid for atomic number  46.
 Defaulting to unpruned grid for atomic number  46.
 Defaulting to unpruned grid for atomic number  46.
 Defaulting to unpruned grid for atomic number  46.
 Defaulting to unpruned grid for atomic number  46.
 Defaulting to unpruned grid for atomic number  46.
 Defaulting to unpruned grid for atomic number  46.
 Defaulting to unpruned grid for atomic number  46.
 Defaulting to unpruned grid for atomic number  46.
 Defaulting to unpruned grid for atomic number  46.
 Defaulting to unpruned grid for atomic number  46.
 Defaulting to unpruned grid for atomic number  46.
 Defaulting to unpruned grid for atomic number  46.
 Defaulting to unpruned grid for atomic number  46.
 Defaulting to unpruned grid for atomic number  46.
 Defaulting to unpruned grid for atomic number  46.
 Defaulting to unpruned grid for atomic number  46.
 Defaulting to unpruned grid for atomic number  46.
 Defaulting to unpruned grid for atomic number  46.
 Defaulting to unpruned grid for atomic number  46.
 Defaulting to unpruned grid for atomic number  46.
 Defaulting to unpruned grid for atomic number  46.
 Defaulting to unpruned grid for atomic number  46.
 Defaulting to unpruned grid for atomic number  46.
 Defaulting to unpruned grid for atomic number  46.
 Defaulting to unpruned grid for atomic number  46.
 Defaulting to unpruned grid for atomic number  46.
 Defaulting to unpruned grid for atomic number  46.
 Defaulting to unpruned grid for atomic number  46.
 Defaulting to unpruned grid for atomic number  46.
 Defaulting to unpruned grid for atomic number  46.
 Defaulting to unpruned grid for atomic number  46.
 Defaulting to unpruned grid for atomic number  46.
 Defaulting to unpruned grid for atomic number  46.
 Defaulting to unpruned grid for atomic number  46.
 Defaulting to unpruned grid for atomic number  46.
 Defaulting to unpruned grid for atomic number  46.
          There are     3 degrees of freedom in the 1st order CPHF.  IDoFFX=0 NUNeed=     3.
      3 vectors produced by pass  0 Test12= 2.80D-11 3.33D-08 XBig12= 5.49D+02 2.09D+00.
 AX will form     3 AO Fock derivatives at one time.
      3 vectors produced by pass  1 Test12= 2.80D-11 3.33D-08 XBig12= 1.70D+00 2.26D-01.
      3 vectors produced by pass  2 Test12= 2.80D-11 3.33D-08 XBig12= 1.79D-02 2.88D-02.
      3 vectors produced by pass  3 Test12= 2.80D-11 3.33D-08 XBig12= 3.40D-04 9.08D-03.
      3 vectors produced by pass  4 Test12= 2.80D-11 3.33D-08 XBig12= 3.48D-06 5.49D-04.
      3 vectors produced by pass  5 Test12= 2.80D-11 3.33D-08 XBig12= 1.56D-08 3.53D-05.
      3 vectors produced by pass  6 Test12= 2.80D-11 3.33D-08 XBig12= 3.80D-10 7.80D-06.
      3 vectors produced by pass  7 Test12= 2.80D-11 3.33D-08 XBig12= 4.71D-12 6.47D-07.
      1 vectors produced by pass  8 Test12= 2.80D-11 3.33D-08 XBig12= 2.80D-14 3.85D-08.
 InvSVY:  IOpt=1 It=  1 EMax= 3.55D-15
 Solved reduced A of dimension    25 with     3 vectors.
 Calculating GIAO nuclear magnetic shielding tensors.
 SCF GIAO Magnetic shielding tensor (ppm):
      1  Pd   Isotropic =  -157.9716   Anisotropy =   279.9595
   XX=    -0.6796   YX=     0.4530   ZX=    -0.8793
   XY=   -58.3401   YY=  -496.2014   ZY=   -57.5783
   XZ=    -6.9667   YZ=   -51.5432   ZZ=    22.9663
   Eigenvalues:  -503.5682     0.9854    28.6681
      2  P    Isotropic =   234.6031   Anisotropy =   137.3478
   XX=   257.2461   YX=     3.3058   ZX=   -90.1148
   XY=    23.0113   YY=   199.3282   ZY=    25.9504
   XZ=   -57.3363   YZ=     8.0873   ZZ=   247.2350
   Eigenvalues:   164.9794   212.6616   326.1683
      3  P    Isotropic =   233.6396   Anisotropy =   129.1396
   XX=   242.5209   YX=   -11.4518   ZX=    89.7477
   XY=    14.7395   YY=   224.1542   ZY=   -33.2381
   XZ=    66.4779   YZ=   -19.7928   ZZ=   234.2437
   Eigenvalues:   154.0831   227.1031   319.7327
      4  O    Isotropic =   212.8458   Anisotropy =   128.1661
   XX=   276.8435   YX=     0.1673   ZX=   -52.9268
   XY=   -22.7944   YY=   178.4183   ZY=    74.0405
   XZ=   -24.7735   YZ=    27.5792   ZZ=   183.2755
   Eigenvalues:   127.4490   212.7985   298.2898
      5  O    Isotropic =   217.6762   Anisotropy =   102.6088
   XX=   263.1580   YX=    -3.0617   ZX=    56.1310
   XY=     4.8756   YY=   205.3540   ZY=   -74.2079
   XZ=    25.9360   YZ=   -24.3023   ZZ=   184.5165
   Eigenvalues:   135.9221   231.0244   286.0820
      6  C    Isotropic =    48.1629   Anisotropy =   172.2772
   XX=   -13.3170   YX=   -30.4301   ZX=   -15.5579
   XY=   -40.9118   YY=    82.8896   ZY=   -91.7227
   XZ=   -12.1301   YZ=   -73.1755   ZZ=    74.9162
   Eigenvalues:   -44.1843    25.6587   163.0144
      7  C    Isotropic =    40.7251   Anisotropy =   190.8941
   XX=   -41.8113   YX=     4.0222   ZX=    38.5241
   XY=     3.4531   YY=   109.6998   ZY=   -69.7142
   XZ=    37.2374   YZ=   -89.3902   ZZ=    54.2869
   Eigenvalues:   -61.7322    15.9197   167.9879
      8  C    Isotropic =    28.3745   Anisotropy =   198.6104
   XX=   -20.7262   YX=   -12.2993   ZX=    18.2130
   XY=    -9.7557   YY=    71.8930   ZY=  -104.5940
   XZ=    18.5705   YZ=  -103.1605   ZZ=    33.9567
   Eigenvalues:   -54.2485   -21.4094   160.7814
      9  C    Isotropic =    57.6432   Anisotropy =   170.5335
   XX=    -5.6904   YX=   -38.3358   ZX=   -13.0058
   XY=   -41.0736   YY=    98.2477   ZY=   -78.0825
   XZ=   -11.6021   YZ=   -79.5269   ZZ=    80.3722
   Eigenvalues:   -35.7030    37.3003   171.3322
     10  C    Isotropic =    30.1941   Anisotropy =   195.9995
   XX=   -43.6700   YX=    -5.6415   ZX=    29.1652
   XY=    -8.6433   YY=    82.5245   ZY=   -88.3198
   XZ=    26.0662   YZ=   -91.1971   ZZ=    51.7278
   Eigenvalues:   -54.9882   -15.2899   160.8604
     11  C    Isotropic =    51.1730   Anisotropy =   183.5765
   XX=    26.7688   YX=    -4.2406   ZX=    19.9321
   XY=     6.6255   YY=    78.8464   ZY=  -108.0158
   XZ=    20.7439   YZ=  -108.0246   ZZ=    47.9036
   Eigenvalues:   -49.2112    29.1727   173.5573
     12  C    Isotropic =    52.2761   Anisotropy =   171.9447
   XX=   115.7155   YX=    20.8229   ZX=    76.1675
   XY=    22.7256   YY=   -22.8027   ZY=   -26.7849
   XZ=    68.8410   YZ=   -20.2305   ZZ=    63.9156
   Eigenvalues:   -41.4672    31.3897   166.9059
     13  C    Isotropic =    50.7294   Anisotropy =   185.0505
   XX=   127.9928   YX=   -20.6844   ZX=    70.5781
   XY=   -10.3654   YY=   -29.7355   ZY=    33.0586
   XZ=    77.9623   YZ=    37.2972   ZZ=    53.9310
   Eigenvalues:   -53.4659    31.5577   174.0964
     14  C    Isotropic =    30.6420   Anisotropy =   200.3117
   XX=    93.4634   YX=     3.0408   ZX=   100.3787
   XY=     1.2584   YY=   -15.8393   ZY=     2.3745
   XZ=   105.4898   YZ=    -2.1668   ZZ=    14.3018
   Eigenvalues:   -56.4308   -15.8263   164.1831
     15  C    Isotropic =    50.3790   Anisotropy =   186.9547
   XX=   120.4293   YX=    17.3814   ZX=    79.0361
   XY=    16.0471   YY=   -32.4952   ZY=   -28.1107
   XZ=    77.1525   YZ=   -28.0617   ZZ=    63.2029
   Eigenvalues:   -50.4886    26.6101   175.0154
     16  C    Isotropic =    28.0688   Anisotropy =   202.5670
   XX=   101.5636   YX=   -12.4448   ZX=    89.1417
   XY=   -11.2191   YY=   -49.1173   ZY=     8.7860
   XZ=    90.5567   YZ=    13.0081   ZZ=    31.7602
   Eigenvalues:   -57.8984   -21.0086   163.1135
     17  C    Isotropic =    44.2457   Anisotropy =   181.4693
   XX=    93.1009   YX=    -7.5767   ZX=   107.7731
   XY=    -2.0067   YY=    23.3876   ZY=     2.7024
   XZ=    98.8713   YZ=   -12.3065   ZZ=    16.2487
   Eigenvalues:   -55.5800    23.0920   165.2253
     18  C    Isotropic =    37.6905   Anisotropy =   190.8513
   XX=   109.8193   YX=   -13.5174   ZX=   -73.2265
   XY=   -42.5574   YY=   -18.5604   ZY=    37.4071
   XZ=   -78.6837   YZ=    46.5617   ZZ=    21.8126
   Eigenvalues:   -47.9713    -3.8819   164.9247
     19  C    Isotropic =    50.5673   Anisotropy =   191.5133
   XX=    94.1838   YX=   -50.7884   ZX=   -97.6564
   XY=   -56.1289   YY=    33.1238   ZY=    -2.5522
   XZ=   -99.3634   YZ=     7.9057   ZZ=    24.3942
   Eigenvalues:   -55.5702    29.0292   178.2428
     20  C    Isotropic =    51.4179   Anisotropy =   187.3188
   XX=   112.4745   YX=   -59.6015   ZX=   -64.6138
   XY=   -63.3937   YY=   -33.3480   ZY=    17.6597
   XZ=   -61.0287   YZ=    15.0979   ZZ=    75.1272
   Eigenvalues:   -56.1690    34.1256   176.2971
     21  C    Isotropic =    64.2361   Anisotropy =   178.7686
   XX=   119.2886   YX=   -21.3823   ZX=   -87.5782
   XY=   -15.6478   YY=    26.1549   ZY=    62.4370
   XZ=   -67.5814   YZ=    53.0791   ZZ=    47.2648
   Eigenvalues:   -33.1580    42.4511   183.4151
     22  C    Isotropic =    22.4976   Anisotropy =   144.4032
   XX=    50.4495   YX=   -39.8768   ZX=   -86.6043
   XY=   -32.3560   YY=    23.6280   ZY=     0.6327
   XZ=   -76.6217   YZ=     5.1239   ZZ=    -6.5846
   Eigenvalues:   -68.4944    17.2208   118.7664
     23  C    Isotropic =    45.7752   Anisotropy =   161.7390
   XX=   104.1026   YX=   -55.3117   ZX=   -44.0347
   XY=   -60.0073   YY=   -20.8790   ZY=     2.3352
   XZ=   -62.8951   YZ=     6.9765   ZZ=    54.1020
   Eigenvalues:   -46.1123    29.8367   153.6011
     24  C    Isotropic =    44.1218   Anisotropy =   164.0536
   XX=    87.7861   YX=   -67.1128   ZX=    38.3478
   XY=   -70.9966   YY=   -14.7210   ZY=   -28.5293
   XZ=    52.9620   YZ=   -30.0908   ZZ=    59.3003
   Eigenvalues:   -49.8122    28.6867   153.4909
     25  C    Isotropic =    18.0414   Anisotropy =   144.9932
   XX=    27.2332   YX=   -45.3510   ZX=    84.3313
   XY=   -47.2318   YY=    14.4841   ZY=    -5.7404
   XZ=    73.8898   YZ=    -7.0278   ZZ=    12.4067
   Eigenvalues:   -69.0053     8.4259   114.7035
     26  C    Isotropic =    58.8555   Anisotropy =   166.6357
   XX=    95.5044   YX=   -23.4600   ZX=    81.4614
   XY=   -24.2124   YY=    44.2796   ZY=   -63.3495
   XZ=    65.9722   YZ=   -57.9824   ZZ=    36.7824
   Eigenvalues:   -34.7460    41.3665   169.9460
     27  C    Isotropic =    51.1405   Anisotropy =   186.5049
   XX=    93.7641   YX=   -72.1945   ZX=    52.5336
   XY=   -72.5442   YY=   -16.7806   ZY=   -50.1752
   XZ=    47.4427   YZ=   -48.6188   ZZ=    76.4381
   Eigenvalues:   -57.0334    34.9779   175.4771
     28  C    Isotropic =    50.1266   Anisotropy =   193.1466
   XX=    64.7167   YX=   -70.0244   ZX=    92.9604
   XY=   -75.0937   YY=    37.6641   ZY=   -13.0660
   XZ=    91.0752   YZ=   -16.8918   ZZ=    47.9990
   Eigenvalues:   -55.5789    27.0676   178.8910
     29  C    Isotropic =    40.7780   Anisotropy =   186.4008
   XX=    86.0702   YX=   -28.3908   ZX=    78.5404
   XY=   -52.4579   YY=    12.7994   ZY=   -52.9587
   XZ=    73.5120   YZ=   -58.9210   ZZ=    23.4642
   Eigenvalues:   -44.3468     1.6355   165.0452
     30  C    Isotropic =    46.0867   Anisotropy =   174.4127
   XX=   -20.1943   YX=   -18.8494   ZX=    26.9115
   XY=   -26.8824   YY=    30.7846   ZY=    75.9230
   XZ=    28.0095   YZ=    56.3939   ZZ=   127.6696
   Eigenvalues:   -46.0434    21.9416   162.3618
     31  C    Isotropic =    41.5244   Anisotropy =   188.4822
   XX=   -46.0675   YX=    27.5537   ZX=    -5.7602
   XY=    30.6259   YY=    47.2726   ZY=    66.3072
   XZ=   -11.8432   YZ=    78.0414   ZZ=   123.3682
   Eigenvalues:   -59.9406    17.3347   167.1792
     32  C    Isotropic =    29.5858   Anisotropy =   199.3482
   XX=   -19.4157   YX=    10.3571   ZX=     5.5906
   XY=     9.5684   YY=     0.4006   ZY=    90.8478
   XZ=     2.2964   YZ=    96.5959   ZZ=   107.7723
   Eigenvalues:   -55.1678   -18.5595   162.4846
     33  C    Isotropic =    54.4283   Anisotropy =   175.5873
   XX=   -14.4753   YX=   -16.6506   ZX=    25.8894
   XY=   -30.3420   YY=    46.7846   ZY=    71.6099
   XZ=    36.8988   YZ=    67.2638   ZZ=   130.9755
   Eigenvalues:   -41.7169    33.5154   171.4865
     34  C    Isotropic =    29.3610   Anisotropy =   196.7492
   XX=   -48.4620   YX=    17.7622   ZX=    11.4819
   XY=    20.8132   YY=    19.1473   ZY=    75.1200
   XZ=    10.1019   YZ=    77.0703   ZZ=   117.3978
   Eigenvalues:   -54.4198   -18.0243   160.5271
     35  C    Isotropic =    55.2943   Anisotropy =   175.5966
   XX=    33.7551   YX=    19.9245   ZX=     1.2988
   XY=    18.2153   YY=     5.5488   ZY=    89.0326
   XZ=     5.4994   YZ=    83.2681   ZZ=   126.5792
   Eigenvalues:   -42.3415    35.8658   172.3587
     36  C    Isotropic =    53.3617   Anisotropy =   169.7095
   XX=   115.1287   YX=    23.9087   ZX=   -71.8810
   XY=    25.7676   YY=   -31.5947   ZY=    16.2650
   XZ=   -62.6572   YZ=    11.5140   ZZ=    76.5510
   Eigenvalues:   -42.1926    35.7762   166.5013
     37  C    Isotropic =    43.6031   Anisotropy =   179.8760
   XX=    88.5569   YX=     9.6897   ZX=  -106.9765
   XY=     8.5028   YY=    23.3082   ZY=     0.6487
   XZ=  -100.7214   YZ=     4.6570   ZZ=    18.9442
   Eigenvalues:   -56.4761    23.7650   163.5204
     38  C    Isotropic =    27.9700   Anisotropy =   203.6704
   XX=    95.8751   YX=    -4.3670   ZX=   -93.1468
   XY=    -4.3324   YY=   -41.9028   ZY=   -17.5047
   XZ=   -96.8306   YZ=   -21.5482   ZZ=    29.9375
   Eigenvalues:   -58.4793   -21.3610   163.7502
     39  C    Isotropic =    53.1442   Anisotropy =   182.3835
   XX=   121.7165   YX=    32.5362   ZX=   -68.6745
   XY=    20.3437   YY=   -37.0592   ZY=     5.4192
   XZ=   -74.3003   YZ=    12.6679   ZZ=    74.7752
   Eigenvalues:   -45.8177    30.5170   174.7332
     40  C    Isotropic =    30.0672   Anisotropy =   200.9679
   XX=    85.2302   YX=    12.5883   ZX=  -103.8649
   XY=    14.2869   YY=   -15.9130   ZY=    -5.0108
   XZ=  -106.3156   YZ=    -5.6147   ZZ=    20.8844
   Eigenvalues:   -57.1901   -16.6542   164.0458
     41  C    Isotropic =    48.5828   Anisotropy =   190.9665
   XX=   121.0711   YX=   -14.6623   ZX=   -81.5389
   XY=    -9.0963   YY=   -21.5140   ZY=   -45.2849
   XZ=   -85.0004   YZ=   -40.9359   ZZ=    46.1914
   Eigenvalues:   -58.2503    28.1049   175.8939
     42  C    Isotropic =   107.2469   Anisotropy =    78.3150
   XX=    75.6511   YX=     5.5769   ZX=    18.3673
   XY=     1.9771   YY=    92.2082   ZY=   -15.3941
   XZ=    15.6038   YZ=   -10.0596   ZZ=   153.8814
   Eigenvalues:    70.1897    92.0941   159.4569
     43  H    Isotropic =    22.3366   Anisotropy =    16.8640
   XX=    19.6708   YX=     7.0116   ZX=     4.3287
   XY=     6.2428   YY=    25.4728   ZY=     3.8318
   XZ=     4.9022   YZ=     5.9661   ZZ=    21.8662
   Eigenvalues:    14.9814    18.4492    33.5792
     44  H    Isotropic =    23.8053   Anisotropy =    14.7124
   XX=    25.8330   YX=    -2.9645   ZX=    -4.8111
   XY=    -3.4276   YY=    21.1613   ZY=     5.6991
   XZ=    -5.3262   YZ=     6.3367   ZZ=    24.4216
   Eigenvalues:    16.5113    21.2911    33.6136
     45  H    Isotropic =    23.7174   Anisotropy =    17.6398
   XX=    34.0232   YX=     6.3025   ZX=     2.1800
   XY=     1.9710   YY=    18.9350   ZY=     2.1156
   XZ=     1.1706   YZ=     5.4747   ZZ=    18.1941
   Eigenvalues:    14.6133    21.0616    35.4773
     46  H    Isotropic =    23.9030   Anisotropy =    14.6379
   XX=    26.4775   YX=    -5.2821   ZX=    -2.7100
   XY=    -3.7298   YY=    19.3250   ZY=     3.6956
   XZ=    -4.5453   YZ=     8.2678   ZZ=    25.9065
   Eigenvalues:    15.3329    22.7146    33.6616
     47  H    Isotropic =    23.6352   Anisotropy =    13.8325
   XX=    23.4198   YX=     2.2141   ZX=    -5.4549
   XY=     2.6970   YY=    22.4117   ZY=    -5.3135
   XZ=    -5.1337   YZ=    -5.6707   ZZ=    25.0741
   Eigenvalues:    17.5242    20.5246    32.8569
     48  H    Isotropic =    22.1310   Anisotropy =    15.1687
   XX=    16.9136   YX=    -0.8848   ZX=     0.5383
   XY=    -0.4339   YY=    32.1194   ZY=     1.2556
   XZ=    -1.5349   YZ=     1.0874   ZZ=    17.3601
   Eigenvalues:    16.5903    17.5593    32.2435
     49  H    Isotropic =    24.7078   Anisotropy =    11.5596
   XX=    22.8180   YX=     0.3638   ZX=     2.1195
   XY=    -4.6765   YY=    27.0955   ZY=    -6.0695
   XZ=     3.5225   YZ=    -4.6046   ZZ=    24.2099
   Eigenvalues:    19.7098    21.9993    32.4142
     50  H    Isotropic =    24.4089   Anisotropy =     4.0100
   XX=    24.0805   YX=     0.3793   ZX=     1.3248
   XY=    -0.5290   YY=    23.6445   ZY=    -1.5224
   XZ=     1.1813   YZ=    -2.2272   ZZ=    25.5018
   Eigenvalues:    22.2513    23.8932    27.0823
     51  H    Isotropic =    24.7693   Anisotropy =     4.9092
   XX=    23.4919   YX=     3.0442   ZX=    -0.4638
   XY=     1.9945   YY=    25.5480   ZY=     1.7124
   XZ=     0.8068   YZ=     1.5860   ZZ=    25.2679
   Eigenvalues:    21.6142    24.6515    28.0420
     52  H    Isotropic =    24.8032   Anisotropy =     4.8227
   XX=    24.5997   YX=     2.2903   ZX=     1.4415
   XY=     2.8424   YY=    26.0618   ZY=    -0.6687
   XZ=    -0.6505   YZ=    -0.6357   ZZ=    23.7479
   Eigenvalues:    22.3097    24.0814    28.0183
     53  H    Isotropic =    24.3869   Anisotropy =     4.4784
   XX=    24.2915   YX=     0.9875   ZX=    -1.3580
   XY=     0.2407   YY=    22.6147   ZY=     0.9849
   XZ=    -1.9797   YZ=     1.6729   ZZ=    26.2544
   Eigenvalues:    21.6445    24.1436    27.3725
     54  H    Isotropic =    24.0216   Anisotropy =    10.7905
   XX=    20.9925   YX=     0.7209   ZX=    -1.5947
   XY=    -2.8547   YY=    24.4668   ZY=     4.7465
   XZ=    -5.1021   YZ=     4.2119   ZZ=    26.6055
   Eigenvalues:    19.1492    21.7004    31.2153
     55  H    Isotropic =    22.6301   Anisotropy =    15.9866
   XX=    19.8141   YX=     6.2261   ZX=    -1.8261
   XY=     6.2037   YY=    28.0520   ZY=    -3.9733
   XZ=    -2.3627   YZ=    -5.1674   ZZ=    20.0242
   Eigenvalues:    16.4248    18.1777    33.2878
     56  H    Isotropic =    23.6593   Anisotropy =    14.7427
   XX=    25.2202   YX=    -5.7922   ZX=     2.6441
   XY=    -5.8227   YY=    26.4570   ZY=    -4.3173
   XZ=     2.4466   YZ=    -4.6859   ZZ=    19.3006
   Eigenvalues:    17.1168    20.3734    33.4878
     57  H    Isotropic =    24.2889   Anisotropy =    17.3654
   XX=    34.7736   YX=     4.8558   ZX=    -2.6001
   XY=     0.7604   YY=    19.7201   ZY=    -2.3697
   XZ=    -2.2566   YZ=    -5.9246   ZZ=    18.3730
   Eigenvalues:    14.8450    22.1558    35.8658
     58  H    Isotropic =    22.5208   Anisotropy =    14.3675
   XX=    17.9473   YX=    -0.1914   ZX=    -1.6232
   XY=    -0.7001   YY=    32.0483   ZY=     0.6902
   XZ=     1.2649   YZ=     0.7606   ZZ=    17.5668
   Eigenvalues:    17.4767    17.9865    32.0991
     59  H    Isotropic =    23.7541   Anisotropy =    14.1391
   XX=    24.0308   YX=     1.1863   ZX=     6.6629
   XY=     2.1210   YY=    20.9747   ZY=     3.7864
   XZ=     6.8087   YZ=     3.4515   ZZ=    26.2567
   Eigenvalues:    17.7775    20.3046    33.1801
     60  H    Isotropic =    24.0809   Anisotropy =    15.0171
   XX=    26.6943   YX=    -5.9485   ZX=     1.8396
   XY=    -4.5495   YY=    21.9509   ZY=    -4.4064
   XZ=     3.8656   YZ=    -9.3309   ZZ=    23.5976
   Eigenvalues:    15.4015    22.7489    34.0923
     61  H    Isotropic =    27.7826   Anisotropy =     7.7176
   XX=    23.1828   YX=    -0.7221   ZX=     2.4592
   XY=     1.1869   YY=    27.9174   ZY=    -0.5997
   XZ=     2.5033   YZ=     1.4644   ZZ=    32.2476
   Eigenvalues:    22.5454    27.8747    32.9277
     62  Cl   Isotropic =   862.3746   Anisotropy =   500.3269
   XX=   694.2183   YX=    84.2282   ZX=   146.5938
   XY=   170.4681   YY=  1163.5732   ZY=   -10.9806
   XZ=   141.1002   YZ=   -68.9366   ZZ=   729.3323
   Eigenvalues:   542.5873   848.6107  1195.9258
     63  Cl   Isotropic =   839.7788   Anisotropy =   515.8466
   XX=   703.2417   YX=    76.3235   ZX=  -167.3953
   XY=   206.5675   YY=  1089.8508   ZY=   189.3220
   XZ=   -84.2967   YZ=   182.4353   ZZ=   726.2437
   Eigenvalues:   498.3306   837.3291  1183.6765
     64  C    Isotropic =   153.4704   Anisotropy =    25.8800
   XX=   139.7503   YX=   -14.8907   ZX=    -3.5918
   XY=    -6.6968   YY=   162.9391   ZY=   -10.4398
   XZ=    -2.1919   YZ=    -5.8896   ZZ=   157.7217
   Eigenvalues:   134.0614   155.6260   170.7237
     65  C    Isotropic =   114.0198   Anisotropy =    60.1416
   XX=    99.3161   YX=    -7.7792   ZX=   -18.8232
   XY=    -7.8900   YY=    93.2696   ZY=   -10.5552
   XZ=   -10.8800   YZ=    -5.8158   ZZ=   149.4737
   Eigenvalues:    84.2177   103.7276   154.1142
     66  H    Isotropic =    27.2595   Anisotropy =     7.4411
   XX=    23.4484   YX=    -2.2073   ZX=    -1.8812
   XY=    -1.8652   YY=    28.6926   ZY=    -1.6918
   XZ=    -1.1598   YZ=    -4.3377   ZZ=    29.6375
   Eigenvalues:    21.9144    27.6438    32.2202
     67  H    Isotropic =    29.3106   Anisotropy =     3.8722
   XX=    29.8375   YX=     0.0107   ZX=    -2.8040
   XY=     1.2984   YY=    28.3066   ZY=     1.0017
   XZ=    -1.3274   YZ=    -0.2956   ZZ=    29.7876
   Eigenvalues:    27.2591    28.7805    31.8921
     68  H    Isotropic =    30.3249   Anisotropy =    12.6643
   XX=    26.2044   YX=    -1.9090   ZX=    -3.4339
   XY=    -0.5666   YY=    27.5127   ZY=    -2.9135
   XZ=    -3.5162   YZ=    -2.7158   ZZ=    37.2575
   Eigenvalues:    23.9720    28.2349    38.7678
     69  C    Isotropic =   155.8976   Anisotropy =    37.1044
   XX=   171.5171   YX=    11.0023   ZX=     4.3509
   XY=    17.5584   YY=   151.1277   ZY=     1.4843
   XZ=    10.1015   YZ=     5.0753   ZZ=   145.0482
   Eigenvalues:   143.0748   143.9842   180.6339
     70  C    Isotropic =   145.6245   Anisotropy =    15.4739
   XX=   138.3972   YX=    -0.6199   ZX=     0.2491
   XY=     2.3358   YY=   148.7252   ZY=     4.9722
   XZ=     5.3370   YZ=     7.5934   ZZ=   149.7510
   Eigenvalues:   137.7034   143.2296   155.9404
     71  C    Isotropic =   151.5290   Anisotropy =    43.7976
   XX=   156.5665   YX=   -19.7095   ZX=    12.4353
   XY=   -22.3159   YY=   158.3838   ZY=    -1.0937
   XZ=    11.9047   YZ=    -1.5918   ZZ=   139.6367
   Eigenvalues:   129.2532   144.6064   180.7274
     72  C    Isotropic =   151.4368   Anisotropy =    41.3659
   XX=   141.0121   YX=    11.4092   ZX=    -6.7856
   XY=    11.3445   YY=   147.0923   ZY=   -16.4545
   XZ=   -10.5308   YZ=   -13.5171   ZZ=   166.2060
   Eigenvalues:   132.0418   143.2546   179.0141
     73  H    Isotropic =    29.7688   Anisotropy =     8.9508
   XX=    34.3793   YX=    -1.8436   ZX=     2.7587
   XY=    -1.2395   YY=    26.2811   ZY=     1.0003
   XZ=     3.2292   YZ=     1.9477   ZZ=    28.6459
   Eigenvalues:    24.7484    28.8220    35.7359
     74  H    Isotropic =    30.2170   Anisotropy =     9.8838
   XX=    29.2228   YX=     2.1703   ZX=     1.9199
   XY=     1.6833   YY=    30.2562   ZY=     5.1204
   XZ=     1.4615   YZ=     5.3095   ZZ=    31.1721
   Eigenvalues:    25.4545    28.3905    36.8062
     75  H    Isotropic =    29.9140   Anisotropy =     8.5234
   XX=    31.3344   YX=     3.9278   ZX=    -2.4257
   XY=     4.2823   YY=    30.9708   ZY=    -0.0003
   XZ=    -1.7606   YZ=    -0.3442   ZZ=    27.4368
   Eigenvalues:    25.7762    28.3696    35.5963
     76  H    Isotropic =    29.2272   Anisotropy =    11.0744
   XX=    33.8125   YX=     1.3310   ZX=     4.5674
   XY=    -1.2152   YY=    28.3147   ZY=     2.5399
   XZ=     6.2176   YZ=     1.9225   ZZ=    25.5545
   Eigenvalues:    22.2414    28.8301    36.6101
     77  H    Isotropic =    30.2225   Anisotropy =     6.7276
   XX=    28.9744   YX=    -0.7560   ZX=     2.4703
   XY=    -0.4899   YY=    32.8471   ZY=    -1.7719
   XZ=     2.3979   YZ=    -3.5832   ZZ=    28.8458
   Eigenvalues:    26.0915    29.8683    34.7075
     78  H    Isotropic =    30.1555   Anisotropy =     8.6305
   XX=    29.2005   YX=    -2.3427   ZX=    -0.0991
   XY=    -2.4046   YY=    32.2557   ZY=     5.2117
   XZ=     0.9804   YZ=     3.8931   ZZ=    29.0101
   Eigenvalues:    25.0333    29.5240    35.9091
     79  H    Isotropic =    29.1716   Anisotropy =    11.2809
   XX=    29.5988   YX=     6.0947   ZX=     2.8574
   XY=     7.4623   YY=    28.8780   ZY=     0.9230
   XZ=     0.1848   YZ=     2.4291   ZZ=    29.0381
   Eigenvalues:    22.4457    28.3770    36.6922
     80  H    Isotropic =    30.3062   Anisotropy =     9.6554
   XX=    27.5631   YX=     0.6991   ZX=    -1.0522
   XY=     1.1201   YY=    27.2664   ZY=     0.9390
   XZ=    -1.5191   YZ=     3.5344   ZZ=    36.0891
   Eigenvalues:    25.8586    28.3169    36.7431
     81  H    Isotropic =    30.4679   Anisotropy =     7.2070
   XX=    28.8722   YX=    -0.1285   ZX=     2.4053
   XY=    -0.9491   YY=    30.3770   ZY=    -4.2492
   XZ=     2.6317   YZ=    -1.7507   ZZ=    32.1545
   Eigenvalues:    27.0562    29.0749    35.2726
     82  C    Isotropic =   152.3076   Anisotropy =    41.9584
   XX=   147.6187   YX=    -8.3900   ZX=     0.1787
   XY=    -7.3264   YY=   178.3673   ZY=    -0.0052
   XZ=     3.3955   YZ=    -1.2115   ZZ=   130.9367
   Eigenvalues:   130.7462   145.8966   180.2798
     83  C    Isotropic =   146.7048   Anisotropy =    15.1442
   XX=   156.4880   YX=     1.4256   ZX=     0.1647
   XY=    -1.8495   YY=   142.4856   ZY=    -1.2615
   XZ=    -4.5925   YZ=    -1.6435   ZZ=   141.1410
   Eigenvalues:   139.9711   143.3425   156.8010
     84  C    Isotropic =   150.3758   Anisotropy =    42.5443
   XX=   142.5595   YX=     2.9133   ZX=    -2.2023
   XY=     5.8381   YY=   132.3513   ZY=   -12.3200
   XZ=    -1.7475   YZ=    -8.2467   ZZ=   176.2165
   Eigenvalues:   128.9615   143.4272   178.7386
     85  C    Isotropic =   156.5453   Anisotropy =    36.1769
   XX=   161.4604   YX=    15.3287   ZX=    16.7112
   XY=     9.4406   YY=   153.7782   ZY=     9.7715
   XZ=     9.1268   YZ=    10.0128   ZZ=   154.3974
   Eigenvalues:   144.1822   144.7906   180.6633
     86  H    Isotropic =    30.5684   Anisotropy =     6.8269
   XX=    29.6370   YX=    -0.1632   ZX=     1.5892
   XY=    -2.2111   YY=    31.7198   ZY=    -3.1646
   XZ=     3.0371   YZ=    -2.7412   ZZ=    30.3484
   Eigenvalues:    27.2610    29.3245    35.1197
     87  H    Isotropic =    30.5409   Anisotropy =     9.6363
   XX=    34.8856   YX=    -2.4240   ZX=    -1.1319
   XY=    -4.3979   YY=    30.4086   ZY=     2.6395
   XZ=     0.0208   YZ=     1.8883   ZZ=    26.3284
   Eigenvalues:    25.2226    29.4349    36.9650
     88  H    Isotropic =    30.3267   Anisotropy =    10.8940
   XX=    33.5600   YX=     2.5501   ZX=     2.7663
   XY=     2.3312   YY=    31.7391   ZY=     4.8945
   XZ=     4.4127   YZ=     3.0994   ZZ=    25.6811
   Eigenvalues:    23.1922    30.1986    37.5894
     89  H    Isotropic =    30.4395   Anisotropy =     6.0938
   XX=    29.1331   YX=     0.5493   ZX=     0.7172
   XY=     1.4918   YY=    31.9917   ZY=    -3.2634
   XZ=    -1.3878   YZ=    -2.9119   ZZ=    30.1938
   Eigenvalues:    27.7779    29.0387    34.5021
     90  H    Isotropic =    30.0088   Anisotropy =     9.5985
   XX=    32.5588   YX=     3.8523   ZX=     2.3311
   XY=     3.3332   YY=    25.9475   ZY=     0.7491
   XZ=     2.3564   YZ=     4.7937   ZZ=    31.5200
   Eigenvalues:    23.9788    29.6398    36.4078
     91  H    Isotropic =    30.3508   Anisotropy =     9.5245
   XX=    33.3579   YX=     0.8828   ZX=    -3.1737
   XY=     1.5844   YY=    26.0397   ZY=    -0.1186
   XZ=    -4.9869   YZ=     1.5059   ZZ=    31.6549
   Eigenvalues:    25.4215    28.9304    36.7005
     92  H    Isotropic =    29.8669   Anisotropy =     8.5291
   XX=    29.7546   YX=     3.1596   ZX=     0.2131
   XY=     2.4500   YY=    33.4667   ZY=     2.5845
   XZ=    -1.2430   YZ=     3.0749   ZZ=    26.3796
   Eigenvalues:    24.9127    29.1351    35.5530
     93  H    Isotropic =    30.4146   Anisotropy =    10.1714
   XX=    37.0858   YX=     0.9865   ZX=    -0.5866
   XY=     1.0436   YY=    26.9400   ZY=     1.4479
   XZ=    -0.3323   YZ=     1.7943   ZZ=    27.2180
   Eigenvalues:    25.3561    28.6922    37.1955
     94  H    Isotropic =    29.9195   Anisotropy =     8.7095
   XX=    30.5894   YX=     0.4128   ZX=     3.4994
   XY=    -1.0285   YY=    25.7433   ZY=     1.7946
   XZ=     2.9889   YZ=     1.7574   ZZ=    33.4259
   Eigenvalues:    25.1243    28.9084    35.7259
     95  C    Isotropic =   151.5047   Anisotropy =    45.6878
   XX=   170.1734   YX=   -21.2913   ZX=     2.2069
   XY=   -17.3075   YY=   146.7306   ZY=    -8.0384
   XZ=     4.2378   YZ=    -6.5729   ZZ=   137.6102
   Eigenvalues:   131.5199   141.0310   181.9633
     96  C    Isotropic =   146.7493   Anisotropy =    11.8954
   XX=   149.6721   YX=     1.1783   ZX=    -4.7043
   XY=    -0.9313   YY=   140.6091   ZY=     0.0693
   XZ=    -4.7799   YZ=    -3.3709   ZZ=   149.9666
   Eigenvalues:   140.2625   145.3058   154.6795
     97  C    Isotropic =   153.2751   Anisotropy =    41.4073
   XX=   146.4198   YX=    13.2674   ZX=    11.9769
   XY=    13.4461   YY=   147.9036   ZY=    12.1257
   XZ=    10.3492   YZ=    15.3856   ZZ=   165.5018
   Eigenvalues:   133.6949   145.2504   180.8800
     98  C    Isotropic =   156.7165   Anisotropy =    32.1408
   XX=   147.1394   YX=     9.1956   ZX=    -1.7502
   XY=     4.6421   YY=   174.9292   ZY=    -4.0565
   XZ=    -2.0595   YZ=    -9.2391   ZZ=   148.0810
   Eigenvalues:   145.4148   146.5911   178.1438
     99  H    Isotropic =    30.2699   Anisotropy =     8.3235
   XX=    34.3329   YX=    -0.4033   ZX=     2.1326
   XY=    -0.7141   YY=    28.1084   ZY=     1.6364
   XZ=     4.4957   YZ=     2.1841   ZZ=    28.3683
   Eigenvalues:    25.4339    29.5568    35.8189
    100  H    Isotropic =    30.2709   Anisotropy =    11.1735
   XX=    34.0491   YX=    -3.1818   ZX=    -5.6327
   XY=    -2.9116   YY=    28.1132   ZY=     1.6666
   XZ=    -3.2418   YZ=     1.2110   ZZ=    28.6503
   Eigenvalues:    26.0951    26.9977    37.7199
    101  H    Isotropic =    29.8108   Anisotropy =     7.9601
   XX=    29.9477   YX=    -4.0290   ZX=    -2.3025
   XY=    -0.9138   YY=    33.5360   ZY=    -2.1332
   XZ=    -0.6978   YZ=    -3.0398   ZZ=    25.9488
   Eigenvalues:    24.2708    30.0441    35.1175
    102  H    Isotropic =    29.9848   Anisotropy =     7.2246
   XX=    32.4517   YX=    -3.9634   ZX=     2.7683
   XY=    -2.6562   YY=    28.5756   ZY=     1.6712
   XZ=     2.3002   YZ=     1.0380   ZZ=    28.9270
   Eigenvalues:    25.0450    30.1082    34.8012
    103  H    Isotropic =    29.8652   Anisotropy =     6.9578
   XX=    27.0492   YX=     2.9024   ZX=    -0.5477
   XY=     1.7486   YY=    33.6114   ZY=     0.2292
[...]
                                                    886(g)
  2870. BD*(   1) C  19 - C  20          0.01554     0.53803   
  2871. BD*(   2) C  19 - C  20          0.32834     0.02158  2869(v),2876(v),809(g)
                                                    782(g)
  2872. BD*(   1) C  19 - H  49          0.01600     0.41548   
  2873. BD*(   1) C  20 - C  21          0.01292     0.53335   
  2874. BD*(   1) C  20 - H  50          0.01369     0.39467   
  2875. BD*(   1) C  21 - C  22          0.03179     0.51037   
  2876. BD*(   2) C  21 - C  22          0.36259     0.01439  2869(v),2871(v),835(g)
                                                    2836(v)
  2877. BD*(   1) C  21 - H  51          0.01416     0.38734   
  2878. BD*(   1) C  22 - C  23          0.04106     0.49410   
  2879. BD*(   1) C  23 - C  24          0.02961     0.41978   
  2880. BD*(   1) C  24 - C  25          0.04390     0.49720   
  2881. BD*(   2) C  24 - C  25          0.37219     0.02075  2885(v),2890(v),2869(v)
                                                    2855(r),2878(v),2868(v)
                                                    2838(v),939(g)
  2882. BD*(   1) C  24 - C  29          0.03192     0.50851   
  2883. BD*(   1) C  25 - C  26          0.03205     0.51511   
  2884. BD*(   1) C  26 - C  27          0.01325     0.53736   
  2885. BD*(   2) C  26 - C  27          0.34123     0.01732  2890(v),2881(v),991(g)
                                                    965(g)
  2886. BD*(   1) C  26 - H  52          0.01330     0.38823   
  2887. BD*(   1) C  27 - C  28          0.01535     0.53845   
  2888. BD*(   1) C  27 - H  53          0.01364     0.39533   
  2889. BD*(   1) C  28 - C  29          0.02225     0.51861   
  2890. BD*(   2) C  28 - C  29          0.37512     0.01698  2885(v),2881(v),1016(g)
                                                    2834(v)
  2891. BD*(   1) C  28 - H  54          0.01677     0.41759   
  2892. BD*(   1) C  30 - C  31          0.02311     0.54463   
  2893. BD*(   2) C  30 - C  31          0.37433     0.03351  2898(v),2903(v),2832(v)
                                                    1094(g),1198(v)
  2894. BD*(   1) C  30 - C  35          0.02624     0.55029   
  2895. BD*(   1) C  31 - C  32          0.02576     0.55471   
  2896. BD*(   1) C  31 - H  55          0.01778     0.43697   
  2897. BD*(   1) C  32 - C  33          0.02340     0.56028   
  2898. BD*(   2) C  32 - C  33          0.32261     0.05145  2903(v),2893(v),1146(g)
                                                    2976(v),2980(v)
  2899. BD*(   1) C  32 - C 122          0.04005     0.38503   
  2900. BD*(   1) C  33 - C  34          0.02206     0.54838   
  2901. BD*(   1) C  33 - H  56          0.01805     0.42174   
  2902. BD*(   1) C  34 - C  35          0.02420     0.55693   
  2903. BD*(   2) C  34 - C  35          0.32345     0.04971  2898(v),2893(v),1198(g)
                                                    2988(v),2993(v),1173(g)
  2904. BD*(   1) C  34 - C 135          0.03934     0.38182   
  2905. BD*(   1) C  35 - H  57          0.01836     0.42695   
  2906. BD*(   1) C  36 - C  37          0.02365     0.53524   
  2907. BD*(   1) C  36 - C  41          0.02717     0.53246   
  2908. BD*(   2) C  36 - C  41          0.37987     0.02422  2915(v),2910(v),2833(v)
                                                    1354(g),2869(r),2832(v)
  2909. BD*(   1) C  37 - C  38          0.02595     0.55915   
  2910. BD*(   2) C  37 - C  38          0.30246     0.04876  2915(v),2908(v),1250(g)
                                                    3000(v),3005(v),1277(g)
  2911. BD*(   1) C  37 - H  58          0.01837     0.44958   
  2912. BD*(   1) C  38 - C  39          0.02289     0.54039   
  2913. BD*(   1) C  38 - C 148          0.03984     0.38011   
  2914. BD*(   1) C  39 - C  40          0.02312     0.54872   
  2915. BD*(   2) C  39 - C  40          0.32244     0.04088  2910(v),2908(v),1302(g)
                                                    3012(v),3016(v)
  2916. BD*(   1) C  39 - H  59          0.01814     0.41486   
  2917. BD*(   1) C  40 - C  41          0.02406     0.52954   
  2918. BD*(   1) C  40 - C 161          0.04024     0.37097   
  2919. BD*(   1) C  41 - H  60          0.01723     0.41162   
  2920. BD*(   1) C  42 - H  61          0.02243     0.32342   
  2921. BD*(   1) C  42 - C  64          0.02459     0.32186   
  2922. BD*(   1) C  42 - H 174          0.02149     0.32832   
  2923. BD*(   1) C  64 - C  65          0.02691     0.32256   
  2924. BD*(   1) C  64 - H  67          0.01570     0.33587   
  2925. BD*(   1) C  64 - H  68          0.00905     0.32821   
  2926. BD*(   1) C  65 - H  66          0.02682     0.32221   
  2927. BD*(   1) C  65 - H 173          0.01866     0.33095   
  2928. BD*(   1) C  69 - C  70          0.02104     0.34832   
  2929. BD*(   1) C  69 - H  73          0.00744     0.38578   
  2930. BD*(   1) C  69 - H  74          0.00704     0.39021   
  2931. BD*(   1) C  69 - H  75          0.00758     0.38374   
  2932. BD*(   1) C  70 - C  71          0.02397     0.34102   
  2933. BD*(   1) C  70 - C  72          0.02367     0.34449   
  2934. BD*(   1) C  71 - H  76          0.00684     0.40034   
  2935. BD*(   1) C  71 - H  77          0.00699     0.38610   
  2936. BD*(   1) C  71 - H  78          0.00759     0.38741   
  2937. BD*(   1) C  72 - H  79          0.00664     0.41638   
  2938. BD*(   1) C  72 - H  80          0.00743     0.39254   
  2939. BD*(   1) C  72 - H  81          0.00632     0.39893   
  2940. BD*(   1) C  82 - C  83          0.02408     0.33157   
  2941. BD*(   1) C  82 - H  86          0.00650     0.38609   
  2942. BD*(   1) C  82 - H  87          0.00759     0.37787   
  2943. BD*(   1) C  82 - H  88          0.00677     0.38604   
  2944. BD*(   1) C  83 - C  84          0.02465     0.32921   
  2945. BD*(   1) C  83 - C  85          0.02059     0.34051   
  2946. BD*(   1) C  84 - H  89          0.00681     0.38008   
  2947. BD*(   1) C  84 - H  90          0.00729     0.38214   
  2948. BD*(   1) C  84 - H  91          0.00798     0.37582   
  2949. BD*(   1) C  85 - H  92          0.00736     0.37859   
  2950. BD*(   1) C  85 - H  93          0.00705     0.38236   
  2951. BD*(   1) C  85 - H  94          0.00718     0.38043   
  2952. BD*(   1) C  95 - C  96          0.02396     0.32662   
  2953. BD*(   1) C  95 - H  99          0.00668     0.37687   
  2954. BD*(   1) C  95 - H 100          0.00765     0.37224   
  2955. BD*(   1) C  95 - H 101          0.00685     0.37766   
  2956. BD*(   1) C  96 - C  97          0.02503     0.32428   
  2957. BD*(   1) C  96 - C  98          0.02055     0.33467   
  2958. BD*(   1) C  97 - H 102          0.00740     0.37999   
  2959. BD*(   1) C  97 - H 103          0.00700     0.37516   
  2960. BD*(   1) C  97 - H 104          0.00797     0.37005   
  2961. BD*(   1) C  98 - H 105          0.00798     0.38516   
  2962. BD*(   1) C  98 - H 106          0.00705     0.37674   
  2963. BD*(   1) C  98 - H 107          0.00793     0.37570   
  2964. BD*(   1) C 108 - C 109          0.02393     0.33376   
  2965. BD*(   1) C 108 - H 112          0.00701     0.38159   
  2966. BD*(   1) C 108 - H 113          0.00739     0.37919   
  2967. BD*(   1) C 108 - H 114          0.00649     0.38567   
  2968. BD*(   1) C 109 - C 110          0.02028     0.34481   
  2969. BD*(   1) C 109 - C 111          0.02471     0.33005   
  2970. BD*(   1) C 110 - H 115          0.00806     0.39021   
  2971. BD*(   1) C 110 - H 116          0.00694     0.39646   
  2972. BD*(   1) C 110 - H 117          0.00683     0.38888   
  2973. BD*(   1) C 111 - H 118          0.00702     0.38460   
  2974. BD*(   1) C 111 - H 119          0.00786     0.37821   
  2975. BD*(   1) C 111 - H 120          0.00697     0.37929   
  2976. BD*(   1) C 121 - C 122          0.02482     0.33497   
  2977. BD*(   1) C 121 - H 125          0.00711     0.38319   
  2978. BD*(   1) C 121 - H 126          0.00803     0.38185   
  2979. BD*(   1) C 121 - H 127          0.00756     0.39076   
  2980. BD*(   1) C 122 - C 123          0.02300     0.34363   
  2981. BD*(   1) C 122 - C 124          0.02073     0.34622   
  2982. BD*(   1) C 123 - H 128          0.00612     0.40386   
  2983. BD*(   1) C 123 - H 129          0.00649     0.40804   
  2984. BD*(   1) C 123 - H 130          0.00710     0.39069   
  2985. BD*(   1) C 124 - H 131          0.00712     0.38660   
  2986. BD*(   1) C 124 - H 132          0.00701     0.38861   
  2987. BD*(   1) C 124 - H 133          0.00763     0.38202   
  2988. BD*(   1) C 134 - C 135          0.02430     0.33490   
  2989. BD*(   1) C 134 - H 138          0.00670     0.38773   
  2990. BD*(   1) C 134 - H 139          0.00764     0.38113   
  2991. BD*(   1) C 134 - H 140          0.00638     0.39078   
  2992. BD*(   1) C 135 - C 136          0.02082     0.34439   
  2993. BD*(   1) C 135 - C 137          0.02449     0.33325   
  2994. BD*(   1) C 136 - H 141          0.00786     0.38536   
  2995. BD*(   1) C 136 - H 142          0.00723     0.38532   
  2996. BD*(   1) C 136 - H 143          0.00705     0.38488   
  2997. BD*(   1) C 137 - H 144          0.00679     0.38186   
  2998. BD*(   1) C 137 - H 145          0.00776     0.37877   
  2999. BD*(   1) C 137 - H 146          0.00684     0.38448   
  3000. BD*(   1) C 147 - C 148          0.02460     0.33286   
  3001. BD*(   1) C 147 - H 151          0.00671     0.38138   
  3002. BD*(   1) C 147 - H 152          0.00762     0.37895   
  3003. BD*(   1) C 147 - H 153          0.00640     0.38737   
  3004. BD*(   1) C 148 - C 149          0.02080     0.34501   
  3005. BD*(   1) C 148 - C 150          0.02411     0.33083   
  3006. BD*(   1) C 149 - H 154          0.00729     0.38951   
  3007. BD*(   1) C 149 - H 155          0.00699     0.39461   
  3008. BD*(   1) C 149 - H 156          0.00686     0.38853   
  3009. BD*(   1) C 150 - H 157          0.00745     0.38420   
  3010. BD*(   1) C 150 - H 158          0.00760     0.37733   
  3011. BD*(   1) C 150 - H 159          0.00716     0.37945   
  3012. BD*(   1) C 160 - C 161          0.02480     0.32606   
  3013. BD*(   1) C 160 - H 164          0.00704     0.37447   
  3014. BD*(   1) C 160 - H 165          0.00810     0.37140   
  3015. BD*(   1) C 160 - H 166          0.00685     0.38359   
  3016. BD*(   1) C 161 - C 162          0.02413     0.32579   
  3017. BD*(   1) C 161 - C 163          0.02059     0.33282   
  3018. BD*(   1) C 162 - H 167          0.00666     0.37952   
  3019. BD*(   1) C 162 - H 168          0.00698     0.37683   
  3020. BD*(   1) C 162 - H 169          0.00778     0.37298   
  3021. BD*(   1) C 163 - H 170          0.00726     0.37353   
  3022. BD*(   1) C 163 - H 171          0.00709     0.37622   
  3023. BD*(   1) C 163 - H 172          0.00744     0.37087   
       -------------------------------
              Total Lewis  636.48087  ( 98.2224%)
        Valence non-Lewis   10.48285  (  1.6177%)
        Rydberg non-Lewis    1.03628  (  0.1599%)
       -------------------------------
            Total unit  1  648.00000  (100.0000%)
           Charge unit  1    0.00000
 1\1\GINC-NOTCH142\SP\RPBE1PBE\Gen\C71H96Cl2O2P2Pd1\U1010977\02-Nov-202
 1\0\\# PBE1PBE gen pseudo=read int=(grid=ultrafine) empiricaldispersio
 n=GD3BJ pop=nbo guess=read geom=check\\title\\0,1\Pd,0,-3.8618184357,-
 1.3703655688,0.9897231629\P,0,-5.0468231581,-0.1405571622,2.5020052234
 \P,0,-2.2011250229,0.1979577948,0.7898423771\O,0,-1.6044366668,3.52767
 89848,3.885346275\O,0,-4.2629227545,4.378133405,3.1653106295\C,0,-6.11
 46078388,-1.1601407383,3.5887464324\C,0,-5.7279609971,-2.4796340308,3.
 8699032604\C,0,-6.4740993952,-3.2699242814,4.760803945\C,0,-7.61115114
 01,-2.6945777532,5.3624769165\C,0,-8.0230992654,-1.3763538301,5.092422
 0574\C,0,-7.2559578298,-0.6155268967,4.1925713493\C,0,-6.1071499884,1.
 1597255695,1.7899247271\C,0,-6.5991899118,2.2294508738,2.5575439301\C,
 0,-7.4369529011,3.1915614548,1.9711979732\C,0,-7.724118496,3.063003653
 7,0.5974048106\C,0,-7.2330104003,2.008064328,-0.1953495006\C,0,-6.4267
 089845,1.0433681331,0.4289653556\C,0,-3.941658528,0.7107708265,3.71662
 32263\C,0,-3.796365507,0.1614096635,5.0063865845\C,0,-2.9149996674,0.7
 381883071,5.9274251002\C,0,-2.1729942876,1.8736229947,5.5856911392\C,0
 ,-2.3244488521,2.4307010273,4.3086894826\C,0,-3.1923778217,1.854132581
 6,3.3512998885\C,0,-3.2835210958,2.5271598888,2.022097655\C,0,-3.78669
 46608,3.8481241014,1.9845807909\C,0,-3.8661099487,4.5680995074,0.78511
 83462\C,0,-3.4155473197,3.9770320735,-0.3988048999\C,0,-2.8980398166,2
 .6765971201,-0.3857751692\C,0,-2.8286151671,1.9419493558,0.8147287196\
 C,0,-1.4336009416,0.0403529401,-0.8641047958\C,0,-2.3080130408,-0.1319
 853127,-1.9472734949\C,0,-1.8164602586,-0.2847164726,-3.2548055277\C,0
 ,-0.4228293169,-0.2822633293,-3.4287241293\C,0,0.4807289193,-0.1309316
 257,-2.3561090253\C,0,-0.0436020101,0.0443368831,-1.0648589055\C,0,-0.
 8806940487,0.1319578409,2.0478933062\C,0,-0.8843209917,-0.9783421534,2
 .9107915266\C,0,0.0914118393,-1.1056973472,3.9069296684\C,0,1.09116912
 75,-0.112020782,3.9799990583\C,0,1.1276130035,1.0025657372,3.124885255
 1\C,0,0.1032788866,1.1261037617,2.1632160134\C,0,-3.6645386516,5.60080
 89775,3.6475371348\H,0,-4.8585146014,-2.8955292344,3.3526833416\H,0,-8
 .2007243726,-3.2991317775,6.0535608754\H,0,-7.5600405626,0.4049909467,
 3.9468170403\H,0,-6.2963277989,2.3219192285,3.6031085055\H,0,-8.353565
 444,3.8241713349,0.1227586514\H,0,-6.0313252808,0.1843563424,-0.120244
 7493\H,0,-4.3805071686,-0.7173173874,5.2902484968\H,0,-2.8069350555,0.
 2981488393,6.9241469609\H,0,-1.4709963801,2.3145048102,6.29910288\H,0,
 -4.2949209129,5.5749130393,0.7880466404\H,0,-3.4727778608,4.5295163477
 ,-1.3422926084\H,0,-2.538608779,2.2306075334,-1.3156756027\H,0,-3.3849
 950809,-0.1873160059,-1.7545696398\H,0,-0.0165059013,-0.4241915494,-4.
 4335929681\H,0,0.619872632,0.1478546929,-0.2040826423\H,0,-1.670053466
 7,-1.7269633753,2.7783629339\H,0,1.8705799273,-0.2189662709,4.73884199
 79\H,0,0.0661274809,1.9999068936,1.5040548443\H,0,-2.9909699577,6.0214
 210948,2.8780173997\Cl,0,-5.7840227479,-2.7350340041,0.6115821585\Cl,0
 ,-2.4238503153,-2.9489201463,-0.0755041396\C,0,-2.91869069,5.325281370
 4,4.9572535791\C,0,-1.5513780578,4.6631451947,4.7642398151\H,0,-1.1063
 489407,4.3947668069,5.7418509117\H,0,-3.5647447831,4.6911838113,5.5908
 22885\H,0,-2.7668342089,6.2765447175,5.501560331\C,0,-6.9039638718,-5.
 4180747419,6.0805123966\C,0,-6.0549645939,-4.7311257698,4.9942939284\C
 ,0,-4.5717491069,-4.7847688151,5.4308750187\C,0,-6.2268416871,-5.50381
 41557,3.6630394154\H,0,-7.9695663262,-5.4695855823,5.7968580149\H,0,-6
 .5506483378,-6.453512761,6.2243221404\H,0,-6.8274546736,-4.8980232942,
 7.0521229015\H,0,-3.9012385311,-4.37527757,4.6577094968\H,0,-4.4100960
 388,-4.2138165559,6.3625138436\H,0,-4.268299835,-5.8312821091,5.611369
 4049\H,0,-5.6500117009,-5.0436956828,2.843214427\H,0,-5.8897900972,-6.
 5492066027,3.7838826655\H,0,-7.2861468652,-5.5146892798,3.3538606157\C
 ,0,-10.2347693767,-0.262729134,4.6271661172\C,0,-9.2654789038,-0.73554
 38697,5.737354435\C,0,-8.8209636072,0.484181425,6.5803711401\C,0,-10.0
 196905524,-1.7141201634,6.6570059685\H,0,-10.5609492231,-1.1115250931,
 4.0023842485\H,0,-11.1306989147,0.2021192065,5.0766149931\H,0,-9.76592
 91579,0.4825178562,3.9618459473\H,0,-8.1334618047,0.1763389119,7.38721
 6859\H,0,-8.2992810249,1.2354851498,5.9623279934\H,0,-9.6979254778,0.9
 737547477,7.0408401589\H,0,-9.3882378875,-2.0585708725,7.4945028032\H,
 0,-10.9023294088,-1.2118954164,7.0890260593\H,0,-10.3751693358,-2.6007
 111421,6.1039027205\C,0,-9.5701840346,4.315214024,2.6820071012\C,0,-8.
 0269047459,4.3642965075,2.774157812\C,0,-7.5094475114,5.6956467023,2.1
 799218896\C,0,-7.6280434966,4.3120122505,4.2617600685\H,0,-9.957559873
 ,3.3728056611,3.107453359\H,0,-10.0140774761,5.155903195,3.2447823801\
 H,0,-9.9224078395,4.3834573271,1.6390119906\H,0,-6.409897362,5.7407139
 898,2.2550428594\H,0,-7.7841537524,5.8035841481,1.1169569459\H,0,-7.93
 58762088,6.5542576622,2.7292166005\H,0,-6.5331308667,4.3566433689,4.38
 64195881\H,0,-8.0706408236,5.1718310443,4.793770353\H,0,-7.998069024,3
 .3931146119,4.7508574833\C,0,-9.075185414,1.9927919342,-1.9213085973\C
 ,0,-7.5456173815,1.9505189731,-1.6996429467\C,0,-6.9957933372,0.667850
 3883,-2.3533024444\C,0,-6.885178127,3.1737021053,-2.3807354008\H,0,-9.
 5282813554,2.9092408583,-1.5064086212\H,0,-9.302520274,1.9662427713,-3
 .001784683\H,0,-9.5639567846,1.1257355994,-1.4452249483\H,0,-5.8963511
 346,0.6101600212,-2.2775278334\H,0,-7.4127153309,-0.2438047916,-1.8920
 50499\H,0,-7.2534630131,0.6571807085,-3.4262963467\H,0,-5.7926039692,3
 .1634160614,-2.2217349303\H,0,-7.0795463769,3.1597627331,-3.4681851213
 \H,0,-7.2758941988,4.1234836609,-1.9759717339\C,0,-3.6023016673,0.8621
 349243,-4.5844029766\C,0,-2.8086483788,-0.4563960256,-4.4171083592\C,0
 ,-3.7833269058,-1.6158024761,-4.0981156612\C,0,-2.099739744,-0.7705356
 558,-5.7481026447\H,0,-2.9287975304,1.6968811159,-4.8478337566\H,0,-4.
 3554255814,0.7594861855,-5.3863432631\H,0,-4.1339875072,1.1349180607,-
 3.6569875538\H,0,-3.2345147447,-2.5585833659,-3.9369781921\H,0,-4.3793
 395041,-1.4280450691,-3.1899861148\H,0,-4.4870434509,-1.7574106551,-4.
 9377694056\H,0,-1.5090321771,-1.7007105859,-5.6826955158\H,0,-2.851876
 8666,-0.9053986166,-6.5440973166\H,0,-1.4277693003,0.0479433228,-6.061
 5118226\C,0,2.3391231362,-1.5683671396,-3.2442478251\C,0,1.9937597947,
 -0.1898251813,-2.6317032419\C,0,2.8285814692,-0.006336136,-1.350929798
 \C,0,2.3794993935,0.9303993288,-3.6266273093\H,0,1.799272731,-1.741996
 0862,-4.1902279048\H,0,3.4218227982,-1.6320537675,-3.4553042332\H,0,2.
 0710940918,-2.3823853961,-2.5495050861\H,0,2.6455796188,0.9762838003,-
 0.8837954318\H,0,2.6111508634,-0.7896672961,-0.604225095\H,0,3.9028969
 717,-0.0653068949,-1.5969411767\H,0,2.1524494677,1.9253383742,-3.20564
 49135\H,0,3.4608824315,0.8884700957,-3.8489059005\H,0,1.8356415932,0.8
 351881363,-4.581529524\C,0,1.3597771486,-3.1483172941,4.6263630871\C,0
 ,0.1018638336,-2.2875977076,4.890000316\C,0,-1.149291586,-3.174112403,
 4.7336962682\C,0,0.1351807893,-1.7516016987,6.3407564414\H,0,2.2857407
 418,-2.5599875614,4.7482330179\H,0,1.39927359,-3.9958170398,5.33396851
 37\H,0,1.3469868543,-3.5548921317,3.6007749939\H,0,-2.0744861133,-2.59
 51380849,4.9019325931\H,0,-1.2080077157,-3.6349065322,3.7325099824\H,0
 ,-1.122577017,-3.9898004573,5.4767316221\H,0,-0.746368662,-1.118899567
 4,6.5409002046\H,0,0.1295954665,-2.5932813213,7.0558356226\H,0,1.03809
 47521,-1.1496101525,6.539966797\C,0,1.6297115344,3.4342877399,3.575893
 0502\C,0,2.2413975466,2.0646302455,3.2021059869\C,0,2.9326711354,2.174
 8795541,1.8226850685\C,0,3.3157248287,1.7135177282,4.2492102411\H,0,1.
 1730083045,3.3938838608,4.5795179861\H,0,2.4150508149,4.2116870251,3.5
 813666002\H,0,0.8427513563,3.7369858256,2.8664611549\H,0,3.3772257847,
 1.2095718622,1.5261122909\H,0,2.2229035128,2.4767401345,1.0339998222\H
 ,0,3.7377562404,2.9305381829,1.8573013374\H,0,3.8036233597,0.748546892
 1,4.0273248508\H,0,4.0976902445,2.4921714243,4.2509087435\H,0,2.894240
 3877,1.6630958588,5.2683643055\H,0,-0.8519488034,5.3510716314,4.260130
 8242\H,0,-4.4874616093,6.3171570331,3.8208764908\\Version=ES64L-G16Rev
 B.01\State=1-A\HF=-4642.2771385\RMSD=2.347e-09\Dipole=0.9278067,4.5948
 137,2.2364063\Quadrupole=1.2857319,-10.1602467,8.8745148,-2.2633371,0.
 4851797,-8.6181969\PG=C01 [X(C71H96Cl2O2P2Pd1)]\\@


 You never know when you're making a memory.
                        -- Rickie Lee Jones
 Job cpu time:       0 days  8 hours 33 minutes 21.4 seconds.
 Elapsed time:       0 days  0 hours 12 minutes 55.4 seconds.
 File lengths (MBytes):  RWF=   4650 Int=      0 D2E=      0 Chk=    699 Scr=      1
 Normal termination of Gaussian 16 at Tue Nov  2 17:17:03 2021.
