 Entering Gaussian System, Link 0=/uufs/chpc.utah.edu/sys/installdir/gaussian16/B01/E6B/g16/g16
 Input=S-35tBu-C3-Tunephos_1_SPE_NoPd.com
 Output=S-35tBu-C3-Tunephos_1_SPE_NoPd.log
 Initial command:
 /uufs/chpc.utah.edu/sys/installdir/gaussian16/B01/E6B/g16/l1.exe "/scratch/general/lustre/u1010977/3356301/notchpeak.peaks/Gau-238776.inp" -scrdir="/scratch/general/lustre/u1010977/3356301/notchpeak.peaks/"
 Entering Link 1 = /uufs/chpc.utah.edu/sys/installdir/gaussian16/B01/E6B/g16/l1.exe PID=    238778.
  
 Copyright (c) 1988-2017, Gaussian, Inc.  All Rights Reserved.
  
 This is part of the Gaussian(R) 16 program.  It is based on
 the Gaussian(R) 09 system (copyright 2009, Gaussian, Inc.),
 the Gaussian(R) 03 system (copyright 2003, Gaussian, Inc.),
 the Gaussian(R) 98 system (copyright 1998, Gaussian, Inc.),
 the Gaussian(R) 94 system (copyright 1995, Gaussian, Inc.),
 the Gaussian 92(TM) system (copyright 1992, Gaussian, Inc.),
 the Gaussian 90(TM) system (copyright 1990, Gaussian, Inc.),
 the Gaussian 88(TM) system (copyright 1988, Gaussian, Inc.),
 the Gaussian 86(TM) system (copyright 1986, Carnegie Mellon
 University), and the Gaussian 82(TM) system (copyright 1983,
 Carnegie Mellon University). Gaussian is a federally registered
 trademark of Gaussian, Inc.
  
 This software contains proprietary and confidential information,
 including trade secrets, belonging to Gaussian, Inc.
  
 This software is provided under written license and may be
 used, copied, transmitted, or stored only in accord with that
 written license.
  
 The following legend is applicable only to US Government
 contracts under FAR:
  
                    RESTRICTED RIGHTS LEGEND
  
 Use, reproduction and disclosure by the US Government is
 subject to restrictions as set forth in subparagraphs (a)
 and (c) of the Commercial Computer Software - Restricted
 Rights clause in FAR 52.227-19.
  
 Gaussian, Inc.
 340 Quinnipiac St., Bldg. 40, Wallingford CT 06492
  
  
 ---------------------------------------------------------------
 Warning -- This program may not be used in any manner that
 competes with the business of Gaussian, Inc. or will provide
 assistance to any competitor of Gaussian, Inc.  The licensee
 of this program is prohibited from giving any competitor of
 Gaussian, Inc. access to this program.  By using this program,
 the user acknowledges that Gaussian, Inc. is engaged in the
 business of creating and licensing software in the field of
 computational chemistry and represents and warrants to the
 licensee that it is not a competitor of Gaussian, Inc. and that
 it will not use this program in any manner prohibited above.
 ---------------------------------------------------------------
  

 Cite this work as:
 Gaussian 16, Revision B.01,
 M. J. Frisch, G. W. Trucks, H. B. Schlegel, G. E. Scuseria, 
 M. A. Robb, J. R. Cheeseman, G. Scalmani, V. Barone, 
 G. A. Petersson, H. Nakatsuji, X. Li, M. Caricato, A. V. Marenich, 
 J. Bloino, B. G. Janesko, R. Gomperts, B. Mennucci, H. P. Hratchian, 
 J. V. Ortiz, A. F. Izmaylov, J. L. Sonnenberg, D. Williams-Young, 
 F. Ding, F. Lipparini, F. Egidi, J. Goings, B. Peng, A. Petrone, 
 T. Henderson, D. Ranasinghe, V. G. Zakrzewski, J. Gao, N. Rega, 
 G. Zheng, W. Liang, M. Hada, M. Ehara, K. Toyota, R. Fukuda, 
 J. Hasegawa, M. Ishida, T. Nakajima, Y. Honda, O. Kitao, H. Nakai, 
 T. Vreven, K. Throssell, J. A. Montgomery, Jr., J. E. Peralta, 
 F. Ogliaro, M. J. Bearpark, J. J. Heyd, E. N. Brothers, K. N. Kudin, 
 V. N. Staroverov, T. A. Keith, R. Kobayashi, J. Normand, 
 K. Raghavachari, A. P. Rendell, J. C. Burant, S. S. Iyengar, 
 J. Tomasi, M. Cossi, J. M. Millam, M. Klene, C. Adamo, R. Cammi, 
 J. W. Ochterski, R. L. Martin, K. Morokuma, O. Farkas, 
 J. B. Foresman, and D. J. Fox, Gaussian, Inc., Wallingford CT, 2016.
 
 ******************************************
 Gaussian 16:  ES64L-G16RevB.01 20-Dec-2017
                 2-Nov-2021 
 ******************************************
 %NProcShared=52
 Will use up to   52 processors via shared memory.
 %mem=18GB
 %chk=S-35tBu-C3-Tunephos_1_SPE_NoPd.chk
 ----------------------------------------------------------------------
 # PBE1PBE/def2TZVP int=(grid=ultrafine) empiricaldispersion=GD3BJ nmr=
 giao
 ----------------------------------------------------------------------
 1/38=1,172=1/1;
 2/12=2,17=6,18=5,40=1/2;
 3/5=44,7=101,11=2,25=1,30=1,74=-13,75=-5,124=41/1,2,3,8;
 4//1;
 5/5=2,38=5/2;
 8/6=1,10=90,11=11/1;
 10/13=100,45=16/2;
 6/7=2,8=2,9=2,10=2,28=1/1;
 99/9=1/99;
 -----
 title
 -----
 Symbolic Z-matrix:
 Charge =  0 Multiplicity = 1
 P                    -5.13326   0.06411   2.44995 
 P                    -2.34708   0.08377   0.63968 
 O                    -1.46131   3.60816   3.52529 
 O                    -4.09945   4.51652   2.79642 
 C                    -6.08956  -0.98866   3.60325 
 C                    -5.62356  -2.30268   3.80292 
 C                    -6.24601  -3.14682   4.72893 
 C                    -7.338    -2.6306    5.46306 
 C                    -7.82726  -1.32845   5.27897 
 C                    -7.18323  -0.50803   4.32859 
 C                    -6.20222   1.40186   1.81813 
 C                    -6.71531   2.41671   2.64003 
 C                    -7.57544   3.39731   2.10437 
 C                    -7.8291    3.36137   0.7229 
 C                    -7.28111   2.38147  -0.13325 
 C                    -6.48766   1.38173   0.44133 
 C                    -3.94621   0.90892   3.59269 
 C                    -3.81489   0.45471   4.91964 
 C                    -2.90451   1.0646    5.78993 
 C                    -2.11582   2.13493   5.35698 
 C                    -2.24574   2.59241   4.03874 
 C                    -3.14914   1.98502   3.13601 
 C                    -3.24511   2.55429   1.7604 
 C                    -3.70188   3.88752   1.63998 
 C                    -3.80484   4.51694   0.39218 
 C                    -3.42606   3.81844  -0.7588 
 C                    -2.95752   2.50282  -0.66536 
 C                    -2.86314   1.86105   0.58609 
 C                    -1.46284  -0.13319  -0.95047 
 C                    -2.21386  -0.47324  -2.08711 
 C                    -1.60153  -0.57619  -3.34689 
 C                    -0.21532  -0.33571  -3.42962 
 C                     0.56231  -0.0078   -2.30385 
 C                    -0.08433   0.09224  -1.05857 
 C                    -1.1006   -0.06263   1.96091 
 C                    -1.15261  -1.20711   2.76343 
 C                    -0.20374  -1.41076   3.78426 
 C                     0.79593  -0.43921   3.94766 
 C                     0.87095   0.7269    3.15127 
 C                    -0.10213   0.91106   2.16061 
 C                    -3.44649   5.75021   3.15673 
 H                    -4.79602  -2.66322   3.18686 
 H                    -7.82913  -3.28297   6.18994 
 H                    -7.55165   0.50439   4.14279 
 H                    -6.43344   2.45115   3.69752 
 H                    -8.47748   4.12538   0.28585 
 H                    -6.06941   0.56776  -0.15628 
 H                    -4.42927  -0.37608   5.27304 
 H                    -2.80657   0.69764   6.81681 
 H                    -1.3921    2.5999    6.03245 
 H                    -4.19637   5.53718   0.33375 
 H                    -3.50026   4.29967  -1.73944 
 H                    -2.65703   1.97038  -1.57103 
 H                    -3.27941  -0.69184  -1.96967 
 H                     0.27396  -0.41972  -4.40133 
 H                     0.49451   0.3299   -0.16268 
 H                    -1.94991  -1.93523   2.57679 
 H                     1.54774  -0.58201   4.7289 
 H                    -0.11441   1.81934   1.55349 
 H                    -2.77709   6.07889   2.34001 
 C                    -2.67813   5.55072   4.46747 
 C                    -1.34633   4.81313   4.30328 
 H                    -0.89018   4.60858   5.29142 
 H                    -3.33543   5.0028    5.16633 
 H                    -2.46903   6.53553   4.92648 
 C                    -6.99602  -5.54262   4.66792 
 C                    -5.79532  -4.60291   4.9328 
 C                    -5.30407  -4.78174   6.38862 
 C                    -4.6571   -5.00052   3.97189 
 H                    -7.35949  -5.42457   3.63315 
 H                    -6.69167  -6.59477   4.81095 
 H                    -7.83817  -5.34006   5.35139 
 H                    -4.43463  -4.13154   6.59138 
 H                    -6.09239  -4.53281   7.12007 
 H                    -4.99852  -5.82895   6.563 
 H                    -3.74019  -4.41307   4.15274 
 H                    -4.40149  -6.06313   4.12567 
 H                    -4.9463   -4.87045   2.91484 
 C                    -8.5434    0.44415   6.90678 
 C                    -9.02272  -0.76461   6.06742 
 C                    -9.63975  -1.80407   7.02194 
 C                    -10.11814  -0.3021    5.07714 
 H                    -8.11263   1.23525   6.26953 
 H                    -9.38865   0.88356   7.46631 
 H                    -7.77022   0.13729   7.63248 
 H                    -10.01206  -2.68792   6.47558 
 H                    -8.9144   -2.14545   7.78105 
 H                    -10.49465  -1.35484   7.55591 
 H                    -10.47395  -1.14709   4.46351 
 H                    -10.97986   0.11344   5.62979 
 H                    -9.74969   0.47922   4.3914 
 C                    -9.1903    5.37442   2.29151 
 C                    -8.21216   4.44581   3.03623 
 C                    -7.10716   5.31738   3.67635 
 C                    -8.99695   3.71555   4.15271 
 H                    -10.01468   4.80921   1.82321 
 H                    -9.63578   6.08971   3.00402 
 H                    -8.68124   5.96009   1.50623 
 H                    -6.37243   4.70707   4.226 
 H                    -6.55636   5.8748    2.89972 
 H                    -7.55505   6.04291   4.37923 
 H                    -8.3366    3.08134   4.76829 
 H                    -9.47823   4.44775   4.82551 
 H                    -9.78379   3.06985   3.72575 
 C                    -6.77405   1.3444   -2.40762 
 C                    -7.5668    2.42355  -1.64316 
 C                    -7.16022   3.80811  -2.20114 
 C                    -9.07802   2.19221  -1.87768 
 H                    -7.04858   0.32421  -2.08859 
 H                    -6.98319   1.42664  -3.48828 
 H                    -5.68603   1.4696   -2.26373 
 H                    -7.72943   4.62759  -1.73 
 H                    -6.08668   3.99621  -2.02757 
 H                    -7.35006   3.84975  -3.28842 
 H                    -9.68925   2.9559   -1.36618 
 H                    -9.30959   2.23835  -2.95692 
 H                    -9.38465   1.20183  -1.50043 
 C                    -1.65492  -0.9602   -5.87449 
 C                    -2.45392  -0.99043  -4.55809 
 C                    -3.65651  -0.02628  -4.69756 
 C                    -2.97185  -2.43065  -4.32247 
 H                    -0.81238  -1.67326  -5.85829 
 H                    -2.3136   -1.24623  -6.71232 
 H                    -1.2544    0.04658  -6.08962 
 H                    -4.30921  -0.05155  -3.80907 
 H                    -3.31597   1.01429  -4.84371 
 H                    -4.27213  -0.31224  -5.56882 
 H                    -3.53957  -2.51649  -3.38091 
 H                    -3.62832  -2.7395   -5.15594 
 H                    -2.12988  -3.1414   -4.26258 
 C                     2.36207   1.70881  -1.94709 
 C                     2.07841   0.2494   -2.37768 
 C                     2.64006   0.04289  -3.79691 
 C                     2.81146  -0.7177   -1.41702 
 H                     2.00525   1.90433  -0.92094 
 H                     3.44746   1.91374  -1.97334 
 H                     1.85857   2.42383  -2.62054 
 H                     2.47686  -0.98905  -4.15297 
 H                     2.1827    0.73667  -4.52372 
 H                     3.7277    0.22986  -3.79624 
 H                     2.61848  -1.76819  -1.69348 
 H                     3.90151  -0.54219  -1.45909 
 H                     2.48819  -0.58166  -0.37072 
 C                    -0.34151  -3.92691   3.78793 
 C                    -0.32223  -2.65888   4.67471 
 C                    -1.6462   -2.56747   5.47215 
 C                     0.84279  -2.778     5.67461 
 H                     0.59729  -4.01991   3.21527 
 H                    -0.45176  -4.82707   4.41851 
 H                    -1.17429  -3.91792   3.06503 
 H                    -1.648    -1.68172   6.13068 
 H                    -2.5188   -2.48501   4.80257 
 H                    -1.77974  -3.46889   6.09741 
 H                     0.87412  -1.92328   6.37326 
 H                     0.72165  -3.6948    6.27645 
 H                     1.81707  -2.84163   5.15902 
 C                     3.3623    1.05291   3.18878 
 C                     1.99573   1.74771   3.39558 
 C                     1.89382   2.2781    4.84526 
 C                     1.91018   2.95044   2.43625 
 H                     3.45531   0.67375   2.15592 
 H                     4.18631   1.76615   3.36991 
 H                     3.49668   0.19944   3.87449 
 H                     0.9271    2.78754   4.99772 
 H                     1.97059   1.46503   5.58662 
 H                     2.70474   3.00028   5.04853 
 H                     0.94933   3.4818    2.54259 
 H                     2.72437   3.66116   2.66011 
 H                     2.02165   2.64049   1.38195 
 H                    -0.63039   5.42479   3.72861 
 H                    -4.23482   6.51231   3.29232 
 
 Stoichiometry    C71H96O2P2
 Framework group  C1[X(C71H96O2P2)]
 Deg. of freedom   507
 Full point group                 C1      NOp   1
 Largest Abelian subgroup         C1      NOp   1
 Largest concise Abelian subgroup C1      NOp   1
                         Standard orientation:                         
 ---------------------------------------------------------------------
 Center     Atomic      Atomic             Coordinates (Angstroms)
 Number     Number       Type             X           Y           Z
 ---------------------------------------------------------------------
      1         15           0       -1.623422    0.040017   -0.753694
      2         15           0        1.698982    0.055618   -0.712522
      3          8           0        0.836955   -0.509716    3.811855
      4          8           0       -0.979037    1.704014    3.468705
      5          6           0       -3.047392   -0.902613   -1.414522
      6          6           0       -2.757265   -1.961614   -2.296582
      7          6           0       -3.778910   -2.784562   -2.782894
      8          6           0       -5.098241   -2.527601   -2.345595
      9          6           0       -5.416274   -1.475340   -1.473562
     10          6           0       -4.363058   -0.657710   -1.011697
     11          6           0       -2.182025    1.694804   -0.223522
     12          6           0       -3.068302    1.890883    0.846411
     13          6           0       -3.502183    3.190429    1.179957
     14          6           0       -2.958523    4.267098    0.459334
     15          6           0       -2.024536    4.098006   -0.585935
     16          6           0       -1.667632    2.791209   -0.938187
     17          6           0       -1.260885   -0.862580    0.821917
     18          6           0       -1.873668   -2.106902    1.067890
     19          6           0       -1.592018   -2.815148    2.241445
     20          6           0       -0.702542   -2.296967    3.187695
     21          6           0       -0.093375   -1.057709    2.948779
     22          6           0       -0.351459   -0.328327    1.764984
     23          6           0        0.316725    0.995891    1.605068
     24          6           0       -0.009169    2.004741    2.541359
     25          6           0        0.582809    3.273754    2.487031
     26          6           0        1.534460    3.542031    1.497820
     27          6           0        1.884837    2.556328    0.567895
     28          6           0        1.283762    1.282059    0.610872
     29          6           0        3.310572    0.661182   -1.339877
     30          6           0        3.306117    1.629640   -2.356578
     31          6           0        4.508580    2.186775   -2.821649
     32          6           0        5.712483    1.738114   -2.242383
     33          6           0        5.745248    0.758658   -1.232841
     34          6           0        4.522027    0.225988   -0.786896
     35          6           0        2.020614   -1.531540    0.123104
     36          6           0        1.546143   -2.689500   -0.501855
     37          6           0        1.783403   -3.957761    0.063078
     38          6           0        2.523942   -4.012120    1.254128
     39          6           0        3.014173   -2.857477    1.906937
     40          6           0        2.740282   -1.609936    1.331753
     41          6           0       -0.638290    1.809493    4.865463
     42          1           0       -1.724994   -2.097581   -2.628654
     43          1           0       -5.902380   -3.166942   -2.719426
     44          1           0       -4.576962    0.185185   -0.349110
     45          1           0       -3.411106    1.030183    1.430022
     46          1           0       -3.267566    5.283593    0.716922
     47          1           0       -0.984857    2.587177   -1.766927
     48          1           0       -2.575406   -2.520401    0.340466
     49          1           0       -2.069196   -3.784675    2.417637
     50          1           0       -0.469541   -2.859027    4.096568
     51          1           0        0.279832    4.041126    3.206011
     52          1           0        2.005408    4.529061    1.445781
     53          1           0        2.635576    2.775508   -0.195237
     54          1           0        2.351483    1.918268   -2.806388
     55          1           0        6.654218    2.157605   -2.599942
     56          1           0        4.514780   -0.547591   -0.015093
     57          1           0        0.985995   -2.581193   -1.437371
     58          1           0        2.726892   -4.987490    1.705136
     59          1           0        3.055710   -0.687491    1.825019
     60          1           0        0.366518    2.257410    4.979067
     61          6           0       -0.710755    0.420737    5.509140
     62          6           0        0.499082   -0.468904    5.209929
     63          1           0        0.341795   -1.488368    5.612770
     64          1           0       -1.639403   -0.066553    5.161539
     65          1           0       -0.793781    0.526652    6.607385
     66          6           0       -4.356423   -3.679981   -5.056837
     67          6           0       -3.502899   -3.915579   -3.787629
     68          6           0       -3.886839   -5.268983   -3.144516
     69          6           0       -2.021659   -3.969446   -4.211896
     70          1           0       -4.095440   -2.716288   -5.525860
     71          1           0       -4.172476   -4.484418   -5.791097
     72          1           0       -5.436684   -3.669690   -4.832546
     73          1           0       -3.274567   -5.463553   -2.246141
     74          1           0       -4.948611   -5.292593   -2.843678
     75          1           0       -3.719069   -6.093560   -3.860301
     76          1           0       -1.357223   -4.203863   -3.362123
     77          1           0       -1.884309   -4.764746   -4.964729
     78          1           0       -1.686387   -3.017603   -4.658560
     79          6           0       -6.918750   -1.351768    0.534434
     80          6           0       -6.852262   -1.183922   -1.002696
     81          6           0       -7.883586   -2.134158   -1.639664
     82          6           0       -7.230729    0.268526   -1.379092
     83          1           0       -6.215140   -0.674009    1.047327
     84          1           0       -7.935480   -1.125369    0.902681
     85          1           0       -6.666373   -2.385422    0.828542
     86          1           0       -7.890103   -2.049177   -2.740140
     87          1           0       -7.689280   -3.188025   -1.374093
     88          1           0       -8.894483   -1.879941   -1.277376
     89          1           0       -7.186913    0.414439   -2.471768
     90          1           0       -8.257314    0.494590   -1.038962
     91          1           0       -6.552700    1.004037   -0.914591
     92          6           0       -4.970268    4.857386    2.451873
     93          6           0       -4.552340    3.383290    2.290412
     94          6           0       -3.983716    2.889053    3.640521
     95          6           0       -5.814888    2.560759    1.936665
     96          1           0       -5.400159    5.265062    1.520545
     97          1           0       -5.738004    4.939604    3.240276
     98          1           0       -4.118704    5.494186    2.748729
     99          1           0       -3.665081    1.835400    3.588569
    100          1           0       -3.101743    3.485440    3.929813
    101          1           0       -4.748276    2.984691    4.432581
    102          1           0       -5.594403    1.481692    1.871698
    103          1           0       -6.590971    2.696611    2.711020
    104          1           0       -6.235397    2.878801    0.966942
    105          6           0       -0.348568    4.922662   -2.322726
    106          6           0       -1.437981    5.322223   -1.307362
    107          6           0       -0.802174    6.272644   -0.265199
    108          6           0       -2.573044    6.058081   -2.057328
    109          1           0       -0.745694    4.276163   -3.124146
    110          1           0        0.066964    5.828894   -2.796435
    111          1           0        0.482572    4.388421   -1.828812
    112          1           0       -1.542171    6.638566    0.466936
    113          1           0        0.000168    5.757681    0.290725
    114          1           0       -0.366577    7.152981   -0.770396
    115          1           0       -3.369894    6.384791   -1.366864
    116          1           0       -2.176811    6.954266   -2.567572
    117          1           0       -3.029097    5.400998   -2.817231
    118          6           0        5.849332    3.797833   -4.286562
    119          6           0        4.460584    3.214893   -3.964379
    120          6           0        3.523420    4.381858   -3.570469
    121          6           0        3.908323    2.514324   -5.230170
    122          1           0        6.550764    3.017924   -4.630552
    123          1           0        5.758323    4.540974   -5.097170
    124          1           0        6.295170    4.305657   -3.412700
    125          1           0        2.491198    4.037858   -3.390912
    126          1           0        3.881078    4.886400   -2.655243
    127          1           0        3.486748    5.128986   -4.383063
    128          1           0        2.918624    2.061266   -5.052842
    129          1           0        3.816940    3.241146   -6.057449
    130          1           0        4.585366    1.704946   -5.552926
    131          6           0        7.044477    0.599005    0.911841
    132          6           0        7.052899    0.253032   -0.596794
    133          6           0        8.300891    0.891029   -1.235377
    134          6           0        7.147809   -1.282319   -0.767690
    135          1           0        6.183059    0.139845    1.427262
    136          1           0        7.965939    0.229297    1.396601
    137          1           0        6.986382    1.690404    1.066040
    138          1           0        8.366357    0.665823   -2.313948
    139          1           0        8.310755    1.987716   -1.109120
    140          1           0        9.209627    0.491585   -0.753137
    141          1           0        7.144928   -1.560225   -1.835380
    142          1           0        8.082025   -1.658697   -0.313429
    143          1           0        6.303868   -1.803008   -0.283542
    144          6           0        1.683842   -5.244413   -2.101313
    145          6           0        1.205909   -5.203058   -0.630086
    146          6           0       -0.339228   -5.112009   -0.592502
    147          6           0        1.634954   -6.510396    0.061328
    148          1           0        2.783614   -5.318955   -2.154983
    149          1           0        1.252955   -6.122924   -2.613791
    150          1           0        1.382153   -4.344905   -2.663496
    151          1           0       -0.707247   -5.103835    0.448039
    152          1           0       -0.703949   -4.192695   -1.080771
    153          1           0       -0.786701   -5.976734   -1.115350
    154          1           0        1.272939   -6.562492    1.103374
    155          1           0        1.210790   -7.372443   -0.481238
    156          1           0        2.733004   -6.625958    0.068428
    157          6           0        5.076777   -3.852697    2.941195
    158          6           0        3.814824   -3.000232    3.212864
    159          6           0        2.932724   -3.697357    4.275491
    160          6           0        4.259532   -1.636773    3.776256
    161          1           0        5.722345   -3.366067    2.189098
    162          1           0        5.662408   -3.977334    3.869647
    163          1           0        4.820168   -4.857550    2.565560
    164          1           0        2.036510   -3.089082    4.485561
    165          1           0        2.597167   -4.693599    3.941573
    166          1           0        3.495218   -3.826894    5.217440
    167          1           0        3.393300   -0.986758    3.986067
    168          1           0        4.813576   -1.788547    4.718663
    169          1           0        4.931779   -1.106345    3.078570
    170          1           0        1.408427   -0.062447    5.684094
    171          1           0       -1.377730    2.483151    5.334554
 ---------------------------------------------------------------------
 Rotational constants (GHZ):           0.0311921           0.0233838           0.0205295
 Standard basis: def2TZVP (5D, 7F)
 There are  3288 symmetry adapted cartesian basis functions of A   symmetry.
 There are  2913 symmetry adapted basis functions of A   symmetry.
  2913 basis functions,  4629 primitive gaussians,  3288 cartesian basis functions
   284 alpha electrons      284 beta electrons
       nuclear repulsion energy     14545.7534227434 Hartrees.
 NAtoms=  171 NActive=  171 NUniq=  171 SFac= 1.00D+00 NAtFMM=   60 NAOKFM=T Big=T
 Integral buffers will be    131072 words long.
 Raffenetti 2 integral format.
 Two-electron integral symmetry is turned on.
 Nuclear repulsion after empirical dispersion term =    14545.4908609563 Hartrees.
 One-electron integrals computed using PRISM.
   1 Symmetry operations used in ECPInt.
 ECPInt:  NShTT=  736291 NPrTT= 2187061 LenC2=  481932 LenP2D=  909419.
 LDataN:  DoStor=T MaxTD1= 6 Len=  172
 Number of processors reduced to  13 by ecpmxn.
 NBasis=  2913 RedAO= T EigKep=  2.44D-06  NBF=  2913
 NBsUse=  2913 1.00D-06 EigRej= -1.00D+00 NBFU=  2913
 ExpMin= 9.04D-02 ExpMax= 5.24D+04 ExpMxC= 1.79D+03 IAcc=3 IRadAn=         5 AccDes= 0.00D+00
 Harris functional with IExCor= 1009 and IRadAn=       5 diagonalized for initial guess.
 HarFok:  IExCor= 1009 AccDes= 0.00D+00 IRadAn=         5 IDoV= 1 UseB2=F ITyADJ=14
 ICtDFT=  3500011 ScaDFX=  1.000000  1.000000  1.000000  1.000000
 FoFCou: FMM=F IPFlag=           0 FMFlag=      100000 FMFlg1=        2001
         NFxFlg=           0 DoJE=T BraDBF=F KetDBF=T FulRan=T
         wScrn=  0.000000 ICntrl=       500 IOpCl=  0 I1Cent=   200000004 NGrid=           0
         NMat0=    1 NMatS0=      1 NMatT0=    0 NMatD0=    1 NMtDS0=    0 NMtDT0=    0
 Petite list used in FoFCou.
 Requested convergence on RMS density matrix=1.00D-08 within 128 cycles.
 Requested convergence on MAX density matrix=1.00D-06.
 Requested convergence on             energy=1.00D-06.
 No special actions if energy rises.
 Integral accuracy reduced to 1.0D-05 until final iterations.
 Problem detected with inexpensive integrals.
 Switching to full accuracy and repeating last cycle.
 SCF Done:  E(RPBE1PBE) =  -3594.07668681     A.U. after   16 cycles
            NFock= 16  Conv=0.17D-08     -V/T= 2.0055
 DoSCS=F DFT=T ScalE2(SS,OS)=  1.000000  1.000000
 Range of M.O.s used for correlation:     1  2913
 NBasis=  2913 NAE=   284 NBE=   284 NFC=     0 NFV=     0
 NROrb=   2913 NOA=   284 NOB=   284 NVA=  2629 NVB=  2629

 **** Warning!!: The largest alpha MO coefficient is  0.43745207D+02

          Differentiating once with respect to magnetic field using GIAOs.
          Electric field/nuclear overlap derivatives assumed to be zero.
 PrsmSu:  requested number of processors reduced to:  49 ShMem   1 Linda.
 FoFCou: FMM=F IPFlag=           0 FMFlag=      100000 FMFlg1=        2001
         NFxFlg=           0 DoJE=F BraDBF=F KetDBF=T FulRan=T
         wScrn=  0.000000 ICntrl=      6100 IOpCl=  0 I1Cent=           7 NGrid=         171
         NMat0=    1 NMatS0=      1 NMatT0=    0 NMatD0=    1 NMtDS0=    0 NMtDT0=    0
 Symmetry not used in FoFCou.
   1 Symmetry operations used in ECPInt.
 ECPInt:  NShTT=  736291 NPrTT= 2187061 LenC2=  736292 LenP2D= 2187061.
 LDataN:  DoStor=T MaxTD1= 7 Len=  274
 Number of processors reduced to   8 by ecpmxn.
 FoFJK:  IHMeth= 1 ICntrl=    6127 DoSepK=F KAlg= 0 I1Cent=           0 FoldK=F
 IRaf=         1 NMat=       1 IRICut=       1 DoRegI=T DoRafI=F ISym2E= 0 IDoP0=0 IntGTp=1.
          There are     3 degrees of freedom in the 1st order CPHF.  IDoFFX=0 NUNeed=     3.
      3 vectors produced by pass  0 Test12= 2.49D-11 3.33D-08 XBig12= 5.23D+02 1.81D+00.
 AX will form     3 AO Fock derivatives at one time.
      3 vectors produced by pass  1 Test12= 2.49D-11 3.33D-08 XBig12= 1.46D+00 1.86D-01.
      3 vectors produced by pass  2 Test12= 2.49D-11 3.33D-08 XBig12= 1.11D-02 1.65D-02.
      3 vectors produced by pass  3 Test12= 2.49D-11 3.33D-08 XBig12= 3.46D-05 9.03D-04.
      3 vectors produced by pass  4 Test12= 2.49D-11 3.33D-08 XBig12= 1.35D-07 1.03D-04.
      3 vectors produced by pass  5 Test12= 2.49D-11 3.33D-08 XBig12= 1.05D-09 9.05D-06.
      3 vectors produced by pass  6 Test12= 2.49D-11 3.33D-08 XBig12= 4.24D-12 6.44D-07.
      2 vectors produced by pass  7 Test12= 2.49D-11 3.33D-08 XBig12= 3.75D-13 4.42D-08.
 InvSVY:  IOpt=1 It=  1 EMax= 1.07D-14
 Solved reduced A of dimension    23 with     3 vectors.
 Calculating GIAO nuclear magnetic shielding tensors.
 SCF GIAO Magnetic shielding tensor (ppm):
      1  P    Isotropic =   298.9530   Anisotropy =    47.3162
   XX=   303.6034   YX=    -0.8806   ZX=   -38.7432
   XY=   -19.7347   YY=   273.3304   ZY=   -15.9157
   XZ=     6.5973   YZ=   -10.7452   ZZ=   319.9251
   Eigenvalues:   264.3395   302.0223   330.4971
      2  P    Isotropic =   296.4932   Anisotropy =    53.4420
   XX=   283.2022   YX=    15.0136   ZX=    41.2669
   XY=   -30.1206   YY=   295.6107   ZY=    15.7767
   XZ=     5.8622   YZ=    29.2944   ZZ=   310.6666
   Eigenvalues:   259.7759   297.5825   332.1212
      3  O    Isotropic =   219.1722   Anisotropy =   119.2152
   XX=   275.8368   YX=   -11.5017   ZX=   -45.6816
   XY=   -26.3231   YY=   209.5299   ZY=    75.3479
   XZ=   -18.9831   YZ=    24.9855   ZZ=   172.1498
   Eigenvalues:   135.3905   223.4771   298.6490
      4  O    Isotropic =   218.3556   Anisotropy =    99.6106
   XX=   269.8162   YX=     8.5644   ZX=    44.0611
   XY=     7.4879   YY=   185.0818   ZY=   -71.5533
   XZ=    23.0332   YZ=   -24.0323   ZZ=   200.1688
   Eigenvalues:   138.1456   232.1585   284.7626
      5  C    Isotropic =    43.4302   Anisotropy =   194.6242
   XX=   -14.7260   YX=   -31.4671   ZX=    -2.0760
   XY=   -37.9651   YY=    48.5924   ZY=  -101.3173
   XZ=     4.6136   YZ=   -88.6811   ZZ=    96.4241
   Eigenvalues:   -48.1662     5.2771   173.1796
      6  C    Isotropic =    50.3480   Anisotropy =   166.0130
   XX=   -38.1434   YX=    -1.9610   ZX=    36.5133
   XY=    11.1785   YY=    91.8643   ZY=   -55.4028
   XZ=    41.6430   YZ=   -70.8115   ZZ=    97.3230
   Eigenvalues:   -52.1551    42.1757   161.0233
      7  C    Isotropic =    28.5173   Anisotropy =   199.4002
   XX=   -17.6507   YX=    -7.8613   ZX=    27.3149
   XY=    -9.5987   YY=    32.8381   ZY=  -105.0427
   XZ=    24.3966   YZ=  -104.0744   ZZ=    70.3643
   Eigenvalues:   -57.2989   -18.6000   161.4507
      8  C    Isotropic =    56.7472   Anisotropy =   173.2016
   XX=     2.7198   YX=   -48.5104   ZX=    -8.7613
   XY=   -40.2469   YY=    57.2280   ZY=   -83.9114
   XZ=    -1.2606   YZ=   -78.5290   ZZ=   110.2937
   Eigenvalues:   -39.5211    37.5477   172.2150
      9  C    Isotropic =    27.0246   Anisotropy =   200.5614
   XX=   -51.0711   YX=    -6.0126   ZX=    32.8095
   XY=    -9.5461   YY=    46.6473   ZY=   -86.1018
   XZ=    31.5530   YZ=   -90.4778   ZZ=    85.4976
   Eigenvalues:   -60.6737   -18.9848   160.7322
     10  C    Isotropic =    48.3772   Anisotropy =   184.8711
   XX=    25.6292   YX=     3.6101   ZX=    26.5691
   XY=     5.7234   YY=    39.8275   ZY=  -100.7836
   XZ=    24.4881   YZ=  -115.4861   ZZ=    79.6748
   Eigenvalues:   -55.1899    28.6968   171.6246
     11  C    Isotropic =    44.2959   Anisotropy =   194.3784
   XX=   101.2229   YX=    17.6173   ZX=    89.7905
   XY=    18.0644   YY=   -42.8546   ZY=    -6.5690
   XZ=    79.0571   YZ=    -2.0718   ZZ=    74.5195
   Eigenvalues:   -47.7861     6.7923   173.8815
     12  C    Isotropic =    46.1419   Anisotropy =   186.2193
   XX=   104.4761   YX=   -23.8004   ZX=    86.6639
   XY=   -14.1636   YY=   -18.7247   ZY=    46.1096
   XZ=    88.2825   YZ=    35.8294   ZZ=    52.6743
   Eigenvalues:   -60.1781    28.3157   170.2881
     13  C    Isotropic =    30.1978   Anisotropy =   199.9596
   XX=    67.3094   YX=    11.7336   ZX=   105.7347
   XY=    14.7271   YY=   -14.1565   ZY=     5.3634
   XZ=   112.3827   YZ=     5.9011   ZZ=    37.4406
   Eigenvalues:   -58.1611   -14.7497   163.5042
     14  C    Isotropic =    55.7786   Anisotropy =   178.4204
   XX=   111.6462   YX=    32.2864   ZX=    69.5679
   XY=    19.4439   YY=   -34.2486   ZY=    -5.7072
   XZ=    74.7578   YZ=   -11.3800   ZZ=    89.9382
   Eigenvalues:   -42.8699    35.4800   174.7255
     15  C    Isotropic =    29.6116   Anisotropy =   202.2636
   XX=    81.9960   YX=    -8.6848   ZX=    95.7190
   XY=    -9.6343   YY=   -39.7592   ZY=    15.5422
   XZ=   101.2322   YZ=    20.6278   ZZ=    46.5980
   Eigenvalues:   -57.6601   -17.9591   164.4540
     16  C    Isotropic =    48.7869   Anisotropy =   171.2707
   XX=    73.6669   YX=    11.3167   ZX=   110.5624
   XY=     8.4435   YY=    36.2818   ZY=    -5.6913
   XZ=   101.9837   YZ=   -11.3314   ZZ=    36.4119
   Eigenvalues:   -54.6758    38.0691   162.9673
     17  C    Isotropic =    31.2021   Anisotropy =   198.4110
   XX=    80.6574   YX=   -48.9462   ZX=   -73.7688
   XY=   -62.1923   YY=     8.7817   ZY=    50.5687
   XZ=   -75.6684   YZ=    56.9094   ZZ=     4.1672
   Eigenvalues:   -51.5504   -18.3194   163.4761
     18  C    Isotropic =    53.3898   Anisotropy =   185.7602
   XX=    76.7658   YX=   -73.3227   ZX=   -90.8802
   XY=   -77.3483   YY=    48.6162   ZY=     2.2944
   XZ=   -80.8962   YZ=     9.9977   ZZ=    34.7875
   Eigenvalues:   -53.7558    36.6953   177.2299
     19  C    Isotropic =    52.8587   Anisotropy =   183.2319
   XX=    98.8523   YX=   -80.9963   ZX=   -45.4587
   XY=   -86.1236   YY=    -9.5464   ZY=    42.5298
   XZ=   -37.3584   YZ=    42.4542   ZZ=    69.2701
   Eigenvalues:   -57.7238    41.2866   175.0133
     20  C    Isotropic =    68.4671   Anisotropy =   171.1681
   XX=   116.2560   YX=   -42.1333   ZX=   -70.5782
   XY=   -35.9741   YY=    62.9968   ZY=    61.5107
   XZ=   -56.0546   YZ=    56.4926   ZZ=    26.1485
   Eigenvalues:   -24.6648    47.4869   182.5791
     21  C    Isotropic =    23.2699   Anisotropy =   140.5094
   XX=    36.2063   YX=   -59.3944   ZX=   -76.0418
   XY=   -47.3028   YY=    36.5016   ZY=     0.6946
   XZ=   -70.4099   YZ=     0.8064   ZZ=    -2.8981
   Eigenvalues:   -69.8407    22.7076   116.9429
     22  C    Isotropic =    45.5294   Anisotropy =   164.6392
   XX=    88.6065   YX=   -73.8490   ZX=   -37.3476
   XY=   -73.3956   YY=    -3.1729   ZY=    40.9432
   XZ=   -47.4187   YZ=    19.8412   ZZ=    51.1547
   Eigenvalues:   -44.4859    25.7853   155.2889
     23  C    Isotropic =    46.4435   Anisotropy =   162.9067
   XX=    85.0704   YX=   -62.4023   ZX=    54.6315
   XY=   -55.5697   YY=   -13.1714   ZY=   -24.0842
   XZ=    65.7411   YZ=    -4.8091   ZZ=    67.4315
   Eigenvalues:   -42.6075    26.8901   155.0480
     24  C    Isotropic =    17.9903   Anisotropy =   144.5189
   XX=    28.7028   YX=   -27.3272   ZX=    92.3273
   XY=   -24.6914   YY=    17.1371   ZY=   -12.4256
   XZ=    83.1135   YZ=   -10.7022   ZZ=     8.1310
   Eigenvalues:   -70.7969    10.4315   114.3362
     25  C    Isotropic =    64.9197   Anisotropy =   157.1176
   XX=   105.5918   YX=    -7.4229   ZX=    73.2033
   XY=   -15.6010   YY=    26.5838   ZY=   -56.0623
   XZ=    64.8342   YZ=   -55.0195   ZZ=    62.5836
   Eigenvalues:   -23.7421    48.8366   169.6648
     26  C    Isotropic =    51.7066   Anisotropy =   183.4999
   XX=    93.2671   YX=   -64.1994   ZX=    63.7130
   XY=   -71.2941   YY=   -28.7546   ZY=   -20.9852
   XZ=    59.2813   YZ=   -22.0640   ZZ=    90.6073
   Eigenvalues:   -59.1393    40.2193   174.0399
     27  C    Isotropic =    55.8348   Anisotropy =   183.4353
   XX=    66.6320   YX=   -45.7065   ZX=   108.3229
   XY=   -52.6660   YY=    48.2264   ZY=    -6.3770
   XZ=    99.4268   YZ=   -13.4266   ZZ=    52.6459
   Eigenvalues:   -52.0378    41.4172   178.1250
     28  C    Isotropic =    35.7610   Anisotropy =   193.8090
   XX=    73.4658   YX=   -28.5813   ZX=    85.8954
   XY=   -34.7104   YY=   -10.2059   ZY=   -45.9168
   XZ=    88.7676   YZ=   -50.8214   ZZ=    44.0232
   Eigenvalues:   -44.6092   -13.0747   164.9671
     29  C    Isotropic =    43.6685   Anisotropy =   195.2814
   XX=   -30.6669   YX=   -20.7514   ZX=    12.8700
   XY=   -28.0636   YY=    85.0144   ZY=    99.1134
   XZ=     7.9537   YZ=    85.6525   ZZ=    76.6580
   Eigenvalues:   -47.6725     4.8219   173.8561
     30  C    Isotropic =    46.9645   Anisotropy =   173.5421
   XX=   -29.5419   YX=    17.4821   ZX=   -42.8818
   XY=    24.0876   YY=   102.4230   ZY=    64.8764
   XZ=   -35.4126   YZ=    85.3799   ZZ=    68.0124
   Eigenvalues:   -58.3775    36.6118   162.6592
     31  C    Isotropic =    29.2843   Anisotropy =   198.4089
   XX=   -16.9244   YX=    -7.8955   ZX=   -10.0107
   XY=    -4.8155   YY=    60.1664   ZY=   107.5762
   XZ=   -11.9429   YZ=   108.5517   ZZ=    44.6108
   Eigenvalues:   -56.3097   -17.3944   161.5569
     32  C    Isotropic =    60.5344   Anisotropy =   166.3462
   XX=   -12.1374   YX=   -30.5033   ZX=    15.3935
   XY=   -34.7599   YY=    98.2189   ZY=    73.4645
   XZ=    12.9859   YZ=    73.6133   ZZ=    95.5216
   Eigenvalues:   -32.5063    42.6776   171.4319
     33  C    Isotropic =    27.6739   Anisotropy =   200.9503
   XX=   -44.2405   YX=     6.6283   ZX=   -26.5622
   XY=     2.9067   YY=    70.2547   ZY=    93.8890
   XZ=   -21.7810   YZ=   100.0147   ZZ=    57.0076
   Eigenvalues:   -60.9647   -17.6543   161.6408
     34  C    Isotropic =    48.1915   Anisotropy =   184.6374
   XX=    26.1763   YX=    -3.0027   ZX=    -9.3246
   XY=     7.1141   YY=    67.3909   ZY=   104.9611
   XZ=    -8.0368   YZ=   118.3390   ZZ=    51.0072
   Eigenvalues:   -53.5073    26.7986   171.2831
     35  C    Isotropic =    45.1291   Anisotropy =   196.6379
   XX=   127.3492   YX=    -0.6835   ZX=   -82.9486
   XY=    -5.5388   YY=   -36.3853   ZY=    31.5439
   XZ=   -74.2784   YZ=    25.8216   ZZ=    44.4235
   Eigenvalues:   -49.1617     8.3280   176.2211
     36  C    Isotropic =    45.2733   Anisotropy =   178.4888
   XX=    99.9863   YX=   -17.4126   ZX=  -103.3939
   XY=    -6.3424   YY=    35.0224   ZY=    11.1543
   XZ=   -96.4121   YZ=    16.4229   ZZ=     0.8111
   Eigenvalues:   -61.4473    33.0014   164.2658
     37  C    Isotropic =    30.0014   Anisotropy =   201.8702
   XX=   109.6423   YX=   -24.3779   ZX=   -85.3460
   XY=   -26.8604   YY=   -43.0531   ZY=    -8.0890
   XZ=   -87.3056   YZ=    -6.6692   ZZ=    23.4150
   Eigenvalues:   -58.2785   -16.2988   164.5816
     38  C    Isotropic =    55.6985   Anisotropy =   178.9365
   XX=   132.2401   YX=     1.2648   ZX=   -69.2138
   XY=     7.7885   YY=   -24.1114   ZY=    41.3812
   XZ=   -69.1144   YZ=    30.4949   ZZ=    58.9667
   Eigenvalues:   -43.2206    35.3265   174.9895
     39  C    Isotropic =    30.1711   Anisotropy =   202.0430
   XX=   105.7016   YX=    -9.2792   ZX=   -94.8074
   XY=   -10.6919   YY=   -15.2337   ZY=     2.4057
   XZ=  -101.2013   YZ=     6.5862   ZZ=     0.0453
   Eigenvalues:   -58.4995   -15.8537   164.8664
     40  C    Isotropic =    47.9916   Anisotropy =   183.6096
   XX=   126.1955   YX=   -37.4550   ZX=   -73.4328
   XY=   -27.4886   YY=   -25.3824   ZY=   -29.0502
   XZ=   -74.7557   YZ=   -34.1163   ZZ=    43.1617
   Eigenvalues:   -58.6631    32.2399   170.3980
     41  C    Isotropic =   108.1541   Anisotropy =    76.7172
   XX=    79.8617   YX=    10.9679   ZX=    18.1668
   XY=     6.8420   YY=    89.5128   ZY=    -1.7133
   XZ=    17.9305   YZ=     3.1751   ZZ=   155.0879
   Eigenvalues:    71.6679    93.4956   159.2989
     42  H    Isotropic =    23.2012   Anisotropy =    14.2381
   XX=    19.7655   YX=     2.3945   ZX=     2.5698
   XY=     3.3383   YY=    25.6305   ZY=     5.9582
   XZ=     2.3596   YZ=     7.3041   ZZ=    24.2076
   Eigenvalues:    18.2352    18.6752    32.6932
     43  H    Isotropic =    23.7209   Anisotropy =    14.9439
   XX=    26.9081   YX=    -4.2272   ZX=    -4.4549
   XY=    -5.3771   YY=    21.8560   ZY=     4.4973
   XZ=    -5.0835   YZ=     5.0866   ZZ=    22.3988
   Eigenvalues:    17.3182    20.1610    33.6835
     44  H    Isotropic =    23.4034   Anisotropy =    16.4625
   XX=    32.6146   YX=     6.2238   ZX=     1.8880
   XY=     2.2432   YY=    20.7502   ZY=     1.8010
   XZ=     1.5352   YZ=     4.8168   ZZ=    16.8452
   Eigenvalues:    14.9307    20.9010    34.3783
     45  H    Isotropic =    23.7840   Anisotropy =    14.3589
   XX=    26.8311   YX=    -6.0103   ZX=    -0.4463
   XY=    -5.0339   YY=    22.8096   ZY=     4.5134
   XZ=    -3.2059   YZ=     8.5703   ZZ=    21.7112
   Eigenvalues:    15.1036    22.8917    33.3566
     46  H    Isotropic =    23.9822   Anisotropy =    14.3849
   XX=    25.4403   YX=     1.5855   ZX=    -6.8693
   XY=     2.5348   YY=    21.2931   ZY=    -3.8059
   XZ=    -6.8838   YZ=    -3.6472   ZZ=    25.2134
   Eigenvalues:    17.8159    20.5587    33.5721
     47  H    Isotropic =    23.7207   Anisotropy =    12.2795
   XX=    20.8470   YX=     1.5067   ZX=     1.7284
   XY=     0.9662   YY=    30.5329   ZY=    -3.8638
   XZ=    -0.6314   YZ=    -3.9922   ZZ=    19.7822
   Eigenvalues:    18.1836    21.0715    31.9070
     48  H    Isotropic =    25.4955   Anisotropy =    11.4270
   XX=    23.3518   YX=    -1.1027   ZX=     2.2690
   XY=    -3.7558   YY=    25.3410   ZY=    -6.4280
   XZ=     3.7347   YZ=    -3.3057   ZZ=    27.7936
   Eigenvalues:    21.5333    21.8397    33.1135
     49  H    Isotropic =    24.7340   Anisotropy =     4.6637
   XX=    24.6142   YX=     0.5447   ZX=     1.4540
   XY=    -0.0310   YY=    22.6159   ZY=    -0.8635
   XZ=     1.5358   YZ=    -1.3063   ZZ=    26.9718
   Eigenvalues:    22.1885    24.1703    27.8431
     50  H    Isotropic =    25.0134   Anisotropy =     4.7108
   XX=    25.1707   YX=     2.6458   ZX=    -0.7421
   XY=     2.3430   YY=    25.7631   ZY=     0.7793
   XZ=     1.1008   YZ=     1.1410   ZZ=    24.1064
   Eigenvalues:    22.7479    24.1383    28.1539
     51  H    Isotropic =    25.3201   Anisotropy =     4.7989
   XX=    24.5861   YX=     2.4578   ZX=     0.2686
   XY=     2.4640   YY=    26.3715   ZY=    -0.9397
   XZ=    -0.9441   YZ=    -1.5502   ZZ=    25.0026
   Eigenvalues:    22.7632    24.6777    28.5193
     52  H    Isotropic =    24.4957   Anisotropy =     4.2877
   XX=    24.7982   YX=     0.0213   ZX=    -1.7424
   XY=    -0.7444   YY=    23.5788   ZY=     1.6363
   XZ=    -1.5653   YZ=     2.0776   ZZ=    25.1101
   Eigenvalues:    22.1494    23.9835    27.3542
     53  H    Isotropic =    24.6626   Anisotropy =    11.4867
   XX=    22.2199   YX=    -1.2646   ZX=    -2.7762
   XY=    -4.4322   YY=    27.7775   ZY=     4.2653
   XZ=    -4.9456   YZ=     3.6827   ZZ=    23.9903
   Eigenvalues:    19.1331    22.5343    32.3204
     54  H    Isotropic =    23.1838   Anisotropy =    14.2560
   XX=    21.3620   YX=     3.3968   ZX=    -4.2482
   XY=     4.3704   YY=    23.0385   ZY=    -4.1457
   XZ=    -5.4647   YZ=    -5.9950   ZZ=    25.1508
   Eigenvalues:    17.9460    18.9175    32.6877
     55  H    Isotropic =    23.9313   Anisotropy =    15.0080
   XX=    24.3156   YX=    -3.4733   ZX=     3.8664
   XY=    -4.0800   YY=    23.0025   ZY=    -6.5582
   XZ=     4.2836   YZ=    -7.3432   ZZ=    24.4759
   Eigenvalues:    16.7483    21.1090    33.9367
     56  H    Isotropic =    23.5958   Anisotropy =    17.9554
   XX=    34.6833   YX=     5.3426   ZX=    -2.2398
   XY=     0.3989   YY=    18.2091   ZY=    -1.7975
   XZ=    -1.9393   YZ=    -4.8177   ZZ=    17.8949
   Eigenvalues:    14.7285    20.4927    35.5660
     57  H    Isotropic =    23.4576   Anisotropy =    12.0107
   XX=    21.2217   YX=     1.7717   ZX=    -1.8814
   XY=     0.7490   YY=    30.8413   ZY=     2.1612
   XZ=     0.7991   YZ=     2.9307   ZZ=    18.3098
   Eigenvalues:    17.6410    21.2671    31.4647
     58  H    Isotropic =    24.0515   Anisotropy =    14.1810
   XX=    23.2013   YX=     2.2912   ZX=     5.9626
   XY=     2.5199   YY=    23.2301   ZY=     4.7468
   XZ=     5.6222   YZ=     5.8102   ZZ=    25.7230
   Eigenvalues:    17.8199    20.8291    33.5054
     59  H    Isotropic =    23.7901   Anisotropy =    14.2141
   XX=    25.4356   YX=    -4.8919   ZX=     1.8395
   XY=    -4.6092   YY=    20.2095   ZY=    -4.7054
   XZ=     3.0427   YZ=    -8.9441   ZZ=    25.7252
   Eigenvalues:    14.8816    23.2226    33.2662
     60  H    Isotropic =    27.8397   Anisotropy =     7.2776
   XX=    23.7748   YX=     0.6486   ZX=     2.4429
   XY=     2.2917   YY=    28.2531   ZY=     0.0618
   XZ=     2.5831   YZ=     1.9832   ZZ=    31.4911
   Eigenvalues:    22.7906    28.0370    32.6914
     61  C    Isotropic =   153.3294   Anisotropy =    26.4163
   XX=   138.2080   YX=   -13.8904   ZX=     0.4423
   XY=    -6.0630   YY=   160.4912   ZY=   -11.0691
   XZ=    -0.4176   YZ=    -5.8347   ZZ=   161.2889
   Eigenvalues:   134.0352   155.0127   170.9403
     62  C    Isotropic =   113.7893   Anisotropy =    60.3339
   XX=    97.0631   YX=   -12.0820   ZX=   -14.2472
   XY=   -10.8933   YY=    93.6548   ZY=     4.5478
   XZ=    -6.9124   YZ=     9.1896   ZZ=   150.6499
   Eigenvalues:    83.6971   103.6588   154.0118
     63  H    Isotropic =    27.0381   Anisotropy =     7.0764
   XX=    22.9001   YX=    -2.8056   ZX=    -1.2275
   XY=    -1.9494   YY=    27.7134   ZY=    -1.0241
   XZ=    -0.7287   YZ=    -3.4528   ZZ=    30.5007
   Eigenvalues:    21.5628    27.7958    31.7556
     64  H    Isotropic =    29.3036   Anisotropy =     3.6333
   XX=    30.0338   YX=    -0.8228   ZX=    -2.5574
   XY=     1.0484   YY=    28.5808   ZY=     1.7172
   XZ=    -1.3744   YZ=    -0.1038   ZZ=    29.2961
   Eigenvalues:    27.2827    28.9023    31.7257
     65  H    Isotropic =    30.3963   Anisotropy =    12.2135
   XX=    26.0351   YX=    -2.5570   ZX=    -2.4411
   XY=    -1.2190   YY=    27.1618   ZY=    -0.2461
   XZ=    -2.7611   YZ=    -0.0500   ZZ=    37.9922
   Eigenvalues:    24.2712    28.3791    38.5387
     66  C    Isotropic =   151.5748   Anisotropy =    45.4802
   XX=   151.1196   YX=    -7.7959   ZX=    17.5294
   XY=    -7.0971   YY=   134.1835   ZY=    -1.7470
   XZ=    20.8844   YZ=     1.5885   ZZ=   169.4214
   Eigenvalues:   129.6724   143.1571   181.8950
     67  C    Isotropic =   146.3544   Anisotropy =    11.6440
   XX=   142.9185   YX=    -2.6441   ZX=    -0.5247
   XY=    -5.5163   YY=   147.4910   ZY=     4.5493
   XZ=    -3.5630   YZ=     4.1910   ZZ=   148.6536
   Eigenvalues:   140.4928   144.4533   154.1170
     68  C    Isotropic =   152.0519   Anisotropy =    42.7341
   XX=   141.1516   YX=     6.4450   ZX=    -7.1825
   XY=     9.1474   YY=   173.6067   ZY=   -12.2315
   XZ=    -5.8883   YZ=   -13.8313   ZZ=   141.3975
   Eigenvalues:   134.1956   141.4188   180.5414
     69  C    Isotropic =   155.3336   Anisotropy =    33.0671
   XX=   176.2753   YX=     3.9353   ZX=    -2.8541
   XY=    -1.7927   YY=   143.1781   ZY=     1.0574
   XZ=    -8.6479   YZ=    -0.4845   ZZ=   146.5473
   Eigenvalues:   143.0544   145.5680   177.3783
     70  H    Isotropic =    30.2686   Anisotropy =     7.9232
   XX=    27.6845   YX=    -0.2680   ZX=     2.3268
   XY=     0.2663   YY=    29.5674   ZY=    -4.2166
   XZ=     1.2483   YZ=    -1.9529   ZZ=    33.5540
   Eigenvalues:    26.7519    28.5033    35.5508
     71  H    Isotropic =    30.2371   Anisotropy =    10.4123
   XX=    28.0099   YX=     0.6575   ZX=     2.1565
   XY=     0.0965   YY=    28.2553   ZY=     3.3472
   XZ=     1.5647   YZ=     5.6600   ZZ=    34.4461
   Eigenvalues:    25.7417    27.7909    37.1786
     72  H    Isotropic =    29.6907   Anisotropy =     8.1164
   XX=    34.5384   YX=    -0.3272   ZX=     0.6563
   XY=    -1.5600   YY=    24.9401   ZY=     0.8052
   XZ=     2.8306   YZ=     3.0740   ZZ=    29.5937
   Eigenvalues:    24.0235    29.9470    35.1017
     73  H    Isotropic =    30.0637   Anisotropy =     7.0443
   XX=    29.4510   YX=     0.0850   ZX=     2.9433
   XY=    -0.4825   YY=    30.8833   ZY=    -2.3022
   XZ=     3.9579   YZ=    -3.8560   ZZ=    29.8569
   Eigenvalues:    25.3851    30.0461    34.7599
     74  H    Isotropic =    29.7008   Anisotropy =     7.6628
   XX=    32.9054   YX=     1.0553   ZX=    -2.1066
   XY=     3.2483   YY=    30.3806   ZY=     0.4975
   XZ=    -3.2060   YZ=    -0.9922   ZZ=    25.8165
   Eigenvalues:    24.8918    29.4013    34.8094
     75  H    Isotropic =    30.1146   Anisotropy =     9.7600
   XX=    27.5482   YX=     0.7538   ZX=     0.2983
   XY=     0.6764   YY=    35.5553   ZY=     4.1080
   XZ=     0.3243   YZ=     1.9946   ZZ=    27.2403
   Eigenvalues:    26.2365    27.4860    36.6213
     76  H    Isotropic =    29.2709   Anisotropy =    11.4930
   XX=    32.7993   YX=    -1.3642   ZX=     5.9479
   XY=    -1.4937   YY=    26.3930   ZY=     1.1013
   XZ=     5.6586   YZ=     0.3351   ZZ=    28.6204
   Eigenvalues:    23.7715    27.1083    36.9329
     77  H    Isotropic =    30.2086   Anisotropy =     7.7053
   XX=    30.2571   YX=    -1.7309   ZX=    -1.7002
   XY=    -1.1215   YY=    29.3855   ZY=     4.1309
   XZ=    -1.0993   YZ=     4.4896   ZZ=    30.9831
   Eigenvalues:    25.7905    29.4897    35.3455
     78  H    Isotropic =    29.5633   Anisotropy =     6.9933
   XX=    29.7114   YX=     4.4491   ZX=    -1.3398
   XY=     3.9034   YY=    29.4089   ZY=    -0.7409
   XZ=    -2.0719   YZ=    -0.0131   ZZ=    29.5696
   Eigenvalues:    25.1794    29.2850    34.2255
     79  C    Isotropic =   150.5096   Anisotropy =    42.3533
   XX=   142.2983   YX=     2.9263   ZX=    -3.7517
   XY=     5.5487   YY=   131.1028   ZY=    -4.3065
   XZ=    -4.4895   YZ=    -0.0812   ZZ=   178.1278
   Eigenvalues:   129.6673   143.1165   178.7452
     80  C    Isotropic =   146.4498   Anisotropy =    14.3482
   XX=   155.9262   YX=     2.2888   ZX=     0.8121
   XY=    -2.0708   YY=   141.4772   ZY=    -1.6439
   XZ=    -2.9943   YZ=    -1.9824   ZZ=   141.9459
   Eigenvalues:   139.8576   143.4765   156.0152
     81  C    Isotropic =   156.1650   Anisotropy =    36.2872
   XX=   157.4959   YX=    17.8645   ZX=    13.7750
   XY=    10.8603   YY=   158.8077   ZY=    10.3822
   XZ=     6.8423   YZ=    10.9898   ZZ=   152.1913
   Eigenvalues:   143.7676   144.3708   180.3564
     82  C    Isotropic =   152.7203   Anisotropy =    41.7280
   XX=   148.5126   YX=   -10.2204   ZX=     2.2122
   XY=    -8.8876   YY=   175.5368   ZY=    -7.9324
   XZ=     5.4791   YZ=    -9.6650   ZZ=   134.1115
   Eigenvalues:   132.0754   145.5465   180.5389
     83  H    Isotropic =    29.7399   Anisotropy =     9.1866
   XX=    31.0639   YX=     4.2127   ZX=     1.8008
   XY=     3.3008   YY=    28.0470   ZY=     1.6929
   XZ=     1.4980   YZ=     5.7869   ZZ=    30.1087
   Eigenvalues:    24.4268    28.9285    35.8643
     84  H    Isotropic =    30.3416   Anisotropy =     9.1613
   XX=    33.3045   YX=     0.6313   ZX=    -3.1544
   XY=     0.8282   YY=    26.7531   ZY=     0.6124
   XZ=    -5.1370   YZ=     2.1005   ZZ=    30.9672
   Eigenvalues:    25.6732    28.9025    36.4491
     85  H    Isotropic =    30.3173   Anisotropy =     6.0545
   XX=    28.7460   YX=     0.3169   ZX=     0.8772
   XY=     0.7826   YY=    30.9155   ZY=    -3.3131
   XZ=    -1.3286   YZ=    -3.0725   ZZ=    31.2904
   Eigenvalues:    27.8352    28.7630    34.3536
     86  H    Isotropic =    29.9504   Anisotropy =     8.6605
   XX=    30.1059   YX=     0.9815   ZX=     2.9867
   XY=    -0.6571   YY=    26.7115   ZY=     3.2383
   XZ=     2.7612   YZ=     3.2264   ZZ=    33.0338
   Eigenvalues:    25.1289    28.9982    35.7241
     87  H    Isotropic =    29.8231   Anisotropy =     8.1869
   XX=    29.3164   YX=     2.4914   ZX=    -0.2386
   XY=     1.4985   YY=    34.4834   ZY=     1.1766
   XZ=    -1.5564   YZ=     1.6473   ZZ=    25.6695
   Eigenvalues:    25.0815    29.1068    35.2811
     88  H    Isotropic =    30.3750   Anisotropy =     9.7567
   XX=    36.6766   YX=     1.3482   ZX=    -0.4007
   XY=     1.3766   YY=    27.7157   ZY=     1.3926
   XZ=    -0.1606   YZ=     1.7813   ZZ=    26.7326
   Eigenvalues:    25.4652    28.7803    36.8794
     89  H    Isotropic =    30.6604   Anisotropy =     7.2863
   XX=    29.0594   YX=    -0.0385   ZX=     1.6786
   XY=    -1.9220   YY=    30.8078   ZY=    -3.1668
   XZ=     3.5662   YZ=    -2.5699   ZZ=    32.1142
   Eigenvalues:    27.3844    29.0790    35.5180
     90  H    Isotropic =    30.5482   Anisotropy =     9.3946
   XX=    34.9874   YX=    -2.3869   ZX=    -0.3305
   XY=    -4.2729   YY=    30.7066   ZY=     1.6300
   XZ=     1.1909   YZ=     0.9846   ZZ=    25.9507
   Eigenvalues:    25.4174    29.4160    36.8113
     91  H    Isotropic =    30.0569   Anisotropy =    10.6920
   XX=    31.6556   YX=     2.8603   ZX=     2.7278
   XY=     2.5001   YY=    33.3531   ZY=     4.1533
   XZ=     4.4590   YZ=     2.2696   ZZ=    25.1619
   Eigenvalues:    23.1772    29.8086    37.1849
     92  C    Isotropic =   155.8182   Anisotropy =    36.2678
   XX=   146.5553   YX=   -11.6201   ZX=     0.7323
   XY=    -4.9647   YY=   177.8776   ZY=    -1.6377
   XZ=    -1.1054   YZ=     4.5938   ZZ=   143.0216
   Eigenvalues:   142.9426   144.5151   179.9967
     93  C    Isotropic =   146.7045   Anisotropy =    14.4777
   XX=   151.2516   YX=    -6.4487   ZX=    -3.8205
   XY=    -3.0264   YY=   142.2629   ZY=     3.1426
   XZ=    -4.0336   YZ=     5.7321   ZZ=   146.5989
   Eigenvalues:   139.0686   144.6885   156.3563
     94  C    Isotropic =   151.2027   Anisotropy =    37.5637
   XX=   144.1873   YX=    -7.4912   ZX=    12.6167
   XY=    -8.9195   YY=   143.2532   ZY=    -8.1902
   XZ=    12.5769   YZ=   -10.5334   ZZ=   166.1676
   Eigenvalues:   135.2926   142.0704   176.2452
     95  C    Isotropic =   149.7017   Anisotropy =    45.5280
   XX=   167.2599   YX=    19.2323   ZX=     2.9642
   XY=    16.4575   YY=   148.3674   ZY=    11.8860
   XZ=     5.6721   YZ=    11.0894   ZZ=   133.4778
   Eigenvalues:   126.4780   142.5734   180.0537
     96  H    Isotropic =    29.9919   Anisotropy =     8.7481
   XX=    29.8449   YX=    -4.1803   ZX=    -0.1840
   XY=    -2.9766   YY=    31.8555   ZY=    -3.7708
   XZ=     0.8101   YZ=    -3.2733   ZZ=    28.2753
   Eigenvalues:    25.3383    28.8135    35.8240
     97  H    Isotropic =    30.3889   Anisotropy =     9.9901
   XX=    31.0633   YX=    -3.1477   ZX=    -4.4324
   XY=    -3.2859   YY=    30.8133   ZY=     2.5648
   XZ=    -4.0337   YZ=     2.1540   ZZ=    29.2900
   Eigenvalues:    25.8394    28.2783    37.0490
     98  H    Isotropic =    29.8714   Anisotropy =     7.7300
   XX=    28.5763   YX=     1.5967   ZX=    -1.0515
   XY=     2.7620   YY=    33.8899   ZY=     1.9146
   XZ=    -1.2201   YZ=     2.3505   ZZ=    27.1482
   Eigenvalues:    25.4808    29.1088    35.0248
     99  H    Isotropic =    29.8508   Anisotropy =     9.0904
   XX=    30.0591   YX=    -5.7942   ZX=     0.6493
   XY=    -4.5651   YY=    31.2983   ZY=     0.3705
   XZ=    -0.3629   YZ=    -1.0498   ZZ=    28.1951
   Eigenvalues:    25.4570    28.1844    35.9111
    100  H    Isotropic =    30.4023   Anisotropy =     6.4309
   XX=    32.4796   YX=    -1.0385   ZX=     3.4357
   XY=    -1.4469   YY=    28.4879   ZY=     1.0006
   XZ=     2.8192   YZ=     1.7862   ZZ=    30.2395
   Eigenvalues:    26.3919    30.1255    34.6896
    101  H    Isotropic =    30.3698   Anisotropy =     8.6762
   XX=    29.3693   YX=    -1.6734   ZX=    -2.5458
   XY=    -1.3396   YY=    27.3052   ZY=    -0.1109
   XZ=    -4.1252   YZ=     0.2724   ZZ=    34.4349
   Eigenvalues:    26.1480    28.8075    36.1539
    102  H    Isotropic =    29.5918   Anisotropy =     9.2682
   XX=    30.3827   YX=     2.6070   ZX=    -1.1166
   XY=     0.2123   YY=    33.8598   ZY=     3.2051
   XZ=     0.2892   YZ=     5.3250   ZZ=    24.5327
   Eigenvalues:    22.7696    30.2351    35.7706
    103  H    Isotropic =    30.2972   Anisotropy =     9.7784
   XX=    35.2536   YX=     0.6270   ZX=    -4.8907
   XY=     1.0377   YY=    28.1323   ZY=     0.9675
   XZ=    -2.7154   YZ=     1.7482   ZZ=    27.5058
   Eigenvalues:    25.1273    28.9483    36.8161
    104  H    Isotropic =    30.2995   Anisotropy =     8.3331
   XX=    33.3089   YX=     0.1816   ZX=     2.7893
   XY=     0.8752   YY=    28.7625   ZY=     2.3038
   XZ=     5.0068   YZ=     1.5184   ZZ=    28.8271
   Eigenvalues:    25.8566    29.1870    35.8549
    105  C    Isotropic =   155.3039   Anisotropy =    34.8727
   XX=   161.7762   YX=   -13.6828   ZX=   -14.5721
   XY=    -5.6915   YY=   148.2450   ZY=     3.3179
   XZ=   -16.3601   YZ=     7.6429   ZZ=   155.8904
   Eigenvalues:   141.7456   145.6137   178.5523
    106  C    Isotropic =   146.8871   Anisotropy =    12.0124
   XX=   147.4328   YX=     1.5436   ZX=    -1.1689
   XY=     5.6545   YY=   146.5668   ZY=    -7.2162
   XZ=    -2.8727   YZ=    -5.0719   ZZ=   146.6616
   Eigenvalues:   140.2537   145.5122   154.8954
    107  C    Isotropic =   153.2745   Anisotropy =    40.6537
   XX=   144.7770   YX=    15.1548   ZX=     8.6345
   XY=    12.7409   YY=   155.0967   ZY=    17.1055
   XZ=     6.4773   YZ=    15.5999   ZZ=   159.9498
   Eigenvalues:   134.4144   145.0322   180.3770
    108  C    Isotropic =   151.3122   Anisotropy =    47.0435
   XX=   159.3751   YX=   -17.9970   ZX=    13.5688
   XY=   -17.1230   YY=   146.4594   ZY=   -13.0463
   XZ=    12.1977   YZ=   -17.7657   ZZ=   148.1022
   Eigenvalues:   130.7926   140.4694   182.6746
    109  H    Isotropic =    29.7346   Anisotropy =     5.6372
   XX=    26.4825   YX=    -1.3175   ZX=    -0.4302
   XY=    -0.1017   YY=    30.5848   ZY=     1.5247
   XZ=    -1.8133   YZ=     1.9018   ZZ=    32.1366
   Eigenvalues:    26.2311    29.4800    33.4928
    110  H    Isotropic =    30.4513   Anisotropy =     8.0720
   XX=    30.4275   YX=     0.7484   ZX=    -3.7019
   XY=     0.5044   YY=    31.2852   ZY=    -2.9347
   XZ=    -4.6828   YZ=    -3.3476   ZZ=    29.6413
   Eigenvalues:    25.1545    30.3668    35.8327
    111  H    Isotropic =    29.8514   Anisotropy =    10.2423
   XX=    33.4196   YX=    -4.9782   ZX=    -0.3211
   XY=    -4.3956   YY=    29.9154   ZY=    -2.9540
   XZ=    -2.1938   YZ=    -1.6798   ZZ=    26.2193
   Eigenvalues:    23.8083    29.0664    36.6796
    112  H    Isotropic =    29.9451   Anisotropy =     7.1392
   XX=    28.4940   YX=     0.6932   ZX=    -2.7169
   XY=    -1.2285   YY=    30.8659   ZY=     2.6744
   XZ=    -4.0054   YZ=     3.1100   ZZ=    30.4756
   Eigenvalues:    25.4769    29.6539    34.7046
    113  H    Isotropic =    30.2701   Anisotropy =     6.8913
   XX=    31.0690   YX=    -2.0401   ZX=     3.1648
   XY=    -1.1805   YY=    30.3091   ZY=    -0.6345
   XZ=     4.3846   YZ=    -1.2601   ZZ=    29.4323
   Eigenvalues:    26.3669    29.5792    34.8643
    114  H    Isotropic =    30.4706   Anisotropy =     9.3639
   XX=    28.7011   YX=     3.3675   ZX=    -1.2969
   XY=     2.9749   YY=    35.3950   ZY=    -0.9653
   XZ=    -0.7643   YZ=     0.2531   ZZ=    27.3156
   Eigenvalues:    26.5215    28.1771    36.7132
    115  H    Isotropic =    30.0151   Anisotropy =     8.2275
   XX=    32.4205   YX=    -5.2098   ZX=    -2.6103
   XY=    -3.4400   YY=    29.1781   ZY=    -0.3856
   XZ=    -1.5884   YZ=    -3.1476   ZZ=    28.4468
   Eigenvalues:    24.4192    30.1261    35.5001
    116  H    Isotropic =    30.3305   Anisotropy =    10.8704
   XX=    27.6892   YX=    -2.7508   ZX=     0.9500
   XY=    -0.7194   YY=    33.6585   ZY=    -4.6365
   XZ=    -0.6110   YZ=    -6.0121   ZZ=    29.6437
   Eigenvalues:    25.5843    27.8297    37.5774
    117  H    Isotropic =    30.4609   Anisotropy =     8.1036
   XX=    30.6936   YX=    -1.2700   ZX=     5.6022
   XY=    -0.3605   YY=    28.7511   ZY=    -0.1571
   XZ=     3.0998   YZ=    -1.1827   ZZ=    31.9380
   Eigenvalues:    26.9024    28.6170    35.8633
    118  C    Isotropic =   156.2526   Anisotropy =    35.8479
   XX=   175.3473   YX=     7.6289   ZX=    -2.6840
   XY=    14.3583   YY=   148.4788   ZY=     0.2821
   XZ=    -8.1804   YZ=    -2.9424   ZZ=   144.9316
   Eigenvalues:   143.6836   144.9229   180.1512
    119  C    Isotropic =   146.4376   Anisotropy =    13.3597
   XX=   141.1909   YX=     1.0036   ZX=    -2.0209
   XY=     3.3637   YY=   148.5046   ZY=    -3.9544
   XZ=    -5.2037   YZ=    -6.1100   ZZ=   149.6174
   Eigenvalues:   139.8391   144.1297   155.3441
    120  C    Isotropic =   151.6778   Anisotropy =    43.3207
   XX=   152.6273   YX=   -17.7430   ZX=   -12.5164
   XY=   -21.0297   YY=   163.3762   ZY=     2.7769
   XZ=   -11.5576   YZ=     3.7880   ZZ=   139.0301
   Eigenvalues:   129.8353   144.6399   180.5583
    121  C    Isotropic =   150.5544   Anisotropy =    45.2200
   XX=   141.0853   YX=    11.6483   ZX=     9.3631
   XY=    10.2479   YY=   139.4570   ZY=    14.3969
   XZ=    13.4138   YZ=    10.3580   ZZ=   171.1209
   Eigenvalues:   129.2327   141.7294   180.7010
    122  H    Isotropic =    29.7395   Anisotropy =     8.6032
   XX=    33.7883   YX=    -2.8576   ZX=    -2.6345
   XY=    -2.2699   YY=    27.0363   ZY=    -0.8001
   XZ=    -3.1155   YZ=    -1.6469   ZZ=    28.3938
   Eigenvalues:    24.7695    28.9740    35.4749
    123  H    Isotropic =    30.2386   Anisotropy =     9.4685
   XX=    29.8228   YX=     2.3842   ZX=    -2.2989
   XY=     1.8664   YY=    30.4396   ZY=    -4.7039
   XZ=    -1.8715   YZ=    -4.8700   ZZ=    30.4535
   Eigenvalues:    25.6593    28.5057    36.5510
    124  H    Isotropic =    29.7875   Anisotropy =     7.9862
   XX=    31.7245   YX=     3.2305   ZX=     2.9903
   XY=     3.7091   YY=    29.7430   ZY=     0.0113
   XZ=     2.4767   YZ=     0.4180   ZZ=    27.8949
   Eigenvalues:    25.7233    28.5275    35.1116
    125  H    Isotropic =    29.2755   Anisotropy =    11.2150
   XX=    34.7975   YX=    -0.0468   ZX=    -3.8170
   XY=    -2.1795   YY=    27.7519   ZY=    -2.3216
   XZ=    -5.6119   YZ=    -1.1834   ZZ=    25.2770
   Eigenvalues:    22.5351    28.5392    36.7521
    126  H    Isotropic =    30.0594   Anisotropy =     6.5458
   XX=    28.6766   YX=    -0.7172   ZX=    -1.8749
   XY=    -0.1761   YY=    32.1842   ZY=     2.1081
   XZ=    -1.4933   YZ=     4.0073   ZZ=    29.3175
   Eigenvalues:    26.6160    29.1391    34.4233
    127  H    Isotropic =    30.1424   Anisotropy =     8.6252
   XX=    28.9209   YX=    -2.1889   ZX=    -0.3843
   XY=    -1.9546   YY=    33.1746   ZY=    -5.0684
   XZ=    -1.2843   YZ=    -3.3483   ZZ=    28.3319
   Eigenvalues:    25.0577    29.4771    35.8925
    128  H    Isotropic =    29.6568   Anisotropy =     6.8037
   XX=    31.5189   YX=     3.8024   ZX=    -1.0127
   XY=     4.9375   YY=    26.9989   ZY=     0.9379
   XZ=     1.4311   YZ=    -0.7470   ZZ=    30.4527
   Eigenvalues:    24.3390    30.4389    34.1926
    129  H    Isotropic =    30.1459   Anisotropy =     9.8262
   XX=    27.4988   YX=     0.2030   ZX=     1.0598
   XY=     0.5238   YY=    27.0847   ZY=    -1.2368
   XZ=     1.2180   YZ=    -4.0421   ZZ=    35.8544
   Eigenvalues:    26.0376    27.7035    36.6967
    130  H    Isotropic =    30.3117   Anisotropy =     7.8566
   XX=    28.2746   YX=    -0.4674   ZX=    -1.2746
   XY=    -1.4737   YY=    30.0446   ZY=     4.7502
   XZ=    -1.7766   YZ=     2.3390   ZZ=    32.6160
   Eigenvalues:    27.5382    27.8475    35.5494
    131  C    Isotropic =   150.3494   Anisotropy =    42.5476
   XX=   142.9753   YX=     1.2708   ZX=     1.6260
   XY=     3.6780   YY=   130.6201   ZY=     9.4635
   XZ=     0.9035   YZ=     5.6352   ZZ=   177.4527
   Eigenvalues:   129.0685   143.2652   178.7145
    132  C    Isotropic =   146.6547   Anisotropy =    14.6608
   XX=   155.5572   YX=    -0.3887   ZX=     0.4219
   XY=    -4.7043   YY=   142.6716   ZY=     1.2378
   XZ=     4.8605   YZ=     1.2060   ZZ=   141.7352
   Eigenvalues:   140.0447   143.4908   156.4285
    133  C    Isotropic =   156.4762   Anisotropy =    36.3181
   XX=   165.5021   YX=    15.3787   ZX=   -16.6535
   XY=     9.1144   YY=   151.3173   ZY=    -7.2062
   XZ=    -9.1886   YZ=    -8.4547   ZZ=   152.6092
   Eigenvalues:   144.0576   144.6828   180.6883
    134  C    Isotropic =   152.3503   Anisotropy =    42.3996
   XX=   145.8856   YX=    -4.4023   ZX=     0.5541
   XY=    -2.9512   YY=   179.9856   ZY=     2.3951
   XZ=    -2.2961   YZ=     4.3347   ZZ=   131.1797
   Eigenvalues:   130.9228   145.5114   180.6167
    135  H    Isotropic =    29.8197   Anisotropy =    10.4594
   XX=    33.2470   YX=     3.6235   ZX=    -2.5678
   XY=     2.7517   YY=    25.2177   ZY=    -0.8444
   XZ=    -3.2778   YZ=    -4.7656   ZZ=    30.9942
   Eigenvalues:    23.6392    29.0272    36.7926
    136  H    Isotropic =    30.3565   Anisotropy =     9.0510
   XX=    32.9124   YX=    -0.0084   ZX=     3.0360
   XY=     0.4306   YY=    26.1027   ZY=    -0.6510
   XZ=     4.5732   YZ=    -2.4881   ZZ=    32.0542
   Eigenvalues:    25.4872    29.1917    36.3905
    137  H    Isotropic =    30.3691   Anisotropy =     5.9898
   XX=    28.9357   YX=     0.7719   ZX=    -0.4900
   XY=     1.5544   YY=    31.4751   ZY=     3.2813
   XZ=     1.5053   YZ=     2.6799   ZZ=    30.6966
   Eigenvalues:    27.8949    28.8501    34.3623
    138  H    Isotropic =    29.9999   Anisotropy =     8.7647
   XX=    30.5541   YX=     0.0830   ZX=    -3.8650
   XY=    -1.4456   YY=    26.3052   ZY=    -1.8374
   XZ=    -3.4212   YZ=    -1.8027   ZZ=    33.1405
   Eigenvalues:    25.2471    28.9096    35.8431
    139  H    Isotropic =    29.8459   Anisotropy =     8.4301
   XX=    30.1891   YX=     3.6505   ZX=    -0.1302
   XY=     2.7718   YY=    33.0303   ZY=    -2.0851
   XZ=     1.1706   YZ=    -2.7342   ZZ=    26.3185
   Eigenvalues:    25.0234    29.0484    35.4660
    140  H    Isotropic =    30.4341   Anisotropy =     9.7655
   XX=    36.8829   YX=    -0.2489   ZX=     0.8340
   XY=    -0.2272   YY=    27.1425   ZY=    -1.5573
   XZ=     0.5266   YZ=    -1.8890   ZZ=    27.2769
   Eigenvalues:    25.4773    28.8807    36.9444
    141  H    Isotropic =    30.7093   Anisotropy =     7.0601
   XX=    29.3029   YX=     0.2127   ZX=    -1.3369
   XY=    -1.8088   YY=    31.9311   ZY=     3.3265
   XZ=    -2.9470   YZ=     3.2560   ZZ=    30.8938
   Eigenvalues:    27.2630    29.4488    35.4160
    142  H    Isotropic =    30.5849   Anisotropy =     9.2285
   XX=    33.6970   YX=    -2.7105   ZX=     0.9062
   XY=    -4.6202   YY=    31.6879   ZY=    -2.6887
   XZ=    -0.2672   YZ=    -1.6448   ZZ=    26.3697
   Eigenvalues:    25.4646    29.5528    36.7372
    143  H    Isotropic =    30.2978   Anisotropy =    11.0588
   XX=    34.2506   YX=     2.7822   ZX=    -3.0951
   XY=     2.5863   YY=    31.4299   ZY=    -3.9079
   XZ=    -4.5108   YZ=    -1.7859   ZZ=    25.2128
   Eigenvalues:    23.3884    29.8346    37.6703
    144  C    Isotropic =   152.7503   Anisotropy =    41.6942
   XX=   137.6928   YX=    -0.3700   ZX=   -14.4064
   XY=     1.9946   YY=   144.3591   ZY=     5.4628
   XZ=   -11.4585   YZ=     3.0481   ZZ=   176.1990
   Eigenvalues:   133.3713   144.3332   180.5464
    145  C    Isotropic =   146.2868   Anisotropy =    12.9823
   XX=   144.4400   YX=     2.6486   ZX=    -1.8810
   XY=     0.1743   YY=   153.1603   ZY=     2.8751
   XZ=    -0.6381   YZ=     6.7449   ZZ=   141.2601
   Eigenvalues:   139.0445   144.8742   154.9417
    146  C    Isotropic =   148.1907   Anisotropy =    37.7380
   XX=   172.7782   YX=    -4.3477   ZX=     3.9428
   XY=    -1.7965   YY=   141.8118   ZY=     0.1894
   XZ=     2.4475   YZ=    -4.9491   ZZ=   129.9821
   Eigenvalues:   129.3676   141.8552   173.3494
    147  C    Isotropic =   156.5315   Anisotropy =    36.2446
   XX=   149.4693   YX=    -8.1213   ZX=     5.6558
   XY=   -13.4951   YY=   167.5098   ZY=   -17.9297
   XZ=     5.1517   YZ=   -10.3505   ZZ=   152.6153
   Eigenvalues:   143.4815   145.4184   180.6945
    148  H    Isotropic =    30.4926   Anisotropy =     8.4234
   XX=    33.0014   YX=    -2.6784   ZX=    -4.2600
   XY=    -0.4610   YY=    28.3499   ZY=     0.8880
   XZ=    -3.0782   YZ=     2.1816   ZZ=    30.1264
   Eigenvalues:    27.3104    28.0592    36.1082
    149  H    Isotropic =    30.3547   Anisotropy =     9.2966
   XX=    27.1513   YX=    -0.8468   ZX=     0.1269
   XY=     0.5499   YY=    31.6720   ZY=     3.9468
   XZ=     2.2085   YZ=     5.1067   ZZ=    32.2409
   Eigenvalues:    26.3364    28.1753    36.5525
    150  H    Isotropic =    29.5743   Anisotropy =     5.1211
   XX=    25.9595   YX=    -1.5628   ZX=    -1.3511
   XY=    -0.9765   YY=    31.3632   ZY=    -0.8341
   XZ=     2.3114   YZ=    -1.9393   ZZ=    31.4003
   Eigenvalues:    25.6708    30.0637    32.9884
    151  H    Isotropic =    30.4860   Anisotropy =     5.1189
   XX=    31.5681   YX=    -1.3700   ZX=    -2.8262
   XY=    -1.4930   YY=    29.6254   ZY=     1.0494
   XZ=    -1.7292   YZ=     0.5245   ZZ=    30.2647
   Eigenvalues:    28.4599    29.0996    33.8986
    152  H    Isotropic =    29.8662   Anisotropy =    10.2941
   XX=    31.1291   YX=    -4.4553   ZX=     3.8198
   XY=    -3.6102   YY=    32.1738   ZY=    -0.0262
   XZ=     4.1121   YZ=    -1.3574   ZZ=    26.2958
   Eigenvalues:    23.7926    29.0771    36.7290
    153  H    Isotropic =    30.3123   Anisotropy =     8.0080
   XX=    32.3534   YX=     2.5694   ZX=     4.0180
   XY=     1.4875   YY=    31.5162   ZY=     1.6956
   XZ=     3.6119   YZ=     0.5503   ZZ=    27.0672
   Eigenvalues:    25.0687    30.2172    35.6509
    154  H    Isotropic =    29.9789   Anisotropy =     7.2669
   XX=    26.2235   YX=     0.6047   ZX=     0.8039
   XY=     0.3376   YY=    30.6635   ZY=    -3.2540
   XZ=     0.7085   YZ=    -2.1424   ZZ=    33.0497
   Eigenvalues:    25.9843    29.1289    34.8235
    155  H    Isotropic =    30.4097   Anisotropy =     9.4671
   XX=    27.0759   YX=     0.0809   ZX=     1.5606
   XY=     0.7712   YY=    36.5160   ZY=     1.3743
   XZ=     1.9167   YZ=     1.0283   ZZ=    27.6372
   Eigenvalues:    25.5758    28.9323    36.7211
    156  H    Isotropic =    30.0753   Anisotropy =     9.3412
   XX=    32.4790   YX=    -4.4180   ZX=     2.2986
   XY=    -4.0197   YY=    30.8003   ZY=    -0.3262
   XZ=     2.9877   YZ=     1.1063   ZZ=    26.9465
   Eigenvalues:    24.9873    28.9358    36.3028
    157  C    Isotropic =   151.5397   Anisotropy =    45.5907
   XX=   168.0629   YX=   -22.5700   ZX=    -0.2977
   XY=   -19.1534   YY=   149.1129   ZY=     6.5195
   XZ=    -2.7509   YZ=     4.8949   ZZ=   137.4432
   Eigenvalues:   132.3329   140.3526   181.9334
    158  C    Isotropic =   146.7521   Anisotropy =    11.3544
   XX=   148.9635   YX=     0.3322   ZX=     4.5439
   XY=    -1.6253   YY=   140.7772   ZY=    -0.8449
   XZ=     4.4574   YZ=     3.1097   ZZ=   150.5157
   Eigenvalues:   140.4457   145.4890   154.3218
    159  C    Isotropic =   153.2678   Anisotropy =    40.7727
   XX=   149.9397   YX=    14.5848   ZX=   -13.1902
   XY=    14.9779   YY=   147.0239   ZY=   -10.0771
   XZ=   -12.0769   YZ=   -13.7434   ZZ=   162.8398
   Eigenvalues:   133.6226   145.7312   180.4496
    160  C    Isotropic =   156.5046   Anisotropy =    31.8141
   XX=   148.0432   YX=     9.9088   ZX=     1.9010
   XY=     5.9230   YY=   173.4141   ZY=     4.5535
   XZ=     1.7728   YZ=    10.5465   ZZ=   148.0565
   Eigenvalues:   145.5727   146.2270   177.7140
    161  H    Isotropic =    30.3157   Anisotropy =     8.6059
   XX=    34.6822   YX=    -0.3420   ZX=    -2.1376
   XY=    -0.9148   YY=    28.2661   ZY=    -1.6836
   XZ=    -4.5021   YZ=    -2.0069   ZZ=    27.9990
   Eigenvalues:    25.3373    29.5570    36.0530
    162  H    Isotropic =    30.3154   Anisotropy =    10.9232
   XX=    33.1144   YX=    -3.3464   ZX=     5.5722
   XY=    -3.1605   YY=    28.6128   ZY=    -2.3285
   XZ=     3.2288   YZ=    -1.6547   ZZ=    29.2189
   Eigenvalues:    26.3397    27.0089    37.5975
    163  H    Isotropic =    29.8820   Anisotropy =     7.8048
   XX=    29.6871   YX=    -3.7749   ZX=     2.4311
   XY=    -0.7630   YY=    33.7728   ZY=     1.9831
   XZ=     0.9397   YZ=     2.8999   ZZ=    26.1862
   Eigenvalues:    24.4410    30.1199    35.0852
    164  H    Isotropic =    30.0935   Anisotropy =     7.6315
   XX=    32.8718   YX=    -3.9736   ZX=    -2.7977
   XY=    -2.7162   YY=    28.7159   ZY=    -1.6066
   XZ=    -2.2719   YZ=    -0.8347   ZZ=    28.6928
   Eigenvalues:    25.2088    29.8905    35.1811
    165  H    Isotropic =    29.9378   Anisotropy =     6.8534
   XX=    27.4842   YX=     3.5349   ZX=     0.4983
   XY=     2.1995   YY=    33.2732   ZY=     0.0561
   XZ=     0.8153   YZ=    -1.7561   ZZ=    29.0558
   Eigenvalues:    26.0162    29.2903    34.5067
    166  H    Isotropic =    30.3685   Anisotropy =     9.9530
   XX=    27.5694   YX=    -0.4478   ZX=     1.0818
   XY=    -0.6965   YY=    28.3794   ZY=    -3.3895
   XZ=     2.7161   YZ=    -3.4749   ZZ=    35.1566
   Eigenvalues:    26.8244    27.2772    37.0038
    167  H    Isotropic =    29.5744   Anisotropy =     9.5339
   XX=    31.1322   YX=    -4.9330   ZX=     0.4605
   XY=    -5.4118   YY=    30.3509   ZY=     0.6181
   XZ=     0.1791   YZ=     0.4260   ZZ=    27.2402
   Eigenvalues:    25.3624    27.4305    35.9304
    168  H    Isotropic =    30.5637   Anisotropy =     8.5628
   XX=    30.2152   YX=     0.3710   ZX=     4.6610
   XY=     0.6912   YY=    28.6367   ZY=     1.0007
   XZ=     4.3210   YZ=    -0.0186   ZZ=    32.8392
   Eigenvalues:    26.8387    28.5801    36.2722
    169  H    Isotropic =    29.9415   Anisotropy =     8.9504
   XX=    31.5138   YX=     3.7187   ZX=    -0.3873
   XY=     3.2384   YY=    30.1720   ZY=    -3.9497
   XZ=    -1.0860   YZ=    -4.4357   ZZ=    28.1388
   Eigenvalues:    24.4270    29.4891    35.9085
    170  H    Isotropic =    27.7581   Anisotropy =     8.6845
   XX=    27.5644   YX=    -2.4572   ZX=     1.6533
   XY=    -1.6235   YY=    23.3761   ZY=     1.0636
   XZ=     3.7237   YZ=     1.2439   ZZ=    32.3338
   Eigenvalues:    22.0937    27.6328    33.5478
    171  H    Isotropic =    27.2105   Anisotropy =     7.6086
   XX=    23.1823   YX=    -3.7079   ZX=     1.2008
   XY=    -3.3261   YY=    27.4549   ZY=     1.3620
   XZ=    -1.4706   YZ=     2.7591   ZZ=    30.9941
   Eigenvalues:    21.1194    28.2291    32.2829
 End of Minotr F.D. properties file   721 does not exist.
 End of Minotr F.D. properties file   722 does not exist.
 End of Minotr F.D. properties file   788 does not exist.
 Hyperfine terms turned off by default for NAtoms > 100.

 **********************************************************************

            Population analysis using the SCF Density.

 **********************************************************************

 Orbital symmetries:
       Occupied  (A) (A) (A) (A) (A) (A) (A) (A) (A) (A) (A) (A)
                 (A) (A) (A) (A) (A) (A) (A) (A) (A) (A) (A) (A)
                 (A) (A) (A) (A) (A) (A) (A) (A) (A) (A) (A) (A)
                 (A) (A) (A) (A) (A) (A) (A) (A) (A) (A) (A) (A)
                 (A) (A) (A) (A) (A) (A) (A) (A) (A) (A) (A) (A)
                 (A) (A) (A) (A) (A) (A) (A) (A) (A) (A) (A) (A)
                 (A) (A) (A) (A) (A) (A) (A) (A) (A) (A) (A) (A)
                 (A) (A) (A) (A) (A) (A) (A) (A) (A) (A) (A) (A)
                 (A) (A) (A) (A) (A) (A) (A) (A) (A) (A) (A) (A)
                 (A) (A) (A) (A) (A) (A) (A) (A) (A) (A) (A) (A)
                 (A) (A) (A) (A) (A) (A) (A) (A) (A) (A) (A) (A)
                 (A) (A) (A) (A) (A) (A) (A) (A) (A) (A) (A) (A)
                 (A) (A) (A) (A) (A) (A) (A) (A) (A) (A) (A) (A)
                 (A) (A) (A) (A) (A) (A) (A) (A) (A) (A) (A) (A)
                 (A) (A) (A) (A) (A) (A) (A) (A) (A) (A) (A) (A)
                 (A) (A) (A) (A) (A) (A) (A) (A) (A) (A) (A) (A)
                 (A) (A) (A) (A) (A) (A) (A) (A) (A) (A) (A) (A)
                 (A) (A) (A) (A) (A) (A) (A) (A) (A) (A) (A) (A)
                 (A) (A) (A) (A) (A) (A) (A) (A) (A) (A) (A) (A)
                 (A) (A) (A) (A) (A) (A) (A) (A) (A) (A) (A) (A)
                 (A) (A) (A) (A) (A) (A) (A) (A) (A) (A) (A) (A)
                 (A) (A) (A) (A) (A) (A) (A) (A) (A) (A) (A) (A)
                 (A) (A) (A) (A) (A) (A) (A) (A) (A) (A) (A) (A)
                 (A) (A) (A) (A) (A) (A) (A) (A)
       Virtual   (A) (A) (A) (A) (A) (A) (A) (A) (A) (A) (A) (A)
                 (A) (A) (A) (A) (A) (A) (A) (A) (A) (A) (A) (A)
                 (A) (A) (A) (A) (A) (A) (A) (A) (A) (A) (A) (A)
                 (A) (A) (A) (A) (A) (A) (A) (A) (A) (A) (A) (A)
                 (A) (A) (A) (A) (A) (A) (A) (A) (A) (A) (A) (A)
                 (A) (A) (A) (A) (A) (A) (A) (A) (A) (A) (A) (A)
                 (A) (A) (A) (A) (A) (A) (A) (A) (A) (A) (A) (A)
                 (A) (A) (A) (A) (A) (A) (A) (A) (A) (A) (A) (A)
                 (A) (A) (A) (A) (A) (A) (A) (A) (A) (A) (A) (A)
                 (A) (A) (A) (A) (A) (A) (A) (A) (A) (A) (A) (A)
                 (A) (A) (A) (A) (A) (A) (A) (A) (A) (A) (A) (A)
                 (A) (A) (A) (A) (A) (A) (A) (A) (A) (A) (A) (A)
                 (A) (A) (A) (A) (A) (A) (A) (A) (A) (A) (A) (A)
                 (A) (A) (A) (A) (A) (A) (A) (A) (A) (A) (A) (A)
                 (A) (A) (A) (A) (A) (A) (A) (A) (A) (A) (A) (A)
                 (A) (A) (A) (A) (A) (A) (A) (A) (A) (A) (A) (A)
                 (A) (A) (A) (A) (A) (A) (A) (A) (A) (A) (A) (A)
                 (A) (A) (A) (A) (A) (A) (A) (A) (A) (A) (A) (A)
                 (A) (A) (A) (A) (A) (A) (A) (A) (A) (A) (A) (A)
                 (A) (A) (A) (A) (A) (A) (A) (A) (A) (A) (A) (A)
[...]
                                                    2726(v),2807(r),2774(r)
  2767. BD*(   1) C  20 - H  50          0.01463     0.40756   
  2768. BD*(   1) C  21 - C  22          0.04129     0.52083   
  2769. BD*(   1) C  22 - C  23          0.03071     0.44694   
  2770. BD*(   1) C  23 - C  24          0.04356     0.52181   
  2771. BD*(   1) C  23 - C  28          0.03145     0.53526   
  2772. BD*(   2) C  23 - C  28          0.40458     0.04589  2778(v),2759(v),2774(v)
                                                    2744(r),2797(r),2783(r)
                                                    2724(v),2768(v),993(g)
                                                    2758(v),966(v),863(g),862(g)
  2773. BD*(   1) C  24 - C  25          0.03221     0.53867   
  2774. BD*(   2) C  24 - C  25          0.36686     0.03886  2778(v),2772(v),2728(v)
                                                    914(g),2766(r)
  2775. BD*(   1) C  25 - C  26          0.01314     0.55866   
  2776. BD*(   1) C  25 - H  51          0.01339     0.40876   
  2777. BD*(   1) C  26 - C  27          0.01622     0.56198   
  2778. BD*(   2) C  26 - C  27          0.33600     0.04374  2772(v),2774(v),2783(r)
                                                    941(g),966(g)
  2779. BD*(   1) C  26 - H  52          0.01406     0.41546   
  2780. BD*(   1) C  27 - C  28          0.02168     0.54685   
  2781. BD*(   1) C  27 - H  53          0.01734     0.43437   
  2782. BD*(   1) C  29 - C  30          0.02235     0.55386   
  2783. BD*(   2) C  29 - C  30          0.37882     0.04039  2788(v),2793(v),2778(r)
                                                    2722(v),1044(g),2772(r)
                                                    1020(g)
  2784. BD*(   1) C  29 - C  34          0.03057     0.56350   
  2785. BD*(   1) C  30 - C  31          0.02497     0.55514   
  2786. BD*(   1) C  30 - H  54          0.01871     0.42614   
  2787. BD*(   1) C  31 - C  32          0.02357     0.55896   
  2788. BD*(   2) C  31 - C  32          0.34840     0.05078  2793(v),2783(v),1096(g)
                                                    2871(v),2870(v),1071(g)
  2789. BD*(   1) C  31 - C 119          0.03970     0.38452   
  2790. BD*(   1) C  32 - C  33          0.02323     0.56248   
  2791. BD*(   1) C  32 - H  55          0.01793     0.42904   
  2792. BD*(   1) C  33 - C  34          0.02547     0.55652   
  2793. BD*(   2) C  33 - C  34          0.33082     0.05368  2788(v),2783(v),1148(g)
                                                    2878(v),2883(v),1123(g)
                                                    2797(r)
  2794. BD*(   1) C  33 - C 132          0.03994     0.38453   
  2795. BD*(   1) C  34 - H  56          0.02049     0.43760   
  2796. BD*(   1) C  35 - C  36          0.02370     0.56056   
  2797. BD*(   2) C  35 - C  36          0.34529     0.04765  2802(v),2807(v),2759(r)
                                                    2772(r),1200(g),2723(v)
                                                    2722(v),2793(r),2761(r)
  2798. BD*(   1) C  35 - C  40          0.03339     0.54764   
  2799. BD*(   1) C  36 - C  37          0.02563     0.55020   
  2800. BD*(   1) C  36 - H  57          0.01875     0.42394   
  2801. BD*(   1) C  37 - C  38          0.02330     0.56511   
  2802. BD*(   2) C  37 - C  38          0.31890     0.05453  2807(v),2797(v),1252(g)
                                                    2894(v),2890(v)
  2803. BD*(   1) C  37 - C 145          0.03981     0.38622   
  2804. BD*(   1) C  38 - C  39          0.02311     0.54849   
  2805. BD*(   1) C  38 - H  58          0.01811     0.42379   
  2806. BD*(   1) C  39 - C  40          0.02696     0.56377   
  2807. BD*(   2) C  39 - C  40          0.31242     0.05844  2802(v),2797(v),1304(g)
                                                    2906(v),2902(v),2759(r)
                                                    1279(g)
  2808. BD*(   1) C  39 - C 158          0.04020     0.38746   
  2809. BD*(   1) C  40 - H  59          0.01757     0.44006   
  2810. BD*(   1) C  41 - H  60          0.02296     0.34102   
  2811. BD*(   1) C  41 - C  61          0.02478     0.33912   
  2812. BD*(   1) C  41 - H 171          0.02263     0.34529   
  2813. BD*(   1) C  61 - C  62          0.02751     0.33842   
  2814. BD*(   1) C  61 - H  64          0.01590     0.35274   
  2815. BD*(   1) C  61 - H  65          0.00922     0.34337   
  2816. BD*(   1) C  62 - H  63          0.02745     0.33748   
  2817. BD*(   1) C  62 - H 170          0.01883     0.34476   
  2818. BD*(   1) C  66 - C  67          0.02424     0.33364   
  2819. BD*(   1) C  66 - H  70          0.00654     0.38557   
  2820. BD*(   1) C  66 - H  71          0.00774     0.38010   
  2821. BD*(   1) C  66 - H  72          0.00693     0.38492   
  2822. BD*(   1) C  67 - C  68          0.02481     0.33382   
  2823. BD*(   1) C  67 - C  69          0.02056     0.34256   
  2824. BD*(   1) C  68 - H  73          0.00675     0.38514   
  2825. BD*(   1) C  68 - H  74          0.00675     0.38362   
  2826. BD*(   1) C  68 - H  75          0.00787     0.37909   
  2827. BD*(   1) C  69 - H  76          0.00802     0.38907   
  2828. BD*(   1) C  69 - H  77          0.00716     0.38576   
  2829. BD*(   1) C  69 - H  78          0.00711     0.38482   
  2830. BD*(   1) C  79 - C  80          0.02448     0.33326   
  2831. BD*(   1) C  79 - H  83          0.00726     0.38900   
  2832. BD*(   1) C  79 - H  84          0.00792     0.37982   
  2833. BD*(   1) C  79 - H  85          0.00675     0.38423   
  2834. BD*(   1) C  80 - C  81          0.02084     0.34276   
  2835. BD*(   1) C  80 - C  82          0.02407     0.33465   
  2836. BD*(   1) C  81 - H  86          0.00733     0.38118   
  2837. BD*(   1) C  81 - H  87          0.00745     0.38020   
  2838. BD*(   1) C  81 - H  88          0.00714     0.38443   
  2839. BD*(   1) C  82 - H  89          0.00662     0.38648   
  2840. BD*(   1) C  82 - H  90          0.00758     0.38039   
  2841. BD*(   1) C  82 - H  91          0.00687     0.39149   
  2842. BD*(   1) C  92 - C  93          0.02073     0.34319   
  2843. BD*(   1) C  92 - H  96          0.00739     0.38238   
  2844. BD*(   1) C  92 - H  97          0.00722     0.38518   
  2845. BD*(   1) C  92 - H  98          0.00746     0.38094   
  2846. BD*(   1) C  93 - C  94          0.02482     0.33758   
  2847. BD*(   1) C  93 - C  95          0.02428     0.33424   
  2848. BD*(   1) C  94 - H  99          0.00684     0.39622   
  2849. BD*(   1) C  94 - H 100          0.00691     0.38760   
  2850. BD*(   1) C  94 - H 101          0.00817     0.38247   
  2851. BD*(   1) C  95 - H 102          0.00760     0.38743   
  2852. BD*(   1) C  95 - H 103          0.00805     0.38138   
  2853. BD*(   1) C  95 - H 104          0.00682     0.38484   
  2854. BD*(   1) C 105 - C 106          0.02093     0.34643   
  2855. BD*(   1) C 105 - H 109          0.00732     0.38747   
  2856. BD*(   1) C 105 - H 110          0.00719     0.38928   
  2857. BD*(   1) C 105 - H 111          0.00739     0.39276   
  2858. BD*(   1) C 106 - C 107          0.02415     0.33728   
  2859. BD*(   1) C 106 - C 108          0.02494     0.33746   
  2860. BD*(   1) C 107 - H 112          0.00696     0.38689   
  2861. BD*(   1) C 107 - H 113          0.00732     0.39402   
  2862. BD*(   1) C 107 - H 114          0.00776     0.38294   
  2863. BD*(   1) C 108 - H 115          0.00674     0.38604   
  2864. BD*(   1) C 108 - H 116          0.00794     0.38179   
  2865. BD*(   1) C 108 - H 117          0.00664     0.38757   
  2866. BD*(   1) C 118 - C 119          0.02081     0.34397   
  2867. BD*(   1) C 118 - H 122          0.00740     0.38187   
  2868. BD*(   1) C 118 - H 123          0.00714     0.38556   
  2869. BD*(   1) C 118 - H 124          0.00723     0.38144   
  2870. BD*(   1) C 119 - C 120          0.02414     0.33522   
  2871. BD*(   1) C 119 - C 121          0.02465     0.33409   
  2872. BD*(   1) C 120 - H 125          0.00707     0.39206   
  2873. BD*(   1) C 120 - H 126          0.00671     0.38382   
  2874. BD*(   1) C 120 - H 127          0.00778     0.38181   
  2875. BD*(   1) C 121 - H 128          0.00649     0.38966   
  2876. BD*(   1) C 121 - H 129          0.00786     0.38067   
  2877. BD*(   1) C 121 - H 130          0.00661     0.38603   
  2878. BD*(   1) C 131 - C 132          0.02454     0.33507   
  2879. BD*(   1) C 131 - H 135          0.00736     0.39052   
  2880. BD*(   1) C 131 - H 136          0.00798     0.38115   
  2881. BD*(   1) C 131 - H 137          0.00673     0.38636   
  2882. BD*(   1) C 132 - C 133          0.02085     0.34476   
  2883. BD*(   1) C 132 - C 134          0.02405     0.33603   
  2884. BD*(   1) C 133 - H 138          0.00732     0.38311   
  2885. BD*(   1) C 133 - H 139          0.00743     0.38237   
  2886. BD*(   1) C 133 - H 140          0.00717     0.38609   
  2887. BD*(   1) C 134 - H 141          0.00663     0.38806   
  2888. BD*(   1) C 134 - H 142          0.00765     0.38186   
  2889. BD*(   1) C 134 - H 143          0.00676     0.39149   
  2890. BD*(   1) C 144 - C 145          0.02401     0.33632   
  2891. BD*(   1) C 144 - H 148          0.00678     0.38737   
  2892. BD*(   1) C 144 - H 149          0.00763     0.38200   
  2893. BD*(   1) C 144 - H 150          0.00681     0.39030   
  2894. BD*(   1) C 145 - C 146          0.02479     0.33534   
  2895. BD*(   1) C 145 - C 147          0.02089     0.34477   
  2896. BD*(   1) C 146 - H 151          0.00730     0.39154   
  2897. BD*(   1) C 146 - H 152          0.00742     0.39762   
  2898. BD*(   1) C 146 - H 153          0.00822     0.38208   
  2899. BD*(   1) C 147 - H 154          0.00737     0.38108   
  2900. BD*(   1) C 147 - H 155          0.00711     0.38583   
  2901. BD*(   1) C 147 - H 156          0.00733     0.38235   
  2902. BD*(   1) C 157 - C 158          0.02449     0.33619   
  2903. BD*(   1) C 157 - H 161          0.00679     0.38526   
  2904. BD*(   1) C 157 - H 162          0.00789     0.38092   
  2905. BD*(   1) C 157 - H 163          0.00693     0.38651   
  2906. BD*(   1) C 158 - C 159          0.02505     0.33504   
  2907. BD*(   1) C 158 - C 160          0.02050     0.34624   
  2908. BD*(   1) C 159 - H 164          0.00735     0.38972   
  2909. BD*(   1) C 159 - H 165          0.00702     0.38584   
  2910. BD*(   1) C 159 - H 166          0.00800     0.38022   
  2911. BD*(   1) C 160 - H 167          0.00794     0.39791   
  2912. BD*(   1) C 160 - H 168          0.00715     0.38721   
  2913. BD*(   1) C 160 - H 169          0.00803     0.38782   
       -------------------------------
              Total Lewis  557.58141  ( 98.1657%)
        Valence non-Lewis    9.46849  (  1.6670%)
        Rydberg non-Lewis    0.95010  (  0.1673%)
       -------------------------------
            Total unit  1  568.00000  (100.0000%)
           Charge unit  1    0.00000
 1\1\GINC-NOTCH213\SP\RPBE1PBE\def2TZVP\C71H96O2P2\U1010977\02-Nov-2021
 \0\\# PBE1PBE/def2TZVP int=(grid=ultrafine) empiricaldispersion=GD3BJ 
 pop=nbo guess=read geom=check\\title\\0,1\P,0,-5.1332617339,0.06410960
 82,2.4499480642\P,0,-2.3470756368,0.083768843,0.6396754046\O,0,-1.4613
 076052,3.6081590663,3.5252883562\O,0,-4.0994517784,4.5165210538,2.7964
 172457\C,0,-6.0895608031,-0.9886575252,3.6032507629\C,0,-5.6235555401,
 -2.3026801793,3.8029239523\C,0,-6.2460065642,-3.1468200265,4.728929080
 4\C,0,-7.3380032064,-2.630596449,5.4630600576\C,0,-7.8272617411,-1.328
 4535832,5.2789706189\C,0,-7.1832282499,-0.5080306152,4.3285871757\C,0,
 -6.2022213802,1.4018589996,1.8181303132\C,0,-6.7153073561,2.4167082277
 ,2.6400263942\C,0,-7.5754389882,3.3973052643,2.1043680982\C,0,-7.82909
 65291,3.3613719228,0.7229029639\C,0,-7.2811083761,2.3814656735,-0.1332
 532623\C,0,-6.4876577727,1.3817319863,0.4413326979\C,0,-3.9462078524,0
 .9089189634,3.5926918814\C,0,-3.8148916415,0.4547101855,4.9196402767\C
 ,0,-2.9045094617,1.0646041655,5.7899304178\C,0,-2.1158190863,2.1349250
 454,5.3569772347\C,0,-2.2457356829,2.5924079974,4.0387369992\C,0,-3.14
 91408577,1.985016496,3.1360126805\C,0,-3.2451050665,2.5542925322,1.760
 4001073\C,0,-3.7018798322,3.8875150022,1.6399831799\C,0,-3.8048441883,
 4.5169430334,0.3921843304\C,0,-3.4260624316,3.8184439332,-0.7588036905
 \C,0,-2.9575190511,2.5028182221,-0.6653599271\C,0,-2.8631386834,1.8610
 538763,0.5860909888\C,0,-1.4628418292,-0.133191001,-0.9504703353\C,0,-
 2.2138643031,-0.4732435909,-2.0871065722\C,0,-1.601526781,-0.576189568
 2,-3.3468895956\C,0,-0.2153243492,-0.3357149001,-3.4296156458\C,0,0.56
 2309108,-0.0077976678,-2.303854586\C,0,-0.0843286673,0.0922421298,-1.0
 58572615\C,0,-1.1006016385,-0.0626267923,1.9609094981\C,0,-1.152611973
 2,-1.2071051155,2.7634254424\C,0,-0.2037406885,-1.4107614602,3.7842564
 587\C,0,0.7959293216,-0.4392105823,3.9476618234\C,0,0.8709508584,0.726
 9002617,3.1512690022\C,0,-0.1021289803,0.9110645905,2.1606072193\C,0,-
 3.4464931906,5.7502080768,3.1567317169\H,0,-4.7960174645,-2.6632229168
 ,3.1868631421\H,0,-7.8291262017,-3.2829660299,6.189943947\H,0,-7.55165
 23912,0.5043865584,4.142786497\H,0,-6.433440032,2.4511501515,3.6975161
 359\H,0,-8.4774770992,4.1253781623,0.2858468691\H,0,-6.0694092785,0.56
 77582699,-0.1562754243\H,0,-4.4292737148,-0.376078524,5.2730366763\H,0
 ,-2.806566885,0.6976429139,6.8168056027\H,0,-1.3920952679,2.5999037689
 ,6.0324546197\H,0,-4.196373691,5.5371771238,0.3337523372\H,0,-3.500263
 4427,4.2996717105,-1.7394371958\H,0,-2.6570299936,1.9703810613,-1.5710
 288114\H,0,-3.2794095323,-0.6918374292,-1.969671289\H,0,0.2739562221,-
 0.4197229655,-4.4013319864\H,0,0.4945138176,0.3298983268,-0.162683669\
 H,0,-1.9499071188,-1.935234677,2.5767894573\H,0,1.5477421691,-0.582011
 4148,4.7288972998\H,0,-0.1144141105,1.8193403282,1.5534868812\H,0,-2.7
 770880107,6.0788907206,2.3400069032\C,0,-2.6781318472,5.5507233087,4.4
 674726548\C,0,-1.3463337326,4.8131259201,4.3032807155\H,0,-0.890180767
 8,4.6085805983,5.291416575\H,0,-3.3354330516,5.0028008516,5.1663296735
 \H,0,-2.4690346572,6.5355315924,4.9264753299\C,0,-6.9960164007,-5.5426
 236218,4.6679205826\C,0,-5.7953199203,-4.6029080046,4.9328006915\C,0,-
 5.3040745909,-4.7817407575,6.3886183234\C,0,-4.657103597,-5.0005233266
 ,3.9718936929\H,0,-7.3594945341,-5.4245679042,3.6331522729\H,0,-6.6916
 678763,-6.5947684497,4.810949868\H,0,-7.838168555,-5.3400613115,5.3513
 854884\H,0,-4.4346299843,-4.1315350615,6.5913771178\H,0,-6.0923888426,
 -4.5328140324,7.1200663213\H,0,-4.9985218388,-5.8289524688,6.562997306
 3\H,0,-3.7401896145,-4.4130676709,4.1527426784\H,0,-4.4014861248,-6.06
 31312998,4.1256711098\H,0,-4.9462983806,-4.8704531501,2.9148363414\C,0
 ,-8.5434047572,0.4441543883,6.9067773383\C,0,-9.0227202779,-0.76460750
 77,6.0674242325\C,0,-9.6397494038,-1.8040698224,7.0219394984\C,0,-10.1
 181374105,-0.3021045196,5.0771378248\H,0,-8.1126301676,1.2352480297,6.
 2695264972\H,0,-9.3886528735,0.8835595491,7.4663127481\H,0,-7.77021831
 6,0.1372889994,7.6324832377\H,0,-10.0120597389,-2.6879152668,6.4755750
 712\H,0,-8.9143988989,-2.1454489356,7.7810481878\H,0,-10.4946543729,-1
 .3548442816,7.5559093452\H,0,-10.4739528782,-1.1470918082,4.4635060452
 \H,0,-10.9798580358,0.1134449209,5.6297920667\H,0,-9.7496939344,0.4792
 235208,4.3914005261\C,0,-9.1902954689,5.3744249235,2.2915074251\C,0,-8
 .2121550016,4.4458102599,3.0362279101\C,0,-7.1071571949,5.3173753963,3
 .6763474651\C,0,-8.9969539616,3.7155519985,4.1527109072\H,0,-10.014679
 4407,4.80920843,1.8232123096\H,0,-9.6357842423,6.0897080445,3.00401614
 37\H,0,-8.6812427017,5.9600904546,1.5062306935\H,0,-6.3724315407,4.707
 0727622,4.2260028054\H,0,-6.556358699,5.8747988969,2.8997239402\H,0,-7
 .5550546793,6.0429088939,4.3792303385\H,0,-8.3366035189,3.0813425713,4
 .7682882158\H,0,-9.4782252351,4.4477473338,4.8255062292\H,0,-9.7837932
 889,3.0698492846,3.7257531574\C,0,-6.7740503387,1.3444026471,-2.407623
 981\C,0,-7.566803207,2.4235544099,-1.6431601383\C,0,-7.1602156746,3.80
 81125571,-2.2011402934\C,0,-9.0780223182,2.1922109763,-1.877683633\H,0
 ,-7.0485805908,0.3242105103,-2.0885853418\H,0,-6.9831889344,1.42664252
 28,-3.4882816099\H,0,-5.6860346578,1.4696027963,-2.2637285587\H,0,-7.7
 294307328,4.6275874899,-1.7300008927\H,0,-6.0866784246,3.9962082555,-2
 .0275672668\H,0,-7.3500582208,3.8497521112,-3.2884248217\H,0,-9.689248
 5575,2.9558983729,-1.366181945\H,0,-9.309591359,2.2383520971,-2.956916
 5735\H,0,-9.3846526061,1.2018305912,-1.5004304034\C,0,-1.6549197477,-0
 .9601958128,-5.8744940976\C,0,-2.453918465,-0.9904257413,-4.5580866261
 \C,0,-3.6565120652,-0.0262843843,-4.6975572923\C,0,-2.9718460319,-2.43
 06525956,-4.3224725139\H,0,-0.8123843926,-1.6732636287,-5.8582911531\H
 ,0,-2.3136026282,-1.2462294004,-6.7123174275\H,0,-1.2543983078,0.04657
 85709,-6.0896198933\H,0,-4.309207837,-0.051546073,-3.8090708492\H,0,-3
 .3159740647,1.0142884464,-4.8437118937\H,0,-4.2721320286,-0.3122442329
 ,-5.5688163513\H,0,-3.5395683408,-2.5164914859,-3.3809137563\H,0,-3.62
 83205363,-2.7395004283,-5.1559393049\H,0,-2.129877232,-3.1413952428,-4
 .2625848295\C,0,2.3620684953,1.7088065579,-1.9470899511\C,0,2.07841110
 8,0.2493963826,-2.3776804037\C,0,2.6400603573,0.0428882522,-3.79691060
 15\C,0,2.811460126,-0.7177035498,-1.4170177518\H,0,2.0052525945,1.9043
 268516,-0.9209413685\H,0,3.4474642954,1.9137367208,-1.9733387167\H,0,1
 .8585749376,2.423831939,-2.6205420759\H,0,2.4768643319,-0.9890549445,-
 4.1529716784\H,0,2.182702111,0.7366665314,-4.5237221126\H,0,3.72769722
 03,0.2298576414,-3.7962351968\H,0,2.6184772272,-1.7681932958,-1.693480
 8072\H,0,3.9015055465,-0.5421924856,-1.4590853897\H,0,2.48819,-0.58166
 40922,-0.3707188353\C,0,-0.341510429,-3.9269057267,3.7879293974\C,0,-0
 .3222323914,-2.6588786169,4.6747077327\C,0,-1.6461986945,-2.5674724817
 ,5.4721453856\C,0,0.8427895723,-2.7779951769,5.6746082659\H,0,0.597288
 276,-4.0199123821,3.2152679938\H,0,-0.4517559562,-4.8270667689,4.41851
 18407\H,0,-1.1742865726,-3.9179197454,3.0650298568\H,0,-1.6480020165,-
 1.681719192,6.1306807719\H,0,-2.5188041628,-2.4850128727,4.80257266\H,
 0,-1.7797435928,-3.4688924776,6.0974124737\H,0,0.8741166371,-1.9232849
 55,6.3732631357\H,0,0.72165269,-3.6947986868,6.2764521017\H,0,1.817074
 6892,-2.8416320642,5.1590151434\C,0,3.3622955327,1.052913879,3.1887757
 308\C,0,1.9957264471,1.747713086,3.3955821146\C,0,1.8938187632,2.27809
 79759,4.845260129\C,0,1.9101841316,2.9504406741,2.4362460807\H,0,3.455
 3135196,0.6737452745,2.1559186853\H,0,4.186310932,1.7661547479,3.36990
 7346\H,0,3.4966755148,0.1994412817,3.8744917154\H,0,0.9270964564,2.787
 540372,4.9977187821\H,0,1.970591586,1.4650256959,5.5866224263\H,0,2.70
 47363872,3.0002769657,5.0485282622\H,0,0.9493284798,3.4818014816,2.542
 592615\H,0,2.7243674526,3.6611588241,2.6601076915\H,0,2.0216471557,2.6
 404867319,1.3819499235\H,0,-0.6303921278,5.4247910557,3.72861297\H,0,-
 4.2348179106,6.5123058688,3.2923231302\\Version=ES64L-G16RevB.01\State
 =1-A\HF=-3594.0766868\RMSD=4.375e-09\Dipole=0.2108273,1.0119232,0.6528
 215\Quadrupole=-6.9748947,4.5778118,2.3970829,1.6750288,0.9342039,0.93
 26542\PG=C01 [X(C71H96O2P2)]\\@


 IT WAS A GAME, A VERY INTERESTING GAME ONE COULD
 PLAY.  WHENEVER ONE SOLVED ONE OF THE LITTLE PROBLEMS,
 ONE COULD WRITE A PAPER ABOUT IT.  IT WAS VERY EASY IN
 THOSE DAYS FOR ANY SECOND-RATE PHYSICIST TO DO
 FIRST-RATE WORK.  THERE HAS NOT BEEN SUCH A GLORIOUS
 TIME SINCE.  IT IS VERY DIFFICULT NOW FOR A FIRST-RATE
 PHYSICIST TO DO SECOND-RATE WORK.
     P.A.M. DIRAC, ON THE EARLY DAYS OF QUANTUM MECHANICS
                   DIRECTIONS IN PHYSICS, 1978, P. 7
 Job cpu time:       0 days  7 hours 31 minutes  1.0 seconds.
 Elapsed time:       0 days  0 hours  8 minutes 43.9 seconds.
 File lengths (MBytes):  RWF=   4318 Int=      0 D2E=      0 Chk=    650 Scr=      1
 Normal termination of Gaussian 16 at Tue Nov  2 13:06:26 2021.
