 Entering Gaussian System, Link 0=/uufs/chpc.utah.edu/sys/installdir/gaussian16/B01/E6B/g16/g16
 Input=S-35tBu-C3-Tunephos_4_SPE.com
 Output=S-35tBu-C3-Tunephos_4_SPE.log
 Initial command:
 /uufs/chpc.utah.edu/sys/installdir/gaussian16/B01/E6B/g16/l1.exe "/scratch/general/lustre/u1010977/3356306/notchpeak.peaks/Gau-244185.inp" -scrdir="/scratch/general/lustre/u1010977/3356306/notchpeak.peaks/"
 Entering Link 1 = /uufs/chpc.utah.edu/sys/installdir/gaussian16/B01/E6B/g16/l1.exe PID=    244187.
  
 Copyright (c) 1988-2017, Gaussian, Inc.  All Rights Reserved.
  
 This is part of the Gaussian(R) 16 program.  It is based on
 the Gaussian(R) 09 system (copyright 2009, Gaussian, Inc.),
 the Gaussian(R) 03 system (copyright 2003, Gaussian, Inc.),
 the Gaussian(R) 98 system (copyright 1998, Gaussian, Inc.),
 the Gaussian(R) 94 system (copyright 1995, Gaussian, Inc.),
 the Gaussian 92(TM) system (copyright 1992, Gaussian, Inc.),
 the Gaussian 90(TM) system (copyright 1990, Gaussian, Inc.),
 the Gaussian 88(TM) system (copyright 1988, Gaussian, Inc.),
 the Gaussian 86(TM) system (copyright 1986, Carnegie Mellon
 University), and the Gaussian 82(TM) system (copyright 1983,
 Carnegie Mellon University). Gaussian is a federally registered
 trademark of Gaussian, Inc.
  
 This software contains proprietary and confidential information,
 including trade secrets, belonging to Gaussian, Inc.
  
 This software is provided under written license and may be
 used, copied, transmitted, or stored only in accord with that
 written license.
  
 The following legend is applicable only to US Government
 contracts under FAR:
  
                    RESTRICTED RIGHTS LEGEND
  
 Use, reproduction and disclosure by the US Government is
 subject to restrictions as set forth in subparagraphs (a)
 and (c) of the Commercial Computer Software - Restricted
 Rights clause in FAR 52.227-19.
  
 Gaussian, Inc.
 340 Quinnipiac St., Bldg. 40, Wallingford CT 06492
  
  
 ---------------------------------------------------------------
 Warning -- This program may not be used in any manner that
 competes with the business of Gaussian, Inc. or will provide
 assistance to any competitor of Gaussian, Inc.  The licensee
 of this program is prohibited from giving any competitor of
 Gaussian, Inc. access to this program.  By using this program,
 the user acknowledges that Gaussian, Inc. is engaged in the
 business of creating and licensing software in the field of
 computational chemistry and represents and warrants to the
 licensee that it is not a competitor of Gaussian, Inc. and that
 it will not use this program in any manner prohibited above.
 ---------------------------------------------------------------
  

 Cite this work as:
 Gaussian 16, Revision B.01,
 M. J. Frisch, G. W. Trucks, H. B. Schlegel, G. E. Scuseria, 
 M. A. Robb, J. R. Cheeseman, G. Scalmani, V. Barone, 
 G. A. Petersson, H. Nakatsuji, X. Li, M. Caricato, A. V. Marenich, 
 J. Bloino, B. G. Janesko, R. Gomperts, B. Mennucci, H. P. Hratchian, 
 J. V. Ortiz, A. F. Izmaylov, J. L. Sonnenberg, D. Williams-Young, 
 F. Ding, F. Lipparini, F. Egidi, J. Goings, B. Peng, A. Petrone, 
 T. Henderson, D. Ranasinghe, V. G. Zakrzewski, J. Gao, N. Rega, 
 G. Zheng, W. Liang, M. Hada, M. Ehara, K. Toyota, R. Fukuda, 
 J. Hasegawa, M. Ishida, T. Nakajima, Y. Honda, O. Kitao, H. Nakai, 
 T. Vreven, K. Throssell, J. A. Montgomery, Jr., J. E. Peralta, 
 F. Ogliaro, M. J. Bearpark, J. J. Heyd, E. N. Brothers, K. N. Kudin, 
 V. N. Staroverov, T. A. Keith, R. Kobayashi, J. Normand, 
 K. Raghavachari, A. P. Rendell, J. C. Burant, S. S. Iyengar, 
 J. Tomasi, M. Cossi, J. M. Millam, M. Klene, C. Adamo, R. Cammi, 
 J. W. Ochterski, R. L. Martin, K. Morokuma, O. Farkas, 
 J. B. Foresman, and D. J. Fox, Gaussian, Inc., Wallingford CT, 2016.
 
 ******************************************
 Gaussian 16:  ES64L-G16RevB.01 20-Dec-2017
                 2-Nov-2021 
 ******************************************
 %NProcShared=40
 Will use up to   40 processors via shared memory.
 %mem=18GB
 %chk=S-35tBu-C3-Tunephos_4_SPE.chk
 ----------------------------------------------------------------------
 # PBE1PBE gen pseudo=read int=(grid=ultrafine) empiricaldispersion=GD3
 BJ nmr=giao
 ----------------------------------------------------------------------
 1/38=1,172=1/1;
 2/12=2,17=6,18=5,40=1/2;
 3/5=7,11=2,16=1,17=8,25=1,30=1,74=-13,75=-5,124=41/1,2,3,8;
 4//1;
 5/5=2,38=5/2;
 8/6=1,10=90,11=11/1;
 10/13=100,45=16/2;
 6/7=2,8=2,9=2,10=2,28=1/1;
 99/9=1/99;
 -----
 title
 -----
 Symbolic Z-matrix:
 Charge =  0 Multiplicity = 1
 Pd                   -3.96791  -1.45974   1.02738 
 P                    -5.08494  -0.15138   2.52992 
 P                    -2.25812   0.04227   0.80729 
 O                    -1.46256   3.36132   3.91239 
 O                    -4.08914   4.33662   3.18006 
 C                    -6.19926  -1.11646   3.61802 
 C                    -5.8465   -2.43665   3.92556 
 C                    -6.62761  -3.2011    4.81331 
 C                    -7.76364  -2.5944    5.37361 
 C                    -8.14739  -1.26964   5.07259 
 C                    -7.34738  -0.53596   4.18481 
 C                    -6.07301   1.19385   1.79829 
 C                    -6.53964   2.28476   2.5579 
 C                    -7.31776   3.28073   1.95369 
 C                    -7.58753   3.16494   0.57039 
 C                    -7.11912   2.09666  -0.21027 
 C                    -6.361     1.0993    0.43275 
 C                    -3.93179   0.64861   3.73909 
 C                    -3.7927    0.07972   5.02085 
 C                    -2.87587   0.60815   5.93615 
 C                    -2.09287   1.71646   5.5972 
 C                    -2.23753   2.29521   4.32951 
 C                    -3.139     1.76415   3.37603 
 C                    -3.20984   2.43387   2.04491 
 C                    -3.64621   3.77741   2.00022 
 C                    -3.70033   4.48993   0.79472 
 C                    -3.3051    3.86164  -0.38966 
 C                    -2.86417   2.53336  -0.37165 
 C                    -2.80877   1.81176   0.83702 
 C                    -1.47263  -0.08485  -0.8418 
 C                    -2.27975  -0.47792  -1.92635 
 C                    -1.7608   -0.50161  -3.22604 
 C                    -0.41411  -0.11163  -3.40928 
 C                     0.41352   0.27489  -2.34437 
 C                    -0.13972   0.28123  -1.04742 
 C                    -0.93913  -0.06401   2.06029 
 C                    -0.89668  -1.21787   2.85682 
 C                     0.08741  -1.35853   3.84818 
 C                     1.03624  -0.32672   3.98018 
 C                     1.01652   0.84187   3.19318 
 C                    -0.00204   0.96904   2.23567 
 C                    -3.431     5.5303    3.65471 
 H                    -4.97445  -2.87897   3.43457 
 H                    -8.38721  -3.17399   6.05986 
 H                    -7.62089   0.48394   3.91107 
 H                    -6.26039   2.36036   3.61128 
 H                    -8.18127   3.94835   0.09098 
 H                    -5.98066   0.23252  -0.11898 
 H                    -4.40765  -0.77825   5.30288 
 H                    -2.76988   0.1499    6.92486 
 H                    -1.36031   2.11683   6.30386 
 H                    -4.0722    5.51915   0.793 
 H                    -3.3488    4.40625  -1.3384 
 H                    -2.55682   2.05381  -1.30361 
 H                    -3.3043   -0.79953  -1.72634 
 H                    -0.00215  -0.12897  -4.42195 
 H                     0.48093   0.56062  -0.1921 
 H                    -1.65029  -1.99075   2.683 
 H                     1.81928  -0.43133   4.7396 
 H                    -0.09595   1.88211   1.64328 
 H                    -2.73134   5.90848   2.88642 
 Cl                   -5.94544  -2.75051   0.679 
 Cl                   -2.59541  -3.11628  -0.01089 
 C                    -2.70974   5.22199   4.97052 
 C                    -1.37329   4.49704   4.79115 
 H                    -0.95223   4.2102    5.77415 
 H                    -3.39049   4.6197    5.59872 
 H                    -2.51661   6.16493   5.51627 
 C                    -4.76978  -4.72869   5.56693 
 C                    -6.23754  -4.66381   5.08192 
 C                    -6.37859  -5.45564   3.75847 
 C                    -7.13034  -5.32086   6.15113 
 H                    -4.63174  -4.14764   6.49612 
 H                    -4.48425  -5.77599   5.77043 
 H                    -4.06979  -4.33739   4.81036 
 H                    -6.05783  -6.50264   3.90633 
 H                    -5.77294  -5.01645   2.94812 
 H                    -7.42819  -5.45917   3.41786 
 H                    -8.18708  -5.35953   5.83419 
 H                    -6.79868  -6.35938   6.3213 
 H                    -7.07583  -4.78722   7.11687 
 C                    -10.64146  -1.52021   5.25867 
 C                    -9.4212   -0.67891   5.70265 
 C                    -9.65949   0.78385   5.27816 
 C                    -9.29729  -0.72098   7.24416 
 H                    -10.54169  -2.57442   5.56726 
 H                    -11.56757  -1.12073   5.7098 
 H                    -10.75251  -1.4995    4.16114 
 H                    -8.82577   1.43843   5.58908 
 H                    -9.78466   0.88023   4.18541 
 H                    -10.5789   1.16344   5.75604 
 H                    -8.43851  -0.11735   7.58571 
 H                    -10.21219  -0.31617   7.71278 
 H                    -9.15607  -1.74996   7.61531 
 C                    -9.40729   4.50136   2.63601 
 C                    -7.86408   4.48519   2.74016 
 C                    -7.2854    5.78766   2.13809 
 C                    -7.47781   4.43202   4.23095 
 H                    -9.83767   3.58269   3.0716 
 H                    -9.81864   5.36826   3.1836 
 H                    -9.74791   4.57059   1.58917 
 H                    -6.18573   5.78854   2.22574 
 H                    -7.54376   5.89698   1.07124 
 H                    -7.68185   6.66835   2.67474 
 H                    -6.38255   4.42832   4.3614 
 H                    -7.88396   5.31742   4.74998 
 H                    -7.89234   3.53665   4.72697 
 C                    -6.01563   1.99825  -2.4585 
 C                    -7.37688   1.97408  -1.7211 
 C                    -8.24587   3.12397  -2.26266 
 C                    -8.09369   0.63299  -2.00889 
 H                    -5.35587   1.18199  -2.11906 
 H                    -6.16792   1.88284  -3.54686 
 H                    -5.48711   2.95023  -2.27801 
 H                    -9.23728   3.14927  -1.77727 
 H                    -7.76293   4.10667  -2.11817 
 H                    -8.40755   2.98768  -3.34558 
 H                    -9.0752    0.5974   -1.50545 
 H                    -8.2585    0.51725  -3.09502 
 H                    -7.50679  -0.2335   -1.66077 
 C                    -4.01653  -1.40983  -4.01108 
 C                    -2.60128  -0.96354  -4.42801 
 C                    -1.89646  -2.16536  -5.10168 
 C                    -2.72613   0.20148  -5.43776 
 H                    -4.59749  -0.57863  -3.5743 
 H                    -4.56638  -1.76525  -4.89956 
 H                    -3.98817  -2.2339   -3.2775 
 H                    -0.88634  -1.90326  -5.46008 
 H                    -1.80018  -3.00515  -4.39294 
 H                    -2.48385  -2.51053  -5.97118 
 H                    -1.73873   0.54707  -5.78966 
 H                    -3.30703  -0.11917  -6.321 
 H                    -3.24439   1.06253  -4.97979 
 C                     2.04826   2.16119  -2.06358 
 C                     1.88294   0.69391  -2.52818 
 C                     2.34252   0.59269  -3.99458 
 C                     2.78811  -0.21984  -1.6674 
 H                     1.76156   2.28639  -1.0049 
 H                     3.10027   2.48168  -2.16952 
 H                     1.41801   2.83869  -2.66539 
 H                     2.26088  -0.43987  -4.37602 
 H                     1.75403   1.25374  -4.65457 
 H                     3.4002    0.89727  -4.07411 
 H                     2.68437  -1.27521  -1.97165 
 H                     3.84687   0.0732   -1.78513 
 H                     2.53708  -0.15409  -0.59484 
 C                    -1.05245  -3.5339    4.53619 
 C                     0.1368   -2.58335   4.77621 
 C                     0.08454  -2.10734   6.24755 
 C                     1.45238  -3.35669   4.52568 
 H                    -1.06123  -3.93804   3.50936 
 H                    -0.99273  -4.38705   5.23378 
 H                    -2.01551  -3.0229    4.71228 
 H                     0.94104  -1.46057   6.50364 
 H                    -0.84068  -1.53623   6.43724 
 H                     0.1036   -2.9762    6.92918 
 H                     2.33728  -2.72229   4.70669 
 H                     1.51718  -4.23019   5.19885 
 H                     1.50079  -3.71875   3.48461 
 C                     3.47571   1.34019   3.09884 
 C                     2.08034   1.93218   3.40756 
 C                     2.03052   2.40974   4.87814 
 C                     1.85385   3.15377   2.49609 
 H                     3.53319   1.0018    2.04937 
 H                     4.26061   2.10092   3.2598 
 H                     3.70368   0.47511   3.74432 
 H                     1.03412   2.82124   5.11178 
 H                     2.23256   1.58721   5.58458 
 H                     2.78502   3.19753   5.05283 
 H                     0.8624    3.60565   2.66932 
 H                     2.62331   3.91771   2.70204 
 H                     1.93124   2.88629   1.42709 
 H                    -0.6379    5.15244   4.29439 
 H                    -4.21536   6.29096   3.81809 
 
 Stoichiometry    C71H96Cl2O2P2Pd
 Framework group  C1[X(C71H96Cl2O2P2Pd)]
 Deg. of freedom   516
 Full point group                 C1      NOp   1
 Largest Abelian subgroup         C1      NOp   1
 Largest concise Abelian subgroup C1      NOp   1
                         Standard orientation:                         
 ---------------------------------------------------------------------
 Center     Atomic      Atomic             Coordinates (Angstroms)
 Number     Number       Type             X           Y           Z
 ---------------------------------------------------------------------
      1         46           0       -0.035893    0.123869   -1.958046
      2         15           0       -1.675196    0.001102   -0.372231
      3         15           0        1.640519    0.028726   -0.406128
      4          8           0        0.956189   -1.518573    3.886685
      5          8           0       -0.861731    0.721192    4.141772
      6          6           0       -3.248018   -0.669788   -1.030400
      7          6           0       -3.187274   -1.589475   -2.085107
      8          6           0       -4.359154   -2.191120   -2.582442
      9          6           0       -5.580182   -1.836945   -1.985614
     10          6           0       -5.670553   -0.905329   -0.928821
     11          6           0       -4.484436   -0.324755   -0.457117
     12          6           0       -2.063497    1.574760    0.460844
     13          6           0       -2.780319    1.628846    1.672485
     14          6           0       -3.075932    2.865748    2.259996
     15          6           0       -2.610341    4.035266    1.615664
     16          6           0       -1.879811    4.005422    0.417537
     17          6           0       -1.621221    2.747510   -0.160151
     18          6           0       -1.249808   -1.205524    0.967522
     19          6           0       -1.820071   -2.493515    0.925436
     20          6           0       -1.465353   -3.458078    1.874844
     21          6           0       -0.549154   -3.154520    2.887159
     22          6           0        0.009795   -1.871002    2.942595
     23          6           0       -0.312466   -0.885188    1.979215
     24          6           0        0.348024    0.446360    2.106295
     25          6           0        0.083157    1.210781    3.265179
     26          6           0        0.696778    2.452329    3.479397
     27          6           0        1.598580    2.942518    2.530625
     28          6           0        1.881938    2.202536    1.376836
     29          6           0        1.267217    0.954411    1.155583
     30          6           0        3.146303    0.881717   -1.004175
     31          6           0        2.980687    1.976319   -1.874009
     32          6           0        4.086471    2.727199   -2.289326
     33          6           0        5.360648    2.356281   -1.801351
     34          6           0        5.553445    1.264410   -0.941666
     35          6           0        4.418509    0.525919   -0.548277
     36          6           0        2.127320   -1.640920    0.138270
     37          6           0        1.683461   -2.726145   -0.631752
     38          6           0        2.013913   -4.039504   -0.261764
     39          6           0        2.827595   -4.214960    0.873788
     40          6           0        3.287054   -3.142738    1.664103
     41          6           0        2.908914   -1.844014    1.288899
     42          6           0       -0.461568    0.483178    5.507979
     43          1           0       -2.217449   -1.804807   -2.543639
     44          1           0       -6.502292   -2.287949   -2.362466
     45          1           0       -4.513795    0.414477    0.344514
     46          1           0       -3.072322    0.697074    2.162235
     47          1           0       -2.825033    5.002406    2.078934
     48          1           0       -1.069836    2.659328   -1.102801
     49          1           0       -2.546886   -2.739513    0.147580
     50          1           0       -1.907607   -4.458387    1.824293
     51          1           0       -0.254576   -3.914301    3.616716
     52          1           0        0.445062    3.031022    4.373452
     53          1           0        2.079512    3.913982    2.684165
     54          1           0        2.589373    2.595737    0.643417
     55          1           0        1.978822    2.201605   -2.246377
     56          1           0        6.228836    2.938016   -2.122818
     57          1           0        4.533522   -0.341230    0.107208
     58          1           0        1.075349   -2.515025   -1.515555
     59          1           0        3.105982   -5.234225    1.164325
     60          1           0        3.189067   -0.985166    1.903174
     61          1           0        0.554602    0.883675    5.680665
     62         17           0       -1.638863    0.876033   -3.558927
     63         17           0        1.563662   -0.375348   -3.660421
     64          6           0       -0.532747   -1.018444    5.802438
     65          6           0        0.658610   -1.814310    5.262926
     66          1           0        0.500719   -2.899741    5.413811
     67          1           0       -1.475818   -1.404610    5.375473
     68          1           0       -0.584045   -1.178944    6.896011
     69          6           0       -3.247464   -4.280292   -3.449920
     70          6           0       -4.255774   -3.153349   -3.777128
     71          6           0       -3.753903   -2.352908   -5.004251
     72          6           0       -5.608974   -3.800645   -4.126233
     73          1           0       -3.564720   -4.851882   -2.559579
     74          1           0       -3.173786   -4.981059   -4.300372
     75          1           0       -2.236133   -3.884088   -3.260872
     76          1           0       -3.621626   -3.027439   -5.869402
     77          1           0       -2.793041   -1.849864   -4.804102
     78          1           0       -4.481341   -1.571010   -5.282007
     79          1           0       -6.356865   -3.047168   -4.428863
     80          1           0       -5.478155   -4.494718   -4.973945
     81          1           0       -6.019593   -4.377790   -3.278481
     82          6           0       -7.921772    0.082022   -1.453163
     83          6           0       -7.046387   -0.543901   -0.341473
     84          6           0       -6.940116    0.465379    0.819004
     85          6           0       -7.727923   -1.825640    0.193342
     86          1           0       -8.061471   -0.611988   -2.298961
     87          1           0       -8.920455    0.338733   -1.056290
     88          1           0       -7.456711    1.002303   -1.845760
     89          1           0       -6.340726    0.062349    1.654786
     90          1           0       -6.484712    1.417858    0.495814
     91          1           0       -7.947968    0.690264    1.208155
     92          1           0       -7.125922   -2.284462    0.996840
     93          1           0       -8.725557   -1.586079    0.603054
     94          1           0       -7.862290   -2.579298   -0.600668
     95          6           0       -5.137671    3.829436    3.328729
     96          6           0       -3.867477    2.981585    3.574436
     97          6           0       -2.980052    3.665767    4.641289
     98          6           0       -4.298759    1.605975    4.118668
     99          1           0       -5.788232    3.349264    2.576977
    100          1           0       -5.713533    3.936174    4.265511
    101          1           0       -4.892291    4.841794    2.965930
    102          1           0       -2.080969    3.055847    4.832647
    103          1           0       -2.651302    4.668576    4.320115
    104          1           0       -3.536669    3.778987    5.588986
    105          1           0       -3.425565    0.963039    4.320602
    106          1           0       -4.854430    1.739553    5.062955
    107          1           0       -4.964994    1.079700    3.412461
    108          6           0        0.205895    5.180929   -0.324064
    109          6           0       -1.339399    5.266072   -0.277285
    110          6           0       -1.734947    6.557733    0.461512
    111          6           0       -1.894610    5.330519   -1.720462
    112          1           0        0.546401    4.278054   -0.858523
    113          1           0        0.622086    6.062235   -0.844743
    114          1           0        0.629032    5.144079    0.694650
    115          1           0       -2.831307    6.676557    0.516488
    116          1           0       -1.330604    6.583241    1.488964
    117          1           0       -1.330921    7.431425   -0.077821
    118          1           0       -2.995599    5.407036   -1.713656
    119          1           0       -1.490317    6.216123   -2.242459
    120          1           0       -1.624284    4.437524   -2.308606
    121          6           0        2.491894    4.104140   -3.735299
    122          6           0        3.947580    3.903620   -3.269762
    123          6           0        4.817860    3.622559   -4.518201
    124          6           0        4.430050    5.200332   -2.578233
    125          1           0        1.824609    4.367354   -2.895886
    126          1           0        2.449618    4.933196   -4.462579
    127          1           0        2.089332    3.201341   -4.226151
    128          1           0        5.884171    3.505360   -4.259858
    129          1           0        4.485212    2.699702   -5.022670
    130          1           0        4.734367    4.459213   -5.234617
    131          1           0        5.478942    5.121213   -2.243890
    132          1           0        4.360704    6.053911   -3.276058
    133          1           0        3.807703    5.427527   -1.694598
    134          6           0        6.935175    0.962005    1.134075
    135          6           0        6.935115    0.844585   -0.409396
    136          6           0        8.069848    1.725299   -0.964830
    137          6           0        7.214380   -0.623913   -0.810290
    138          1           0        6.158011    0.323904    1.589630
    139          1           0        7.912616    0.649241    1.543288
    140          1           0        6.744652    2.002225    1.450355
    141          1           0        8.127337    1.668162   -2.065639
    142          1           0        7.943732    2.784119   -0.678655
    143          1           0        9.037670    1.383017   -0.559942
    144          1           0        7.212112   -0.739213   -1.907484
    145          1           0        8.201850   -0.941299   -0.429646
    146          1           0        6.456913   -1.313193   -0.399360
    147          6           0        0.544732   -4.848657   -2.183132
    148          6           0        1.504446   -5.258089   -1.048775
    149          6           0        0.740962   -6.199798   -0.087304
    150          6           0        2.711023   -6.006596   -1.661547
    151          1           0        1.034075   -4.196705   -2.926957
    152          1           0        0.185526   -5.749916   -2.709217
    153          1           0       -0.338370   -4.316114   -1.787977
    154          1           0        1.387316   -6.574181    0.724816
    155          1           0       -0.112704   -5.673498    0.373610
    156          1           0        0.353971   -7.074570   -0.639497
    157          1           0        3.419189   -6.341053   -0.883785
    158          1           0        2.367295   -6.899067   -2.214453
    159          1           0        3.259415   -5.355581   -2.363464
    160          6           0        5.477633   -4.089725    2.444771
    161          6           0        4.161237   -3.416819    2.899874
    162          6           0        3.400318   -4.358545    3.862852
    163          6           0        4.510076   -2.125174    3.664272
    164          1           0        6.039618   -3.427542    1.762953
    165          1           0        6.118363   -4.310861    3.317263
    166          1           0        5.288576   -5.037722    1.913225
    167          1           0        2.452871   -3.892650    4.182244
    168          1           0        3.160723   -5.325110    3.388741
    169          1           0        4.009728   -4.565071    4.760834
    170          1           0        3.600254   -1.599044    3.999813
    171          1           0        5.114858   -2.372625    4.553705
    172          1           0        5.103688   -1.430377    3.043633
    173          1           0        1.585058   -1.537430    5.794111
    174          1           0       -1.168703    1.033223    6.154441
 ---------------------------------------------------------------------
 Rotational constants (GHZ):           0.0284918           0.0216309           0.0203913
 General basis read from cards:  (5D, 7F)
 ======================================================================================================
                                       Pseudopotential Parameters
 ======================================================================================================
  Center     Atomic      Valence      Angular      Power
  Number     Number     Electrons     Momentum     of R      Exponent        Coefficient   SO-Coeffient
 ======================================================================================================
    1         46           18
                                      G and up 
                                                     2        1.0000000        0.00000000    0.00000000
                                      S - G
                                                     2       12.4300000      240.22904000    0.00000000
                                                     2        6.1707590       35.17194300    0.00000000
                                      P - G
                                                     2       11.0800000      170.41727600    0.00000000
                                                     2        5.8295540       28.47213300    0.00000000
                                      D - G
                                                     2        9.5100000       69.01384500    0.00000000
                                                     2        4.1397810       11.75086200    0.00000000
                                      F - G
                                                     2       13.2700000      -31.92955400    0.00000000
                                                     2        6.6300000       -5.39821700    0.00000000
    2         15
                                   No pseudopotential on this center.
    3         15
                                   No pseudopotential on this center.
    4          8
                                   No pseudopotential on this center.
    5          8
                                   No pseudopotential on this center.
    6          6
                                   No pseudopotential on this center.
    7          6
                                   No pseudopotential on this center.
    8          6
                                   No pseudopotential on this center.
    9          6
                                   No pseudopotential on this center.
   10          6
                                   No pseudopotential on this center.
   11          6
                                   No pseudopotential on this center.
   12          6
                                   No pseudopotential on this center.
   13          6
                                   No pseudopotential on this center.
   14          6
                                   No pseudopotential on this center.
   15          6
                                   No pseudopotential on this center.
   16          6
                                   No pseudopotential on this center.
   17          6
                                   No pseudopotential on this center.
   18          6
                                   No pseudopotential on this center.
   19          6
                                   No pseudopotential on this center.
   20          6
                                   No pseudopotential on this center.
   21          6
                                   No pseudopotential on this center.
   22          6
                                   No pseudopotential on this center.
   23          6
                                   No pseudopotential on this center.
   24          6
                                   No pseudopotential on this center.
   25          6
                                   No pseudopotential on this center.
   26          6
                                   No pseudopotential on this center.
   27          6
                                   No pseudopotential on this center.
   28          6
                                   No pseudopotential on this center.
   29          6
                                   No pseudopotential on this center.
   30          6
                                   No pseudopotential on this center.
   31          6
                                   No pseudopotential on this center.
   32          6
                                   No pseudopotential on this center.
   33          6
                                   No pseudopotential on this center.
   34          6
                                   No pseudopotential on this center.
   35          6
                                   No pseudopotential on this center.
   36          6
                                   No pseudopotential on this center.
   37          6
                                   No pseudopotential on this center.
   38          6
                                   No pseudopotential on this center.
   39          6
                                   No pseudopotential on this center.
   40          6
                                   No pseudopotential on this center.
   41          6
                                   No pseudopotential on this center.
   42          6
                                   No pseudopotential on this center.
   43          1
                                   No pseudopotential on this center.
   44          1
                                   No pseudopotential on this center.
   45          1
                                   No pseudopotential on this center.
   46          1
                                   No pseudopotential on this center.
   47          1
                                   No pseudopotential on this center.
   48          1
                                   No pseudopotential on this center.
   49          1
                                   No pseudopotential on this center.
   50          1
                                   No pseudopotential on this center.
   51          1
                                   No pseudopotential on this center.
   52          1
                                   No pseudopotential on this center.
   53          1
                                   No pseudopotential on this center.
   54          1
                                   No pseudopotential on this center.
   55          1
                                   No pseudopotential on this center.
   56          1
                                   No pseudopotential on this center.
   57          1
                                   No pseudopotential on this center.
   58          1
                                   No pseudopotential on this center.
   59          1
                                   No pseudopotential on this center.
   60          1
                                   No pseudopotential on this center.
   61          1
                                   No pseudopotential on this center.
   62         17
                                   No pseudopotential on this center.
   63         17
                                   No pseudopotential on this center.
   64          6
                                   No pseudopotential on this center.
   65          6
                                   No pseudopotential on this center.
   66          1
                                   No pseudopotential on this center.
   67          1
                                   No pseudopotential on this center.
   68          1
                                   No pseudopotential on this center.
   69          6
                                   No pseudopotential on this center.
   70          6
                                   No pseudopotential on this center.
   71          6
                                   No pseudopotential on this center.
   72          6
                                   No pseudopotential on this center.
   73          1
                                   No pseudopotential on this center.
   74          1
                                   No pseudopotential on this center.
   75          1
                                   No pseudopotential on this center.
   76          1
                                   No pseudopotential on this center.
   77          1
                                   No pseudopotential on this center.
   78          1
                                   No pseudopotential on this center.
   79          1
                                   No pseudopotential on this center.
   80          1
                                   No pseudopotential on this center.
   81          1
                                   No pseudopotential on this center.
   82          6
                                   No pseudopotential on this center.
   83          6
                                   No pseudopotential on this center.
   84          6
                                   No pseudopotential on this center.
   85          6
                                   No pseudopotential on this center.
   86          1
                                   No pseudopotential on this center.
   87          1
                                   No pseudopotential on this center.
   88          1
                                   No pseudopotential on this center.
   89          1
                                   No pseudopotential on this center.
   90          1
                                   No pseudopotential on this center.
   91          1
                                   No pseudopotential on this center.
   92          1
                                   No pseudopotential on this center.
   93          1
                                   No pseudopotential on this center.
   94          1
                                   No pseudopotential on this center.
   95          6
                                   No pseudopotential on this center.
   96          6
                                   No pseudopotential on this center.
   97          6
                                   No pseudopotential on this center.
   98          6
                                   No pseudopotential on this center.
   99          1
                                   No pseudopotential on this center.
  100          1
                                   No pseudopotential on this center.
  101          1
                                   No pseudopotential on this center.
  102          1
                                   No pseudopotential on this center.
  103          1
                                   No pseudopotential on this center.
  104          1
                                   No pseudopotential on this center.
  105          1
                                   No pseudopotential on this center.
  106          1
                                   No pseudopotential on this center.
  107          1
                                   No pseudopotential on this center.
  108          6
                                   No pseudopotential on this center.
  109          6
                                   No pseudopotential on this center.
  110          6
                                   No pseudopotential on this center.
  111          6
                                   No pseudopotential on this center.
  112          1
                                   No pseudopotential on this center.
  113          1
                                   No pseudopotential on this center.
  114          1
                                   No pseudopotential on this center.
  115          1
                                   No pseudopotential on this center.
  116          1
                                   No pseudopotential on this center.
  117          1
                                   No pseudopotential on this center.
  118          1
                                   No pseudopotential on this center.
  119          1
                                   No pseudopotential on this center.
  120          1
                                   No pseudopotential on this center.
  121          6
                                   No pseudopotential on this center.
  122          6
                                   No pseudopotential on this center.
  123          6
                                   No pseudopotential on this center.
  124          6
                                   No pseudopotential on this center.
  125          1
                                   No pseudopotential on this center.
  126          1
                                   No pseudopotential on this center.
  127          1
                                   No pseudopotential on this center.
  128          1
                                   No pseudopotential on this center.
  129          1
                                   No pseudopotential on this center.
  130          1
                                   No pseudopotential on this center.
  131          1
                                   No pseudopotential on this center.
  132          1
                                   No pseudopotential on this center.
  133          1
                                   No pseudopotential on this center.
  134          6
                                   No pseudopotential on this center.
  135          6
                                   No pseudopotential on this center.
  136          6
                                   No pseudopotential on this center.
  137          6
                                   No pseudopotential on this center.
  138          1
                                   No pseudopotential on this center.
  139          1
                                   No pseudopotential on this center.
  140          1
                                   No pseudopotential on this center.
  141          1
                                   No pseudopotential on this center.
  142          1
                                   No pseudopotential on this center.
  143          1
                                   No pseudopotential on this center.
  144          1
                                   No pseudopotential on this center.
  145          1
                                   No pseudopotential on this center.
  146          1
                                   No pseudopotential on this center.
  147          6
                                   No pseudopotential on this center.
  148          6
                                   No pseudopotential on this center.
  149          6
                                   No pseudopotential on this center.
  150          6
                                   No pseudopotential on this center.
  151          1
                                   No pseudopotential on this center.
  152          1
                                   No pseudopotential on this center.
  153          1
                                   No pseudopotential on this center.
  154          1
                                   No pseudopotential on this center.
  155          1
                                   No pseudopotential on this center.
  156          1
                                   No pseudopotential on this center.
  157          1
                                   No pseudopotential on this center.
  158          1
                                   No pseudopotential on this center.
  159          1
                                   No pseudopotential on this center.
  160          6
                                   No pseudopotential on this center.
  161          6
                                   No pseudopotential on this center.
  162          6
                                   No pseudopotential on this center.
  163          6
                                   No pseudopotential on this center.
  164          1
                                   No pseudopotential on this center.
  165          1
                                   No pseudopotential on this center.
  166          1
                                   No pseudopotential on this center.
  167          1
                                   No pseudopotential on this center.
  168          1
                                   No pseudopotential on this center.
  169          1
                                   No pseudopotential on this center.
  170          1
                                   No pseudopotential on this center.
  171          1
                                   No pseudopotential on this center.
  172          1
                                   No pseudopotential on this center.
  173          1
                                   No pseudopotential on this center.
  174          1
                                   No pseudopotential on this center.
 ======================================================================================================
 There are  3411 symmetry adapted cartesian basis functions of A   symmetry.
 There are  3023 symmetry adapted basis functions of A   symmetry.
  3023 basis functions,  4832 primitive gaussians,  3411 cartesian basis functions
   310 alpha electrons      310 beta electrons
       nuclear repulsion energy     17398.5755148488 Hartrees.
 NAtoms=  174 NActive=  174 NUniq=  174 SFac= 1.00D+00 NAtFMM=   60 NAOKFM=T Big=T
 Integral buffers will be    131072 words long.
 Raffenetti 2 integral format.
 Two-electron integral symmetry is turned on.
 Nuclear repulsion after empirical dispersion term =    17398.2832645431 Hartrees.
 One-electron integrals computed using PRISM.
   1 Symmetry operations used in ECPInt.
 ECPInt:  NShTT=  785631 NPrTT= 2346744 LenC2=  528291 LenP2D= 1005344.
 LDataN:  DoStor=T MaxTD1= 7 Len=  274
 Number of processors reduced to  13 by ecpmxn.
 NBasis=  3023 RedAO= T EigKep=  2.33D-06  NBF=  3023
 NBsUse=  3023 1.00D-06 EigRej= -1.00D+00 NBFU=  3023
 Defaulting to unpruned grid for atomic number  46.
 ExpMin= 1.60D-02 ExpMax= 6.95D+04 ExpMxC= 2.37D+03 IAcc=3 IRadAn=         5 AccDes= 0.00D+00
 Harris functional with IExCor= 1009 and IRadAn=       5 diagonalized for initial guess.
 HarFok:  IExCor= 1009 AccDes= 0.00D+00 IRadAn=         5 IDoV= 1 UseB2=F ITyADJ=14
 ICtDFT=  3500011 ScaDFX=  1.000000  1.000000  1.000000  1.000000
 Defaulting to unpruned grid for atomic number  46.
 FoFCou: FMM=F IPFlag=           0 FMFlag=      100000 FMFlg1=        2001
         NFxFlg=           0 DoJE=T BraDBF=F KetDBF=T FulRan=T
         wScrn=  0.000000 ICntrl=       500 IOpCl=  0 I1Cent=   200000004 NGrid=           0
         NMat0=    1 NMatS0=      1 NMatT0=    0 NMatD0=    1 NMtDS0=    0 NMtDT0=    0
 Petite list used in FoFCou.
 Requested convergence on RMS density matrix=1.00D-08 within 128 cycles.
 Requested convergence on MAX density matrix=1.00D-06.
 Requested convergence on             energy=1.00D-06.
 No special actions if energy rises.
 Defaulting to unpruned grid for atomic number  46.
 Defaulting to unpruned grid for atomic number  46.
 Defaulting to unpruned grid for atomic number  46.
 Defaulting to unpruned grid for atomic number  46.
 Defaulting to unpruned grid for atomic number  46.
 Defaulting to unpruned grid for atomic number  46.
 Defaulting to unpruned grid for atomic number  46.
 Defaulting to unpruned grid for atomic number  46.
 Defaulting to unpruned grid for atomic number  46.
 Defaulting to unpruned grid for atomic number  46.
 Defaulting to unpruned grid for atomic number  46.
 Defaulting to unpruned grid for atomic number  46.
 Defaulting to unpruned grid for atomic number  46.
 Defaulting to unpruned grid for atomic number  46.
 Defaulting to unpruned grid for atomic number  46.
 Defaulting to unpruned grid for atomic number  46.
 Defaulting to unpruned grid for atomic number  46.
 Defaulting to unpruned grid for atomic number  46.
 Defaulting to unpruned grid for atomic number  46.
 Defaulting to unpruned grid for atomic number  46.
 Defaulting to unpruned grid for atomic number  46.
 Defaulting to unpruned grid for atomic number  46.
 Defaulting to unpruned grid for atomic number  46.
 Defaulting to unpruned grid for atomic number  46.
 Defaulting to unpruned grid for atomic number  46.
 Defaulting to unpruned grid for atomic number  46.
 Defaulting to unpruned grid for atomic number  46.
 Defaulting to unpruned grid for atomic number  46.
 Defaulting to unpruned grid for atomic number  46.
 Defaulting to unpruned grid for atomic number  46.
 Defaulting to unpruned grid for atomic number  46.
 Defaulting to unpruned grid for atomic number  46.
 Defaulting to unpruned grid for atomic number  46.
 Defaulting to unpruned grid for atomic number  46.
 Defaulting to unpruned grid for atomic number  46.
 Defaulting to unpruned grid for atomic number  46.
 Defaulting to unpruned grid for atomic number  46.
 Defaulting to unpruned grid for atomic number  46.
 Defaulting to unpruned grid for atomic number  46.
 Defaulting to unpruned grid for atomic number  46.
 EnCoef did    10 forward-backward iterations
 EnCoef did   100 forward-backward iterations
 SCF Done:  E(RPBE1PBE) =  -4642.28048070     A.U. after   20 cycles
            NFock= 20  Conv=0.38D-08     -V/T= 2.0223
 DoSCS=F DFT=T ScalE2(SS,OS)=  1.000000  1.000000
 Range of M.O.s used for correlation:     1  3023
 NBasis=  3023 NAE=   310 NBE=   310 NFC=     0 NFV=     0
 NROrb=   3023 NOA=   310 NOB=   310 NVA=  2713 NVB=  2713

 **** Warning!!: The largest alpha MO coefficient is  0.46755142D+02

          Differentiating once with respect to magnetic field using GIAOs.
          Electric field/nuclear overlap derivatives assumed to be zero.
 Defaulting to unpruned grid for atomic number  46.
 FoFCou: FMM=F IPFlag=           0 FMFlag=      100000 FMFlg1=        2001
         NFxFlg=           0 DoJE=F BraDBF=F KetDBF=T FulRan=T
         wScrn=  0.000000 ICntrl=      6100 IOpCl=  0 I1Cent=           7 NGrid=         174
         NMat0=    1 NMatS0=      1 NMatT0=    0 NMatD0=    1 NMtDS0=    0 NMtDT0=    0
 Symmetry not used in FoFCou.
   1 Symmetry operations used in ECPInt.
 ECPInt:  NShTT=  785631 NPrTT= 2346744 LenC2=  785632 LenP2D= 2346744.
 LDataN:  DoStor=T MaxTD1= 8 Len=  415
 Number of processors reduced to   8 by ecpmxn.
 FoFJK:  IHMeth= 1 ICntrl=    6127 DoSepK=F KAlg= 0 I1Cent=           0 FoldK=F
 IRaf=         1 NMat=       1 IRICut=       1 DoRegI=T DoRafI=F ISym2E= 0 IDoP0=0 IntGTp=1.
 Defaulting to unpruned grid for atomic number  46.
 Defaulting to unpruned grid for atomic number  46.
 Defaulting to unpruned grid for atomic number  46.
 Defaulting to unpruned grid for atomic number  46.
 Defaulting to unpruned grid for atomic number  46.
 Defaulting to unpruned grid for atomic number  46.
 Defaulting to unpruned grid for atomic number  46.
 Defaulting to unpruned grid for atomic number  46.
 Defaulting to unpruned grid for atomic number  46.
 Defaulting to unpruned grid for atomic number  46.
 Defaulting to unpruned grid for atomic number  46.
 Defaulting to unpruned grid for atomic number  46.
 Defaulting to unpruned grid for atomic number  46.
 Defaulting to unpruned grid for atomic number  46.
 Defaulting to unpruned grid for atomic number  46.
 Defaulting to unpruned grid for atomic number  46.
 Defaulting to unpruned grid for atomic number  46.
 Defaulting to unpruned grid for atomic number  46.
 Defaulting to unpruned grid for atomic number  46.
 Defaulting to unpruned grid for atomic number  46.
 Defaulting to unpruned grid for atomic number  46.
 Defaulting to unpruned grid for atomic number  46.
 Defaulting to unpruned grid for atomic number  46.
 Defaulting to unpruned grid for atomic number  46.
 Defaulting to unpruned grid for atomic number  46.
 Defaulting to unpruned grid for atomic number  46.
 Defaulting to unpruned grid for atomic number  46.
 Defaulting to unpruned grid for atomic number  46.
 Defaulting to unpruned grid for atomic number  46.
 Defaulting to unpruned grid for atomic number  46.
 Defaulting to unpruned grid for atomic number  46.
 Defaulting to unpruned grid for atomic number  46.
 Defaulting to unpruned grid for atomic number  46.
 Defaulting to unpruned grid for atomic number  46.
 Defaulting to unpruned grid for atomic number  46.
 Defaulting to unpruned grid for atomic number  46.
 Defaulting to unpruned grid for atomic number  46.
 Defaulting to unpruned grid for atomic number  46.
 Defaulting to unpruned grid for atomic number  46.
 Defaulting to unpruned grid for atomic number  46.
          There are     3 degrees of freedom in the 1st order CPHF.  IDoFFX=0 NUNeed=     3.
      3 vectors produced by pass  0 Test12= 2.80D-11 3.33D-08 XBig12= 5.29D+02 2.18D+00.
 AX will form     3 AO Fock derivatives at one time.
      3 vectors produced by pass  1 Test12= 2.80D-11 3.33D-08 XBig12= 1.68D+00 2.87D-01.
      3 vectors produced by pass  2 Test12= 2.80D-11 3.33D-08 XBig12= 1.87D-02 2.72D-02.
      3 vectors produced by pass  3 Test12= 2.80D-11 3.33D-08 XBig12= 3.38D-04 9.03D-03.
      3 vectors produced by pass  4 Test12= 2.80D-11 3.33D-08 XBig12= 3.65D-06 5.79D-04.
      3 vectors produced by pass  5 Test12= 2.80D-11 3.33D-08 XBig12= 1.58D-08 3.50D-05.
      3 vectors produced by pass  6 Test12= 2.80D-11 3.33D-08 XBig12= 3.71D-10 7.07D-06.
      3 vectors produced by pass  7 Test12= 2.80D-11 3.33D-08 XBig12= 4.43D-12 6.34D-07.
      1 vectors produced by pass  8 Test12= 2.80D-11 3.33D-08 XBig12= 2.70D-14 3.64D-08.
 InvSVY:  IOpt=1 It=  1 EMax= 1.42D-14
 Solved reduced A of dimension    25 with     3 vectors.
 Calculating GIAO nuclear magnetic shielding tensors.
 SCF GIAO Magnetic shielding tensor (ppm):
      1  Pd   Isotropic =  -154.6543   Anisotropy =   278.4661
   XX=    -3.5521   YX=   -25.3487   ZX=    -1.2438
   XY=   -88.9257   YY=  -488.2212   ZY=   -40.5909
   XZ=    -7.7324   YZ=   -40.6694   ZZ=    27.8103
   Eigenvalues:  -498.0434     3.0907    30.9898
      2  P    Isotropic =   232.2734   Anisotropy =   138.2670
   XX=   243.1677   YX=     2.7164   ZX=   -89.8420
   XY=    22.5534   YY=   197.9655   ZY=    30.0427
   XZ=   -58.7510   YZ=    13.6861   ZZ=   255.6869
   Eigenvalues:   159.5944   212.7743   324.4514
      3  P    Isotropic =   234.7088   Anisotropy =   137.5756
   XX=   254.6309   YX=   -16.8934   ZX=    88.4252
   XY=     8.9150   YY=   209.5110   ZY=   -32.4934
   XZ=    62.2743   YZ=   -17.7489   ZZ=   239.9846
   Eigenvalues:   165.4969   212.2037   326.4259
      4  O    Isotropic =   216.0235   Anisotropy =   125.1287
   XX=   270.7796   YX=    -0.2003   ZX=   -57.1614
   XY=   -17.8894   YY=   178.3510   ZY=    80.2503
   XZ=   -26.9072   YZ=    28.7885   ZZ=   198.9398
   Eigenvalues:   130.0799   218.5480   299.4426
      5  O    Isotropic =   218.1543   Anisotropy =   101.1139
   XX=   268.5354   YX=    -8.0775   ZX=    45.9994
   XY=    -3.0759   YY=   207.0072   ZY=   -76.8640
   XZ=    16.9416   YZ=   -24.5058   ZZ=   178.9202
   Eigenvalues:   136.6651   232.2341   285.5635
      6  C    Isotropic =    48.2507   Anisotropy =   171.0709
   XX=   -20.9260   YX=   -26.8301   ZX=   -13.4654
   XY=   -38.8448   YY=    84.2508   ZY=   -87.4939
   XZ=    -9.9113   YZ=   -68.7745   ZZ=    81.4274
   Eigenvalues:   -42.7704    25.2246   162.2980
      7  C    Isotropic =    39.6760   Anisotropy =   191.7351
   XX=   -40.3036   YX=     5.1345   ZX=    35.5350
   XY=     9.5545   YY=   105.9202   ZY=   -72.5677
   XZ=    39.1756   YZ=   -92.3574   ZZ=    53.4113
   Eigenvalues:   -62.7345    14.2631   167.4994
      8  C    Isotropic =    28.8412   Anisotropy =   199.0706
   XX=   -18.9219   YX=   -13.5745   ZX=    12.3617
   XY=   -12.0164   YY=    69.0501   ZY=  -105.9908
   XZ=    12.2990   YZ=  -105.6821   ZZ=    36.3955
   Eigenvalues:   -54.3968   -20.6345   161.5550
      9  C    Isotropic =    54.4297   Anisotropy =   176.4136
   XX=   -20.9552   YX=   -30.6720   ZX=    -5.9840
   XY=   -41.1043   YY=    99.3378   ZY=   -76.5936
   XZ=   -16.8151   YZ=   -78.7573   ZZ=    84.9065
   Eigenvalues:   -41.6803    32.9306   172.0388
     10  C    Isotropic =    29.8839   Anisotropy =   196.1555
   XX=   -43.4493   YX=    -4.6748   ZX=    24.4007
   XY=    -2.2802   YY=    79.6441   ZY=   -90.1843
   XZ=    25.7708   YZ=   -92.5705   ZZ=    53.4568
   Eigenvalues:   -54.7451   -16.2575   160.6542
     11  C    Isotropic =    54.8489   Anisotropy =   175.9895
   XX=    34.5767   YX=    -3.6635   ZX=    15.2550
   XY=    -0.6141   YY=    75.5915   ZY=  -106.2296
   XZ=     5.6785   YZ=  -106.0148   ZZ=    54.3784
   Eigenvalues:   -42.1895    34.5609   172.1752
     12  C    Isotropic =    52.7447   Anisotropy =   171.1576
   XX=   126.6660   YX=    10.2522   ZX=    70.1356
   XY=    10.6237   YY=   -23.0973   ZY=   -35.5928
   XZ=    63.4576   YZ=   -28.4565   ZZ=    54.6653
   Eigenvalues:   -42.2731    33.6574   166.8498
     13  C    Isotropic =    51.7371   Anisotropy =   184.1717
   XX=   134.0109   YX=   -28.6856   ZX=    69.0371
   XY=   -22.5831   YY=   -23.9956   ZY=    31.2502
   XZ=    75.1222   YZ=    32.1475   ZZ=    45.1961
   Eigenvalues:   -52.3688    33.0619   174.5183
     14  C    Isotropic =    30.4133   Anisotropy =   200.7679
   XX=   106.9786   YX=    -7.7854   ZX=    94.7331
   XY=    -8.6111   YY=   -16.0095   ZY=    -1.7153
   XZ=    98.0751   YZ=    -5.9571   ZZ=     0.2708
   Eigenvalues:   -56.5771   -16.4416   164.2585
     15  C    Isotropic =    53.5144   Anisotropy =   181.3375
   XX=   132.2812   YX=     3.7125   ZX=    69.9995
   XY=     8.7760   YY=   -25.8673   ZY=   -40.3719
   XZ=    70.5966   YZ=   -29.0766   ZZ=    54.1292
   Eigenvalues:   -45.3829    31.5200   174.4060
     16  C    Isotropic =    28.0215   Anisotropy =   203.1139
   XX=   109.6337   YX=   -20.9149   ZX=    85.8881
   XY=   -23.6039   YY=   -45.8925   ZY=     7.5304
   XZ=    86.9997   YZ=     5.9891   ZZ=    20.3233
   Eigenvalues:   -58.4853   -20.8809   163.4307
     17  C    Isotropic =    40.0397   Anisotropy =   187.0494
   XX=   101.5926   YX=   -17.6318   ZX=   104.5115
   XY=    -6.7328   YY=    19.8439   ZY=    -7.4590
   XZ=    96.9360   YZ=    -9.1386   ZZ=    -1.3176
   Eigenvalues:   -62.9745    18.3542   164.7392
     18  C    Isotropic =    38.9025   Anisotropy =   189.3596
   XX=    96.6748   YX=   -13.8857   ZX=   -77.0645
   XY=   -41.6873   YY=   -15.2688   ZY=    42.8605
   XZ=   -82.1405   YZ=    51.3669   ZZ=    35.3017
   Eigenvalues:   -46.9892    -1.4455   165.1423
     19  C    Isotropic =    50.3313   Anisotropy =   192.2224
   XX=    76.7394   YX=   -50.3815   ZX=  -101.7370
   XY=   -56.0913   YY=    35.9223   ZY=     5.2617
   XZ=  -104.2994   YZ=    15.1512   ZZ=    38.3323
   Eigenvalues:   -55.6839    28.1983   178.4796
     20  C    Isotropic =    51.6139   Anisotropy =   186.8628
   XX=    99.8849   YX=   -61.1422   ZX=   -66.5734
   XY=   -65.2704   YY=   -30.4151   ZY=    22.1586
   XZ=   -63.1299   YZ=    18.8136   ZZ=    85.3720
   Eigenvalues:   -56.2856    34.9383   176.1891
     21  C    Isotropic =    63.2518   Anisotropy =   179.1710
   XX=   106.6396   YX=   -17.3515   ZX=   -90.7412
   XY=   -12.7266   YY=    23.3807   ZY=    66.1889
   XZ=   -70.2893   YZ=    55.5832   ZZ=    59.7350
   Eigenvalues:   -34.6497    41.7058   182.6991
     22  C    Isotropic =    22.5832   Anisotropy =   142.6433
   XX=    33.9521   YX=   -37.6952   ZX=   -90.7776
   XY=   -31.2468   YY=    26.8731   ZY=     6.0898
   XZ=   -79.0021   YZ=    10.9864   ZZ=     6.9245
   Eigenvalues:   -68.3407    18.4117   117.6787
     23  C    Isotropic =    45.4223   Anisotropy =   162.5844
   XX=    90.8044   YX=   -59.7181   ZX=   -47.5512
   XY=   -63.4946   YY=   -16.4615   ZY=     8.9072
   XZ=   -66.0740   YZ=    13.7735   ZZ=    61.9241
   Eigenvalues:   -46.4702    28.9253   153.8119
     24  C    Isotropic =    44.8560   Anisotropy =   164.7836
   XX=    90.8043   YX=   -74.9468   ZX=    33.6309
   XY=   -77.7763   YY=    -7.5228   ZY=   -22.8500
   XZ=    48.9244   YZ=   -26.1496   ZZ=    51.2865
   Eigenvalues:   -49.2130    29.0693   154.7117
     25  C    Isotropic =    18.4833   Anisotropy =   144.3204
   XX=    36.5625   YX=   -47.0321   ZX=    80.7229
   XY=   -48.5608   YY=    19.3847   ZY=    -5.2409
   XZ=    70.9922   YZ=    -6.7409   ZZ=    -0.4974
   Eigenvalues:   -68.0414     8.7944   114.6968
     26  C    Isotropic =    59.0045   Anisotropy =   166.6542
   XX=   106.3787   YX=   -30.5546   ZX=    73.1560
   XY=   -33.1327   YY=    46.2305   ZY=   -64.3418
   XZ=    56.2149   YZ=   -56.9418   ZZ=    24.4042
   Eigenvalues:   -34.2313    41.1375   170.1072
     27  C    Isotropic =    51.1790   Anisotropy =   187.0202
   XX=    97.4644   YX=   -80.2585   ZX=    48.9920
   XY=   -82.2590   YY=   -10.7760   ZY=   -44.8294
   XZ=    43.5657   YZ=   -42.1602   ZZ=    66.8484
   Eigenvalues:   -56.8865    34.5644   175.8591
     28  C    Isotropic =    48.4952   Anisotropy =   195.1292
   XX=    76.2729   YX=   -76.0122   ZX=    88.2076
   XY=   -78.7918   YY=    43.7295   ZY=    -6.3296
   XZ=    86.8831   YZ=   -15.6715   ZZ=    25.4833
   Eigenvalues:   -58.3378    25.2421   178.5814
     29  C    Isotropic =    39.2841   Anisotropy =   188.0884
   XX=    98.6012   YX=   -34.0728   ZX=    67.4443
   XY=   -62.9997   YY=    10.8417   ZY=   -49.2745
   XZ=    65.6493   YZ=   -58.3588   ZZ=     8.4094
   Eigenvalues:   -46.3996    -0.4245   164.6764
     30  C    Isotropic =    46.9975   Anisotropy =   173.3339
   XX=   -13.0352   YX=   -31.2879   ZX=    10.2140
   XY=   -40.7183   YY=    47.6004   ZY=    88.7184
   XZ=     6.0452   YZ=    69.4969   ZZ=   106.4271
   Eigenvalues:   -45.0373    23.4763   162.5534
     31  C    Isotropic =    43.8704   Anisotropy =   183.1316
   XX=   -37.0274   YX=     5.8129   ZX=   -32.1527
   XY=    15.3051   YY=    76.4928   ZY=    72.9531
   XZ=   -38.3048   YZ=    85.8824   ZZ=    92.1459
   Eigenvalues:   -55.2559    20.9089   165.9582
     32  C    Isotropic =    28.9424   Anisotropy =   198.2399
   XX=   -19.0404   YX=    -7.5833   ZX=   -22.3263
   XY=   -10.0890   YY=    29.7385   ZY=   103.8269
   XZ=   -19.1155   YZ=   102.1165   ZZ=    76.1290
   Eigenvalues:   -53.7418   -20.5334   161.1023
     33  C    Isotropic =    54.4741   Anisotropy =   175.9750
   XX=    -8.3900   YX=   -46.1998   ZX=     8.2594
   XY=   -38.0957   YY=    59.4955   ZY=    80.8308
   XZ=     0.7419   YZ=    77.2332   ZZ=   112.3168
   Eigenvalues:   -41.3568    32.9884   171.7908
     34  C    Isotropic =    30.3492   Anisotropy =   196.1012
   XX=   -45.8022   YX=    -2.8246   ZX=   -28.6566
   XY=    -6.3671   YY=    47.3170   ZY=    85.4504
   XZ=   -27.7391   YZ=    88.7492   ZZ=    89.5328
   Eigenvalues:   -54.4828   -15.5529   161.0833
     35  C    Isotropic =    51.1253   Anisotropy =   183.4110
   XX=    28.7058   YX=    -0.9415   ZX=   -19.7051
   XY=     5.1009   YY=    34.9507   ZY=   104.8330
   XZ=   -15.8420   YZ=   108.0988   ZZ=    89.7195
   Eigenvalues:   -49.6209    29.5976   173.3994
     36  C    Isotropic =    52.6040   Anisotropy =   170.5527
   XX=   116.5036   YX=    25.1504   ZX=   -72.6022
   XY=    26.8295   YY=   -29.3128   ZY=    16.3186
   XZ=   -63.4667   YZ=     9.9950   ZZ=    70.6213
   Eigenvalues:   -40.8564    32.3627   166.3058
     37  C    Isotropic =    43.9388   Anisotropy =   181.7039
   XX=    92.8917   YX=    10.1827   ZX=  -106.6491
   XY=     9.1184   YY=    20.7414   ZY=     1.9277
   XZ=   -99.0692   YZ=    12.0537   ZZ=    18.1832
   Eigenvalues:   -55.5586    22.3002   165.0747
     38  C    Isotropic =    27.9583   Anisotropy =   203.1832
   XX=    99.7237   YX=    -4.9873   ZX=   -90.5783
   XY=    -4.4518   YY=   -44.6150   ZY=   -16.0632
   XZ=   -94.1901   YZ=   -20.7177   ZZ=    28.7662
   Eigenvalues:   -58.2921   -21.2468   163.4138
     39  C    Isotropic =    50.3374   Anisotropy =   187.7430
   XX=   122.3718   YX=    25.6365   ZX=   -73.7361
   XY=    24.2052   YY=   -40.1408   ZY=    13.5154
   XZ=   -75.2614   YZ=    13.5193   ZZ=    68.7810
   Eigenvalues:   -50.4851    25.9978   175.4993
     40  C    Isotropic =    30.5920   Anisotropy =   200.9852
   XX=    95.8424   YX=    14.0630   ZX=  -100.0112
   XY=    13.2491   YY=   -16.3026   ZY=    -4.0693
   XZ=  -102.8447   YZ=     0.6225   ZZ=    12.2361
   Eigenvalues:   -56.6244   -16.1818   164.5821
     41  C    Isotropic =    51.1461   Anisotropy =   184.4257
   XX=   127.4426   YX=   -14.5378   ZX=   -75.0779
   XY=    -3.6697   YY=   -16.6094   ZY=   -41.0852
   XZ=   -78.9990   YZ=   -45.8516   ZZ=    42.6052
   Eigenvalues:   -52.8985    32.2403   174.0966
     42  C    Isotropic =   107.4988   Anisotropy =    78.0624
   XX=    79.9052   YX=     5.0967   ZX=    23.5742
   XY=     0.9905   YY=    92.1484   ZY=   -16.9924
   XZ=    21.2207   YZ=   -12.1617   ZZ=   150.4427
   Eigenvalues:    70.8591    92.0968   159.5404
     43  H    Isotropic =    22.3185   Anisotropy =    16.8573
   XX=    21.0020   YX=     7.6993   ZX=     4.5770
   XY=     6.8050   YY=    24.6989   ZY=     3.1844
   XZ=     5.1178   YZ=     5.1719   ZZ=    21.2546
   Eigenvalues:    14.9412    18.4576    33.5567
     44  H    Isotropic =    23.6583   Anisotropy =    14.5409
   XX=    23.6617   YX=    -3.2555   ZX=    -4.5488
   XY=    -3.2806   YY=    22.3386   ZY=     6.0056
   XZ=    -4.6530   YZ=     6.5607   ZZ=    24.9745
   Eigenvalues:    17.2037    20.4190    33.3522
     45  H    Isotropic =    23.9797   Anisotropy =    17.5683
   XX=    35.0881   YX=     5.1013   ZX=     0.5527
   XY=     1.0124   YY=    18.1530   ZY=     2.5165
   XZ=     0.1466   YZ=     5.7191   ZZ=    18.6980
   Eigenvalues:    14.1034    22.1438    35.6919
     46  H    Isotropic =    23.9873   Anisotropy =    14.5506
   XX=    25.6675   YX=    -4.9851   ZX=    -2.5022
   XY=    -3.8066   YY=    19.6545   ZY=     4.1886
   XZ=    -3.8660   YZ=     8.7196   ZZ=    26.6400
   Eigenvalues:    15.2822    22.9921    33.6878
     47  H    Isotropic =    23.8462   Anisotropy =    13.9799
   XX=    22.6324   YX=     2.2379   ZX=    -5.8105
   XY=     2.4281   YY=    23.3053   ZY=    -4.7657
   XZ=    -5.5694   YZ=    -5.6710   ZZ=    25.6009
   Eigenvalues:    17.6612    20.7112    33.1661
     48  H    Isotropic =    22.1205   Anisotropy =    14.9424
   XX=    17.2607   YX=    -0.1336   ZX=     1.5793
   XY=    -0.3544   YY=    31.8920   ZY=     1.8511
   XZ=    -0.9273   YZ=     1.4864   ZZ=    17.2089
   Eigenvalues:    16.7692    17.5102    32.0821
     49  H    Isotropic =    24.5974   Anisotropy =    11.5450
   XX=    22.7947   YX=     0.3772   ZX=     2.2264
   XY=    -4.6612   YY=    27.2205   ZY=    -5.5046
   XZ=     3.7843   YZ=    -4.9270   ZZ=    23.7769
   Eigenvalues:    19.4081    22.0900    32.2940
     50  H    Isotropic =    24.4501   Anisotropy =     4.1701
   XX=    24.4163   YX=     0.4030   ZX=     1.5217
   XY=    -0.5255   YY=    23.6142   ZY=    -1.5585
   XZ=     1.5051   YZ=    -2.3572   ZZ=    25.3197
   Eigenvalues:    22.0311    24.0890    27.2301
     51  H    Isotropic =    24.7171   Anisotropy =     4.9632
   XX=    24.2605   YX=     3.1543   ZX=    -0.4167
   XY=     2.2720   YY=    25.0783   ZY=     1.5740
   XZ=     1.3087   YZ=     1.3258   ZZ=    24.8126
   Eigenvalues:    21.7878    24.3376    28.0259
     52  H    Isotropic =    24.8512   Anisotropy =     4.5310
   XX=    24.9977   YX=     2.1737   ZX=     1.2904
   XY=     2.6216   YY=    25.7860   ZY=    -0.8919
   XZ=    -0.7475   YZ=    -0.7433   ZZ=    23.7699
   Eigenvalues:    22.5164    24.1654    27.8718
     53  H    Isotropic =    24.5430   Anisotropy =     4.6094
   XX=    24.3570   YX=     0.8886   ZX=    -1.2818
   XY=    -0.0540   YY=    22.6402   ZY=     1.1598
   XZ=    -1.5889   YZ=     1.8402   ZZ=    26.6317
   Eigenvalues:    21.8185    24.1945    27.6159
     54  H    Isotropic =    24.9663   Anisotropy =    11.6157
   XX=    22.9123   YX=     0.4468   ZX=    -1.4361
   XY=    -3.8719   YY=    25.0855   ZY=     6.4256
   XZ=    -3.9832   YZ=     4.8032   ZZ=    26.9009
   Eigenvalues:    20.1947    21.9940    32.7101
     55  H    Isotropic =    22.4409   Anisotropy =    16.9798
   XX=    20.1449   YX=     7.8042   ZX=    -2.8828
   XY=     6.7511   YY=    27.0172   ZY=    -3.7187
   XZ=    -2.6260   YZ=    -5.5386   ZZ=    20.1606
   Eigenvalues:    15.5249    18.0370    33.7608
     56  H    Isotropic =    23.6765   Anisotropy =    14.5355
   XX=    25.8492   YX=    -4.0098   ZX=     4.0826
   XY=    -5.1483   YY=    23.0105   ZY=    -5.1112
   XZ=     4.8125   YZ=    -5.5729   ZZ=    22.1699
   Eigenvalues:    17.2265    20.4362    33.3669
     57  H    Isotropic =    23.7765   Anisotropy =    17.5514
   XX=    34.2581   YX=     6.3196   ZX=    -1.0058
   XY=     1.8304   YY=    19.9261   ZY=    -1.6805
   XZ=    -0.5601   YZ=    -4.8222   ZZ=    17.1452
   Eigenvalues:    14.8537    20.9984    35.4774
     58  H    Isotropic =    22.4223   Anisotropy =    14.8231
   XX=    17.1786   YX=    -0.2226   ZX=    -1.1355
   XY=    -0.3049   YY=    32.2524   ZY=     0.7757
   XZ=     1.3174   YZ=     0.8825   ZZ=    17.8358
   Eigenvalues:    17.1564    17.8061    32.3044
     59  H    Isotropic =    23.6303   Anisotropy =    13.7099
   XX=    23.4660   YX=     1.5866   ZX=     5.7848
   XY=     2.1484   YY=    20.7964   ZY=     4.1721
   XZ=     5.7236   YZ=     4.4655   ZZ=    26.6284
   Eigenvalues:    18.0022    20.1184    32.7702
     60  H    Isotropic =    24.1171   Anisotropy =    15.0366
   XX=    26.3368   YX=    -5.7637   ZX=     1.8493
   XY=    -4.3802   YY=    22.0985   ZY=    -4.6487
   XZ=     4.1568   YZ=    -9.2621   ZZ=    23.9160
   Eigenvalues:    15.6012    22.6086    34.1415
     61  H    Isotropic =    27.7395   Anisotropy =     7.5622
   XX=    23.8064   YX=    -0.4250   ZX=     2.9579
   XY=     1.1671   YY=    27.7451   ZY=    -0.7662
   XZ=     3.2895   YZ=     1.2408   ZZ=    31.6670
   Eigenvalues:    22.7016    27.7360    32.7810
     62  Cl   Isotropic =   850.3879   Anisotropy =   501.8783
   XX=   723.6356   YX=   101.5376   ZX=   147.8584
   XY=   204.6717   YY=  1131.9295   ZY=   -61.9032
   XZ=   137.3128   YZ=   -95.8034   ZZ=   695.5986
   Eigenvalues:   522.8619   843.3283  1184.9734
     63  Cl   Isotropic =   850.6703   Anisotropy =   519.8375
   XX=   712.0858   YX=   119.2723   ZX=  -138.0625
   XY=   234.0094   YY=  1110.7159   ZY=   128.9661
   XZ=  -107.0136   YZ=   157.2625   ZZ=   729.2091
   Eigenvalues:   511.8213   842.9609  1197.2286
     64  C    Isotropic =   153.0793   Anisotropy =    25.6592
   XX=   137.9616   YX=   -13.7313   ZX=    -3.3054
   XY=    -6.2017   YY=   163.6476   ZY=    -9.6131
   XZ=    -0.9196   YZ=    -4.7946   ZZ=   157.6285
   Eigenvalues:   133.7239   155.3284   170.1854
     65  C    Isotropic =   112.9853   Anisotropy =    61.0435
   XX=    94.7324   YX=    -8.6739   ZX=   -15.9087
   XY=    -8.9106   YY=    93.2158   ZY=    -9.1013
   XZ=    -6.7178   YZ=    -5.1711   ZZ=   151.0079
   Eigenvalues:    82.6888   102.5862   153.6810
     66  H    Isotropic =    27.0825   Anisotropy =     7.2217
   XX=    22.8316   YX=    -2.5458   ZX=    -1.9192
   XY=    -1.8131   YY=    28.7959   ZY=    -1.3770
   XZ=    -1.0530   YZ=    -3.9157   ZZ=    29.6201
   Eigenvalues:    21.4660    27.8847    31.8970
     67  H    Isotropic =    29.2837   Anisotropy =     3.9431
   XX=    29.6874   YX=    -0.1614   ZX=    -2.8596
   XY=     1.2668   YY=    28.1600   ZY=     0.9140
   XZ=    -1.2501   YZ=    -0.2906   ZZ=    30.0038
   Eigenvalues:    27.3255    28.6133    31.9125
     68  H    Isotropic =    30.2550   Anisotropy =    12.6486
   XX=    25.5771   YX=    -2.0085   ZX=    -2.8847
   XY=    -0.6953   YY=    27.6014   ZY=    -2.7480
   XZ=    -2.7804   YZ=    -2.4625   ZZ=    37.5866
   Eigenvalues:    23.8829    28.1947    38.6874
     69  C    Isotropic =   151.9045   Anisotropy =    43.3457
   XX=   155.2946   YX=   -18.9185   ZX=    11.5298
   XY=   -21.7681   YY=   161.6301   ZY=    -1.1979
   XZ=    10.7687   YZ=    -1.9396   ZZ=   138.7887
   Eigenvalues:   130.1492   144.7626   180.8016
     70  C    Isotropic =   146.1335   Anisotropy =    14.3081
   XX=   139.6828   YX=     0.7535   ZX=     1.1898
   XY=     3.4129   YY=   149.0728   ZY=     4.1711
   XZ=     5.5773   YZ=     6.5420   ZZ=   149.6450
   Eigenvalues:   138.6198   144.1085   155.6722
     71  C    Isotropic =   151.4925   Anisotropy =    40.9625
   XX=   141.9465   YX=    10.7303   ZX=    -6.8013
   XY=    10.3073   YY=   145.1234   ZY=   -15.9624
   XZ=   -10.4003   YZ=   -13.0645   ZZ=   167.4074
   Eigenvalues:   132.5055   143.1711   178.8008
     72  C    Isotropic =   156.0421   Anisotropy =    36.9019
   XX=   174.0104   YX=     9.6928   ZX=     3.0116
   XY=    16.3689   YY=   149.4722   ZY=    -0.3438
   XZ=     8.6976   YZ=     3.5536   ZZ=   144.6438
   Eigenvalues:   142.8987   144.5843   180.6434
     73  H    Isotropic =    30.2026   Anisotropy =     6.6938
   XX=    29.0165   YX=    -0.5691   ZX=     2.1426
   XY=    -0.1791   YY=    32.8697   ZY=    -1.9835
   XZ=     1.7882   YZ=    -3.8596   ZZ=    28.7217
   Eigenvalues:    26.2511    29.6917    34.6651
     74  H    Isotropic =    30.1173   Anisotropy =     8.7122
   XX=    29.0494   YX=    -1.9341   ZX=     0.2084
   XY=    -1.8696   YY=    32.7807   ZY=     5.3415
   XZ=     1.1710   YZ=     3.8052   ZZ=    28.5219
   Eigenvalues:    24.9556    29.4709    35.9255
     75  H    Isotropic =    29.1834   Anisotropy =    11.1377
   XX=    34.6411   YX=     1.1352   ZX=     3.9986
   XY=    -1.3173   YY=    28.3887   ZY=     2.4701
   XZ=     5.6008   YZ=     1.5030   ZZ=    24.5202
   Eigenvalues:    22.0468    28.8948    36.6085
     76  H    Isotropic =    30.2683   Anisotropy =     9.5523
   XX=    27.6068   YX=     0.8058   ZX=    -0.5924
   XY=     1.1218   YY=    27.2550   ZY=     1.2014
   XZ=    -0.9408   YZ=     3.7914   ZZ=    35.9431
   Eigenvalues:    25.8528    28.3156    36.6365
     77  H    Isotropic =    29.0988   Anisotropy =    11.3134
   XX=    30.5909   YX=     6.1666   ZX=     2.7037
   XY=     7.3266   YY=    28.0953   ZY=     0.4601
   XZ=    -0.0031   YZ=     2.1509   ZZ=    28.6103
   Eigenvalues:    22.4787    28.1767    36.6411
     78  H    Isotropic =    30.4300   Anisotropy =     7.0999
   XX=    29.0369   YX=    -0.0428   ZX=     2.3128
   XY=    -0.9571   YY=    30.3307   ZY=    -4.2894
   XZ=     2.6025   YZ=    -1.8838   ZZ=    31.9224
   Eigenvalues:    27.0132    29.1136    35.1633
     79  H    Isotropic =    29.7655   Anisotropy =     8.9566
   XX=    34.4316   YX=    -2.2366   ZX=     2.6138
   XY=    -1.6238   YY=    26.6560   ZY=     0.9057
   XZ=     3.0867   YZ=     1.8314   ZZ=    28.2089
   Eigenvalues:    24.8014    28.7585    35.7365
     80  H    Isotropic =    30.1823   Anisotropy =     9.8792
   XX=    29.6654   YX=     2.5493   ZX=     2.3119
   XY=     2.0683   YY=    30.1964   ZY=     4.9099
   XZ=     1.8117   YZ=     5.0511   ZZ=    30.6851
   Eigenvalues:    25.4352    28.3433    36.7684
     81  H    Isotropic =    29.9150   Anisotropy =     8.6001
   XX=    31.6770   YX=     3.8148   ZX=    -2.7414
   XY=     4.2348   YY=    30.3759   ZY=    -0.0886
   XZ=    -2.1443   YZ=    -0.5108   ZZ=    27.6921
   Eigenvalues:    25.7323    28.3642    35.6484
     82  C    Isotropic =   151.9166   Anisotropy =    45.2930
   XX=   154.8070   YX=   -12.3101   ZX=    18.0421
   XY=   -17.3942   YY=   141.5926   ZY=    -9.2448
   XZ=    17.9621   YZ=    -8.7677   ZZ=   159.3504
   Eigenvalues:   131.6174   142.0206   182.1120
     83  C    Isotropic =   146.1968   Anisotropy =    13.0904
   XX=   150.7927   YX=    -4.9639   ZX=    -7.0826
   XY=    -2.8262   YY=   143.4822   ZY=     1.6061
   XZ=    -2.8145   YZ=     1.1226   ZZ=   144.3156
   Eigenvalues:   141.1881   142.4785   154.9238
     84  C    Isotropic =   154.9480   Anisotropy =    35.8866
   XX=   146.1990   YX=     2.2691   ZX=     2.5925
   XY=     6.2870   YY=   157.2103   ZY=    16.8643
   XZ=    10.4763   YZ=    18.3242   ZZ=   161.4346
   Eigenvalues:   141.2131   144.7585   178.8724
     85  C    Isotropic =   152.0572   Anisotropy =    44.4436
   XX=   147.9199   YX=    17.0306   ZX=    -9.6071
   XY=    16.1453   YY=   166.8897   ZY=    -9.2568
   XZ=   -13.2584   YZ=   -10.6442   ZZ=   141.3619
   Eigenvalues:   132.5286   141.9567   181.6863
     86  H    Isotropic =    29.9028   Anisotropy =     8.0170
   XX=    30.2365   YX=     0.2416   ZX=     3.0334
   XY=    -2.7164   YY=    27.2188   ZY=     2.2588
   XZ=     3.6455   YZ=     4.2644   ZZ=    32.2530
   Eigenvalues:    24.3467    30.1142    35.2474
     87  H    Isotropic =    30.4364   Anisotropy =    11.0135
   XX=    36.5451   YX=    -2.5008   ZX=     0.5613
   XY=    -4.1864   YY=    27.4600   ZY=     0.7232
   XZ=     2.2788   YZ=     0.3099   ZZ=    27.3041
   Eigenvalues:    25.7533    27.7772    37.7788
     88  H    Isotropic =    30.5014   Anisotropy =     6.7166
   XX=    30.0415   YX=     0.0107   ZX=     1.6811
   XY=    -1.4867   YY=    31.9086   ZY=    -2.6950
   XZ=     2.4749   YZ=    -4.0243   ZZ=    29.5541
   Eigenvalues:    26.6325    29.8925    34.9791
     89  H    Isotropic =    30.1321   Anisotropy =     9.4840
   XX=    32.5411   YX=     1.7758   ZX=     2.8350
   XY=     1.8331   YY=    25.3238   ZY=     1.9149
   XZ=     3.2763   YZ=     3.2261   ZZ=    32.5314
   Eigenvalues:    24.4098    29.5317    36.4548
     90  H    Isotropic =    30.2852   Anisotropy =     9.5178
   XX=    32.7400   YX=     3.2592   ZX=     0.6532
   XY=     2.4943   YY=    32.7027   ZY=     2.8058
   XZ=     2.5576   YZ=     3.5389   ZZ=    25.4131
   Eigenvalues:    24.1929    30.0323    36.6304
     91  H    Isotropic =    30.4914   Anisotropy =     8.3931
   XX=    34.1892   YX=    -0.8101   ZX=    -2.2602
   XY=    -1.7268   YY=    28.0516   ZY=     3.6442
   XZ=    -2.3897   YZ=     3.9779   ZZ=    29.2333
   Eigenvalues:    24.7506    30.6367    36.0868
     92  H    Isotropic =    30.4587   Anisotropy =     6.3342
   XX=    29.5734   YX=     1.1053   ZX=     0.8421
   XY=     1.2344   YY=    31.0512   ZY=    -4.6044
   XZ=    -0.8989   YZ=    -2.6528   ZZ=    30.7514
   Eigenvalues:    27.0161    29.6785    34.6815
     93  H    Isotropic =    30.3380   Anisotropy =    10.7541
   XX=    35.2608   YX=     1.9094   ZX=    -3.1903
   XY=     3.2359   YY=    27.7456   ZY=    -0.5474
   XZ=    -4.4875   YZ=     0.3867   ZZ=    28.0075
   Eigenvalues:    25.7509    27.7556    37.5073
     94  H    Isotropic =    29.7605   Anisotropy =     7.8356
   XX=    29.1111   YX=     2.9715   ZX=    -0.0416
   XY=     3.7346   YY=    31.9685   ZY=     4.2258
   XZ=    -2.6457   YZ=     2.6496   ZZ=    28.2019
   Eigenvalues:    24.2741    30.0232    34.9843
     95  C    Isotropic =   151.8209   Anisotropy =    45.6246
   XX=   168.5050   YX=   -22.8408   ZX=    -0.7274
   XY=   -19.1608   YY=   149.2003   ZY=    -6.4261
   XZ=     1.7582   YZ=    -4.7933   ZZ=   137.7574
   Eigenvalues:   132.0959   141.1296   182.2373
     96  C    Isotropic =   146.3890   Anisotropy =    12.0037
   XX=   148.9052   YX=     0.1364   ZX=    -4.6998
   XY=    -1.6181   YY=   139.7993   ZY=     0.6187
   XZ=    -4.5626   YZ=    -2.9322   ZZ=   150.4626
   Eigenvalues:   139.4757   145.3000   154.3915
     97  C    Isotropic =   153.1378   Anisotropy =    41.5888
   XX=   149.7848   YX=    14.3626   ZX=    13.8647
   XY=    14.3101   YY=   146.2001   ZY=    10.4696
   XZ=    12.4271   YZ=    13.9038   ZZ=   163.4284
   Eigenvalues:   133.5344   145.0153   180.8636
     98  C    Isotropic =   156.9869   Anisotropy =    31.7714
   XX=   148.4746   YX=     9.5046   ZX=    -2.1077
   XY=     5.7631   YY=   174.0231   ZY=    -4.5700
   XZ=    -2.2682   YZ=   -10.3633   ZZ=   148.4629
   Eigenvalues:   146.2746   146.5183   178.1678
     99  H    Isotropic =    30.3415   Anisotropy =     8.3215
   XX=    34.7241   YX=    -0.4456   ZX=     1.8793
   XY=    -0.8756   YY=    28.4472   ZY=     1.7203
   XZ=     4.2359   YZ=     2.3122   ZZ=    27.8530
   Eigenvalues:    25.2736    29.8616    35.8891
    100  H    Isotropic =    30.3327   Anisotropy =    11.1657
   XX=    33.0359   YX=    -3.3732   ZX=    -5.8008
   XY=    -3.0930   YY=    28.5315   ZY=     2.3152
   XZ=    -3.4682   YZ=     1.7286   ZZ=    29.4308
   Eigenvalues:    26.2317    26.9900    37.7766
    101  H    Isotropic =    29.8420   Anisotropy =     7.9498
   XX=    29.5546   YX=    -3.9765   ZX=    -2.6428
   XY=    -0.8852   YY=    33.8242   ZY=    -1.9168
   XZ=    -1.1160   YZ=    -2.6674   ZZ=    26.1471
   Eigenvalues:    24.2894    30.0947    35.1418
    102  H    Isotropic =    30.0508   Anisotropy =     7.2798
   XX=    32.5706   YX=    -4.0853   ZX=     2.5430
   XY=    -2.7569   YY=    28.8924   ZY=     1.7223
   XZ=     2.1247   YZ=     1.1898   ZZ=    28.6894
   Eigenvalues:    25.0987    30.1497    34.9040
    103  H    Isotropic =    29.8855   Anisotropy =     6.8356
   XX=    27.2729   YX=     3.4296   ZX=    -0.4446
   XY=     2.0856   YY=    33.2616   ZY=     0.0875
   XZ=    -0.8171   YZ=     1.9900   ZZ=    29.1221
   Eigenvalues:    25.9013    29.3127    34.4426
[...]
  2870. BD*(   1) C  19 - C  20          0.01538     0.53829   
  2871. BD*(   2) C  19 - C  20          0.32600     0.02140  2869(v),2876(v),809(g)
                                                    2840(r),782(g)
  2872. BD*(   1) C  19 - H  49          0.01616     0.41479   
  2873. BD*(   1) C  20 - C  21          0.01301     0.53354   
  2874. BD*(   1) C  20 - H  50          0.01364     0.39406   
  2875. BD*(   1) C  21 - C  22          0.03164     0.51038   
  2876. BD*(   2) C  21 - C  22          0.36105     0.01422  2869(v),2871(v),835(g)
                                                    2836(v)
  2877. BD*(   1) C  21 - H  51          0.01416     0.38713   
  2878. BD*(   1) C  22 - C  23          0.04140     0.49332   
  2879. BD*(   1) C  23 - C  24          0.02964     0.42080   
  2880. BD*(   1) C  24 - C  25          0.04400     0.49785   
  2881. BD*(   2) C  24 - C  25          0.37276     0.02095  2890(v),2885(v),2869(v)
                                                    2855(r),2878(v),2868(v)
                                                    2838(v),939(g)
  2882. BD*(   1) C  24 - C  29          0.03265     0.50897   
  2883. BD*(   1) C  25 - C  26          0.03216     0.51190   
  2884. BD*(   1) C  26 - C  27          0.01333     0.53631   
  2885. BD*(   2) C  26 - C  27          0.33989     0.01753  2890(v),2881(v),991(g)
                                                    965(g)
  2886. BD*(   1) C  26 - H  52          0.01330     0.38862   
  2887. BD*(   1) C  27 - C  28          0.01548     0.53798   
  2888. BD*(   1) C  27 - H  53          0.01370     0.39512   
  2889. BD*(   1) C  28 - C  29          0.02225     0.51662   
  2890. BD*(   2) C  28 - C  29          0.37196     0.01823  2885(v),2881(v),1016(g)
                                                    2834(v),2907(r)
  2891. BD*(   1) C  28 - H  54          0.01587     0.41797   
  2892. BD*(   1) C  30 - C  31          0.02349     0.54236   
  2893. BD*(   1) C  30 - C  35          0.02639     0.55588   
  2894. BD*(   2) C  30 - C  35          0.36313     0.03421  2901(v),2896(v),2832(v)
                                                    1198(g),1070(g)
  2895. BD*(   1) C  31 - C  32          0.02623     0.56918   
  2896. BD*(   2) C  31 - C  32          0.30230     0.05449  2901(v),2894(v),1094(g)
                                                    2981(v),2980(v),1121(g)
  2897. BD*(   1) C  31 - H  55          0.01757     0.45590   
  2898. BD*(   1) C  32 - C  33          0.02276     0.54412   
  2899. BD*(   1) C  32 - C 122          0.03994     0.38625   
  2900. BD*(   1) C  33 - C  34          0.02289     0.55951   
  2901. BD*(   2) C  33 - C  34          0.31555     0.04799  2896(v),2894(v),1146(g)
                                                    2988(v),2993(v)
  2902. BD*(   1) C  33 - H  56          0.01796     0.42036   
  2903. BD*(   1) C  34 - C  35          0.02406     0.54239   
  2904. BD*(   1) C  34 - C 135          0.03969     0.37859   
  2905. BD*(   1) C  35 - H  57          0.01974     0.42186   
  2906. BD*(   1) C  36 - C  37          0.02373     0.54027   
  2907. BD*(   2) C  36 - C  37          0.36957     0.03243  2912(v),2917(v),1250(g)
                                                    2869(r),2833(v),2832(v)
                                                    2890(r)
  2908. BD*(   1) C  36 - C  41          0.02761     0.53245   
  2909. BD*(   1) C  37 - C  38          0.02584     0.55440   
  2910. BD*(   1) C  37 - H  58          0.01830     0.44830   
  2911. BD*(   1) C  38 - C  39          0.02263     0.54310   
  2912. BD*(   2) C  38 - C  39          0.32659     0.04141  2917(v),2907(v),1302(g)
                                                    3005(v),3004(v),1277(g)
  2913. BD*(   1) C  38 - C 148          0.03987     0.37979   
  2914. BD*(   1) C  39 - C  40          0.02286     0.53986   
  2915. BD*(   1) C  39 - H  59          0.01827     0.40818   
  2916. BD*(   1) C  40 - C  41          0.02575     0.54469   
  2917. BD*(   2) C  40 - C  41          0.33208     0.04109  2912(v),2907(v),1354(g)
                                                    3012(v),3016(v),1329(g)
  2918. BD*(   1) C  40 - C 161          0.04001     0.37415   
  2919. BD*(   1) C  41 - H  60          0.01750     0.42013   
  2920. BD*(   1) C  42 - H  61          0.02237     0.32294   
  2921. BD*(   1) C  42 - C  64          0.02442     0.32158   
  2922. BD*(   1) C  42 - H 174          0.02162     0.32791   
  2923. BD*(   1) C  64 - C  65          0.02733     0.32192   
  2924. BD*(   1) C  64 - H  67          0.01562     0.33528   
  2925. BD*(   1) C  64 - H  68          0.00904     0.32749   
  2926. BD*(   1) C  65 - H  66          0.02677     0.32079   
  2927. BD*(   1) C  65 - H 173          0.01871     0.32798   
  2928. BD*(   1) C  69 - C  70          0.02404     0.33947   
  2929. BD*(   1) C  69 - H  73          0.00698     0.38490   
  2930. BD*(   1) C  69 - H  74          0.00756     0.38603   
  2931. BD*(   1) C  69 - H  75          0.00703     0.39744   
  2932. BD*(   1) C  70 - C  71          0.02359     0.34393   
  2933. BD*(   1) C  70 - C  72          0.02099     0.34751   
  2934. BD*(   1) C  71 - H  76          0.00738     0.39197   
  2935. BD*(   1) C  71 - H  77          0.00660     0.41598   
  2936. BD*(   1) C  71 - H  78          0.00629     0.39879   
  2937. BD*(   1) C  72 - H  79          0.00743     0.38470   
  2938. BD*(   1) C  72 - H  80          0.00700     0.38932   
  2939. BD*(   1) C  72 - H  81          0.00758     0.38272   
  2940. BD*(   1) C  82 - C  83          0.02442     0.33183   
  2941. BD*(   1) C  82 - H  86          0.00665     0.38430   
  2942. BD*(   1) C  82 - H  87          0.00769     0.37785   
  2943. BD*(   1) C  82 - H  88          0.00646     0.38573   
  2944. BD*(   1) C  83 - C  84          0.02105     0.33869   
  2945. BD*(   1) C  83 - C  85          0.02431     0.33064   
  2946. BD*(   1) C  84 - H  89          0.00781     0.37741   
  2947. BD*(   1) C  84 - H  90          0.00733     0.38062   
  2948. BD*(   1) C  84 - H  91          0.00702     0.38229   
  2949. BD*(   1) C  85 - H  92          0.00674     0.37980   
  2950. BD*(   1) C  85 - H  93          0.00772     0.37639   
  2951. BD*(   1) C  85 - H  94          0.00681     0.38245   
  2952. BD*(   1) C  95 - C  96          0.02416     0.32723   
  2953. BD*(   1) C  95 - H  99          0.00665     0.37859   
  2954. BD*(   1) C  95 - H 100          0.00765     0.37263   
  2955. BD*(   1) C  95 - H 101          0.00684     0.37844   
  2956. BD*(   1) C  96 - C  97          0.02500     0.32475   
  2957. BD*(   1) C  96 - C  98          0.02056     0.33543   
  2958. BD*(   1) C  97 - H 102          0.00739     0.37994   
  2959. BD*(   1) C  97 - H 103          0.00702     0.37620   
  2960. BD*(   1) C  97 - H 104          0.00794     0.37062   
  2961. BD*(   1) C  98 - H 105          0.00801     0.38558   
  2962. BD*(   1) C  98 - H 106          0.00705     0.37715   
  2963. BD*(   1) C  98 - H 107          0.00791     0.37767   
  2964. BD*(   1) C 108 - C 109          0.02452     0.33144   
  2965. BD*(   1) C 108 - H 112          0.00706     0.39215   
  2966. BD*(   1) C 108 - H 113          0.00785     0.38017   
  2967. BD*(   1) C 108 - H 114          0.00730     0.38506   
  2968. BD*(   1) C 109 - C 110          0.02095     0.34128   
  2969. BD*(   1) C 109 - C 111          0.02341     0.33647   
  2970. BD*(   1) C 110 - H 115          0.00733     0.37834   
  2971. BD*(   1) C 110 - H 116          0.00755     0.37611   
  2972. BD*(   1) C 110 - H 117          0.00697     0.38315   
  2973. BD*(   1) C 111 - H 118          0.00646     0.38827   
  2974. BD*(   1) C 111 - H 119          0.00724     0.38375   
  2975. BD*(   1) C 111 - H 120          0.00641     0.40152   
  2976. BD*(   1) C 121 - C 122          0.02004     0.35176   
  2977. BD*(   1) C 121 - H 125          0.00776     0.39518   
  2978. BD*(   1) C 121 - H 126          0.00676     0.39475   
  2979. BD*(   1) C 121 - H 127          0.00675     0.40703   
  2980. BD*(   1) C 122 - C 123          0.02407     0.33989   
  2981. BD*(   1) C 122 - C 124          0.02462     0.33792   
  2982. BD*(   1) C 123 - H 128          0.00694     0.38993   
  2983. BD*(   1) C 123 - H 129          0.00628     0.39792   
  2984. BD*(   1) C 123 - H 130          0.00745     0.38686   
  2985. BD*(   1) C 124 - H 131          0.00701     0.38592   
  2986. BD*(   1) C 124 - H 132          0.00777     0.38307   
  2987. BD*(   1) C 124 - H 133          0.00684     0.38525   
  2988. BD*(   1) C 134 - C 135          0.02463     0.32865   
  2989. BD*(   1) C 134 - H 138          0.00731     0.38136   
  2990. BD*(   1) C 134 - H 139          0.00792     0.37540   
  2991. BD*(   1) C 134 - H 140          0.00679     0.37955   
  2992. BD*(   1) C 135 - C 136          0.02061     0.34000   
  2993. BD*(   1) C 135 - C 137          0.02406     0.33131   
  2994. BD*(   1) C 136 - H 141          0.00718     0.37979   
  2995. BD*(   1) C 136 - H 142          0.00737     0.37766   
  2996. BD*(   1) C 136 - H 143          0.00702     0.38180   
  2997. BD*(   1) C 137 - H 144          0.00648     0.38607   
  2998. BD*(   1) C 137 - H 145          0.00753     0.37760   
  2999. BD*(   1) C 137 - H 146          0.00672     0.38565   
  3000. BD*(   1) C 147 - C 148          0.02045     0.34490   
  3001. BD*(   1) C 147 - H 151          0.00694     0.39558   
  3002. BD*(   1) C 147 - H 152          0.00683     0.38837   
  3003. BD*(   1) C 147 - H 153          0.00723     0.38731   
  3004. BD*(   1) C 148 - C 149          0.02419     0.33053   
  3005. BD*(   1) C 148 - C 150          0.02447     0.33332   
  3006. BD*(   1) C 149 - H 154          0.00715     0.37899   
  3007. BD*(   1) C 149 - H 155          0.00728     0.38351   
  3008. BD*(   1) C 149 - H 156          0.00767     0.37770   
  3009. BD*(   1) C 150 - H 157          0.00676     0.38113   
  3010. BD*(   1) C 150 - H 158          0.00758     0.37902   
  3011. BD*(   1) C 150 - H 159          0.00642     0.38708   
  3012. BD*(   1) C 160 - C 161          0.02427     0.32545   
  3013. BD*(   1) C 160 - H 164          0.00665     0.37595   
  3014. BD*(   1) C 160 - H 165          0.00771     0.37130   
  3015. BD*(   1) C 160 - H 166          0.00674     0.37654   
  3016. BD*(   1) C 161 - C 162          0.02478     0.32326   
  3017. BD*(   1) C 161 - C 163          0.02056     0.33383   
  3018. BD*(   1) C 162 - H 167          0.00724     0.37747   
  3019. BD*(   1) C 162 - H 168          0.00705     0.37431   
  3020. BD*(   1) C 162 - H 169          0.00788     0.36941   
  3021. BD*(   1) C 163 - H 170          0.00766     0.38252   
  3022. BD*(   1) C 163 - H 171          0.00703     0.37610   
  3023. BD*(   1) C 163 - H 172          0.00793     0.37493   
       -------------------------------
              Total Lewis  636.59121  ( 98.2394%)
        Valence non-Lewis   10.37117  (  1.6005%)
        Rydberg non-Lewis    1.03761  (  0.1601%)
       -------------------------------
            Total unit  1  648.00000  (100.0000%)
           Charge unit  1    0.00000
 1\1\GINC-NOTCH132\SP\RPBE1PBE\Gen\C71H96Cl2O2P2Pd1\U1010977\02-Nov-202
 1\0\\# PBE1PBE gen pseudo=read int=(grid=ultrafine) empiricaldispersio
 n=GD3BJ pop=nbo guess=read geom=check\\title\\0,1\Pd,0,-3.9679108586,-
 1.4597414648,1.0273805261\P,0,-5.0849428809,-0.1513790931,2.5299184829
 \P,0,-2.2581216576,0.042269961,0.8072868501\O,0,-1.4625594193,3.361322
 7966,3.912389141\O,0,-4.0891408044,4.3366240678,3.1800603816\C,0,-6.19
 92568967,-1.1164637455,3.6180218301\C,0,-5.8464983385,-2.4366533459,3.
 9255603279\C,0,-6.6276140141,-3.2010961858,4.8133134033\C,0,-7.7636367
 686,-2.594402644,5.3736090904\C,0,-8.1473943709,-1.2696378266,5.072590
 5147\C,0,-7.3473845024,-0.535962586,4.1848115088\C,0,-6.073009789,1.19
 38491648,1.7982920265\C,0,-6.5396437403,2.2847603589,2.5578971776\C,0,
 -7.3177624445,3.2807278136,1.9536936907\C,0,-7.5875311467,3.1649448211
 ,0.5703893297\C,0,-7.1191227336,2.0966562172,-0.210269366\C,0,-6.36100
 4641,1.0993011619,0.4327500448\C,0,-3.9317910009,0.648612239,3.7390889
 203\C,0,-3.7926999997,0.0797246182,5.0208501578\C,0,-2.8758708015,0.60
 81454555,5.936151727\C,0,-2.0928679725,1.7164619914,5.5971972006\C,0,-
 2.2375338372,2.2952070329,4.3295056632\C,0,-3.1390006317,1.764148217,3
 .3760297821\C,0,-3.209837388,2.433869499,2.0449135612\C,0,-3.646209863
 3,3.7774059163,2.0002243773\C,0,-3.7003316547,4.4899298814,0.794720081
 4\C,0,-3.305102712,3.8616434397,-0.3896585269\C,0,-2.864166306,2.53335
 68998,-0.371647943\C,0,-2.8087656848,1.8117604502,0.8370204348\C,0,-1.
 4726347325,-0.0848476483,-0.8418001924\C,0,-2.2797523749,-0.4779179687
 ,-1.926351181\C,0,-1.7607992149,-0.5016065004,-3.2260410259\C,0,-0.414
 1127691,-0.1116287089,-3.409282994\C,0,0.4135175884,0.2748929627,-2.34
 43683592\C,0,-0.1397241287,0.2812346594,-1.0474159842\C,0,-0.939127222
 9,-0.0640074023,2.0602916414\C,0,-0.8966814203,-1.2178689398,2.8568228
 898\C,0,0.0874069762,-1.3585271748,3.848179423\C,0,1.0362389863,-0.326
 7151763,3.9801797502\C,0,1.0165186455,0.8418744743,3.193179109\C,0,-0.
 0020364445,0.9690394649,2.2356683205\C,0,-3.431004392,5.530300147,3.65
 47119333\H,0,-4.9744527605,-2.878971454,3.4345687433\H,0,-8.3872146684
 ,-3.1739880887,6.0598591488\H,0,-7.6208909353,0.4839395584,3.911072769
 7\H,0,-6.2603851148,2.3603624912,3.6112815608\H,0,-8.1812674254,3.9483
 463587,0.0909837328\H,0,-5.9806570744,0.2325159246,-0.1189827764\H,0,-
 4.4076514913,-0.7782543722,5.3028809415\H,0,-2.7698827842,0.1499010622
 ,6.9248584273\H,0,-1.360312627,2.1168255034,6.3038567551\H,0,-4.072199
 9026,5.5191492735,0.7930026426\H,0,-3.3488018871,4.4062456149,-1.33840
 02076\H,0,-2.5568202452,2.0538135693,-1.3036095355\H,0,-3.3043015034,-
 0.7995341793,-1.726335053\H,0,-0.0021528896,-0.1289663901,-4.421950263
 4\H,0,0.4809289349,0.5606174332,-0.192096166\H,0,-1.6502858937,-1.9907
 490778,2.6829965426\H,0,1.8192762265,-0.4313280143,4.7396008197\H,0,-0
 .0959509209,1.8821057479,1.6432750318\H,0,-2.731338538,5.9084829966,2.
 8864242913\Cl,0,-5.9454398709,-2.7505145056,0.6790007638\Cl,0,-2.59541
 15306,-3.1162774633,-0.0108924815\C,0,-2.7097380145,5.2219858139,4.970
 5230406\C,0,-1.3732911215,4.4970426671,4.7911522886\H,0,-0.9522282407,
 4.210202773,5.7741505327\H,0,-3.3904907716,4.6196970631,5.5987193647\H
 ,0,-2.5166118537,6.1649342,5.516272846\C,0,-4.7697842594,-4.7286919612
 ,5.5669258677\C,0,-6.2375434537,-4.6638134609,5.0819221348\C,0,-6.3785
 922199,-5.4556357086,3.7584671182\C,0,-7.130339346,-5.3208638439,6.151
 1347829\H,0,-4.6317369382,-4.1476419902,6.4961171536\H,0,-4.484254081,
 -5.7759878018,5.7704346146\H,0,-4.0697910679,-4.3373885514,4.810355735
 \H,0,-6.0578262201,-6.5026415201,3.9063286586\H,0,-5.7729392869,-5.016
 4493309,2.948116049\H,0,-7.4281888174,-5.4591709919,3.4178583569\H,0,-
 8.1870814064,-5.3595263695,5.8341857253\H,0,-6.7986769789,-6.359377393
 7,6.3212960684\H,0,-7.0758305508,-4.7872209435,7.1168686928\C,0,-10.64
 14617359,-1.5202096559,5.2586698915\C,0,-9.4212038241,-0.6789090158,5.
 7026492995\C,0,-9.6594912413,0.783853654,5.2781586092\C,0,-9.297290368
 8,-0.7209787261,7.2441575005\H,0,-10.5416930491,-2.5744196672,5.567257
 5277\H,0,-11.5675687143,-1.120729641,5.7097984942\H,0,-10.7525078507,-
 1.4995009054,4.1611402029\H,0,-8.825766887,1.4384254059,5.5890817925\H
 ,0,-9.7846550207,0.8802284067,4.1854075233\H,0,-10.5789036241,1.163437
 8749,5.7560447392\H,0,-8.4385051767,-0.1173538488,7.5857108577\H,0,-10
 .2121923744,-0.3161666176,7.7127824671\H,0,-9.1560749477,-1.7499646977
 ,7.6153091586\C,0,-9.4072945862,4.5013618414,2.6360132077\C,0,-7.86408
 13503,4.4851868325,2.7401584498\C,0,-7.2854045089,5.7876647114,2.13808
 88516\C,0,-7.4778084653,4.4320210197,4.2309512594\H,0,-9.837669701,3.5
 826877159,3.0716048693\H,0,-9.8186357209,5.368264724,3.1835984245\H,0,
 -9.7479123075,4.5705932934,1.5891651149\H,0,-6.1857283817,5.7885378247
 ,2.225738838\H,0,-7.5437575709,5.8969846979,1.0712440741\H,0,-7.681845
 9298,6.6683514516,2.6747405439\H,0,-6.3825543157,4.4283239066,4.361400
 0264\H,0,-7.8839605515,5.3174231526,4.7499845845\H,0,-7.8923369083,3.5
 366473553,4.7269711867\C,0,-6.0156251638,1.9982465099,-2.4585048072\C,
 0,-7.376879894,1.9740815994,-1.7210962549\C,0,-8.245865276,3.123970986
 8,-2.2626551926\C,0,-8.0936859139,0.6329865541,-2.0088911926\H,0,-5.35
 5873816,1.1819860819,-2.1190620062\H,0,-6.1679216008,1.8828428844,-3.5
 468572123\H,0,-5.4871075033,2.9502303314,-2.2780120711\H,0,-9.23728300
 42,3.1492743233,-1.7772699079\H,0,-7.7629342472,4.1066727535,-2.118168
 0582\H,0,-8.4075462903,2.9876763027,-3.3455849281\H,0,-9.0751959675,0.
 5974008973,-1.5054523347\H,0,-8.2585010017,0.5172461828,-3.0950166105\
 H,0,-7.5067865471,-0.2334971227,-1.6607749737\C,0,-4.0165349631,-1.409
 8255032,-4.0110757381\C,0,-2.6012794022,-0.9635368758,-4.4280092219\C,
 0,-1.8964564637,-2.1653605189,-5.1016751457\C,0,-2.7261278011,0.201478
 7679,-5.4377631765\H,0,-4.597492355,-0.5786341181,-3.5742988335\H,0,-4
 .5663804899,-1.7652533788,-4.8995554788\H,0,-3.988169806,-2.2338999381
 ,-3.2774993897\H,0,-0.8863354948,-1.9032600442,-5.4600812251\H,0,-1.80
 01832812,-3.005146235,-4.3929433737\H,0,-2.4838452357,-2.5105322037,-5
 .9711834152\H,0,-1.7387291076,0.5470709078,-5.7896580301\H,0,-3.307027
 5566,-0.1191653545,-6.3210003885\H,0,-3.2443859757,1.0625313837,-4.979
 7880816\C,0,2.0482568754,2.1611890551,-2.0635838557\C,0,1.8829447679,0
 .6939076474,-2.5281758299\C,0,2.342522138,0.5926921324,-3.9945757381\C
 ,0,2.7881080571,-0.2198412961,-1.6673995873\H,0,1.7615593,2.2863871714
 ,-1.0048975159\H,0,3.1002690248,2.4816796238,-2.1695210515\H,0,1.41800
 96035,2.8386891589,-2.6653924138\H,0,2.2608831487,-0.4398703911,-4.376
 0200711\H,0,1.754029769,1.2537357189,-4.6545747324\H,0,3.4001976919,0.
 8972716007,-4.0741055134\H,0,2.6843658576,-1.2752089585,-1.97165299\H,
 0,3.8468740981,0.0732013414,-1.7851311869\H,0,2.5370768662,-0.15409202
 76,-0.5948392728\C,0,-1.0524469372,-3.5339016249,4.5361885843\C,0,0.13
 67969067,-2.5833548857,4.7762140077\C,0,0.0845434678,-2.1073400819,6.2
 475500017\C,0,1.4523832839,-3.3566877153,4.5256754327\H,0,-1.061232318
 4,-3.9380392926,3.5093634176\H,0,-0.9927283007,-4.3870514693,5.2337776
 649\H,0,-2.0155085038,-3.0229023523,4.7122848956\H,0,0.9410355858,-1.4
 605673857,6.5036364364\H,0,-0.8406772912,-1.5362320996,6.4372363378\H,
 0,0.1035956978,-2.9762013181,6.9291831689\H,0,2.3372831337,-2.72229016
 71,4.7066938751\H,0,1.5171772771,-4.2301873623,5.198845978\H,0,1.50078
 90091,-3.718749288,3.4846129404\C,0,3.4757148232,1.3401891761,3.098842
 8885\C,0,2.0803436528,1.9321790443,3.4075587677\C,0,2.0305168731,2.409
 7423671,4.8781444686\C,0,1.8538506454,3.153765823,2.4960946051\H,0,3.5
 331890524,1.0018044161,2.0493748752\H,0,4.2606104275,2.100918907,3.259
 8047641\H,0,3.7036806513,0.4751058401,3.7443225957\H,0,1.0341219574,2.
 8212442963,5.111784475\H,0,2.2325647734,1.5872079112,5.584579353\H,0,2
 .7850220444,3.1975315355,5.0528306689\H,0,0.8624020626,3.6056488105,2.
 6693233117\H,0,2.6233102704,3.9177064343,2.7020368647\H,0,1.9312410572
 ,2.8862919393,1.4270868044\H,0,-0.6378976458,5.1524430847,4.2943899002
 \H,0,-4.2153586899,6.2909564751,3.8180937844\\Version=ES64L-G16RevB.01
 \State=1-A\HF=-4642.2804807\RMSD=2.012e-09\Dipole=1.0853446,4.6011625,
 2.2105686\Quadrupole=0.4468195,-9.8056073,9.3587879,-1.1818315,-0.6138
 578,-9.7212021\PG=C01 [X(C71H96Cl2O2P2Pd1)]\\@


 IBM COMPATIBILITY IS LIKE PREGNANCY. YOU ARE OR
 OR YOU ARE NOT. -- ADAM OSBORNE
 Job cpu time:       0 days 12 hours 51 minutes 33.9 seconds.
 Elapsed time:       0 days  0 hours 19 minutes 26.1 seconds.
 File lengths (MBytes):  RWF=   4684 Int=      0 D2E=      0 Chk=    699 Scr=      1
 Normal termination of Gaussian 16 at Tue Nov  2 17:29:14 2021.
