 Entering Gaussian System, Link 0=/uufs/chpc.utah.edu/sys/installdir/gaussian16/B01/E6B/g16/g16
 Input=S-35tBu-C3-Tunephos_5_SPE_NoPd.com
 Output=S-35tBu-C3-Tunephos_5_SPE_NoPd.log
 Initial command:
 /uufs/chpc.utah.edu/sys/installdir/gaussian16/B01/E6B/g16/l1.exe "/scratch/general/lustre/u1010977/3356309/notchpeak.peaks/Gau-211385.inp" -scrdir="/scratch/general/lustre/u1010977/3356309/notchpeak.peaks/"
 Entering Link 1 = /uufs/chpc.utah.edu/sys/installdir/gaussian16/B01/E6B/g16/l1.exe PID=    211387.
  
 Copyright (c) 1988-2017, Gaussian, Inc.  All Rights Reserved.
  
 This is part of the Gaussian(R) 16 program.  It is based on
 the Gaussian(R) 09 system (copyright 2009, Gaussian, Inc.),
 the Gaussian(R) 03 system (copyright 2003, Gaussian, Inc.),
 the Gaussian(R) 98 system (copyright 1998, Gaussian, Inc.),
 the Gaussian(R) 94 system (copyright 1995, Gaussian, Inc.),
 the Gaussian 92(TM) system (copyright 1992, Gaussian, Inc.),
 the Gaussian 90(TM) system (copyright 1990, Gaussian, Inc.),
 the Gaussian 88(TM) system (copyright 1988, Gaussian, Inc.),
 the Gaussian 86(TM) system (copyright 1986, Carnegie Mellon
 University), and the Gaussian 82(TM) system (copyright 1983,
 Carnegie Mellon University). Gaussian is a federally registered
 trademark of Gaussian, Inc.
  
 This software contains proprietary and confidential information,
 including trade secrets, belonging to Gaussian, Inc.
  
 This software is provided under written license and may be
 used, copied, transmitted, or stored only in accord with that
 written license.
  
 The following legend is applicable only to US Government
 contracts under FAR:
  
                    RESTRICTED RIGHTS LEGEND
  
 Use, reproduction and disclosure by the US Government is
 subject to restrictions as set forth in subparagraphs (a)
 and (c) of the Commercial Computer Software - Restricted
 Rights clause in FAR 52.227-19.
  
 Gaussian, Inc.
 340 Quinnipiac St., Bldg. 40, Wallingford CT 06492
  
  
 ---------------------------------------------------------------
 Warning -- This program may not be used in any manner that
 competes with the business of Gaussian, Inc. or will provide
 assistance to any competitor of Gaussian, Inc.  The licensee
 of this program is prohibited from giving any competitor of
 Gaussian, Inc. access to this program.  By using this program,
 the user acknowledges that Gaussian, Inc. is engaged in the
 business of creating and licensing software in the field of
 computational chemistry and represents and warrants to the
 licensee that it is not a competitor of Gaussian, Inc. and that
 it will not use this program in any manner prohibited above.
 ---------------------------------------------------------------
  

 Cite this work as:
 Gaussian 16, Revision B.01,
 M. J. Frisch, G. W. Trucks, H. B. Schlegel, G. E. Scuseria, 
 M. A. Robb, J. R. Cheeseman, G. Scalmani, V. Barone, 
 G. A. Petersson, H. Nakatsuji, X. Li, M. Caricato, A. V. Marenich, 
 J. Bloino, B. G. Janesko, R. Gomperts, B. Mennucci, H. P. Hratchian, 
 J. V. Ortiz, A. F. Izmaylov, J. L. Sonnenberg, D. Williams-Young, 
 F. Ding, F. Lipparini, F. Egidi, J. Goings, B. Peng, A. Petrone, 
 T. Henderson, D. Ranasinghe, V. G. Zakrzewski, J. Gao, N. Rega, 
 G. Zheng, W. Liang, M. Hada, M. Ehara, K. Toyota, R. Fukuda, 
 J. Hasegawa, M. Ishida, T. Nakajima, Y. Honda, O. Kitao, H. Nakai, 
 T. Vreven, K. Throssell, J. A. Montgomery, Jr., J. E. Peralta, 
 F. Ogliaro, M. J. Bearpark, J. J. Heyd, E. N. Brothers, K. N. Kudin, 
 V. N. Staroverov, T. A. Keith, R. Kobayashi, J. Normand, 
 K. Raghavachari, A. P. Rendell, J. C. Burant, S. S. Iyengar, 
 J. Tomasi, M. Cossi, J. M. Millam, M. Klene, C. Adamo, R. Cammi, 
 J. W. Ochterski, R. L. Martin, K. Morokuma, O. Farkas, 
 J. B. Foresman, and D. J. Fox, Gaussian, Inc., Wallingford CT, 2016.
 
 ******************************************
 Gaussian 16:  ES64L-G16RevB.01 20-Dec-2017
                 2-Nov-2021 
 ******************************************
 %NProcShared=32
 Will use up to   32 processors via shared memory.
 %mem=18GB
 %chk=S-35tBu-C3-Tunephos_5_SPE_NoPd.chk
 ----------------------------------------------------------------------
 # PBE1PBE/def2TZVP int=(grid=ultrafine) empiricaldispersion=GD3BJ nmr=
 giao
 ----------------------------------------------------------------------
 1/38=1,172=1/1;
 2/12=2,17=6,18=5,40=1/2;
 3/5=44,7=101,11=2,25=1,30=1,74=-13,75=-5,124=41/1,2,3,8;
 4//1;
 5/5=2,38=5/2;
 8/6=1,10=90,11=11/1;
 10/13=100,45=16/2;
 6/7=2,8=2,9=2,10=2,28=1/1;
 99/9=1/99;
 -----
 title
 -----
 Symbolic Z-matrix:
 Charge =  0 Multiplicity = 1
 P                    -5.04871  -0.04681   2.50787 
 P                    -2.20016   0.16333   0.81201 
 O                    -1.64293   3.69695   3.75699 
 O                    -4.28007   4.4795    2.93974 
 C                    -6.09775  -1.04497   3.63243 
 C                    -7.21427  -0.48226   4.26534 
 C                    -7.9683   -1.22999   5.18682 
 C                    -7.56924  -2.554     5.44836 
 C                    -6.45738  -3.14754   4.81788 
 C                    -5.72264  -2.36907   3.90733 
 C                    -6.11374   1.243     1.78407 
 C                    -6.60681   2.31872   2.54891 
 C                    -7.4634    3.26156   1.96677 
 C                    -7.78149   3.11297   0.59734 
 C                    -7.28315   2.06367  -0.19031 
 C                    -6.44627   1.11675   0.4316 
 C                    -3.92848   0.83318   3.68795 
 C                    -3.77211   0.32805   4.99371 
 C                    -2.89767   0.94949   5.89233 
 C                    -2.18364   2.09193   5.51579 
 C                    -2.34457   2.60303   4.22073 
 C                    -3.19431   1.9725    3.28299 
 C                    -3.27581   2.57095   1.92023 
 C                    -3.7894    3.88252   1.7979 
 C                    -3.86726   4.52349   0.55435 
 C                    -3.40821   3.85989  -0.58751 
 C                    -2.88228   2.56642  -0.49065 
 C                    -2.80936   1.9124    0.75582 
 C                    -1.40329  -0.0327   -0.82666 
 C                    -2.20501  -0.50438  -1.87481 
 C                    -1.69359  -0.61787  -3.18059 
 C                    -0.35822  -0.23903  -3.39017 
 C                     0.47625   0.22897  -2.35211 
 C                    -0.06504   0.33048  -1.06051 
 C                    -0.90394   0.06419   2.096 
 C                    -0.89355  -1.11746   2.85151 
 C                     0.08524  -1.33393   3.83433 
 C                     1.06659  -0.34247   4.0111 
 C                     1.08779   0.85348   3.26448 
 C                     0.06865   1.05809   2.31365 
 C                    -3.69279   5.73059   3.35803 
 H                    -7.51038   0.5417    4.02489 
 H                    -8.14977  -3.1486    6.15555 
 H                    -4.87372  -2.7994    3.36798 
 H                    -6.28658   2.42599   3.58765 
 H                    -8.43845   3.85449   0.13413 
 H                    -6.04313   0.26383  -0.12492 
 H                    -4.3385   -0.55219   5.30679 
 H                    -2.77295   0.53835   6.89933 
 H                    -1.49258   2.57132   6.21506 
 H                    -4.30487   5.52463   0.49113 
 H                    -3.46863   4.34864  -1.56524 
 H                    -2.52773   2.05888  -1.39048 
 H                    -3.22896  -0.8214   -1.65444 
 H                     0.06249  -0.32363  -4.39579 
 H                     0.55082   0.67132  -0.22556 
 H                    -1.66195  -1.8702    2.64513 
 H                     1.84441  -0.50645   4.75822 
 H                     0.01797   1.99468   1.74821 
 H                    -2.99451   6.09858   2.58363 
 C                    -2.98893   5.53585   4.70491 
 C                    -1.61583   4.86809   4.58949 
 H                    -1.2032    4.6405    5.59084 
 H                    -3.65374   4.93641   5.35272 
 H                    -2.85589   6.51707   5.19851 
 C                    -9.92826  -1.53493   6.80352 
 C                    -9.18496  -0.57008   5.86081 
 C                    -10.17587  -0.08904   4.77337 
 C                    -8.70327   0.64703   6.68702 
 H                    -9.27989  -1.88532   7.62547 
 H                    -10.79227  -1.01903   7.25655 
 H                    -10.31043  -2.41831   6.26323 
 H                    -9.71395   0.64631   4.09231 
 H                    -10.52964  -0.93611   4.16139 
 H                    -11.05343   0.39033   5.24332 
 H                    -8.18854   1.38966   6.05291 
 H                    -9.56179   1.1493    7.16808 
 H                    -7.99903   0.33354   7.47708 
 C                    -6.87163  -5.28156   6.16448 
 C                    -6.06075  -4.61752   5.03562 
 C                    -4.55957  -4.70954   5.39687 
 C                    -6.31739  -5.38655   3.71571 
 H                    -7.9502   -5.31276   5.93158 
 H                    -6.53344  -6.32346   6.29739 
 H                    -6.73898  -4.75822   7.12825 
 H                    -3.91746  -4.33246   4.58415 
 H                    -4.33184  -4.13112   6.30983 
 H                    -4.2785   -5.7624    5.57643 
 H                    -5.76942  -4.94071   2.86852 
 H                    -6.00083  -6.43996   3.82163 
 H                    -7.39059  -5.37123   3.45894 
 C                    -7.56621   5.76682   2.1183 
 C                    -8.04347   4.44349   2.76245 
 C                    -7.5911    4.4326    4.23548 
 C                    -9.58811   4.37074   2.72618 
 H                    -7.89321   5.85207   1.0682 
 H                    -7.9726    6.63304   2.67081 
 H                    -6.46455   5.82024   2.13799 
 H                    -7.93428   3.52336   4.76086 
 H                    -6.49274   4.48926   4.3188 
 H                    -8.02209   5.30178   4.76175 
 H                    -9.94644   3.4353    3.19076 
 H                    -10.02476   5.22064   3.28077 
 H                    -9.97674   4.40493   1.69449 
 C                    -8.21901   0.52405  -1.94694 
 C                    -7.58847   1.91369  -1.6892 
 C                    -6.25847   2.03122  -2.47211 
 C                    -8.55592   2.99588  -2.20268 
 H                    -9.1792    0.42456  -1.41192 
 H                    -8.40999   0.3898   -3.02661 
 H                    -7.56399  -0.29815  -1.6132 
 H                    -5.79473   3.0201   -2.31167 
 H                    -5.53105   1.26714  -2.15185 
 H                    -6.43644   1.89804  -3.55433 
 H                    -9.52702   2.95686  -1.67861 
 H                    -8.74958   2.83901  -3.27755 
 H                    -8.13726   4.011    -2.0841 
 C                    -3.9285   -0.44209  -4.34064 
 C                    -2.58448  -1.20561  -4.28709 
 C                    -2.85377  -2.69306  -3.94904 
 C                    -1.92311  -1.12101  -5.67554 
 H                    -3.77061   0.63416  -4.53222 
 H                    -4.56082  -0.84747  -5.15026 
 H                    -4.49543  -0.54302  -3.40067 
 H                    -1.91208  -3.26836  -3.94849 
 H                    -3.31148  -2.81163  -2.95246 
 H                    -3.53158  -3.13653  -4.70071 
 H                    -0.99108  -1.71071  -5.72217 
 H                    -2.60944  -1.52987  -6.43663 
 H                    -1.68968  -0.0784   -5.95647 
 C                     2.69771   1.08409  -1.42111 
 C                     1.93791   0.594    -2.66698 
 C                     1.96596   1.72043  -3.72729 
 C                     2.66548  -0.65487  -3.21961 
 H                     2.72775   0.31359  -0.63145 
 H                     3.7392    1.32883  -1.69191 
 H                     2.24014   1.99415  -0.99598 
 H                     1.46098   1.41726  -4.65982 
 H                     1.46279   2.62752  -3.34965 
 H                     3.0092    1.9835   -3.97836 
 H                     2.18772  -1.03291  -4.13895 
 H                     3.71578  -0.41023  -3.45993 
 H                     2.66019  -1.47098  -2.47711 
 C                     1.19145  -2.72849   5.67012 
 C                     0.02974  -2.62608   4.66472 
 C                     0.08675  -3.84723   3.71533 
 C                    -1.30381  -2.64515   5.45046 
 H                     1.17784  -1.89998   6.40039 
 H                     1.10891  -3.67257   6.23535 
 H                     2.17204  -2.72799   5.16256 
 H                    -0.72896  -3.83659   2.97288 
 H                     1.04131  -3.86705   3.16157 
 H                     0.00637  -4.78263   4.29746 
 H                    -2.17277  -2.5949    4.7736 
 H                    -1.38821  -3.57453   6.04172 
 H                    -1.36661  -1.78467   6.13946 
 C                     1.55757   3.20073   4.05439 
 C                     2.18625   1.91674   3.46695 
 C                     2.83938   2.25076   2.10583 
 C                     3.29673   1.43879   4.42293 
 H                     1.1011    2.99552   5.03897 
 H                     2.3314    3.97868   4.18646 
 H                     0.7666    3.59668   3.39865 
 H                     3.29286   1.35263   1.6531 
 H                     2.10694   2.65688   1.38858 
 H                     3.63234   3.0083    2.23869 
 H                     3.77892   0.5143    4.06074 
 H                     4.07545   2.21703   4.49965 
 H                     2.91282   1.25363   5.44119 
 H                    -0.90011   5.53523   4.08016 
 H                    -4.51708   6.4591    3.46016 
 
 Stoichiometry    C71H96O2P2
 Framework group  C1[X(C71H96O2P2)]
 Deg. of freedom   507
 Full point group                 C1      NOp   1
 Largest Abelian subgroup         C1      NOp   1
 Largest concise Abelian subgroup C1      NOp   1
                         Standard orientation:                         
 ---------------------------------------------------------------------
 Center     Atomic      Atomic             Coordinates (Angstroms)
 Number     Number       Type             X           Y           Z
 ---------------------------------------------------------------------
      1         15           0        1.604170    0.048347   -0.739143
      2         15           0       -1.714113   -0.025379   -0.605571
      3          8           0       -0.754262    0.937767    3.823984
      4          8           0        1.084239   -1.258889    3.652390
      5          6           0        3.097041    0.865649   -1.420920
      6          6           0        4.370240    0.585690   -0.906722
      7          6           0        5.501482    1.273441   -1.380101
      8          6           0        5.314521    2.243328   -2.382602
      9          6           0        4.047101    2.536579   -2.924515
     10          6           0        2.937489    1.834726   -2.423393
     11          6           0        2.129061   -1.570646   -0.087122
     12          6           0        2.924254   -1.686126    1.070288
     13          6           0        3.348070   -2.946582    1.509871
     14          6           0        2.926446   -4.080788    0.778836
     15          6           0        2.114644   -3.992025   -0.362598
     16          6           0        1.728122   -2.708371   -0.794598
     17          6           0        1.226538    1.086816    0.744380
     18          6           0        1.766210    2.385299    0.829944
     19          6           0        1.461089    3.207465    1.920489
     20          6           0        0.635077    2.745794    2.950718
     21          6           0        0.104672    1.450787    2.873694
     22          6           0        0.368778    0.614032    1.765056
     23          6           0       -0.265972   -0.734642    1.756982
     24          6           0        0.090667   -1.645240    2.778046
     25          6           0       -0.487213   -2.919388    2.855065
     26          6           0       -1.452424   -3.291056    1.914243
     27          6           0       -1.832975   -2.402281    0.902165
     28          6           0       -1.249141   -1.122435    0.813514
     29          6           0       -3.231248   -0.828141   -1.247868
     30          6           0       -3.067492   -1.797481   -2.246583
     31          6           0       -4.170871   -2.513332   -2.746185
     32          6           0       -5.433001   -2.221728   -2.205222
     33          6           0       -5.630018   -1.243325   -1.206809
     34          6           0       -4.507959   -0.546939   -0.729765
     35          6           0       -2.173152    1.606297    0.076742
     36          6           0       -1.776519    2.712578   -0.688782
     37          6           0       -2.113924    4.017303   -0.295496
     38          6           0       -2.885298    4.171340    0.870061
     39          6           0       -3.304823    3.080252    1.658545
     40          6           0       -2.916201    1.786611    1.258484
     41          6           0        0.770410   -1.216624    5.061228
     42          1           0        4.484618   -0.187926   -0.143552
     43          1           0        6.184646    2.779432   -2.764907
     44          1           0        1.939857    2.004018   -2.839109
     45          1           0        3.176239   -0.786778    1.636596
     46          1           0        3.242638   -5.068457    1.126001
     47          1           0        1.112572   -2.572801   -1.690380
     48          1           0        2.428306    2.751117    0.041633
     49          1           0        1.874106    4.220285    1.967977
     50          1           0        0.388595    3.392344    3.797815
     51          1           0       -0.160399   -3.612445    3.636511
     52          1           0       -1.907192   -4.285768    1.961328
     53          1           0       -2.587684   -2.705301    0.173055
     54          1           0       -2.068824   -1.963543   -2.662077
     55          1           0       -6.305895   -2.761806   -2.581793
     56          1           0       -4.618207    0.230043    0.029667
     57          1           0       -1.207580    2.529344   -1.606599
     58          1           0       -3.170836    5.178585    1.176686
     59          1           0       -3.177056    0.915713    1.869218
     60          1           0       -0.231306   -1.649812    5.239027
     61          6           0        0.854665    0.230644    5.556948
     62          6           0       -0.373727    1.073569    5.203151
     63          1           0       -0.214455    2.134706    5.474004
     64          1           0        1.767108    0.684154    5.129485
     65          1           0        0.974667    0.238978    6.656799
     66          6           0        8.016690    1.740492   -1.441641
     67          6           0        6.880080    0.935724   -0.783916
     68          6           0        7.169978   -0.571662   -0.982874
     69          6           0        6.865549    1.257370    0.730132
     70          1           0        7.883882    2.827345   -1.300670
     71          1           0        8.981820    1.460154   -0.985765
     72          1           0        8.085502    1.537546   -2.524412
     73          1           0        6.412763   -1.204791   -0.489192
     74          1           0        7.177203   -0.832510   -2.054836
     75          1           0        8.156033   -0.829190   -0.556086
     76          1           0        6.086688    0.681608    1.259687
     77          1           0        7.840476    1.007119    1.185793
     78          1           0        6.667790    2.329379    0.903670
     79          6           0        5.126812    4.319847   -4.405440
     80          6           0        3.842447    3.536054   -4.075491
     81          6           0        2.736757    4.550782   -3.700914
     82          6           0        3.403999    2.741970   -5.331131
     83          1           0        5.936506    3.654174   -4.751572
     84          1           0        4.921748    5.038286   -5.217476
     85          1           0        5.494713    4.891109   -3.534444
     86          1           0        1.763675    4.058072   -3.541667
     87          1           0        2.996015    5.102829   -2.780074
     88          1           0        2.604798    5.283380   -4.516775
     89          1           0        2.493128    2.148785   -5.143420
     90          1           0        3.203993    3.434711   -6.168510
     91          1           0        4.196097    2.039936   -5.643619
     92          6           0        3.470112   -3.982475    3.795015
     93          6           0        4.231965   -3.125574    2.756158
     94          6           0        4.593637   -1.779146    3.412585
     95          6           0        5.543508   -3.838126    2.350426
     96          1           0        3.214818   -4.978580    3.395639
     97          1           0        4.086179   -4.128493    4.700498
     98          1           0        2.531525   -3.479692    4.083371
     99          1           0        5.172410   -1.133849    2.727654
    100          1           0        3.690251   -1.230430    3.727805
    101          1           0        5.217446   -1.958050    4.305360
    102          1           0        6.104789   -3.235028    1.615225
    103          1           0        6.186951   -3.989398    3.235676
    104          1           0        5.351499   -4.826180    1.899340
    105          6           0        2.051352   -5.097054   -2.622445
    106          6           0        1.616083   -5.219156   -1.142332
    107          6           0        0.070959   -5.255315   -1.059098
    108          6           0        2.167828   -6.539737   -0.574534
    109          1           0        3.151725   -5.087710   -2.707372
    110          1           0        1.667797   -5.955985   -3.201513
    111          1           0        1.672262   -4.174173   -3.092575
    112          1           0       -0.263426   -5.352865   -0.011554
    113          1           0       -0.378302   -4.334815   -1.466999
    114          1           0       -0.325115   -6.110625   -1.635442
    115          1           0        3.270950   -6.570523   -0.611744
    116          1           0        1.789418   -7.386250   -1.172602
    117          1           0        1.850440   -6.701944    0.470822
    118          6           0       -2.842511   -4.519168   -3.510072
    119          6           0       -3.958112   -3.517705   -3.890492
    120          6           0       -3.528293   -2.727108   -5.151247
    121          6           0       -5.236062   -4.314835   -4.212666
    122          1           0       -3.094687   -5.067621   -2.585109
    123          1           0       -2.704073   -5.255868   -4.321089
    124          1           0       -1.874051   -4.015574   -3.356321
    125          1           0       -4.328083   -2.036050   -5.468310
    126          1           0       -2.624651   -2.121563   -4.968327
    127          1           0       -3.320541   -3.423602   -5.983618
    128          1           0       -6.051325   -3.658159   -4.562964
    129          1           0       -5.026369   -5.037779   -5.019417
    130          1           0       -5.598166   -4.882052   -3.336539
    131          6           0       -7.081468    0.125755    0.390623
    132          6           0       -7.054206   -0.967917   -0.692348
    133          6           0       -7.638269   -2.266180   -0.086317
    134          6           0       -7.939964   -0.504234   -1.873391
    135          1           0       -6.691506    1.086105    0.011428
    136          1           0       -8.119668    0.293088    0.725426
    137          1           0       -6.487052   -0.161205    1.275284
    138          1           0       -7.673787   -3.083293   -0.826315
    139          1           0       -7.028769   -2.609485    0.767653
    140          1           0       -8.668229   -2.090964    0.272955
    141          1           0       -7.990877   -1.265565   -2.669708
    142          1           0       -8.970204   -0.309359   -1.525003
    143          1           0       -7.542841    0.423605   -2.319241
    144          6           0       -2.105759    6.555921   -0.602060
    145          6           0       -1.620527    5.199252   -1.145109
    146          6           0       -2.132106    5.034726   -2.596658
    147          6           0       -0.072616    5.192518   -1.139638
    148          1           0       -1.736334    6.745360    0.421437
    149          1           0       -1.730291    7.368133   -1.247748
    150          1           0       -3.207959    6.620778   -0.591023
    151          1           0       -1.808927    4.081093   -3.047083
    152          1           0       -3.235104    5.060967   -2.627248
    153          1           0       -1.750029    5.857101   -3.227558
    154          1           0        0.329109    4.247111   -1.540358
    155          1           0        0.317462    6.017394   -1.762444
    156          1           0        0.317529    5.313330   -0.113829
    157          6           0       -3.347284    2.870190    4.170181
    158          6           0       -4.165102    3.276732    2.923245
    159          6           0       -5.426372    2.386801    2.833741
    160          6           0       -4.624908    4.737235    3.099316
    161          1           0       -2.449306    3.505285    4.270974
    162          1           0       -3.959211    2.987733    5.082976
    163          1           0       -3.007900    1.824773    4.104344
    164          1           0       -6.031549    2.645404    1.948231
    165          1           0       -5.168865    1.316803    2.765566
    166          1           0       -6.054000    2.522826    3.732564
    167          1           0       -5.208180    5.090340    2.231279
    168          1           0       -5.269243    4.814394    3.991959
    169          1           0       -3.772542    5.423040    3.246471
    170          1           0       -1.260582    0.720222    5.755770
    171          1           0        1.518858   -1.841868    5.580364
 ---------------------------------------------------------------------
 Rotational constants (GHZ):           0.0309508           0.0230899           0.0206278
 Standard basis: def2TZVP (5D, 7F)
 There are  3288 symmetry adapted cartesian basis functions of A   symmetry.
 There are  2913 symmetry adapted basis functions of A   symmetry.
  2913 basis functions,  4629 primitive gaussians,  3288 cartesian basis functions
   284 alpha electrons      284 beta electrons
       nuclear repulsion energy     14507.3310698215 Hartrees.
 NAtoms=  171 NActive=  171 NUniq=  171 SFac= 1.00D+00 NAtFMM=   60 NAOKFM=T Big=T
 Integral buffers will be    131072 words long.
 Raffenetti 2 integral format.
 Two-electron integral symmetry is turned on.
 Nuclear repulsion after empirical dispersion term =    14507.0703803095 Hartrees.
 One-electron integrals computed using PRISM.
   1 Symmetry operations used in ECPInt.
 ECPInt:  NShTT=  736291 NPrTT= 2187061 LenC2=  480865 LenP2D=  906567.
 LDataN:  DoStor=T MaxTD1= 6 Len=  172
 Number of processors reduced to  13 by ecpmxn.
 NBasis=  2913 RedAO= T EigKep=  2.73D-06  NBF=  2913
 NBsUse=  2913 1.00D-06 EigRej= -1.00D+00 NBFU=  2913
 ExpMin= 9.04D-02 ExpMax= 5.24D+04 ExpMxC= 1.79D+03 IAcc=3 IRadAn=         5 AccDes= 0.00D+00
 Harris functional with IExCor= 1009 and IRadAn=       5 diagonalized for initial guess.
 HarFok:  IExCor= 1009 AccDes= 0.00D+00 IRadAn=         5 IDoV= 1 UseB2=F ITyADJ=14
 ICtDFT=  3500011 ScaDFX=  1.000000  1.000000  1.000000  1.000000
 FoFCou: FMM=F IPFlag=           0 FMFlag=      100000 FMFlg1=        2001
         NFxFlg=           0 DoJE=T BraDBF=F KetDBF=T FulRan=T
         wScrn=  0.000000 ICntrl=       500 IOpCl=  0 I1Cent=   200000004 NGrid=           0
         NMat0=    1 NMatS0=      1 NMatT0=    0 NMatD0=    1 NMtDS0=    0 NMtDT0=    0
 Petite list used in FoFCou.
 Requested convergence on RMS density matrix=1.00D-08 within 128 cycles.
 Requested convergence on MAX density matrix=1.00D-06.
 Requested convergence on             energy=1.00D-06.
 No special actions if energy rises.
 Integral accuracy reduced to 1.0D-05 until final iterations.
 Problem detected with inexpensive integrals.
 Switching to full accuracy and repeating last cycle.
 SCF Done:  E(RPBE1PBE) =  -3594.07427093     A.U. after   16 cycles
            NFock= 16  Conv=0.16D-08     -V/T= 2.0055
 DoSCS=F DFT=T ScalE2(SS,OS)=  1.000000  1.000000
 Range of M.O.s used for correlation:     1  2913
 NBasis=  2913 NAE=   284 NBE=   284 NFC=     0 NFV=     0
 NROrb=   2913 NOA=   284 NOB=   284 NVA=  2629 NVB=  2629

 **** Warning!!: The largest alpha MO coefficient is  0.43531798D+02

          Differentiating once with respect to magnetic field using GIAOs.
          Electric field/nuclear overlap derivatives assumed to be zero.
 FoFCou: FMM=F IPFlag=           0 FMFlag=      100000 FMFlg1=        2001
         NFxFlg=           0 DoJE=F BraDBF=F KetDBF=T FulRan=T
         wScrn=  0.000000 ICntrl=      6100 IOpCl=  0 I1Cent=           7 NGrid=         171
         NMat0=    1 NMatS0=      1 NMatT0=    0 NMatD0=    1 NMtDS0=    0 NMtDT0=    0
 Symmetry not used in FoFCou.
   1 Symmetry operations used in ECPInt.
 ECPInt:  NShTT=  736291 NPrTT= 2187061 LenC2=  736292 LenP2D= 2187061.
 LDataN:  DoStor=T MaxTD1= 7 Len=  274
 Number of processors reduced to   8 by ecpmxn.
 FoFJK:  IHMeth= 1 ICntrl=    6127 DoSepK=F KAlg= 0 I1Cent=           0 FoldK=F
 IRaf=         1 NMat=       1 IRICut=       1 DoRegI=T DoRafI=F ISym2E= 0 IDoP0=0 IntGTp=1.
          There are     3 degrees of freedom in the 1st order CPHF.  IDoFFX=0 NUNeed=     3.
      3 vectors produced by pass  0 Test12= 2.49D-11 3.33D-08 XBig12= 5.06D+02 2.01D+00.
 AX will form     3 AO Fock derivatives at one time.
      3 vectors produced by pass  1 Test12= 2.49D-11 3.33D-08 XBig12= 1.37D+00 1.93D-01.
      3 vectors produced by pass  2 Test12= 2.49D-11 3.33D-08 XBig12= 1.04D-02 1.79D-02.
      3 vectors produced by pass  3 Test12= 2.49D-11 3.33D-08 XBig12= 3.31D-05 9.23D-04.
      3 vectors produced by pass  4 Test12= 2.49D-11 3.33D-08 XBig12= 1.33D-07 1.08D-04.
      3 vectors produced by pass  5 Test12= 2.49D-11 3.33D-08 XBig12= 1.04D-09 9.43D-06.
      3 vectors produced by pass  6 Test12= 2.49D-11 3.33D-08 XBig12= 4.27D-12 5.76D-07.
      2 vectors produced by pass  7 Test12= 2.49D-11 3.33D-08 XBig12= 3.55D-13 3.95D-08.
 InvSVY:  IOpt=1 It=  1 EMax= 1.07D-14
 Solved reduced A of dimension    23 with     3 vectors.
 Calculating GIAO nuclear magnetic shielding tensors.
 SCF GIAO Magnetic shielding tensor (ppm):
      1  P    Isotropic =   295.6550   Anisotropy =    56.0592
   XX=   292.8122   YX=     6.5364   ZX=    40.3445
   XY=   -29.4785   YY=   279.9582   ZY=    25.1499
   XZ=     1.6319   YZ=    26.4408   ZZ=   314.1946
   Eigenvalues:   254.8543   299.0828   333.0278
      2  P    Isotropic =   293.3137   Anisotropy =    51.4935
   XX=   286.8540   YX=    10.0519   ZX=   -40.7503
   XY=   -23.5113   YY=   278.7032   ZY=   -16.3254
   XZ=     0.6533   YZ=   -15.8111   ZZ=   314.3840
   Eigenvalues:   263.0672   289.2313   327.6427
      3  O    Isotropic =   216.9401   Anisotropy =   120.9736
   XX=   278.8425   YX=    -3.2526   ZX=    47.5149
   XY=   -24.1157   YY=   195.8478   ZY=   -70.6207
   XZ=    21.5207   YZ=   -24.7631   ZZ=   176.1301
   Eigenvalues:   134.8284   218.4028   297.5892
      4  O    Isotropic =   219.9356   Anisotropy =    97.6277
   XX=   266.5826   YX=     5.7425   ZX=   -49.2228
   XY=     9.7779   YY=   194.6977   ZY=    73.3439
   XZ=   -24.4390   YZ=    24.7420   ZZ=   198.5263
   Eigenvalues:   139.6382   235.1477   285.0207
      5  C    Isotropic =    43.2416   Anisotropy =   197.0372
   XX=   -22.4152   YX=   -32.5964   ZX=     3.5149
   XY=   -40.3406   YY=    74.7350   ZY=   100.6169
   XZ=    -3.0050   YZ=    89.7424   ZZ=    77.4049
   Eigenvalues:   -48.5690     3.6940   174.5997
      6  C    Isotropic =    47.4689   Anisotropy =   186.1102
   XX=    24.4063   YX=    -5.3520   ZX=   -22.7789
   XY=     4.2886   YY=    63.4263   ZY=   105.4495
   XZ=   -21.1794   YZ=   116.1207   ZZ=    54.5742
   Eigenvalues:   -54.9355    25.7999   171.5424
      7  C    Isotropic =    27.6278   Anisotropy =   200.6545
   XX=   -45.0137   YX=    -4.7198   ZX=   -35.8968
   XY=    -8.5955   YY=    67.6880   ZY=    91.0950
   XZ=   -31.7207   YZ=    95.8572   ZZ=    60.2091
   Eigenvalues:   -61.0737   -17.4403   161.3975
      8  C    Isotropic =    60.1038   Anisotropy =   167.2528
   XX=    -2.1803   YX=   -42.1321   ZX=     9.2281
   XY=   -44.5621   YY=    88.6013   ZY=    76.0329
   XZ=     6.6689   YZ=    77.3874   ZZ=    93.8903
   Eigenvalues:   -33.3110    42.0167   171.6057
      9  C    Isotropic =    28.7768   Anisotropy =   199.0222
   XX=   -16.6511   YX=   -13.9455   ZX=   -21.4941
   XY=   -10.5190   YY=    57.5464   ZY=   106.7724
   XZ=   -22.1060   YZ=   106.4155   ZZ=    45.4351
   Eigenvalues:   -56.7551   -18.3728   161.4583
     10  C    Isotropic =    47.1393   Anisotropy =   172.1945
   XX=   -35.7217   YX=     4.9876   ZX=   -47.5851
   XY=     8.5245   YY=   105.0795   ZY=    58.2808
   XZ=   -42.4775   YZ=    79.0851   ZZ=    72.0600
   Eigenvalues:   -58.5207    38.0028   161.9356
     11  C    Isotropic =    44.1618   Anisotropy =   197.2014
   XX=   114.6496   YX=    21.7145   ZX=   -89.4530
   XY=    18.2895   YY=   -38.1120   ZY=    12.5545
   XZ=   -80.3345   YZ=     7.9295   ZZ=    55.9476
   Eigenvalues:   -47.7891     4.6450   175.6294
     12  C    Isotropic =    48.7480   Anisotropy =   182.0433
   XX=   122.5148   YX=   -18.7598   ZX=   -76.1185
   XY=    -7.7768   YY=   -20.2871   ZY=   -42.2969
   XZ=   -77.2838   YZ=   -43.5724   ZZ=    44.0163
   Eigenvalues:   -56.3268    32.4606   170.1102
     13  C    Isotropic =    30.0507   Anisotropy =   201.6114
   XX=    93.4331   YX=    10.3844   ZX=  -100.1964
   XY=     9.7769   YY=   -15.2657   ZY=    -9.0281
   XZ=  -106.0854   YZ=    -5.5349   ZZ=    11.9847
   Eigenvalues:   -58.1836   -16.1226   164.4583
     14  C    Isotropic =    56.0915   Anisotropy =   177.8838
   XX=   121.4524   YX=    24.8912   ZX=   -73.6344
   XY=    30.6602   YY=   -25.2705   ZY=    25.4530
   XZ=   -72.8414   YZ=    14.2538   ZZ=    72.0925
   Eigenvalues:   -42.6471    36.2409   174.6806
     15  C    Isotropic =    30.0132   Anisotropy =   201.2649
   XX=   102.1105   YX=    -1.9374   ZX=   -89.3388
   XY=    -5.1272   YY=   -42.5325   ZY=   -21.4384
   XZ=   -92.0728   YZ=   -20.3076   ZZ=    30.4615
   Eigenvalues:   -57.1683   -16.9819   164.1897
     16  C    Isotropic =    46.0738   Anisotropy =   176.8039
   XX=    89.7618   YX=    -1.3005   ZX=  -109.4295
   XY=     9.1294   YY=    33.9911   ZY=     3.3920
   XZ=  -101.1683   YZ=     9.3019   ZZ=    14.4686
   Eigenvalues:   -60.2987    34.5770   163.9431
     17  C    Isotropic =    33.0019   Anisotropy =   197.4935
   XX=    92.6316   YX=   -38.4955   ZX=    76.6077
   XY=   -48.8791   YY=    -6.6690   ZY=   -42.5126
   XZ=    84.0797   YZ=   -49.5674   ZZ=    13.0431
   Eigenvalues:   -48.5160   -17.1425   164.6642
     18  C    Isotropic =    54.0772   Anisotropy =   184.9741
   XX=    89.6586   YX=   -61.1322   ZX=    96.3567
   XY=   -65.0678   YY=    41.9276   ZY=     5.1641
   XZ=    88.5106   YZ=    -5.5742   ZZ=    30.6453
   Eigenvalues:   -53.4268    38.2650   177.3932
     19  C    Isotropic =    52.7696   Anisotropy =   183.8189
   XX=   112.0705   YX=   -67.4841   ZX=    55.8465
   XY=   -73.7468   YY=   -28.3348   ZY=   -26.1514
   XZ=    48.6544   YZ=   -26.7066   ZZ=    74.5732
   Eigenvalues:   -57.8691    40.8624   175.3156
     20  C    Isotropic =    69.1888   Anisotropy =   169.4287
   XX=   124.9261   YX=   -30.1323   ZX=    75.4814
   XY=   -26.2407   YY=    46.6258   ZY=   -57.3762
   XZ=    60.5826   YZ=   -53.7421   ZZ=    36.0144
   Eigenvalues:   -23.3304    48.7555   182.1413
     21  C    Isotropic =    23.2565   Anisotropy =   140.8374
   XX=    47.2448   YX=   -51.6279   ZX=    81.6010
   XY=   -37.7729   YY=    29.9403   ZY=     0.3284
   XZ=    72.1247   YZ=     1.0652   ZZ=    -7.4157
   Eigenvalues:   -69.2440    21.8653   117.1481
     22  C    Isotropic =    46.7573   Anisotropy =   163.4491
   XX=    99.5437   YX=   -63.1779   ZX=    42.9738
   XY=   -65.6750   YY=   -13.7655   ZY=   -29.8208
   XZ=    54.7379   YZ=    -8.0056   ZZ=    54.4938
   Eigenvalues:   -43.0075    27.5561   155.7234
     23  C    Isotropic =    46.3808   Anisotropy =   163.9272
   XX=    83.9750   YX=   -67.4063   ZX=   -49.8998
   XY=   -59.8496   YY=   -11.9777   ZY=    32.5563
   XZ=   -59.6972   YZ=    14.1774   ZZ=    67.1451
   Eigenvalues:   -43.8301    27.3069   155.6656
     24  C    Isotropic =    18.2456   Anisotropy =   142.6160
   XX=    25.4582   YX=   -34.9311   ZX=   -88.6291
   XY=   -32.4361   YY=    18.6846   ZY=    10.2257
   XZ=   -80.4954   YZ=     8.4719   ZZ=    10.5939
   Eigenvalues:   -69.8932    11.3070   113.3229
     25  C    Isotropic =    64.3623   Anisotropy =   157.2215
   XX=   103.7970   YX=   -11.8906   ZX=   -73.9741
   XY=   -19.6186   YY=    35.4429   ZY=    58.0776
   XZ=   -64.0239   YZ=    57.3126   ZZ=    53.8471
   Eigenvalues:   -24.7772    48.6875   169.1766
     26  C    Isotropic =    51.9196   Anisotropy =   183.5973
   XX=    92.7298   YX=   -67.8150   ZX=   -58.9022
   XY=   -74.1297   YY=   -25.8881   ZY=    32.2318
   XZ=   -52.2960   YZ=    33.2592   ZZ=    88.9170
   Eigenvalues:   -59.3671    40.8080   174.3178
     27  C    Isotropic =    53.8193   Anisotropy =   185.0445
   XX=    62.8520   YX=   -56.6844   ZX=  -104.7491
   XY=   -61.5251   YY=    45.4101   ZY=     6.5746
   XZ=   -93.9069   YZ=    14.2600   ZZ=    53.1958
   Eigenvalues:   -54.0193    38.2948   177.1823
     28  C    Isotropic =    35.3447   Anisotropy =   192.3739
   XX=    71.5572   YX=   -31.9509   ZX=   -83.2822
   XY=   -40.6406   YY=    -2.4027   ZY=    49.5281
   XZ=   -85.4433   YZ=    57.0340   ZZ=    36.8796
   Eigenvalues:   -46.2929   -11.2670   163.5939
     29  C    Isotropic =    43.0301   Anisotropy =   194.4263
   XX=   -25.2909   YX=   -31.2344   ZX=    -1.6168
   XY=   -40.5542   YY=    74.6134   ZY=   -98.5775
   XZ=     2.9716   YZ=   -85.5744   ZZ=    79.7679
   Eigenvalues:   -47.7359     4.1787   172.6476
     30  C    Isotropic =    46.4347   Anisotropy =   173.1138
   XX=   -38.2752   YX=    -0.7724   ZX=    43.6139
   XY=     9.0617   YY=   105.8813   ZY=   -56.3652
   XZ=    46.1169   YZ=   -79.2844   ZZ=    71.6978
   Eigenvalues:   -59.3820    36.8422   161.8438
     31  C    Isotropic =    29.2163   Anisotropy =   199.1679
   XX=   -14.4747   YX=   -16.0119   ZX=    20.0865
   XY=   -13.1397   YY=    55.8306   ZY=  -107.1792
   XZ=    20.5564   YZ=  -107.6242   ZZ=    46.2930
   Eigenvalues:   -56.9809   -17.3651   161.9949
     32  C    Isotropic =    56.8332   Anisotropy =   173.2367
   XX=   -10.6723   YX=   -37.8328   ZX=    -2.3124
   XY=   -49.8616   YY=    86.5310   ZY=   -76.5072
   XZ=   -11.2391   YZ=   -79.4445   ZZ=    94.6410
   Eigenvalues:   -39.3736    37.5489   172.3244
     33  C    Isotropic =    27.2834   Anisotropy =   201.0318
   XX=   -46.9876   YX=    -8.9315   ZX=    31.2412
   XY=    -6.7277   YY=    67.3254   ZY=   -90.4280
   XZ=    33.1353   YZ=   -95.6517   ZZ=    61.5123
   Eigenvalues:   -60.4181   -19.0363   161.3046
     34  C    Isotropic =    52.1125   Anisotropy =   176.5477
   XX=    33.1128   YX=    -1.4679   ZX=    23.5890
   XY=    -2.6874   YY=    64.8132   ZY=  -100.4568
   XZ=    13.5535   YZ=  -112.7855   ZZ=    58.4116
   Eigenvalues:   -46.8437    33.3703   169.8110
     35  C    Isotropic =    45.1592   Anisotropy =   194.1731
   XX=   124.5424   YX=    20.5875   ZX=    82.7861
   XY=    15.6600   YY=   -40.6763   ZY=   -15.4371
   XZ=    73.3574   YZ=    -8.7564   ZZ=    51.6117
   Eigenvalues:   -48.8534     9.7232   174.6079
     36  C    Isotropic =    44.7580   Anisotropy =   177.1477
   XX=    98.0180   YX=    -3.2319   ZX=   106.4568
   XY=    10.6865   YY=    33.0771   ZY=    -6.5531
   XZ=    97.0339   YZ=    -8.1612   ZZ=     3.1789
   Eigenvalues:   -62.3604    33.7779   162.8565
     37  C    Isotropic =    29.9090   Anisotropy =   201.3128
   XX=   108.3902   YX=    -1.0489   ZX=    87.8291
   XY=    -4.5136   YY=   -37.8710   ZY=    23.6642
   XZ=    90.8789   YZ=    21.6222   ZZ=    19.2076
   Eigenvalues:   -57.9226   -16.4680   164.1175
     38  C    Isotropic =    58.5689   Anisotropy =   173.0844
   XX=   131.0248   YX=    28.0806   ZX=    63.1598
   XY=    25.4142   YY=   -26.7630   ZY=   -16.2816
   XZ=    67.1170   YZ=   -12.7826   ZZ=    71.4449
   Eigenvalues:   -38.2684    40.0167   173.9585
     39  C    Isotropic =    29.5673   Anisotropy =   201.2902
   XX=    97.0483   YX=    10.4602   ZX=    98.4895
   XY=    13.7455   YY=   -14.9119   ZY=     6.1521
   XZ=   104.0104   YZ=     7.0118   ZZ=     6.5654
   Eigenvalues:   -59.1170   -15.9419   163.7608
     40  C    Isotropic =    46.9137   Anisotropy =   187.1856
   XX=   127.6528   YX=   -19.2141   ZX=    77.4616
   XY=   -10.8911   YY=   -17.9657   ZY=    50.4087
   XZ=    78.9860   YZ=    38.9378   ZZ=    31.0541
   Eigenvalues:   -61.8666    30.9037   171.7041
     41  C    Isotropic =   107.5215   Anisotropy =    77.4777
   XX=    77.9613   YX=     8.5779   ZX=   -17.9481
   XY=     4.6659   YY=    89.3548   ZY=     8.0832
   XZ=   -16.5581   YZ=     3.2112   ZZ=   155.2484
   Eigenvalues:    71.0501    92.3411   159.1733
     42  H    Isotropic =    23.3967   Anisotropy =    17.5004
   XX=    33.4061   YX=     6.5318   ZX=    -1.8774
   XY=     2.1149   YY=    19.6912   ZY=    -1.8144
   XZ=    -1.6887   YZ=    -5.1025   ZZ=    17.0929
   Eigenvalues:    14.6355    20.4910    35.0637
     43  H    Isotropic =    23.9060   Anisotropy =    15.0205
   XX=    25.4850   YX=    -3.4376   ZX=     4.6623
   XY=    -3.9473   YY=    22.0519   ZY=    -5.8841
   XZ=     5.1636   YZ=    -6.6070   ZZ=    24.1811
   Eigenvalues:    16.7600    21.0383    33.9197
     44  H    Isotropic =    23.1212   Anisotropy =    13.9608
   XX=    20.2394   YX=     2.7350   ZX=    -3.6126
   XY=     3.8174   YY=    24.2063   ZY=    -4.8552
   XZ=    -4.2462   YZ=    -6.5732   ZZ=    24.9181
   Eigenvalues:    18.0053    18.9300    32.4284
     45  H    Isotropic =    23.7831   Anisotropy =    14.3126
   XX=    26.3422   YX=    -5.5066   ZX=     1.5729
   XY=    -4.7138   YY=    21.0565   ZY=    -4.7111
   XZ=     3.4797   YZ=    -8.5797   ZZ=    23.9506
   Eigenvalues:    15.0905    22.9340    33.3248
     46  H    Isotropic =    24.0322   Anisotropy =    14.1580
   XX=    23.1618   YX=     2.2067   ZX=     5.8420
   XY=     2.3057   YY=    22.9076   ZY=     4.8808
   XZ=     5.3912   YZ=     5.9485   ZZ=    26.0272
   Eigenvalues:    17.8501    20.7757    33.4709
     47  H    Isotropic =    23.5897   Anisotropy =    12.0079
   XX=    20.7664   YX=     1.0172   ZX=    -2.0805
   XY=    -0.0910   YY=    30.7736   ZY=     2.7409
   XZ=     0.0513   YZ=     3.6185   ZZ=    19.2292
   Eigenvalues:    17.9785    21.1957    31.5950
     48  H    Isotropic =    25.2286   Anisotropy =    11.2154
   XX=    23.1714   YX=    -1.2240   ZX=    -2.4573
   XY=    -4.3633   YY=    26.5937   ZY=     5.5576
   XZ=    -3.9588   YZ=     3.5533   ZZ=    25.9208
   Eigenvalues:    21.0351    21.9452    32.7055
     49  H    Isotropic =    24.7225   Anisotropy =     4.3407
   XX=    24.3417   YX=     0.4233   ZX=    -1.4418
   XY=    -0.0555   YY=    23.2667   ZY=     1.2216
   XZ=    -1.5045   YZ=     1.5603   ZZ=    26.5591
   Eigenvalues:    22.4527    24.0985    27.6163
     50  H    Isotropic =    25.0488   Anisotropy =     4.8002
   XX=    24.3347   YX=     2.8318   ZX=     0.4148
   XY=     2.1691   YY=    26.0766   ZY=    -0.8207
   XZ=    -1.1307   YZ=    -1.5514   ZZ=    24.7350
   Eigenvalues:    22.4797    24.4177    28.2489
     51  H    Isotropic =    25.2273   Anisotropy =     4.8688
   XX=    25.3093   YX=     2.4763   ZX=    -0.6827
   XY=     2.7136   YY=    26.1381   ZY=     0.4463
   XZ=     1.0271   YZ=     1.1409   ZZ=    24.2344
   Eigenvalues:    22.9698    24.2390    28.4731
     52  H    Isotropic =    24.6541   Anisotropy =     4.6329
   XX=    24.9655   YX=     0.3776   ZX=     1.7625
   XY=    -0.3306   YY=    23.0802   ZY=    -1.6323
   XZ=     1.8478   YZ=    -1.8875   ZZ=    25.9166
   Eigenvalues:    21.9759    24.2436    27.7427
     53  H    Isotropic =    25.1814   Anisotropy =    11.8959
   XX=    22.9828   YX=    -1.3687   ZX=     2.7122
   XY=    -4.4358   YY=    26.8310   ZY=    -5.7915
   XZ=     4.5687   YZ=    -3.6281   ZZ=    25.7305
   Eigenvalues:    20.4315    22.0007    33.1120
     54  H    Isotropic =    23.1238   Anisotropy =    14.2897
   XX=    20.3184   YX=     2.9901   ZX=     3.6611
   XY=     4.0591   YY=    24.1068   ZY=     4.9049
   XZ=     4.4326   YZ=     6.6454   ZZ=    24.9462
   Eigenvalues:    17.9526    18.7686    32.6502
     55  H    Isotropic =    23.7496   Anisotropy =    14.8806
   XX=    24.3729   YX=    -3.9642   ZX=    -4.8996
   XY=    -3.9759   YY=    22.4814   ZY=     5.5171
   XZ=    -4.9241   YZ=     6.2153   ZZ=    24.3944
   Eigenvalues:    17.4873    20.0915    33.6699
     56  H    Isotropic =    23.8686   Anisotropy =    16.9095
   XX=    34.0438   YX=     5.7020   ZX=     0.6646
   XY=     1.8510   YY=    19.9666   ZY=     2.2548
   XZ=     0.7155   YZ=     5.2266   ZZ=    17.5956
   Eigenvalues:    14.7001    21.7642    35.1416
     57  H    Isotropic =    23.4756   Anisotropy =    12.4522
   XX=    20.8659   YX=     1.0483   ZX=     2.2232
   XY=     0.0098   YY=    30.7790   ZY=    -3.1719
   XZ=    -0.2169   YZ=    -4.0097   ZZ=    18.7819
   Eigenvalues:    17.4315    21.2182    31.7771
     58  H    Isotropic =    24.1360   Anisotropy =    14.6326
   XX=    22.8572   YX=     1.0615   ZX=    -6.8239
   XY=     1.7210   YY=    22.3610   ZY=    -4.2717
   XZ=    -6.7348   YZ=    -4.7507   ZZ=    27.1898
   Eigenvalues:    17.2757    21.2413    33.8911
     59  H    Isotropic =    23.7666   Anisotropy =    13.9524
   XX=    26.4785   YX=    -5.2167   ZX=    -1.2390
   XY=    -4.5132   YY=    21.8058   ZY=     4.9411
   XZ=    -2.9305   YZ=     8.9574   ZZ=    23.0156
   Eigenvalues:    14.9568    23.2749    33.0682
     60  H    Isotropic =    27.6948   Anisotropy =     7.2863
   XX=    23.6546   YX=     0.1089   ZX=    -2.5870
   XY=     1.8847   YY=    27.8569   ZY=     0.2196
   XZ=    -2.6379   YZ=    -1.6076   ZZ=    31.5729
   Eigenvalues:    22.7564    27.7756    32.5523
     61  C    Isotropic =   153.1176   Anisotropy =    26.2786
   XX=   138.2312   YX=   -13.4366   ZX=     1.4884
   XY=    -5.3306   YY=   161.6771   ZY=    11.2460
   XZ=     1.5422   YZ=     6.2958   ZZ=   159.4444
   Eigenvalues:   134.1337   154.5824   170.6367
     62  C    Isotropic =   114.0539   Anisotropy =    60.1178
   XX=    98.3784   YX=    -9.9652   ZX=    17.8186
   XY=    -8.7758   YY=    93.1165   ZY=     3.0318
   XZ=     9.7830   YZ=    -1.8200   ZZ=   150.6670
   Eigenvalues:    84.7289   103.3005   154.1325
     63  H    Isotropic =    27.1700   Anisotropy =     6.9567
   XX=    23.2899   YX=    -2.3639   ZX=     1.6272
   XY=    -1.7547   YY=    28.2903   ZY=     1.4300
   XZ=     1.1067   YZ=     3.7069   ZZ=    29.9299
   Eigenvalues:    21.9292    27.7730    31.8079
     64  H    Isotropic =    29.2150   Anisotropy =     3.5228
   XX=    30.1902   YX=    -0.5655   ZX=     2.4400
   XY=     0.9959   YY=    28.2799   ZY=    -1.2078
   XZ=     1.1680   YZ=     0.1480   ZZ=    29.1750
   Eigenvalues:    27.4421    28.6395    31.5636
     65  H    Isotropic =    30.3034   Anisotropy =    12.2200
   XX=    26.1665   YX=    -2.2859   ZX=     3.0173
   XY=    -0.9071   YY=    27.1709   ZY=     1.5009
   XZ=     3.2367   YZ=     1.2093   ZZ=    37.5727
   Eigenvalues:    24.1632    28.2969    38.4500
     66  C    Isotropic =   156.4559   Anisotropy =    36.2693
   XX=   161.4493   YX=    16.7555   ZX=   -15.5359
   XY=    10.2935   YY=   155.1325   ZY=    -9.6144
   XZ=    -8.2693   YZ=    -9.7615   ZZ=   152.7861
   Eigenvalues:   144.1944   144.5379   180.6355
     67  C    Isotropic =   146.6820   Anisotropy =    14.5795
   XX=   156.0315   YX=     1.3562   ZX=    -0.0552
   XY=    -3.1983   YY=   142.3869   ZY=     1.5183
   XZ=     4.5354   YZ=     2.0773   ZZ=   141.6275
   Eigenvalues:   139.8349   143.8094   156.4016
     68  C    Isotropic =   152.2619   Anisotropy =    42.4849
   XX=   147.1362   YX=    -8.5815   ZX=    -0.3368
   XY=    -7.4213   YY=   178.2764   ZY=     3.1973
   XZ=    -3.5384   YZ=     4.6799   ZZ=   131.3731
   Eigenvalues:   130.9364   145.2641   180.5851
     69  C    Isotropic =   150.6017   Anisotropy =    42.3654
   XX=   142.5727   YX=     2.6585   ZX=     1.4492
   XY=     5.0287   YY=   131.5567   ZY=     9.1252
   XZ=     1.2601   YZ=     5.0741   ZZ=   177.6756
   Eigenvalues:   129.4924   143.4673   178.8453
     70  H    Isotropic =    29.8564   Anisotropy =     8.3479
   XX=    29.4789   YX=     3.0604   ZX=     0.0773
   XY=     2.2073   YY=    33.8495   ZY=    -1.9979
   XZ=     1.4286   YZ=    -2.5056   ZZ=    26.2409
   Eigenvalues:    25.0927    29.0549    35.4217
     71  H    Isotropic =    30.4242   Anisotropy =     9.7906
   XX=    36.8282   YX=     0.9397   ZX=     0.8220
   XY=     0.9794   YY=    27.2675   ZY=    -1.4175
   XZ=     0.5293   YZ=    -1.8062   ZZ=    27.1770
   Eigenvalues:    25.4923    28.8291    36.9513
     72  H    Isotropic =    29.9886   Anisotropy =     8.7557
   XX=    30.5115   YX=     0.6114   ZX=    -3.5036
   XY=    -0.9008   YY=    26.2102   ZY=    -2.3688
   XZ=    -3.0936   YZ=    -2.3429   ZZ=    33.2439
   Eigenvalues:    25.2069    28.9331    35.8257
     73  H    Isotropic =    30.2321   Anisotropy =    11.1499
   XX=    33.1667   YX=     3.0049   ZX=    -2.6024
   XY=     2.7870   YY=    32.4598   ZY=    -4.3467
   XZ=    -4.5089   YZ=    -2.5118   ZZ=    25.0700
   Eigenvalues:    23.1303    29.9007    37.6654
     74  H    Isotropic =    30.7086   Anisotropy =     7.0423
   XX=    29.4035   YX=    -0.0282   ZX=    -1.6876
   XY=    -2.0482   YY=    31.6389   ZY=     3.1669
   XZ=    -3.3948   YZ=     2.7739   ZZ=    31.0834
   Eigenvalues:    27.2740    29.4484    35.4035
     75  H    Isotropic =    30.5539   Anisotropy =     9.2913
   XX=    34.5894   YX=    -2.4024   ZX=     1.0530
   XY=    -4.3366   YY=    30.8774   ZY=    -2.3874
   XZ=    -0.3495   YZ=    -1.5821   ZZ=    26.1951
   Eigenvalues:    25.3749    29.5388    36.7481
     76  H    Isotropic =    29.8208   Anisotropy =     9.7955
   XX=    32.2590   YX=     4.0747   ZX=    -2.3207
   XY=     3.3435   YY=    26.4486   ZY=    -1.0663
   XZ=    -2.4497   YZ=    -5.1000   ZZ=    30.7548
   Eigenvalues:    24.0934    29.0178    36.3511
     77  H    Isotropic =    30.3538   Anisotropy =     9.1296
   XX=    32.9920   YX=     0.6476   ZX=     3.1375
   XY=     1.1087   YY=    26.3154   ZY=    -0.2619
   XZ=     4.9018   YZ=    -1.8852   ZZ=    31.7539
   Eigenvalues:    25.6038    29.0174    36.4401
     78  H    Isotropic =    30.3714   Anisotropy =     6.0005
   XX=    28.8632   YX=     0.3627   ZX=    -0.9050
   XY=     1.0811   YY=    31.5383   ZY=     3.3542
   XZ=     1.1650   YZ=     2.9404   ZZ=    30.7129
   Eigenvalues:    27.8074    28.9351    34.3718
     79  C    Isotropic =   156.3474   Anisotropy =    35.8963
   XX=   171.5946   YX=    11.0389   ZX=    -2.6127
   XY=    17.8905   YY=   152.5777   ZY=    -0.7838
   XZ=    -7.0245   YZ=    -4.8934   ZZ=   144.8700
   Eigenvalues:   143.9363   144.8277   180.2783
     80  C    Isotropic =   146.2110   Anisotropy =    14.1603
   XX=   139.7942   YX=    -1.0835   ZX=    -1.0414
   XY=     1.8712   YY=   149.0700   ZY=    -4.1297
   XZ=    -4.8584   YZ=    -7.5643   ZZ=   149.7687
   Eigenvalues:   138.8057   144.1760   155.6512
     81  C    Isotropic =   151.1463   Anisotropy =    43.7345
   XX=   157.9051   YX=   -18.6888   ZX=   -13.6721
   XY=   -21.4660   YY=   155.6667   ZY=     2.6691
   XZ=   -13.2169   YZ=     2.5428   ZZ=   139.8671
   Eigenvalues:   129.5150   143.6213   180.3026
     82  C    Isotropic =   149.9452   Anisotropy =    46.0273
   XX=   137.6490   YX=    11.2676   ZX=     7.1577
   XY=    10.5209   YY=   141.6845   ZY=    16.7996
   XZ=    11.6951   YZ=    12.5784   ZZ=   170.5021
   Eigenvalues:   128.4263   140.7792   180.6301
     83  H    Isotropic =    29.7183   Anisotropy =     8.6748
   XX=    34.3848   YX=    -1.8816   ZX=    -2.5113
   XY=    -1.2447   YY=    26.4136   ZY=    -1.2513
   XZ=    -2.8890   YZ=    -2.1828   ZZ=    28.3566
   Eigenvalues:    24.6190    29.0344    35.5015
     84  H    Isotropic =    30.2546   Anisotropy =     9.4726
   XX=    29.2586   YX=     2.1124   ZX=    -1.6667
   XY=     1.5900   YY=    30.9460   ZY=    -4.9950
   XZ=    -1.1726   YZ=    -5.1605   ZZ=    30.5590
   Eigenvalues:    25.6490    28.5450    36.5697
     85  H    Isotropic =    29.8104   Anisotropy =     7.9519
   XX=    30.8010   YX=     3.3340   ZX=     2.7743
   XY=     3.8511   YY=    30.8133   ZY=     0.4638
   XZ=     2.2528   YZ=     0.8613   ZZ=    27.8169
   Eigenvalues:    25.9083    28.4113    35.1117
     86  H    Isotropic =    29.1528   Anisotropy =    10.3421
   XX=    33.9150   YX=     0.7405   ZX=    -3.9855
   XY=    -1.2060   YY=    27.6154   ZY=    -2.4703
   XZ=    -5.1788   YZ=    -1.5669   ZZ=    25.9281
   Eigenvalues:    23.0236    28.3872    36.0476
     87  H    Isotropic =    30.0861   Anisotropy =     7.1503
   XX=    29.2436   YX=    -1.4438   ZX=    -3.0551
   XY=    -0.9519   YY=    31.5957   ZY=     1.9212
   XZ=    -2.6265   YZ=     3.7914   ZZ=    29.4190
   Eigenvalues:    26.1736    29.2317    34.8530
     88  H    Isotropic =    30.1169   Anisotropy =     8.2241
   XX=    29.4546   YX=    -2.7480   ZX=    -0.0034
   XY=    -2.4720   YY=    32.2143   ZY=    -4.8333
   XZ=    -0.8813   YZ=    -3.4615   ZZ=    28.6818
   Eigenvalues:    25.1145    29.6366    35.5996
     89  H    Isotropic =    29.7038   Anisotropy =     6.7878
   XX=    30.1445   YX=     4.2149   ZX=    -1.1339
   XY=     5.4669   YY=    28.4090   ZY=     0.9244
   XZ=     1.6897   YZ=    -0.4834   ZZ=    30.5580
   Eigenvalues:    24.3587    30.5237    34.2290
     90  H    Isotropic =    30.1400   Anisotropy =     9.9056
   XX=    27.3393   YX=     0.2377   ZX=     1.2236
   XY=     0.6248   YY=    27.0726   ZY=    -0.8249
   XZ=     1.8580   YZ=    -3.6358   ZZ=    36.0079
   Eigenvalues:    26.0192    27.6570    36.7437
     91  H    Isotropic =    30.3303   Anisotropy =     7.8045
   XX=    28.6361   YX=    -0.7729   ZX=    -1.8572
   XY=    -1.7371   YY=    29.7081   ZY=     4.5195
   XZ=    -2.0472   YZ=     1.9986   ZZ=    32.6469
   Eigenvalues:    27.6024    27.8553    35.5333
     92  C    Isotropic =   153.4007   Anisotropy =    41.9868
   XX=   146.1974   YX=    15.3046   ZX=   -10.5615
   XY=    14.4982   YY=   151.6380   ZY=   -13.9436
   XZ=    -9.0163   YZ=   -16.8674   ZZ=   162.3667
   Eigenvalues:   133.4667   145.3435   181.3919
     93  C    Isotropic =   146.4647   Anisotropy =    10.7683
   XX=   149.0699   YX=     0.7096   ZX=     4.3813
   XY=    -1.4585   YY=   140.4818   ZY=    -1.4037
   XZ=     3.9546   YZ=     2.4812   ZZ=   149.8425
   Eigenvalues:   140.3962   145.3543   153.6436
     94  C    Isotropic =   156.4538   Anisotropy =    31.6915
   XX=   146.6265   YX=     8.1752   ZX=     2.2883
   XY=     3.7420   YY=   173.1334   ZY=     6.3335
   XZ=     1.5746   YZ=    12.1027   ZZ=   149.6016
   Eigenvalues:   145.3470   146.4330   177.5815
     95  C    Isotropic =   151.4795   Anisotropy =    46.0309
   XX=   170.9625   YX=   -20.2796   ZX=    -5.0220
   XY=   -16.5481   YY=   144.8508   ZY=     7.9014
   XZ=    -6.6750   YZ=     6.6730   ZZ=   138.6252
   Eigenvalues:   132.3308   139.9409   182.1667
     96  H    Isotropic =    29.9200   Anisotropy =     7.1516
   XX=    26.8994   YX=     2.8912   ZX=     0.7598
   XY=     1.5170   YY=    34.0496   ZY=     0.3371
   XZ=     1.1713   YZ=    -1.4586   ZZ=    28.8109
   Eigenvalues:    25.8748    29.1975    34.6877
     97  H    Isotropic =    30.3705   Anisotropy =    10.0136
   XX=    27.7291   YX=    -0.8431   ZX=     1.6077
   XY=    -1.2695   YY=    29.0037   ZY=    -3.7828
   XZ=     3.2864   YZ=    -3.6730   ZZ=    34.3787
   Eigenvalues:    26.8534    27.2119    37.0462
     98  H    Isotropic =    29.9298   Anisotropy =     7.3885
   XX=    32.5948   YX=    -3.4967   ZX=    -3.2786
   XY=    -2.3290   YY=    28.8361   ZY=    -1.7290
   XZ=    -2.6155   YZ=    -0.9600   ZZ=    28.3584
   Eigenvalues:    24.9840    29.9498    34.8554
     99  H    Isotropic =    29.9404   Anisotropy =     8.8849
   XX=    30.8113   YX=     3.3177   ZX=     0.1819
   XY=     2.9510   YY=    31.7825   ZY=    -3.9974
   XZ=    -0.5294   YZ=    -4.3754   ZZ=    27.2275
   Eigenvalues:    24.3668    29.5908    35.8637
    100  H    Isotropic =    29.5599   Anisotropy =     9.8530
   XX=    31.8580   YX=    -4.9053   ZX=    -0.3330
   XY=    -5.3529   YY=    29.6559   ZY=     1.2406
   XZ=    -0.5152   YZ=     1.0800   ZZ=    27.1659
   Eigenvalues:    25.2836    27.2677    36.1286
    101  H    Isotropic =    30.5479   Anisotropy =     8.4376
   XX=    30.6241   YX=    -0.0508   ZX=     4.7153
   XY=     0.3788   YY=    28.7437   ZY=     0.9613
   XZ=     4.5237   YZ=    -0.0000   ZZ=    32.2758
   Eigenvalues:    26.7404    28.7304    36.1730
    102  H    Isotropic =    30.3325   Anisotropy =     8.4434
   XX=    34.3338   YX=     0.1566   ZX=    -2.2893
   XY=    -0.1384   YY=    28.7340   ZY=    -1.7710
   XZ=    -4.6877   YZ=    -2.1948   ZZ=    27.9298
   Eigenvalues:    25.3950    29.6412    35.9614
    103  H    Isotropic =    30.3078   Anisotropy =    10.8671
   XX=    34.0343   YX=    -3.5270   ZX=     5.1761
   XY=    -3.1461   YY=    28.4478   ZY=    -1.7184
   XZ=     2.7987   YZ=    -1.1646   ZZ=    28.4414
   Eigenvalues:    26.2852    27.0857    37.5526
    104  H    Isotropic =    29.8616   Anisotropy =     7.9931
   XX=    30.1158   YX=    -4.1221   ZX=     1.7102
   XY=    -1.0131   YY=    32.9469   ZY=     2.8528
   XZ=     0.3956   YZ=     3.8619   ZZ=    26.5220
   Eigenvalues:    24.3609    30.0336    35.1903
    105  C    Isotropic =   152.6277   Anisotropy =    42.9443
   XX=   136.2301   YX=    -0.5779   ZX=   -13.7567
   XY=     1.8497   YY=   143.6524   ZY=     1.3868
   XZ=   -10.4586   YZ=    -0.6716   ZZ=   178.0006
   Eigenvalues:   132.9277   143.6981   181.2573
    106  C    Isotropic =   146.9557   Anisotropy =    13.2276
   XX=   144.6048   YX=     2.6563   ZX=    -2.0843
   XY=     0.1730   YY=   153.1538   ZY=     3.6653
   XZ=    -1.6687   YZ=     7.7917   ZZ=   143.1085
   Eigenvalues:   139.4827   145.6103   155.7742
    107  C    Isotropic =   148.7646   Anisotropy =    39.4152
   XX=   174.9869   YX=    -1.9023   ZX=     1.9229
   XY=     0.8298   YY=   142.1229   ZY=     2.3268
   XZ=     0.9785   YZ=    -1.9514   ZZ=   129.1838
   Eigenvalues:   129.1347   142.1176   175.0414
    108  C    Isotropic =   156.8465   Anisotropy =    35.5886
   XX=   151.8436   YX=    -9.9658   ZX=     5.8535
   XY=   -15.3127   YY=   168.0208   ZY=   -15.6617
   XZ=     4.7340   YZ=    -8.1184   ZZ=   150.6749
   Eigenvalues:   144.0052   145.9620   180.5722
    109  H    Isotropic =    30.5440   Anisotropy =     8.4134
   XX=    32.7483   YX=    -1.9061   ZX=    -4.5706
   XY=     0.1280   YY=    28.0739   ZY=     0.3052
   XZ=    -3.4833   YZ=     1.8589   ZZ=    30.8099
   Eigenvalues:    27.4267    28.0525    36.1530
    110  H    Isotropic =    30.4042   Anisotropy =     9.7411
   XX=    26.9654   YX=    -0.7752   ZX=    -0.3160
   XY=     0.3326   YY=    30.9710   ZY=     3.9088
   XZ=     1.8169   YZ=     5.3148   ZZ=    33.2763
   Eigenvalues:    26.4870    27.8274    36.8983
    111  H    Isotropic =    29.7080   Anisotropy =     5.4476
   XX=    25.6381   YX=    -1.9662   ZX=    -1.7742
   XY=    -1.6043   YY=    31.8813   ZY=    -0.9452
   XZ=     2.1072   YZ=    -1.6674   ZZ=    31.6046
   Eigenvalues:    25.1588    30.6255    33.3397
    112  H    Isotropic =    30.5465   Anisotropy =     5.5710
   XX=    31.8894   YX=    -0.8325   ZX=    -3.0761
   XY=    -1.0053   YY=    29.4149   ZY=     0.9822
   XZ=    -2.3606   YZ=     0.7221   ZZ=    30.3352
   Eigenvalues:    28.2666    29.1123    34.2605
    113  H    Isotropic =    29.9599   Anisotropy =     9.7253
   XX=    32.4636   YX=    -4.4173   ZX=     3.4430
   XY=    -3.4188   YY=    31.5347   ZY=     0.7958
   XZ=     3.1627   YZ=    -0.0281   ZZ=    25.8814
   Eigenvalues:    23.9665    29.4697    36.4434
    114  H    Isotropic =    30.4581   Anisotropy =     8.1100
   XX=    32.4416   YX=     2.3493   ZX=     3.8227
   XY=     1.4137   YY=    31.8952   ZY=     2.4792
   XZ=     3.1205   YZ=     1.5982   ZZ=    27.0374
   Eigenvalues:    25.1712    30.3382    35.8648
    115  H    Isotropic =    30.0708   Anisotropy =     9.1720
   XX=    33.2124   YX=    -4.2185   ZX=     1.7809
   XY=    -4.0259   YY=    30.0970   ZY=     0.3092
   XZ=     2.2500   YZ=     1.8434   ZZ=    26.9029
   Eigenvalues:    24.9827    29.0442    36.1854
    116  H    Isotropic =    30.4381   Anisotropy =     9.6178
   XX=    27.1744   YX=    -0.6054   ZX=     1.3657
   XY=     0.0449   YY=    36.3330   ZY=     2.2631
   XZ=     1.7063   YZ=     2.0582   ZZ=    27.8070
   Eigenvalues:    25.6720    28.7923    36.8500
    117  H    Isotropic =    30.0070   Anisotropy =     7.1133
   XX=    26.2995   YX=     0.2467   ZX=     1.2614
   XY=    -0.1833   YY=    31.2538   ZY=    -3.2875
   XZ=     0.9307   YZ=    -2.1897   ZZ=    32.4678
   Eigenvalues:    26.0505    29.2214    34.7492
    118  C    Isotropic =   151.4112   Anisotropy =    43.7010
   XX=   158.7532   YX=   -18.5331   ZX=    13.6444
   XY=   -21.2578   YY=   155.3513   ZY=    -2.7784
   XZ=    13.2835   YZ=    -2.6799   ZZ=   140.1289
   Eigenvalues:   130.0381   143.6501   180.5452
    119  C    Isotropic =   146.5354   Anisotropy =    13.4972
   XX=   140.2867   YX=    -1.0739   ZX=     1.1216
   XY=     1.8430   YY=   149.4476   ZY=     3.8579
   XZ=     4.7057   YZ=     7.1339   ZZ=   149.8720
   Eigenvalues:   139.3074   144.7654   155.5336
    120  C    Isotropic =   150.1726   Anisotropy =    45.7546
   XX=   137.9194   YX=    10.6715   ZX=    -7.0331
   XY=     9.9014   YY=   141.9223   ZY=   -16.8161
   XZ=   -11.3945   YZ=   -12.8526   ZZ=   170.6761
   Eigenvalues:   129.2434   140.5988   180.6757
    121  C    Isotropic =   156.4865   Anisotropy =    35.8709
   XX=   171.4382   YX=    11.2727   ZX=     2.5889
   XY=    18.1433   YY=   153.0364   ZY=     0.4562
   XZ=     6.8334   YZ=     4.6998   ZZ=   144.9851
   Eigenvalues:   144.1697   144.8895   180.4005
    122  H    Isotropic =    30.1091   Anisotropy =     7.1593
   XX=    29.3532   YX=    -1.5096   ZX=     2.9722
   XY=    -0.9397   YY=    31.5537   ZY=    -1.9502
   XZ=     2.6852   YZ=    -3.8029   ZZ=    29.4203
   Eigenvalues:    26.2203    29.2250    34.8820
    123  H    Isotropic =    30.1286   Anisotropy =     8.1415
   XX=    29.6148   YX=    -2.7930   ZX=    -0.0098
   XY=    -2.4596   YY=    32.2040   ZY=     4.8008
   XZ=     0.9626   YZ=     3.4262   ZZ=    28.5670
   Eigenvalues:    25.0791    29.7504    35.5563
    124  H    Isotropic =    29.1856   Anisotropy =    10.5348
   XX=    34.1464   YX=     0.7767   ZX=     3.9138
   XY=    -1.0972   YY=    27.6581   ZY=     2.5049
   XZ=     5.2233   YZ=     1.5951   ZZ=    25.7524
   Eigenvalues:    22.9408    28.4073    36.2089
    125  H    Isotropic =    30.3406   Anisotropy =     7.7930
   XX=    28.7761   YX=    -0.8063   ZX=     1.8992
   XY=    -1.7469   YY=    29.6511   ZY=    -4.4828
   XZ=     2.1221   YZ=    -2.0310   ZZ=    32.5946
   Eigenvalues:    27.5481    27.9377    35.5359
    126  H    Isotropic =    29.6932   Anisotropy =     6.9208
   XX=    30.1289   YX=     4.2959   ZX=     1.1330
   XY=     5.5039   YY=    28.4799   ZY=    -0.9266
   XZ=    -1.6290   YZ=     0.3975   ZZ=    30.4707
   Eigenvalues:    24.3353    30.4371    34.3070
    127  H    Isotropic =    30.1389   Anisotropy =     9.8067
   XX=    27.3857   YX=     0.2086   ZX=    -1.2367
   XY=     0.6320   YY=    27.1041   ZY=     0.8650
   XZ=    -1.8280   YZ=     3.6318   ZZ=    35.9270
   Eigenvalues:    26.0522    27.6879    36.6768
    128  H    Isotropic =    29.7195   Anisotropy =     8.7551
   XX=    34.4646   YX=    -1.8206   ZX=     2.5038
   XY=    -1.1255   YY=    26.4602   ZY=     1.2533
   XZ=     2.9395   YZ=     2.1843   ZZ=    28.2338
   Eigenvalues:    24.6438    28.9585    35.5563
    129  H    Isotropic =    30.2418   Anisotropy =     9.4551
   XX=    29.2521   YX=     2.1183   ZX=     1.6207
   XY=     1.6184   YY=    31.0420   ZY=     4.9936
   XZ=     1.1645   YZ=     5.1343   ZZ=    30.4312
   Eigenvalues:    25.6404    28.5398    36.5452
    130  H    Isotropic =    29.8134   Anisotropy =     8.0195
   XX=    30.7658   YX=     3.3054   ZX=    -2.8459
   XY=     3.8929   YY=    30.8420   ZY=    -0.5251
   XZ=    -2.2359   YZ=    -0.9772   ZZ=    27.8323
   Eigenvalues:    25.9230    28.3575    35.1597
    131  C    Isotropic =   154.1042   Anisotropy =    37.9618
   XX=   142.8802   YX=     2.0077   ZX=     1.9905
   XY=     6.4798   YY=   160.9244   ZY=    17.8416
   XZ=     7.9660   YZ=    19.1569   ZZ=   158.5081
   Eigenvalues:   140.6799   142.2208   179.4121
    132  C    Isotropic =   146.5678   Anisotropy =    13.2119
   XX=   151.4229   YX=    -5.0929   ZX=    -6.6277
   XY=    -2.5984   YY=   143.8547   ZY=     1.2610
   XZ=    -3.1882   YZ=     1.4817   ZZ=   144.4258
   Eigenvalues:   141.5858   142.7419   155.3757
    133  C    Isotropic =   151.9549   Anisotropy =    44.0206
   XX=   145.5090   YX=    14.9045   ZX=    -9.7645
   XY=    13.6310   YY=   167.7848   ZY=   -11.3697
   XZ=   -13.9270   YZ=   -12.2052   ZZ=   142.5708
   Eigenvalues:   132.0858   142.4769   181.3019
    134  C    Isotropic =   151.8431   Anisotropy =    45.3428
   XX=   155.4987   YX=    -9.7177   ZX=    19.2430
   XY=   -14.9082   YY=   137.7917   ZY=    -6.6151
   XZ=    19.3325   YZ=    -5.5105   ZZ=   162.2389
   Eigenvalues:   130.8553   142.6024   182.0717
    135  H    Isotropic =    30.3078   Anisotropy =     9.8467
   XX=    31.5818   YX=     3.2036   ZX=     0.8019
   XY=     2.5191   YY=    33.9368   ZY=     2.6805
   XZ=     2.6820   YZ=     3.2119   ZZ=    25.4047
   Eigenvalues:    24.3799    29.6712    36.8722
    136  H    Isotropic =    30.5224   Anisotropy =     7.7800
   XX=    34.2207   YX=    -0.5446   ZX=    -2.0857
   XY=    -1.4938   YY=    28.6840   ZY=     3.4702
   XZ=    -2.1485   YZ=     3.7360   ZZ=    28.6626
   Eigenvalues:    24.9991    30.8592    35.7091
    137  H    Isotropic =    30.0314   Anisotropy =     9.5992
   XX=    31.3374   YX=     2.5440   ZX=     2.7383
   XY=     2.2380   YY=    26.7621   ZY=     2.9186
   XZ=     3.0571   YZ=     4.1230   ZZ=    31.9947
   Eigenvalues:    24.8521    28.8113    36.4309
    138  H    Isotropic =    29.7764   Anisotropy =     7.6762
   XX=    28.4789   YX=     2.3407   ZX=    -0.5647
   XY=     2.9039   YY=    33.0007   ZY=     3.9279
   XZ=    -2.9636   YZ=     2.1562   ZZ=    27.8495
   Eigenvalues:    24.4795    29.9558    34.8939
    139  H    Isotropic =    30.3499   Anisotropy =     6.3902
   XX=    29.0864   YX=     0.9176   ZX=     1.2187
   XY=     0.9486   YY=    30.6726   ZY=    -4.5423
   XZ=    -0.5670   YZ=    -2.6314   ZZ=    31.2907
   Eigenvalues:    26.9855    29.4542    34.6100
    140  H    Isotropic =    30.3337   Anisotropy =    10.3881
   XX=    34.8173   YX=     2.2172   ZX=    -2.9981
   XY=     3.4323   YY=    28.2676   ZY=    -0.7600
   XZ=    -4.3984   YZ=     0.0609   ZZ=    27.9162
   Eigenvalues:    25.9143    27.8278    37.2591
    141  H    Isotropic =    29.9237   Anisotropy =     7.9823
   XX=    29.9257   YX=     0.3504   ZX=     2.6483
   XY=    -2.5283   YY=    27.6851   ZY=     2.7534
   XZ=     3.2777   YZ=     4.9484   ZZ=    32.1602
   Eigenvalues:    24.3368    30.1890    35.2452
    142  H    Isotropic =    30.4379   Anisotropy =    10.6628
   XX=    36.6542   YX=    -1.6781   ZX=     0.9272
   XY=    -3.2780   YY=    27.1571   ZY=     0.6946
   XZ=     2.8204   YZ=     0.4557   ZZ=    27.5026
   Eigenvalues:    25.8370    27.9303    37.5464
    143  H    Isotropic =    30.6006   Anisotropy =     6.9958
   XX=    29.6048   YX=     0.0578   ZX=     1.9051
   XY=    -1.5148   YY=    31.6451   ZY=    -2.6631
   XZ=     2.9731   YZ=    -3.8948   ZZ=    30.5517
   Eigenvalues:    26.8686    29.6686    35.2645
    144  C    Isotropic =   156.9020   Anisotropy =    35.5463
   XX=   150.7250   YX=    -9.1618   ZX=    -4.9989
   XY=   -14.0696   YY=   169.6304   ZY=    15.9058
   XZ=    -4.2536   YZ=     8.1058   ZZ=   150.3506
   Eigenvalues:   144.1418   145.9647   180.5996
    145  C    Isotropic =   146.6514   Anisotropy =    13.5655
   XX=   144.6515   YX=     2.8827   ZX=     1.6913
   XY=     0.2985   YY=   152.6014   ZY=    -3.9885
   XZ=     1.0915   YZ=    -8.5316   ZZ=   142.7012
   Eigenvalues:   138.9965   145.2626   155.6951
    146  C    Isotropic =   152.2362   Anisotropy =    43.2989
   XX=   136.7617   YX=    -0.0014   ZX=    15.9716
   XY=     2.1652   YY=   143.3948   ZY=    -0.5451
   XZ=    12.3678   YZ=     1.6717   ZZ=   176.5521
   Eigenvalues:   132.1657   143.4407   181.1021
    147  C    Isotropic =   148.5405   Anisotropy =    40.1908
   XX=   174.8734   YX=    -2.8327   ZX=    -4.6820
   XY=    -0.3657   YY=   142.2243   ZY=    -2.9121
   XZ=    -3.8588   YZ=     1.5698   ZZ=   128.5239
   Eigenvalues:   128.0867   142.2005   175.3344
    148  H    Isotropic =    30.0207   Anisotropy =     7.2733
   XX=    26.3985   YX=     0.4636   ZX=    -0.8928
   XY=     0.0975   YY=    31.3486   ZY=     3.4271
   XZ=    -0.6958   YZ=     2.5277   ZZ=    32.3151
   Eigenvalues:    26.1767    29.0158    34.8695
    149  H    Isotropic =    30.4284   Anisotropy =     9.4963
   XX=    27.0966   YX=    -0.5201   ZX=    -1.3906
   XY=     0.1065   YY=    36.1299   ZY=    -2.4960
   XZ=    -1.8155   YZ=    -2.1643   ZZ=    28.0587
   Eigenvalues:    25.6523    28.8736    36.7593
    150  H    Isotropic =    30.0318   Anisotropy =     9.2458
   XX=    32.7729   YX=    -4.4363   ZX=    -1.9827
   XY=    -4.2410   YY=    30.1668   ZY=    -0.2079
   XZ=    -2.5497   YZ=    -1.5420   ZZ=    27.1558
   Eigenvalues:    24.9172    28.9826    36.1957
    151  H    Isotropic =    29.6649   Anisotropy =     5.4971
   XX=    25.5723   YX=    -1.5973   ZX=     2.3047
   XY=    -1.3781   YY=    32.1779   ZY=     0.9980
   XZ=    -1.6873   YZ=     1.8007   ZZ=    31.2444
   Eigenvalues:    25.1918    30.4733    33.3296
    152  H    Isotropic =    30.5191   Anisotropy =     8.4126
   XX=    33.1043   YX=    -2.0362   ZX=     4.5270
   XY=     0.0184   YY=    28.0633   ZY=    -0.2374
   XZ=     3.3043   YZ=    -1.6872   ZZ=    30.3898
   Eigenvalues:    27.4889    27.9409    36.1276
    153  H    Isotropic =    30.3619   Anisotropy =     9.5613
   XX=    26.9649   YX=    -0.9063   ZX=     0.6006
   XY=     0.1978   YY=    30.5754   ZY=    -3.7980
   XZ=    -1.6756   YZ=    -5.0579   ZZ=    33.5454
   Eigenvalues:    26.5361    27.8134    36.7361
    154  H    Isotropic =    29.8194   Anisotropy =     9.8419
   XX=    31.9276   YX=    -4.5375   ZX=    -3.4868
   XY=    -3.5055   YY=    31.7931   ZY=    -0.8093
   XZ=    -3.3403   YZ=     0.1836   ZZ=    25.7374
   Eigenvalues:    23.6864    29.3911    36.3807
    155  H    Isotropic =    30.4064   Anisotropy =     8.1812
   XX=    32.3425   YX=     2.0656   ZX=    -4.2973
   XY=     1.0835   YY=    31.5034   ZY=    -2.5541
   XZ=    -3.5983   YZ=    -1.6109   ZZ=    27.3733
   Eigenvalues:    25.0023    30.3563    35.8605
    156  H    Isotropic =    30.4877   Anisotropy =     5.4118
   XX=    32.1616   YX=    -0.8480   ZX=     2.9422
   XY=    -1.0851   YY=    29.4126   ZY=    -0.8924
   XZ=     2.1857   YZ=    -0.2277   ZZ=    29.8890
   Eigenvalues:    28.2174    29.1502    34.0956
    157  C    Isotropic =   151.6085   Anisotropy =    40.8303
   XX=   149.0419   YX=    -8.1675   ZX=    18.0736
   XY=   -10.3569   YY=   141.1844   ZY=    -4.9971
   XZ=    16.4063   YZ=    -8.5957   ZZ=   164.5991
   Eigenvalues:   134.0621   141.9346   178.8287
    158  C    Isotropic =   146.1629   Anisotropy =    15.6098
   XX=   149.5369   YX=    -5.6212   ZX=    -4.9010
   XY=    -2.0811   YY=   140.9133   ZY=     2.6323
   XZ=    -5.8022   YZ=     7.0499   ZZ=   148.0386
   Eigenvalues:   138.3299   143.5894   156.5694
    159  C    Isotropic =   150.2191   Anisotropy =    44.9707
   XX=   165.7800   YX=    21.3207   ZX=    -1.9934
   XY=    19.2682   YY=   150.5857   ZY=     8.6887
   XZ=    -0.3392   YZ=     8.4719   ZZ=   134.2915
   Eigenvalues:   127.4374   143.0202   180.1996
    160  C    Isotropic =   155.2518   Anisotropy =    36.8140
   XX=   146.2073   YX=   -12.9806   ZX=     0.3396
   XY=    -7.1817   YY=   176.7056   ZY=    -2.2576
   XZ=    -2.4105   YZ=     4.6881   ZZ=   142.8426
   Eigenvalues:   142.3100   143.6509   179.7945
    161  H    Isotropic =    30.4534   Anisotropy =     6.0157
   XX=    33.2173   YX=    -0.3659   ZX=     2.7111
   XY=    -0.8341   YY=    28.7450   ZY=     1.3523
   XZ=     2.3054   YZ=     1.7022   ZZ=    29.3978
   Eigenvalues:    26.7877    30.1086    34.4638
    162  H    Isotropic =    30.3975   Anisotropy =     8.7352
   XX=    28.4231   YX=    -1.8477   ZX=    -1.2120
   XY=    -1.5975   YY=    27.1847   ZY=     0.4730
   XZ=    -2.8269   YZ=     0.6141   ZZ=    35.5848
   Eigenvalues:    25.9138    29.0578    36.2210
    163  H    Isotropic =    29.4774   Anisotropy =    11.0217
   XX=    30.6335   YX=    -7.2289   ZX=     0.7066
   XY=    -5.3860   YY=    30.3898   ZY=     1.0598
   XZ=     0.3644   YZ=    -0.5849   ZZ=    27.4089
   Eigenvalues:    24.1130    27.4940    36.8252
    164  H    Isotropic =    30.3544   Anisotropy =     9.2920
   XX=    34.2708   YX=     1.0180   ZX=     2.3273
   XY=     1.7625   YY=    28.7006   ZY=     2.9252
   XZ=     4.4933   YZ=     2.6013   ZZ=    28.0918
   Eigenvalues:    25.2535    29.2606    36.5491
    165  H    Isotropic =    29.6907   Anisotropy =     7.3373
   XX=    30.2745   YX=     2.4917   ZX=    -1.7970
   XY=     0.1811   YY=    32.9662   ZY=     2.7807
   XZ=    -0.3322   YZ=     4.2667   ZZ=    25.8314
   Eigenvalues:    24.0244    30.4655    34.5823
    166  H    Isotropic =    30.4024   Anisotropy =     9.4580
   XX=    33.6255   YX=     0.8984   ZX=    -5.6143
   XY=     1.2834   YY=    27.9596   ZY=     0.6731
   XZ=    -3.7043   YZ=     1.4342   ZZ=    29.6222
   Eigenvalues:    25.6147    28.8848    36.7078
    167  H    Isotropic =    30.0486   Anisotropy =     8.6039
   XX=    30.3938   YX=    -4.5654   ZX=    -0.0855
   XY=    -3.5188   YY=    31.3490   ZY=    -3.1801
   XZ=     0.9380   YZ=    -2.6060   ZZ=    28.4031
   Eigenvalues:    25.6080    28.7534    35.7846
    168  H    Isotropic =    30.4351   Anisotropy =     9.8857
   XX=    30.0098   YX=    -2.8594   ZX=    -4.4830
   XY=    -2.9394   YY=    30.7273   ZY=     2.9056
   XZ=    -4.0749   YZ=     2.4172   ZZ=    30.5681
   Eigenvalues:    25.9713    28.3084    37.0255
    169  H    Isotropic =    29.8484   Anisotropy =     7.6753
   XX=    27.8694   YX=     1.6365   ZX=    -1.4351
   XY=     2.7755   YY=    34.1324   ZY=     1.2689
   XZ=    -1.5460   YZ=     1.7029   ZZ=    27.5435
   Eigenvalues:    25.4325    29.1475    34.9653
    170  H    Isotropic =    27.8551   Anisotropy =     8.5692
   XX=    27.6405   YX=    -2.9193   ZX=    -1.3212
   XY=    -2.1071   YY=    23.3362   ZY=     0.0062
   XZ=    -3.3381   YZ=    -0.4537   ZZ=    32.5886
   Eigenvalues:    22.0402    27.9572    33.5679
    171  H    Isotropic =    26.9558   Anisotropy =     7.6763
   XX=    22.5485   YX=    -4.0587   ZX=    -0.6387
   XY=    -3.1995   YY=    27.0605   ZY=    -0.7106
   XZ=     2.2026   YZ=    -1.9953   ZZ=    31.2583
   Eigenvalues:    20.5312    28.2628    32.0733
 End of Minotr F.D. properties file   721 does not exist.
 End of Minotr F.D. properties file   722 does not exist.
 End of Minotr F.D. properties file   788 does not exist.
 Hyperfine terms turned off by default for NAtoms > 100.

 **********************************************************************

            Population analysis using the SCF Density.

 **********************************************************************

 Orbital symmetries:
       Occupied  (A) (A) (A) (A) (A) (A) (A) (A) (A) (A) (A) (A)
                 (A) (A) (A) (A) (A) (A) (A) (A) (A) (A) (A) (A)
                 (A) (A) (A) (A) (A) (A) (A) (A) (A) (A) (A) (A)
                 (A) (A) (A) (A) (A) (A) (A) (A) (A) (A) (A) (A)
                 (A) (A) (A) (A) (A) (A) (A) (A) (A) (A) (A) (A)
                 (A) (A) (A) (A) (A) (A) (A) (A) (A) (A) (A) (A)
                 (A) (A) (A) (A) (A) (A) (A) (A) (A) (A) (A) (A)
                 (A) (A) (A) (A) (A) (A) (A) (A) (A) (A) (A) (A)
                 (A) (A) (A) (A) (A) (A) (A) (A) (A) (A) (A) (A)
                 (A) (A) (A) (A) (A) (A) (A) (A) (A) (A) (A) (A)
                 (A) (A) (A) (A) (A) (A) (A) (A) (A) (A) (A) (A)
                 (A) (A) (A) (A) (A) (A) (A) (A) (A) (A) (A) (A)
                 (A) (A) (A) (A) (A) (A) (A) (A) (A) (A) (A) (A)
                 (A) (A) (A) (A) (A) (A) (A) (A) (A) (A) (A) (A)
                 (A) (A) (A) (A) (A) (A) (A) (A) (A) (A) (A) (A)
                 (A) (A) (A) (A) (A) (A) (A) (A) (A) (A) (A) (A)
                 (A) (A) (A) (A) (A) (A) (A) (A) (A) (A) (A) (A)
                 (A) (A) (A) (A) (A) (A) (A) (A) (A) (A) (A) (A)
                 (A) (A) (A) (A) (A) (A) (A) (A) (A) (A) (A) (A)
                 (A) (A) (A) (A) (A) (A) (A) (A) (A) (A) (A) (A)
                 (A) (A) (A) (A) (A) (A) (A) (A) (A) (A) (A) (A)
                 (A) (A) (A) (A) (A) (A) (A) (A) (A) (A) (A) (A)
                 (A) (A) (A) (A) (A) (A) (A) (A) (A) (A) (A) (A)
                 (A) (A) (A) (A) (A) (A) (A) (A)
       Virtual   (A) (A) (A) (A) (A) (A) (A) (A) (A) (A) (A) (A)
                 (A) (A) (A) (A) (A) (A) (A) (A) (A) (A) (A) (A)
                 (A) (A) (A) (A) (A) (A) (A) (A) (A) (A) (A) (A)
                 (A) (A) (A) (A) (A) (A) (A) (A) (A) (A) (A) (A)
                 (A) (A) (A) (A) (A) (A) (A) (A) (A) (A) (A) (A)
                 (A) (A) (A) (A) (A) (A) (A) (A) (A) (A) (A) (A)
                 (A) (A) (A) (A) (A) (A) (A) (A) (A) (A) (A) (A)
                 (A) (A) (A) (A) (A) (A) (A) (A) (A) (A) (A) (A)
                 (A) (A) (A) (A) (A) (A) (A) (A) (A) (A) (A) (A)
                 (A) (A) (A) (A) (A) (A) (A) (A) (A) (A) (A) (A)
                 (A) (A) (A) (A) (A) (A) (A) (A) (A) (A) (A) (A)
                 (A) (A) (A) (A) (A) (A) (A) (A) (A) (A) (A) (A)
                 (A) (A) (A) (A) (A) (A) (A) (A) (A) (A) (A) (A)
                 (A) (A) (A) (A) (A) (A) (A) (A) (A) (A) (A) (A)
                 (A) (A) (A) (A) (A) (A) (A) (A) (A) (A) (A) (A)
                 (A) (A) (A) (A) (A) (A) (A) (A) (A) (A) (A) (A)
                 (A) (A) (A) (A) (A) (A) (A) (A) (A) (A) (A) (A)
                 (A) (A) (A) (A) (A) (A) (A) (A) (A) (A) (A) (A)
                 (A) (A) (A) (A) (A) (A) (A) (A) (A) (A) (A) (A)
                 (A) (A) (A) (A) (A) (A) (A) (A) (A) (A) (A) (A)
                 (A) (A) (A) (A) (A) (A) (A) (A) (A) (A) (A) (A)
[...]
  2762. BD*(   1) C  18 - H  48          0.01673     0.43423   
  2763. BD*(   1) C  19 - C  20          0.01299     0.55701   
  2764. BD*(   1) C  19 - H  49          0.01399     0.41443   
  2765. BD*(   1) C  20 - C  21          0.03176     0.53403   
  2766. BD*(   2) C  20 - C  21          0.37527     0.03663  2761(v),2759(v),784(g)
                                                    2726(v),2807(r)
  2767. BD*(   1) C  20 - H  50          0.01447     0.40726   
  2768. BD*(   1) C  21 - C  22          0.04105     0.52115   
  2769. BD*(   1) C  22 - C  23          0.03055     0.44834   
  2770. BD*(   1) C  23 - C  24          0.04382     0.52304   
  2771. BD*(   1) C  23 - C  28          0.03125     0.53460   
  2772. BD*(   2) C  23 - C  28          0.40601     0.04609  2778(v),2759(v),2774(v)
                                                    2797(r),2745(r),2724(v)
                                                    2768(v),993(g),2758(v)
                                                    2783(r),966(v),863(g)
                                                    2747(r),862(g)
  2773. BD*(   1) C  24 - C  25          0.03214     0.53939   
  2774. BD*(   2) C  24 - C  25          0.36791     0.03917  2778(v),2772(v),2728(v)
                                                    914(g)
  2775. BD*(   1) C  25 - C  26          0.01330     0.56030   
  2776. BD*(   1) C  25 - H  51          0.01350     0.40855   
  2777. BD*(   1) C  26 - C  27          0.01623     0.56241   
  2778. BD*(   2) C  26 - C  27          0.33445     0.04463  2772(v),2774(v),2783(r)
                                                    941(g),966(g)
  2779. BD*(   1) C  26 - H  52          0.01406     0.41566   
  2780. BD*(   1) C  27 - C  28          0.02191     0.54689   
  2781. BD*(   1) C  27 - H  53          0.01674     0.43559   
  2782. BD*(   1) C  29 - C  30          0.02223     0.55567   
  2783. BD*(   2) C  29 - C  30          0.35890     0.04042  2788(v),2793(v),2778(r)
                                                    1044(g),2722(v),2772(r)
                                                    1020(g),2797(r)
  2784. BD*(   1) C  29 - C  34          0.03124     0.55572   
  2785. BD*(   1) C  30 - C  31          0.02554     0.55114   
  2786. BD*(   1) C  30 - H  54          0.01880     0.42487   
  2787. BD*(   1) C  31 - C  32          0.02357     0.56351   
  2788. BD*(   2) C  31 - C  32          0.32711     0.05121  2793(v),2783(v),1096(g)
                                                    2870(v),2866(v)
  2789. BD*(   1) C  31 - C 119          0.03995     0.38364   
  2790. BD*(   1) C  32 - C  33          0.02241     0.54991   
  2791. BD*(   1) C  32 - H  55          0.01828     0.42272   
  2792. BD*(   1) C  33 - C  34          0.02609     0.56248   
  2793. BD*(   2) C  33 - C  34          0.31410     0.05418  2788(v),2783(v),1148(g)
                                                    2883(v),2882(v)
  2794. BD*(   1) C  33 - C 132          0.03995     0.38401   
  2795. BD*(   1) C  34 - H  56          0.01920     0.43706   
  2796. BD*(   1) C  35 - C  36          0.02328     0.55480   
  2797. BD*(   2) C  35 - C  36          0.36157     0.04644  2802(v),2807(v),2759(r)
                                                    2772(r),1200(g),2723(v)
                                                    2761(r),2722(v),2783(r)
  2798. BD*(   1) C  35 - C  40          0.03291     0.54772   
  2799. BD*(   1) C  36 - C  37          0.02575     0.55737   
  2800. BD*(   1) C  36 - H  57          0.01863     0.42533   
  2801. BD*(   1) C  37 - C  38          0.02363     0.56487   
  2802. BD*(   2) C  37 - C  38          0.33712     0.05411  2807(v),2797(v),1252(g)
                                                    2895(v),2894(v),1227(g)
  2803. BD*(   1) C  37 - C 145          0.03970     0.38756   
  2804. BD*(   1) C  38 - C  39          0.02313     0.55822   
  2805. BD*(   1) C  38 - H  58          0.01797     0.43077   
  2806. BD*(   1) C  39 - C  40          0.02529     0.54869   
  2807. BD*(   2) C  39 - C  40          0.32750     0.05377  2802(v),2797(v),1304(g)
                                                    2902(v),2906(v),1279(g)
  2808. BD*(   1) C  39 - C 158          0.04022     0.38343   
  2809. BD*(   1) C  40 - H  59          0.01740     0.42962   
  2810. BD*(   1) C  41 - H  60          0.02275     0.34114   
  2811. BD*(   1) C  41 - C  61          0.02466     0.33888   
  2812. BD*(   1) C  41 - H 171          0.02219     0.34453   
  2813. BD*(   1) C  61 - C  62          0.02713     0.33930   
  2814. BD*(   1) C  61 - H  64          0.01579     0.35233   
  2815. BD*(   1) C  61 - H  65          0.00930     0.34339   
  2816. BD*(   1) C  62 - H  63          0.02683     0.33972   
  2817. BD*(   1) C  62 - H 170          0.01887     0.34537   
  2818. BD*(   1) C  66 - C  67          0.02086     0.34425   
  2819. BD*(   1) C  66 - H  70          0.00741     0.38182   
  2820. BD*(   1) C  66 - H  71          0.00716     0.38557   
  2821. BD*(   1) C  66 - H  72          0.00733     0.38243   
  2822. BD*(   1) C  67 - C  68          0.02409     0.33539   
  2823. BD*(   1) C  67 - C  69          0.02445     0.33448   
  2824. BD*(   1) C  68 - H  73          0.00679     0.39093   
  2825. BD*(   1) C  68 - H  74          0.00662     0.38757   
  2826. BD*(   1) C  68 - H  75          0.00765     0.38140   
  2827. BD*(   1) C  69 - H  76          0.00716     0.38938   
  2828. BD*(   1) C  69 - H  77          0.00795     0.38090   
  2829. BD*(   1) C  69 - H  78          0.00673     0.38579   
  2830. BD*(   1) C  79 - C  80          0.02092     0.34312   
  2831. BD*(   1) C  79 - H  83          0.00740     0.38117   
  2832. BD*(   1) C  79 - H  84          0.00713     0.38491   
  2833. BD*(   1) C  79 - H  85          0.00719     0.38097   
  2834. BD*(   1) C  80 - C  81          0.02404     0.33579   
  2835. BD*(   1) C  80 - C  82          0.02473     0.33282   
  2836. BD*(   1) C  81 - H  86          0.00722     0.38901   
  2837. BD*(   1) C  81 - H  87          0.00672     0.38470   
  2838. BD*(   1) C  81 - H  88          0.00773     0.38189   
  2839. BD*(   1) C  82 - H  89          0.00645     0.38841   
  2840. BD*(   1) C  82 - H  90          0.00792     0.38006   
  2841. BD*(   1) C  82 - H  91          0.00659     0.38537   
  2842. BD*(   1) C  92 - C  93          0.02506     0.33621   
  2843. BD*(   1) C  92 - H  96          0.00702     0.38689   
  2844. BD*(   1) C  92 - H  97          0.00807     0.38102   
  2845. BD*(   1) C  92 - H  98          0.00733     0.39354   
  2846. BD*(   1) C  93 - C  94          0.02062     0.34671   
  2847. BD*(   1) C  93 - C  95          0.02440     0.33742   
  2848. BD*(   1) C  94 - H  99          0.00796     0.38665   
  2849. BD*(   1) C  94 - H 100          0.00790     0.39772   
  2850. BD*(   1) C  94 - H 101          0.00718     0.38778   
  2851. BD*(   1) C  95 - H 102          0.00683     0.38601   
  2852. BD*(   1) C  95 - H 103          0.00787     0.38156   
  2853. BD*(   1) C  95 - H 104          0.00694     0.38740   
  2854. BD*(   1) C 105 - C 106          0.02425     0.33726   
  2855. BD*(   1) C 105 - H 109          0.00669     0.38747   
  2856. BD*(   1) C 105 - H 110          0.00768     0.38271   
  2857. BD*(   1) C 105 - H 111          0.00675     0.39034   
  2858. BD*(   1) C 106 - C 107          0.02447     0.33788   
  2859. BD*(   1) C 106 - C 108          0.02095     0.34620   
  2860. BD*(   1) C 107 - H 112          0.00704     0.39255   
  2861. BD*(   1) C 107 - H 113          0.00706     0.39612   
  2862. BD*(   1) C 107 - H 114          0.00807     0.38514   
  2863. BD*(   1) C 108 - H 115          0.00738     0.38312   
  2864. BD*(   1) C 108 - H 116          0.00711     0.38693   
  2865. BD*(   1) C 108 - H 117          0.00735     0.38222   
  2866. BD*(   1) C 118 - C 119          0.02397     0.33554   
  2867. BD*(   1) C 118 - H 122          0.00671     0.38448   
  2868. BD*(   1) C 118 - H 123          0.00766     0.38162   
  2869. BD*(   1) C 118 - H 124          0.00724     0.38857   
  2870. BD*(   1) C 119 - C 120          0.02464     0.33246   
  2871. BD*(   1) C 119 - C 121          0.02091     0.34266   
  2872. BD*(   1) C 120 - H 125          0.00658     0.38506   
  2873. BD*(   1) C 120 - H 126          0.00642     0.38826   
  2874. BD*(   1) C 120 - H 127          0.00786     0.37964   
  2875. BD*(   1) C 121 - H 128          0.00741     0.38025   
  2876. BD*(   1) C 121 - H 129          0.00708     0.38433   
  2877. BD*(   1) C 121 - H 130          0.00717     0.38025   
  2878. BD*(   1) C 131 - C 132          0.02082     0.34718   
  2879. BD*(   1) C 131 - H 135          0.00739     0.38648   
  2880. BD*(   1) C 131 - H 136          0.00713     0.38758   
  2881. BD*(   1) C 131 - H 137          0.00760     0.38631   
  2882. BD*(   1) C 132 - C 133          0.02456     0.33473   
  2883. BD*(   1) C 132 - C 134          0.02459     0.33472   
  2884. BD*(   1) C 133 - H 138          0.00685     0.38600   
  2885. BD*(   1) C 133 - H 139          0.00668     0.38489   
  2886. BD*(   1) C 133 - H 140          0.00778     0.38023   
  2887. BD*(   1) C 134 - H 141          0.00683     0.38608   
  2888. BD*(   1) C 134 - H 142          0.00784     0.38030   
  2889. BD*(   1) C 134 - H 143          0.00663     0.38626   
  2890. BD*(   1) C 144 - C 145          0.02092     0.34592   
  2891. BD*(   1) C 144 - H 148          0.00732     0.38207   
  2892. BD*(   1) C 144 - H 149          0.00713     0.38670   
  2893. BD*(   1) C 144 - H 150          0.00738     0.38287   
  2894. BD*(   1) C 145 - C 146          0.02430     0.33669   
  2895. BD*(   1) C 145 - C 147          0.02446     0.33734   
  2896. BD*(   1) C 146 - H 151          0.00672     0.39010   
  2897. BD*(   1) C 146 - H 152          0.00669     0.38684   
  2898. BD*(   1) C 146 - H 153          0.00772     0.38232   
  2899. BD*(   1) C 147 - H 154          0.00705     0.39547   
  2900. BD*(   1) C 147 - H 155          0.00809     0.38539   
  2901. BD*(   1) C 147 - H 156          0.00701     0.39143   
  2902. BD*(   1) C 157 - C 158          0.02486     0.33879   
  2903. BD*(   1) C 157 - H 161          0.00707     0.38466   
  2904. BD*(   1) C 157 - H 162          0.00821     0.38151   
  2905. BD*(   1) C 157 - H 163          0.00778     0.40217   
  2906. BD*(   1) C 158 - C 159          0.02387     0.33782   
  2907. BD*(   1) C 158 - C 160          0.02087     0.34356   
  2908. BD*(   1) C 159 - H 164          0.00696     0.38806   
  2909. BD*(   1) C 159 - H 165          0.00722     0.38877   
  2910. BD*(   1) C 159 - H 166          0.00797     0.38276   
  2911. BD*(   1) C 160 - H 167          0.00739     0.38374   
  2912. BD*(   1) C 160 - H 168          0.00730     0.38626   
  2913. BD*(   1) C 160 - H 169          0.00751     0.38215   
       -------------------------------
              Total Lewis  557.56481  ( 98.1628%)
        Valence non-Lewis    9.48569  (  1.6700%)
        Rydberg non-Lewis    0.94950  (  0.1672%)
       -------------------------------
            Total unit  1  568.00000  (100.0000%)
           Charge unit  1    0.00000
 1\1\GINC-NOTCH078\SP\RPBE1PBE\def2TZVP\C71H96O2P2\U1010977\02-Nov-2021
 \0\\# PBE1PBE/def2TZVP int=(grid=ultrafine) empiricaldispersion=GD3BJ 
 pop=nbo guess=read geom=check\\title\\0,1\P,0,-5.0487083432,-0.0468056
 081,2.5078655648\P,0,-2.2001642706,0.1633301021,0.8120128835\O,0,-1.64
 29273176,3.6969532334,3.756994879\O,0,-4.2800734937,4.4795006077,2.939
 7366937\C,0,-6.0977491592,-1.0449668714,3.6324336715\C,0,-7.2142665804
 ,-0.4822612042,4.2653355502\C,0,-7.9682980701,-1.2299939726,5.18681809
 96\C,0,-7.5692419835,-2.5540011617,5.448356179\C,0,-6.4573836248,-3.14
 75389988,4.8178759808\C,0,-5.7226405617,-2.3690682914,3.9073281551\C,0
 ,-6.1137352521,1.2430047463,1.7840655003\C,0,-6.6068104028,2.318716212
 2,2.5489099588\C,0,-7.4634041626,3.2615643313,1.9667712137\C,0,-7.7814
 919049,3.1129746331,0.5973390657\C,0,-7.2831511946,2.0636691167,-0.190
 3071452\C,0,-6.4462723108,1.1167481659,0.4315962014\C,0,-3.9284826943,
 0.8331765929,3.6879457356\C,0,-3.7721086274,0.3280468441,4.9937078499\
 C,0,-2.8976733567,0.9494878638,5.8923280445\C,0,-2.1836369187,2.091930
 7911,5.5157889468\C,0,-2.3445652393,2.6030313613,4.2207275987\C,0,-3.1
 943112221,1.972500694,3.282989923\C,0,-3.2758107625,2.5709539054,1.920
 2328887\C,0,-3.7893971982,3.8825248687,1.7979014969\C,0,-3.8672557333,
 4.5234895119,0.5543450676\C,0,-3.40821103,3.8598900312,-0.5875085528\C
 ,0,-2.8822830416,2.5664223229,-0.4906473768\C,0,-2.8093602372,1.912402
 9822,0.755815262\C,0,-1.4032926304,-0.0326956826,-0.8266574859\C,0,-2.
 2050094817,-0.5043779347,-1.8748148017\C,0,-1.6935865034,-0.6178746479
 ,-3.1805928229\C,0,-0.3582221362,-0.2390265536,-3.3901680682\C,0,0.476
 2490424,0.2289681493,-2.3521136794\C,0,-0.0650419452,0.330478965,-1.06
 05104257\C,0,-0.9039424112,0.0641864525,2.095996329\C,0,-0.8935522368,
 -1.1174595432,2.8515149606\C,0,0.0852428088,-1.3339301885,3.8343289256
 \C,0,1.0665852813,-0.3424712783,4.0110955684\C,0,1.0877887727,0.853478
 4923,3.2644783661\C,0,0.0686462631,1.0580911097,2.3136549006\C,0,-3.69
 27902568,5.7305915842,3.3580283857\H,0,-7.5103799656,0.5416999733,4.02
 48916294\H,0,-8.1497734385,-3.1485966766,6.1555480231\H,0,-4.873722204
 6,-2.7994007438,3.3679771152\H,0,-6.2865823631,2.4259885388,3.58764735
 8\H,0,-8.4384491945,3.8544868635,0.134134499\H,0,-6.0431278126,0.26383
 18717,-0.1249230435\H,0,-4.3384975225,-0.5521877398,5.3067874295\H,0,-
 2.7729481477,0.5383461976,6.899327819\H,0,-1.4925794344,2.5713174815,6
 .2150621074\H,0,-4.3048716701,5.5246326643,0.4911276968\H,0,-3.4686330
 79,4.3486419748,-1.5652371007\H,0,-2.5277298011,2.0588765066,-1.390480
 056\H,0,-3.2289639875,-0.8213991747,-1.6544415704\H,0,0.062490531,-0.3
 236305149,-4.3957905409\H,0,0.5508209653,0.6713157292,-0.2255638766\H,
 0,-1.6619489583,-1.8702040423,2.6451264226\H,0,1.8444078079,-0.5064502
 494,4.7582203992\H,0,0.0179709861,1.9946839581,1.7482077602\H,0,-2.994
 5145094,6.0985816709,2.5836291319\C,0,-2.9889349605,5.5358532676,4.704
 909274\C,0,-1.6158315477,4.8680893882,4.5894949758\H,0,-1.2032049386,4
 .6405044778,5.5908362599\H,0,-3.6537400331,4.9364136222,5.3527167251\H
 ,0,-2.8558894382,6.5170747116,5.1985134877\C,0,-9.9282645257,-1.534932
 2679,6.8035232853\C,0,-9.1849610775,-0.5700830515,5.8608139124\C,0,-10
 .1758675413,-0.0890431079,4.7733658434\C,0,-8.7032730945,0.6470282434,
 6.6870240254\H,0,-9.2798892682,-1.8853241268,7.6254698829\H,0,-10.7922
 675861,-1.0190341355,7.2565542502\H,0,-10.310433742,-2.4183059364,6.26
 32346608\H,0,-9.7139533509,0.6463144034,4.0923122032\H,0,-10.529641255
 5,-0.9361146752,4.1613938162\H,0,-11.0534324634,0.3903304213,5.2433161
 437\H,0,-8.1885366089,1.3896603004,6.0529105966\H,0,-9.5617873691,1.14
 92976378,7.1680791878\H,0,-7.9990305457,0.333536454,7.4770833911\C,0,-
 6.8716306547,-5.2815553906,6.1644759194\C,0,-6.0607515375,-4.617521922
 4,5.0356155125\C,0,-4.559567031,-4.7095435906,5.3968741479\C,0,-6.3173
 92175,-5.3865530913,3.7157052719\H,0,-7.950202475,-5.3127576877,5.9315
 751695\H,0,-6.5334352342,-6.3234604716,6.2973863193\H,0,-6.7389793601,
 -4.758222455,7.1282457003\H,0,-3.9174637516,-4.3324566543,4.584149981\
 H,0,-4.3318396618,-4.1311184517,6.3098255643\H,0,-4.2784970809,-5.7623
 97296,5.5764334682\H,0,-5.7694154373,-4.9407058635,2.8685155371\H,0,-6
 .000827286,-6.4399586529,3.8216324744\H,0,-7.3905901761,-5.3712257729,
 3.4589351538\C,0,-7.5662089953,5.7668230957,2.1182975706\C,0,-8.043474
 9171,4.4434916212,2.7624500703\C,0,-7.5911006194,4.4326012369,4.235477
 8778\C,0,-9.5881065828,4.370738596,2.7261809931\H,0,-7.8932146274,5.85
 20718346,1.0682011475\H,0,-7.9725967197,6.6330433435,2.6708116434\H,0,
 -6.4645542413,5.8202431372,2.1379889489\H,0,-7.9342772448,3.5233613896
 ,4.7608631914\H,0,-6.4927355449,4.4892626175,4.3188031701\H,0,-8.02209
 45344,5.3017823047,4.7617482442\H,0,-9.946440138,3.4352985965,3.190759
 0282\H,0,-10.0247577404,5.2206414734,3.2807715321\H,0,-9.9767430306,4.
 4049320154,1.6944891187\C,0,-8.2190055228,0.5240518676,-1.9469400122\C
 ,0,-7.5884662929,1.9136896994,-1.6892028545\C,0,-6.2584739932,2.031222
 449,-2.4721149823\C,0,-8.5559172785,2.9958787593,-2.2026784267\H,0,-9.
 1792038764,0.4245643711,-1.4119238432\H,0,-8.4099927537,0.3897984661,-
 3.026613788\H,0,-7.5639885536,-0.2981460266,-1.6131958508\H,0,-5.79473
 23614,3.0200998074,-2.3116718574\H,0,-5.5310486852,1.2671392228,-2.151
 8530075\H,0,-6.4364365445,1.8980351076,-3.5543319079\H,0,-9.5270192994
 ,2.9568579731,-1.6786086714\H,0,-8.7495830379,2.8390109046,-3.27754966
 59\H,0,-8.1372629155,4.0110044653,-2.0840950982\C,0,-3.9284960228,-0.4
 420939876,-4.3406445436\C,0,-2.5844795558,-1.2056145149,-4.2870921029\
 C,0,-2.8537722515,-2.6930593893,-3.9490368705\C,0,-1.923106864,-1.1210
 149762,-5.6755441535\H,0,-3.7706122773,0.6341604016,-4.5322154652\H,0,
 -4.5608182102,-0.8474735847,-5.1502605937\H,0,-4.4954327814,-0.5430214
 986,-3.4006671332\H,0,-1.912080767,-3.2683597495,-3.9484894557\H,0,-3.
 3114773367,-2.8116337461,-2.9524629953\H,0,-3.5315760792,-3.1365346596
 ,-4.7007136859\H,0,-0.9910820456,-1.7107118152,-5.7221708087\H,0,-2.60
 94410717,-1.5298718315,-6.4366279892\H,0,-1.6896845644,-0.0783984918,-
 5.9564665696\C,0,2.6977050693,1.0840928506,-1.4211074239\C,0,1.9379068
 044,0.5939959617,-2.666980918\C,0,1.9659623837,1.7204260498,-3.7272913
 869\C,0,2.6654751983,-0.6548738948,-3.2196111082\H,0,2.7277520871,0.31
 35892465,-0.6314523288\H,0,3.7392046894,1.3288313602,-1.6919070164\H,0
 ,2.2401399955,1.9941469751,-0.9959765108\H,0,1.4609785151,1.4172613184
 ,-4.6598225431\H,0,1.4627907882,2.6275203244,-3.349651837\H,0,3.009203
 1744,1.9835045898,-3.9783571627\H,0,2.1877183317,-1.0329056704,-4.1389
 472127\H,0,3.7157790073,-0.4102262347,-3.4599319488\H,0,2.6601903664,-
 1.4709812987,-2.4771058737\C,0,1.1914501835,-2.7284892984,5.6701232159
 \C,0,0.0297374629,-2.6260832819,4.6647180162\C,0,0.0867474507,-3.84722
 80458,3.7153331345\C,0,-1.3038118385,-2.6451499328,5.4504583777\H,0,1.
 1778363002,-1.8999797827,6.4003939941\H,0,1.1089121618,-3.6725689026,6
 .2353479584\H,0,2.1720381368,-2.7279941313,5.162561524\H,0,-0.72896429
 17,-3.8365861702,2.9728752635\H,0,1.0413072079,-3.8670481566,3.1615713
 11\H,0,0.0063654369,-4.7826325113,4.2974619568\H,0,-2.1727721172,-2.59
 48984086,4.7736002246\H,0,-1.3882055789,-3.5745342198,6.0417212687\H,0
 ,-1.3666063317,-1.7846684664,6.1394586144\C,0,1.5575711226,3.200730139
 3,4.0543886926\C,0,2.1862543506,1.9167401353,3.4669533334\C,0,2.839380
 4667,2.2507594299,2.1058339812\C,0,3.2967315696,1.438790747,4.42293357
 8\H,0,1.101097418,2.9955247527,5.0389660019\H,0,2.3314042818,3.9786802
 39,4.1864567824\H,0,0.7665957003,3.5966798982,3.39865007\H,0,3.2928644
 904,1.3526337155,1.6531044261\H,0,2.1069382454,2.656875582,1.388580824
 9\H,0,3.6323437861,3.0082966016,2.2386879662\H,0,3.7789161773,0.514295
 6914,4.0607391957\H,0,4.0754453935,2.2170263404,4.4996535514\H,0,2.912
 8232609,1.2536256156,5.4411860046\H,0,-0.9001128659,5.5352323568,4.080
 1623759\H,0,-4.5170752555,6.4591040235,3.4601587778\\Version=ES64L-G16
 RevB.01\State=1-A\HF=-3594.0742709\RMSD=4.746e-09\Dipole=0.2923924,0.9
 544384,0.4767296\Quadrupole=-7.5621933,4.4881726,3.0740206,2.1939413,1
 .5204969,1.9533182\PG=C01 [X(C71H96O2P2)]\\@


 QUHEN THE CAUSS IS TAKEN AWAY THE EFFECT WANISHETH.
 -- PROVERBS AND REASONS OF THE YEAR 1585
           AS REPRINTED IN PAISLEY MAGAZINE 1828.
 Job cpu time:       0 days  6 hours 51 minutes  5.7 seconds.
 Elapsed time:       0 days  0 hours 12 minutes 56.8 seconds.
 File lengths (MBytes):  RWF=   4318 Int=      0 D2E=      0 Chk=    650 Scr=      1
 Normal termination of Gaussian 16 at Tue Nov  2 15:28:03 2021.
