 Entering Gaussian System, Link 0=/uufs/chpc.utah.edu/sys/installdir/gaussian16/B01/E6B/g16/g16
 Input=catASium_T2_1_SPE.com
 Output=catASium_T2_1_SPE.log
 Initial command:
 /uufs/chpc.utah.edu/sys/installdir/gaussian16/B01/E6B/g16/l1.exe "/scratch/general/lustre/u1010977/3354016/notchpeak.peaks/Gau-306711.inp" -scrdir="/scratch/general/lustre/u1010977/3354016/notchpeak.peaks/"
 Entering Link 1 = /uufs/chpc.utah.edu/sys/installdir/gaussian16/B01/E6B/g16/l1.exe PID=    306713.
  
 Copyright (c) 1988-2017, Gaussian, Inc.  All Rights Reserved.
  
 This is part of the Gaussian(R) 16 program.  It is based on
 the Gaussian(R) 09 system (copyright 2009, Gaussian, Inc.),
 the Gaussian(R) 03 system (copyright 2003, Gaussian, Inc.),
 the Gaussian(R) 98 system (copyright 1998, Gaussian, Inc.),
 the Gaussian(R) 94 system (copyright 1995, Gaussian, Inc.),
 the Gaussian 92(TM) system (copyright 1992, Gaussian, Inc.),
 the Gaussian 90(TM) system (copyright 1990, Gaussian, Inc.),
 the Gaussian 88(TM) system (copyright 1988, Gaussian, Inc.),
 the Gaussian 86(TM) system (copyright 1986, Carnegie Mellon
 University), and the Gaussian 82(TM) system (copyright 1983,
 Carnegie Mellon University). Gaussian is a federally registered
 trademark of Gaussian, Inc.
  
 This software contains proprietary and confidential information,
 including trade secrets, belonging to Gaussian, Inc.
  
 This software is provided under written license and may be
 used, copied, transmitted, or stored only in accord with that
 written license.
  
 The following legend is applicable only to US Government
 contracts under FAR:
  
                    RESTRICTED RIGHTS LEGEND
  
 Use, reproduction and disclosure by the US Government is
 subject to restrictions as set forth in subparagraphs (a)
 and (c) of the Commercial Computer Software - Restricted
 Rights clause in FAR 52.227-19.
  
 Gaussian, Inc.
 340 Quinnipiac St., Bldg. 40, Wallingford CT 06492
  
  
 ---------------------------------------------------------------
 Warning -- This program may not be used in any manner that
 competes with the business of Gaussian, Inc. or will provide
 assistance to any competitor of Gaussian, Inc.  The licensee
 of this program is prohibited from giving any competitor of
 Gaussian, Inc. access to this program.  By using this program,
 the user acknowledges that Gaussian, Inc. is engaged in the
 business of creating and licensing software in the field of
 computational chemistry and represents and warrants to the
 licensee that it is not a competitor of Gaussian, Inc. and that
 it will not use this program in any manner prohibited above.
 ---------------------------------------------------------------
  

 Cite this work as:
 Gaussian 16, Revision B.01,
 M. J. Frisch, G. W. Trucks, H. B. Schlegel, G. E. Scuseria, 
 M. A. Robb, J. R. Cheeseman, G. Scalmani, V. Barone, 
 G. A. Petersson, H. Nakatsuji, X. Li, M. Caricato, A. V. Marenich, 
 J. Bloino, B. G. Janesko, R. Gomperts, B. Mennucci, H. P. Hratchian, 
 J. V. Ortiz, A. F. Izmaylov, J. L. Sonnenberg, D. Williams-Young, 
 F. Ding, F. Lipparini, F. Egidi, J. Goings, B. Peng, A. Petrone, 
 T. Henderson, D. Ranasinghe, V. G. Zakrzewski, J. Gao, N. Rega, 
 G. Zheng, W. Liang, M. Hada, M. Ehara, K. Toyota, R. Fukuda, 
 J. Hasegawa, M. Ishida, T. Nakajima, Y. Honda, O. Kitao, H. Nakai, 
 T. Vreven, K. Throssell, J. A. Montgomery, Jr., J. E. Peralta, 
 F. Ogliaro, M. J. Bearpark, J. J. Heyd, E. N. Brothers, K. N. Kudin, 
 V. N. Staroverov, T. A. Keith, R. Kobayashi, J. Normand, 
 K. Raghavachari, A. P. Rendell, J. C. Burant, S. S. Iyengar, 
 J. Tomasi, M. Cossi, J. M. Millam, M. Klene, C. Adamo, R. Cammi, 
 J. W. Ochterski, R. L. Martin, K. Morokuma, O. Farkas, 
 J. B. Foresman, and D. J. Fox, Gaussian, Inc., Wallingford CT, 2016.
 
 ******************************************
 Gaussian 16:  ES64L-G16RevB.01 20-Dec-2017
                 1-Nov-2021 
 ******************************************
 %NProcShared=52
 Will use up to   52 processors via shared memory.
 %mem=18GB
 %chk=catASium_T2_1_SPE.chk
 ----------------------------------------------------------------------
 # PBE1PBE gen pseudo=read int=(grid=ultrafine) empiricaldispersion=GD3
 BJ nmr=giao
 ----------------------------------------------------------------------
 1/38=1,172=1/1;
 2/12=2,17=6,18=5,40=1/2;
 3/5=7,11=2,16=1,17=8,25=1,30=1,74=-13,75=-5,124=41/1,2,3,8;
 4//1;
 5/5=2,38=5/2;
 8/6=1,10=90,11=11/1;
 10/13=100,45=16/2;
 6/7=2,8=2,9=2,10=2,28=1/1;
 99/9=1/99;
 -----
 title
 -----
 Symbolic Z-matrix:
 Charge =  0 Multiplicity = 1
 C                     17.47979   4.1496    6.55963 
 C                     18.32876   3.1515    6.04776 
 C                     19.51345   2.81137   6.72085 
 C                     19.82662   3.48729   7.91446 
 C                     18.99866   4.49396   8.43727 
 C                     17.81965   4.82266   7.74472 
 C                     15.97383   3.78025   4.08007 
 C                     15.80534   2.40359   3.84396 
 C                     15.8591   1.89698   2.53617 
 C                     16.0885   2.79472   1.47446 
 C                     16.27784   4.16951   1.68801 
 C                     16.22307   4.65221   3.00841 
 C                     14.68264   3.59276   6.75066 
 C                     14.79264   3.50596   8.26943 
 C                     13.98613   2.19896   8.55275 
 C                     12.74456   2.69575   7.70853 
 C                     13.44705   3.123     6.39461 
 C                     13.83656   4.6275    8.79273 
 C                     12.43964   4.06187   8.43481 
 C                     14.67938   0.93594   8.01628 
 C                     13.68425   1.95415   10.04066 
 C                     11.5144   1.80203   7.63017 
 C                     12.90428   3.10935   5.01891 
 C                     12.58061   1.92114   4.37358 
 C                     12.50813   3.9206    2.81681 
 C                     12.84163   4.26943   4.12276 
 C                     12.65039   0.50215   4.85799 
 C                     12.39307   4.67922   1.52272 
 C                     11.58537   6.16749   5.84129 
 C                     10.45758   5.33897   5.6627 
 C                     9.34169   5.48243   6.49837 
 C                     9.34354   6.44971   7.51397 
 C                     10.45997   7.2816    7.68449 
 C                     11.58011   7.14666   6.85397 
 C                     12.67947   7.09308   3.32469 
 C                     13.7439   7.58655   2.54677 
 C                     13.48461   8.3742    1.41997 
 C                     12.16247   8.6976    1.07743 
 C                     11.10293   8.2421    1.87433 
 C                     11.35773   7.44088   2.99683 
 P                     15.87712   4.52421   5.75032 
 P                     13.06105   5.99803   4.75133 
 S                     12.22127   2.20253   2.69744 
 Pd                    15.10837   6.67227   5.61739 
 Cl                    17.25275   7.53955   6.11502 
 Cl                    14.23162   8.90293   5.60613 
 H                     18.07492   2.63724   5.11546 
 C                     20.44384   1.75874   6.16294 
 H                     20.75111   3.22936   8.44667 
 C                     19.36602   5.24021   9.69831 
 H                     17.18311   5.63315   8.1116 
 H                     15.60871   1.72665   4.6826 
 C                     15.62906   0.42895   2.26436 
 H                     16.11617   2.4067    0.44835 
 C                     16.5168   5.12218   0.53934 
 H                     16.3651   5.71981   3.21562 
 H                     10.52827   7.08945   3.61813 
 H                     11.96023   9.32444   0.20292 
 H                     10.07191   8.51616   1.62752 
 H                     14.77351   7.37464   2.85055 
 H                     14.31853   8.75868   0.82377 
 H                     12.45134   7.80001   6.97167 
 H                     8.47464   6.5541    8.17211 
 H                     10.46503   8.04054   8.47352 
 H                     10.4613   4.57198   4.88209 
 H                     8.47226   4.83155   6.35795 
 H                     13.12401  -0.14918   4.1031 
 H                     13.25003   0.43774   5.77649 
 H                     11.65062   0.08386   5.07331 
 H                     12.26915   3.97607   0.68272 
 H                     11.54049   5.37688   1.51232 
 H                     13.30004   5.27359   1.33276 
 H                     10.79805   2.18587   6.88286 
 H                     11.75742   0.76085   7.36563 
 H                     10.99879   1.784     8.60569 
 H                     14.00724   0.06045   8.07658 
 H                     15.01506   1.04929   6.97418 
 H                     15.56985   0.70531   8.62705 
 H                     13.03171   1.07051   10.158 
 H                     14.62255   1.74215   10.58315 
 H                     13.19514   2.80094   10.54333 
 H                     15.81507   3.5399    8.67208 
 H                     14.04956   5.58978   8.29549 
 H                     13.96079   4.77838   9.87863 
 H                     11.83457   3.86256   9.33613 
 H                     11.84997   4.72766   7.79579 
 H                     20.79515   1.07007   6.95111 
 H                     19.95086   1.15917   5.37993 
 H                     21.34219   2.21857   5.71128 
 H                     19.49774   6.31698   9.48994 
 H                     18.57329   5.15616   10.46313 
 H                     20.30311   4.85932   10.13634 
 H                     17.51098   5.59801   0.61311 
 H                     16.45856   4.60657  -0.43308 
 H                     15.77129   5.9384    0.53762 
 H                     15.74512  -0.17385   3.18043 
 H                     14.60666   0.25764   1.87834 
 H                     16.33183   0.04042   1.50738 
 
 Stoichiometry    C44H48Cl2P2PdS
 Framework group  C1[X(C44H48Cl2P2PdS)]
 Deg. of freedom   288
 Full point group                 C1      NOp   1
 Largest Abelian subgroup         C1      NOp   1
 Largest concise Abelian subgroup C1      NOp   1
                         Standard orientation:                         
 ---------------------------------------------------------------------
 Center     Atomic      Atomic             Coordinates (Angstroms)
 Number     Number       Type             X           Y           Z
 ---------------------------------------------------------------------
      1          6           0        3.148967   -0.748859   -0.744638
      2          6           0        3.994791   -1.467124    0.120022
      3          6           0        5.365100   -1.587306   -0.162912
      4          6           0        5.868567   -0.972387   -1.323964
      5          6           0        5.040066   -0.259793   -2.206019
      6          6           0        3.669925   -0.156010   -1.906570
      7          6           0        0.992915   -1.709768    0.981821
      8          6           0        1.366165   -1.533284    2.326763
      9          6           0        1.011511   -2.488535    3.291941
     10          6           0        0.281450   -3.622003    2.882019
     11          6           0       -0.085858   -3.828185    1.542594
     12          6           0        0.284663   -2.858000    0.593429
     13          6           0        1.364885    1.177992    0.384475
     14          6           0        2.208371    2.311540   -0.189910
     15          6           0        2.313065    3.261089    1.045547
     16          6           0        0.748533    3.252455    1.276114
     17          6           0        0.467311    1.728298    1.259489
     18          6           0        1.231697    3.079484   -1.139728
     19          6           0        0.253499    3.742906   -0.138505
     20          6           0        3.147043    2.666771    2.192238
     21          6           0        2.899692    4.646745    0.728118
     22          6           0        0.175831    4.095757    2.407050
     23          6           0       -0.591916    0.983993    1.974595
     24          6           0       -0.614744    0.899018    3.362157
     25          6           0       -2.299825   -0.647259    2.268470
     26          6           0       -1.581866    0.104681    1.342452
     27          6           0        0.300392    1.502183    4.387705
     28          6           0       -3.339718   -1.729458    2.164151
     29          6           0       -2.564609    1.836698   -0.699245
     30          6           0       -3.136261    2.528404    0.389331
     31          6           0       -3.650167    3.819693    0.208744
     32          6           0       -3.597301    4.427215   -1.054267
     33          6           0       -3.039595    3.735385   -2.139560
     34          6           0       -2.523815    2.443957   -1.969632
     35          6           0       -3.341823   -0.952435   -0.760234
     36          6           0       -3.123278   -2.288083   -1.147507
     37          6           0       -4.206101   -3.159186   -1.308617
     38          6           0       -5.516276   -2.696180   -1.111044
     39          6           0       -5.739004   -1.355835   -0.766035
     40          6           0       -4.655588   -0.482823   -0.590133
     41         15           0        1.381382   -0.491275   -0.328495
     42         15           0       -1.886836    0.137045   -0.484366
     43         16           0       -1.808883   -0.244654    3.894873
     44         46           0       -0.222074   -0.540095   -1.956178
     45         17           0        1.255383   -1.598658   -3.471018
     46         17           0       -1.886505   -0.445123   -3.678178
     47          1           0        3.588440   -1.944472    1.017289
     48          6           0        6.275144   -2.379838    0.747372
     49          1           0        6.937870   -1.062179   -1.554173
     50          6           0        5.585365    0.361969   -3.470188
     51          1           0        3.000033    0.357643   -2.602333
     52          1           0        1.916799   -0.634800    2.626353
     53          6           0        1.361795   -2.285802    4.747320
     54          1           0       -0.012043   -4.364613    3.634767
     55          6           0       -0.874439   -5.045469    1.117753
     56          1           0        0.015293   -2.982892   -0.462367
     57          1           0       -4.833465    0.563499   -0.323511
     58          1           0       -6.364336   -3.374571   -1.249427
     59          1           0       -6.760792   -0.983067   -0.639420
     60          1           0       -2.103194   -2.627340   -1.351490
     61          1           0       -4.027640   -4.194867   -1.615591
     62          1           0       -2.097753    1.891320   -2.813926
     63          1           0       -3.990668    5.439872   -1.191524
     64          1           0       -2.999088    4.203814   -3.128257
     65          1           0       -3.162523    2.062809    1.379370
     66          1           0       -4.086750    4.353097    1.059711
     67          1           0        0.591461    0.753752    5.145028
     68          1           0        1.220413    1.871087    3.913541
     69          1           0       -0.169766    2.346765    4.922959
     70          1           0       -3.519482   -2.177011    3.155495
     71          1           0       -4.302494   -1.359187    1.777276
     72          1           0       -3.006379   -2.531995    1.488302
     73          1           0       -0.893757    3.869766    2.561578
     74          1           0        0.698431    3.940696    3.364093
     75          1           0        0.255861    5.167383    2.156012
     76          1           0        3.055570    3.280861    3.106787
     77          1           0        2.856372    1.632928    2.433438
     78          1           0        4.215672    2.653370    1.914721
     79          1           0        2.853814    5.295084    1.621393
     80          1           0        3.963897    4.548048    0.449944
     81          1           0        2.390010    5.171130   -0.092988
     82          1           0        3.160447    2.007213   -0.647710
     83          1           0        0.728523    2.383316   -1.833100
     84          1           0        1.774507    3.822526   -1.748506
     85          1           0        0.311149    4.844440   -0.177472
     86          1           0       -0.794107    3.472314   -0.307703
     87          1           0        7.222880   -1.846197    0.936867
     88          1           0        5.796201   -2.581787    1.719718
     89          1           0        6.537574   -3.355681    0.298671
     90          1           0        5.106705   -0.082176   -4.361153
     91          1           0        5.384425    1.447687   -3.505821
     92          1           0        6.674269    0.214485   -3.557446
     93          1           0       -0.296845   -5.672386    0.415179
     94          1           0       -1.150800   -5.670807    1.982295
     95          1           0       -1.804655   -4.754819    0.595994
     96          1           0        2.153489   -1.528019    4.869825
     97          1           0        0.478829   -1.942637    5.318521
     98          1           0        1.708710   -3.222490    5.216500
 ---------------------------------------------------------------------
 Rotational constants (GHZ):           0.0627118           0.0489780           0.0482892
 General basis read from cards:  (5D, 7F)
 ======================================================================================================
                                       Pseudopotential Parameters
 ======================================================================================================
  Center     Atomic      Valence      Angular      Power
  Number     Number     Electrons     Momentum     of R      Exponent        Coefficient   SO-Coeffient
 ======================================================================================================
    1          6
                                   No pseudopotential on this center.
    2          6
                                   No pseudopotential on this center.
    3          6
                                   No pseudopotential on this center.
    4          6
                                   No pseudopotential on this center.
    5          6
                                   No pseudopotential on this center.
    6          6
                                   No pseudopotential on this center.
    7          6
                                   No pseudopotential on this center.
    8          6
                                   No pseudopotential on this center.
    9          6
                                   No pseudopotential on this center.
   10          6
                                   No pseudopotential on this center.
   11          6
                                   No pseudopotential on this center.
   12          6
                                   No pseudopotential on this center.
   13          6
                                   No pseudopotential on this center.
   14          6
                                   No pseudopotential on this center.
   15          6
                                   No pseudopotential on this center.
   16          6
                                   No pseudopotential on this center.
   17          6
                                   No pseudopotential on this center.
   18          6
                                   No pseudopotential on this center.
   19          6
                                   No pseudopotential on this center.
   20          6
                                   No pseudopotential on this center.
   21          6
                                   No pseudopotential on this center.
   22          6
                                   No pseudopotential on this center.
   23          6
                                   No pseudopotential on this center.
   24          6
                                   No pseudopotential on this center.
   25          6
                                   No pseudopotential on this center.
   26          6
                                   No pseudopotential on this center.
   27          6
                                   No pseudopotential on this center.
   28          6
                                   No pseudopotential on this center.
   29          6
                                   No pseudopotential on this center.
   30          6
                                   No pseudopotential on this center.
   31          6
                                   No pseudopotential on this center.
   32          6
                                   No pseudopotential on this center.
   33          6
                                   No pseudopotential on this center.
   34          6
                                   No pseudopotential on this center.
   35          6
                                   No pseudopotential on this center.
   36          6
                                   No pseudopotential on this center.
   37          6
                                   No pseudopotential on this center.
   38          6
                                   No pseudopotential on this center.
   39          6
                                   No pseudopotential on this center.
   40          6
                                   No pseudopotential on this center.
   41         15
                                   No pseudopotential on this center.
   42         15
                                   No pseudopotential on this center.
   43         16
                                   No pseudopotential on this center.
   44         46           18
                                      G and up 
                                                     2        1.0000000        0.00000000    0.00000000
                                      S - G
                                                     2       12.4300000      240.22904000    0.00000000
                                                     2        6.1707590       35.17194300    0.00000000
                                      P - G
                                                     2       11.0800000      170.41727600    0.00000000
                                                     2        5.8295540       28.47213300    0.00000000
                                      D - G
                                                     2        9.5100000       69.01384500    0.00000000
                                                     2        4.1397810       11.75086200    0.00000000
                                      F - G
                                                     2       13.2700000      -31.92955400    0.00000000
                                                     2        6.6300000       -5.39821700    0.00000000
   45         17
                                   No pseudopotential on this center.
   46         17
                                   No pseudopotential on this center.
   47          1
                                   No pseudopotential on this center.
   48          6
                                   No pseudopotential on this center.
   49          1
                                   No pseudopotential on this center.
   50          6
                                   No pseudopotential on this center.
   51          1
                                   No pseudopotential on this center.
   52          1
                                   No pseudopotential on this center.
   53          6
                                   No pseudopotential on this center.
   54          1
                                   No pseudopotential on this center.
   55          6
                                   No pseudopotential on this center.
   56          1
                                   No pseudopotential on this center.
   57          1
                                   No pseudopotential on this center.
   58          1
                                   No pseudopotential on this center.
   59          1
                                   No pseudopotential on this center.
   60          1
                                   No pseudopotential on this center.
   61          1
                                   No pseudopotential on this center.
   62          1
                                   No pseudopotential on this center.
   63          1
                                   No pseudopotential on this center.
   64          1
                                   No pseudopotential on this center.
   65          1
                                   No pseudopotential on this center.
   66          1
                                   No pseudopotential on this center.
   67          1
                                   No pseudopotential on this center.
   68          1
                                   No pseudopotential on this center.
   69          1
                                   No pseudopotential on this center.
   70          1
                                   No pseudopotential on this center.
   71          1
                                   No pseudopotential on this center.
   72          1
                                   No pseudopotential on this center.
   73          1
                                   No pseudopotential on this center.
   74          1
                                   No pseudopotential on this center.
   75          1
                                   No pseudopotential on this center.
   76          1
                                   No pseudopotential on this center.
   77          1
                                   No pseudopotential on this center.
   78          1
                                   No pseudopotential on this center.
   79          1
                                   No pseudopotential on this center.
   80          1
                                   No pseudopotential on this center.
   81          1
                                   No pseudopotential on this center.
   82          1
                                   No pseudopotential on this center.
   83          1
                                   No pseudopotential on this center.
   84          1
                                   No pseudopotential on this center.
   85          1
                                   No pseudopotential on this center.
   86          1
                                   No pseudopotential on this center.
   87          1
                                   No pseudopotential on this center.
   88          1
                                   No pseudopotential on this center.
   89          1
                                   No pseudopotential on this center.
   90          1
                                   No pseudopotential on this center.
   91          1
                                   No pseudopotential on this center.
   92          1
                                   No pseudopotential on this center.
   93          1
                                   No pseudopotential on this center.
   94          1
                                   No pseudopotential on this center.
   95          1
                                   No pseudopotential on this center.
   96          1
                                   No pseudopotential on this center.
   97          1
                                   No pseudopotential on this center.
   98          1
                                   No pseudopotential on this center.
 ======================================================================================================
 There are  2121 symmetry adapted cartesian basis functions of A   symmetry.
 There are  1873 symmetry adapted basis functions of A   symmetry.
  1873 basis functions,  3038 primitive gaussians,  2121 cartesian basis functions
   205 alpha electrons      205 beta electrons
       nuclear repulsion energy      9141.2540051586 Hartrees.
 NAtoms=   98 NActive=   98 NUniq=   98 SFac= 1.00D+00 NAtFMM=   60 NAOKFM=T Big=T
 Integral buffers will be    131072 words long.
 Raffenetti 2 integral format.
 Two-electron integral symmetry is turned on.
 Nuclear repulsion after empirical dispersion term =     9141.0667583466 Hartrees.
 One-electron integrals computed using PRISM.
   1 Symmetry operations used in ECPInt.
 ECPInt:  NShTT=  285390 NPrTT=  878453 LenC2=  225644 LenP2D=  457281.
 LDataN:  DoStor=T MaxTD1= 7 Len=  274
 Number of processors reduced to  20 by ecpmxn.
 NBasis=  1873 RedAO= T EigKep=  3.04D-06  NBF=  1873
 NBsUse=  1873 1.00D-06 EigRej= -1.00D+00 NBFU=  1873
 Defaulting to unpruned grid for atomic number  46.
 ExpMin= 1.60D-02 ExpMax= 6.95D+04 ExpMxC= 2.37D+03 IAcc=3 IRadAn=         5 AccDes= 0.00D+00
 Harris functional with IExCor= 1009 and IRadAn=       5 diagonalized for initial guess.
 HarFok:  IExCor= 1009 AccDes= 0.00D+00 IRadAn=         5 IDoV= 1 UseB2=F ITyADJ=14
 ICtDFT=  3500011 ScaDFX=  1.000000  1.000000  1.000000  1.000000
 Defaulting to unpruned grid for atomic number  46.
 FoFCou: FMM=F IPFlag=           0 FMFlag=      100000 FMFlg1=        2001
         NFxFlg=           0 DoJE=T BraDBF=F KetDBF=T FulRan=T
         wScrn=  0.000000 ICntrl=       500 IOpCl=  0 I1Cent=   200000004 NGrid=           0
         NMat0=    1 NMatS0=      1 NMatT0=    0 NMatD0=    1 NMtDS0=    0 NMtDT0=    0
 Petite list used in FoFCou.
 Requested convergence on RMS density matrix=1.00D-08 within 128 cycles.
 Requested convergence on MAX density matrix=1.00D-06.
 Requested convergence on             energy=1.00D-06.
 No special actions if energy rises.
 Defaulting to unpruned grid for atomic number  46.
 Defaulting to unpruned grid for atomic number  46.
 Defaulting to unpruned grid for atomic number  46.
 Defaulting to unpruned grid for atomic number  46.
 Defaulting to unpruned grid for atomic number  46.
 Defaulting to unpruned grid for atomic number  46.
 Defaulting to unpruned grid for atomic number  46.
 Defaulting to unpruned grid for atomic number  46.
 Defaulting to unpruned grid for atomic number  46.
 Defaulting to unpruned grid for atomic number  46.
 Defaulting to unpruned grid for atomic number  46.
 Defaulting to unpruned grid for atomic number  46.
 Defaulting to unpruned grid for atomic number  46.
 Defaulting to unpruned grid for atomic number  46.
 Defaulting to unpruned grid for atomic number  46.
 Defaulting to unpruned grid for atomic number  46.
 Defaulting to unpruned grid for atomic number  46.
 Defaulting to unpruned grid for atomic number  46.
 Defaulting to unpruned grid for atomic number  46.
 Defaulting to unpruned grid for atomic number  46.
 Defaulting to unpruned grid for atomic number  46.
 Defaulting to unpruned grid for atomic number  46.
 Defaulting to unpruned grid for atomic number  46.
 Defaulting to unpruned grid for atomic number  46.
 Defaulting to unpruned grid for atomic number  46.
 Defaulting to unpruned grid for atomic number  46.
 Defaulting to unpruned grid for atomic number  46.
 Defaulting to unpruned grid for atomic number  46.
 Defaulting to unpruned grid for atomic number  46.
 Defaulting to unpruned grid for atomic number  46.
 Defaulting to unpruned grid for atomic number  46.
 Defaulting to unpruned grid for atomic number  46.
 Defaulting to unpruned grid for atomic number  46.
 Defaulting to unpruned grid for atomic number  46.
 Defaulting to unpruned grid for atomic number  46.
 Defaulting to unpruned grid for atomic number  46.
 Defaulting to unpruned grid for atomic number  46.
 Defaulting to unpruned grid for atomic number  46.
 Defaulting to unpruned grid for atomic number  46.
 Defaulting to unpruned grid for atomic number  46.
 Defaulting to unpruned grid for atomic number  46.
 Defaulting to unpruned grid for atomic number  46.
 Defaulting to unpruned grid for atomic number  46.
 Defaulting to unpruned grid for atomic number  46.
 Defaulting to unpruned grid for atomic number  46.
 Defaulting to unpruned grid for atomic number  46.
 Defaulting to unpruned grid for atomic number  46.
 Defaulting to unpruned grid for atomic number  46.
 Defaulting to unpruned grid for atomic number  46.
 Defaulting to unpruned grid for atomic number  46.
 Defaulting to unpruned grid for atomic number  46.
 Defaulting to unpruned grid for atomic number  46.
 EnCoef did     3 forward-backward iterations
 EnCoef did   100 forward-backward iterations
 Restarting incremental Fock formation.
 SCF Done:  E(RPBE1PBE) =  -3832.99158956     A.U. after   21 cycles
            NFock= 21  Conv=0.35D-08     -V/T= 2.0252
 DoSCS=F DFT=T ScalE2(SS,OS)=  1.000000  1.000000
 Range of M.O.s used for correlation:     1  1873
 NBasis=  1873 NAE=   205 NBE=   205 NFC=     0 NFV=     0
 NROrb=   1873 NOA=   205 NOB=   205 NVA=  1668 NVB=  1668

 **** Warning!!: The largest alpha MO coefficient is  0.51835143D+02

          Differentiating once with respect to magnetic field using GIAOs.
          Electric field/nuclear overlap derivatives assumed to be zero.
 Defaulting to unpruned grid for atomic number  46.
 FoFCou: FMM=F IPFlag=           0 FMFlag=      100000 FMFlg1=        2001
         NFxFlg=           0 DoJE=F BraDBF=F KetDBF=T FulRan=T
         wScrn=  0.000000 ICntrl=      6100 IOpCl=  0 I1Cent=           7 NGrid=          98
         NMat0=    1 NMatS0=      1 NMatT0=    0 NMatD0=    1 NMtDS0=    0 NMtDT0=    0
 Symmetry not used in FoFCou.
   1 Symmetry operations used in ECPInt.
 ECPInt:  NShTT=  285390 NPrTT=  878453 LenC2=  285391 LenP2D=  878453.
 LDataN:  DoStor=T MaxTD1= 8 Len=  415
 Number of processors reduced to  13 by ecpmxn.
 FoFJK:  IHMeth= 1 ICntrl=    6127 DoSepK=F KAlg= 0 I1Cent=           0 FoldK=F
 IRaf=         1 NMat=       1 IRICut=       1 DoRegI=T DoRafI=F ISym2E= 0 IDoP0=0 IntGTp=1.
 Defaulting to unpruned grid for atomic number  46.
 Defaulting to unpruned grid for atomic number  46.
 Defaulting to unpruned grid for atomic number  46.
 Defaulting to unpruned grid for atomic number  46.
 Defaulting to unpruned grid for atomic number  46.
 Defaulting to unpruned grid for atomic number  46.
 Defaulting to unpruned grid for atomic number  46.
 Defaulting to unpruned grid for atomic number  46.
 Defaulting to unpruned grid for atomic number  46.
 Defaulting to unpruned grid for atomic number  46.
 Defaulting to unpruned grid for atomic number  46.
 Defaulting to unpruned grid for atomic number  46.
 Defaulting to unpruned grid for atomic number  46.
 Defaulting to unpruned grid for atomic number  46.
 Defaulting to unpruned grid for atomic number  46.
 Defaulting to unpruned grid for atomic number  46.
 Defaulting to unpruned grid for atomic number  46.
 Defaulting to unpruned grid for atomic number  46.
 Defaulting to unpruned grid for atomic number  46.
 Defaulting to unpruned grid for atomic number  46.
 Defaulting to unpruned grid for atomic number  46.
 Defaulting to unpruned grid for atomic number  46.
 Defaulting to unpruned grid for atomic number  46.
 Defaulting to unpruned grid for atomic number  46.
 Defaulting to unpruned grid for atomic number  46.
 Defaulting to unpruned grid for atomic number  46.
 Defaulting to unpruned grid for atomic number  46.
 Defaulting to unpruned grid for atomic number  46.
 Defaulting to unpruned grid for atomic number  46.
 Defaulting to unpruned grid for atomic number  46.
 Defaulting to unpruned grid for atomic number  46.
 Defaulting to unpruned grid for atomic number  46.
 Defaulting to unpruned grid for atomic number  46.
 Defaulting to unpruned grid for atomic number  46.
 Defaulting to unpruned grid for atomic number  46.
 Defaulting to unpruned grid for atomic number  46.
 Defaulting to unpruned grid for atomic number  46.
 Defaulting to unpruned grid for atomic number  46.
 Defaulting to unpruned grid for atomic number  46.
 Defaulting to unpruned grid for atomic number  46.
 Defaulting to unpruned grid for atomic number  46.
 Defaulting to unpruned grid for atomic number  46.
 Defaulting to unpruned grid for atomic number  46.
 Defaulting to unpruned grid for atomic number  46.
 Defaulting to unpruned grid for atomic number  46.
 Defaulting to unpruned grid for atomic number  46.
 Defaulting to unpruned grid for atomic number  46.
 Defaulting to unpruned grid for atomic number  46.
 Defaulting to unpruned grid for atomic number  46.
 Defaulting to unpruned grid for atomic number  46.
 Defaulting to unpruned grid for atomic number  46.
 Defaulting to unpruned grid for atomic number  46.
          There are     3 degrees of freedom in the 1st order CPHF.  IDoFFX=0 NUNeed=     3.
      3 vectors produced by pass  0 Test12= 1.14D-11 3.33D-08 XBig12= 2.07D+02 1.85D+00.
 AX will form     3 AO Fock derivatives at one time.
      3 vectors produced by pass  1 Test12= 1.14D-11 3.33D-08 XBig12= 9.68D-01 1.97D-01.
      3 vectors produced by pass  2 Test12= 1.14D-11 3.33D-08 XBig12= 1.04D-02 2.58D-02.
      3 vectors produced by pass  3 Test12= 1.14D-11 3.33D-08 XBig12= 2.18D-04 7.50D-03.
      3 vectors produced by pass  4 Test12= 1.14D-11 3.33D-08 XBig12= 1.78D-06 3.91D-04.
      3 vectors produced by pass  5 Test12= 1.14D-11 3.33D-08 XBig12= 1.37D-08 3.86D-05.
      3 vectors produced by pass  6 Test12= 1.14D-11 3.33D-08 XBig12= 1.85D-10 3.69D-06.
      3 vectors produced by pass  7 Test12= 1.14D-11 3.33D-08 XBig12= 2.01D-12 3.69D-07.
 InvSVY:  IOpt=1 It=  1 EMax= 3.55D-15
 Solved reduced A of dimension    24 with     3 vectors.
 Calculating GIAO nuclear magnetic shielding tensors.
 SCF GIAO Magnetic shielding tensor (ppm):
      1  C    Isotropic =    51.5449   Anisotropy =   166.9759
   XX=   -34.8651   YX=    33.9556   ZX=    26.8226
   XY=    21.2673   YY=   125.5094   ZY=    55.8370
   XZ=    26.0340   YZ=    49.8055   ZZ=    63.9905
   Eigenvalues:   -42.8879    34.6606   162.8622
      2  C    Isotropic =    50.0182   Anisotropy =   165.7941
   XX=    38.9950   YX=     3.6929   ZX=    36.4441
   XY=    15.1626   YY=    99.4884   ZY=    91.0169
   XZ=    38.1229   YZ=    85.3813   ZZ=    11.5711
   Eigenvalues:   -51.2786    40.7856   160.5476
      3  C    Isotropic =    41.9882   Anisotropy =   191.6699
   XX=    -3.9834   YX=    46.7753   ZX=   -14.2376
   XY=    45.6278   YY=   102.7678   ZY=    90.4651
   XZ=   -13.1089   YZ=    92.7932   ZZ=    27.1802
   Eigenvalues:   -60.4385    16.6349   169.7681
      4  C    Isotropic =    47.7412   Anisotropy =   149.3327
   XX=   -41.9489   YX=    25.1107   ZX=    25.2752
   XY=    21.8722   YY=   112.9191   ZY=    46.9435
   XZ=    30.9567   YZ=    40.5119   ZZ=    72.2534
   Eigenvalues:   -49.6569    45.5841   147.2963
      5  C    Isotropic =    41.6084   Anisotropy =   193.7992
   XX=     8.7511   YX=    13.2829   ZX=    35.2778
   XY=    13.8918   YY=   112.2111   ZY=    92.7448
   XZ=    36.9423   YZ=    92.3013   ZZ=     3.8631
   Eigenvalues:   -58.6875    12.7050   170.8079
      6  C    Isotropic =    40.1222   Anisotropy =   189.1783
   XX=    -0.1945   YX=    46.5526   ZX=   -15.6046
   XY=    51.8273   YY=   106.7287   ZY=    79.0735
   XZ=   -10.7985   YZ=    93.7437   ZZ=    13.8324
   Eigenvalues:   -61.7625    15.8880   166.2411
      7  C    Isotropic =    49.5693   Anisotropy =   175.4077
   XX=   131.9441   YX=   -62.4167   ZX=    -2.6681
   XY=   -71.0957   YY=    18.1971   ZY=    48.1279
   XZ=    -7.5441   YZ=    45.9844   ZZ=    -1.4333
   Eigenvalues:   -49.2279    31.4280   166.5077
      8  C    Isotropic =    46.7956   Anisotropy =   172.1329
   XX=   106.2183   YX=   -91.4982   ZX=   -20.5540
   XY=   -91.1436   YY=     5.1792   ZY=   -21.0202
   XZ=   -31.8687   YZ=   -13.3634   ZZ=    28.9893
   Eigenvalues:   -57.8635    36.6994   161.5509
      9  C    Isotropic =    41.8904   Anisotropy =   197.5258
   XX=   124.0528   YX=   -73.8720   ZX=   -39.8116
   XY=   -69.7436   YY=    51.9556   ZY=     3.7095
   XZ=   -36.8172   YZ=     1.7721   ZZ=   -50.3374
   Eigenvalues:   -60.0813    12.1781   173.5742
     10  C    Isotropic =    46.7464   Anisotropy =   154.1267
   XX=   116.6114   YX=   -59.5301   ZX=    10.2915
   XY=   -64.1801   YY=    23.9306   ZY=    51.6711
   XZ=     3.4174   YZ=    48.1043   ZZ=    -0.3027
   Eigenvalues:   -52.0752    42.8169   149.4975
     11  C    Isotropic =    39.7921   Anisotropy =   198.5508
   XX=   107.5857   YX=   -99.6373   ZX=   -33.2625
   XY=   -99.9853   YY=     3.9701   ZY=    -3.9964
   XZ=   -32.3154   YZ=    -6.7147   ZZ=     7.8205
   Eigenvalues:   -63.4858    10.7028   172.1593
     12  C    Isotropic =    40.4285   Anisotropy =   175.9274
   XX=   109.7566   YX=   -70.8758   ZX=   -45.5872
   XY=   -53.4604   YY=    62.0670   ZY=    -1.2760
   XZ=   -36.1733   YZ=    -2.5222   ZZ=   -50.5380
   Eigenvalues:   -62.9087    26.4807   157.7134
     13  C    Isotropic =    32.9729   Anisotropy =   164.7871
   XX=    54.6793   YX=   -21.0914   ZX=    69.2951
   XY=   -43.6810   YY=   -51.9434   ZY=    -6.7321
   XZ=    57.7774   YZ=    28.4279   ZZ=    96.1828
   Eigenvalues:   -66.5714    22.6592   142.8309
     14  C    Isotropic =   125.9843   Anisotropy =    29.1523
   XX=   118.8121   YX=     7.0967   ZX=    12.2515
   XY=    -4.1022   YY=   124.5314   ZY=    12.3401
   XZ=    -3.0035   YZ=    15.9953   ZZ=   134.6094
   Eigenvalues:   114.0236   118.5102   145.4192
     15  C    Isotropic =   122.6248   Anisotropy =    20.6643
   XX=   128.1760   YX=    11.8068   ZX=   -16.5951
   XY=     1.7211   YY=   122.6794   ZY=     6.7173
   XZ=    -8.4873   YZ=    16.8197   ZZ=   117.0189
   Eigenvalues:   100.5605   130.9129   136.4010
     16  C    Isotropic =   118.4761   Anisotropy =    18.2281
   XX=   128.8621   YX=     1.6936   ZX=    -7.7093
   XY=     6.1842   YY=   118.8765   ZY=     8.9201
   XZ=     9.3108   YZ=     3.8755   ZZ=   107.6898
   Eigenvalues:   104.7502   120.0500   130.6281
     17  C    Isotropic =    28.5206   Anisotropy =   159.8700
   XX=    62.5945   YX=   -52.5012   ZX=    48.9526
   XY=   -65.3517   YY=   -27.5690   ZY=    13.5980
   XZ=    83.9847   YZ=    -9.7177   ZZ=    50.5363
   Eigenvalues:   -66.8477    17.3088   135.1006
     18  C    Isotropic =   156.7158   Anisotropy =    21.3613
   XX=   160.5853   YX=    -9.9601   ZX=     9.9507
   XY=   -10.3320   YY=   151.6505   ZY=    -7.9831
   XZ=     3.1717   YZ=     2.5521   ZZ=   157.9115
   Eigenvalues:   144.8737   154.3170   170.9566
     19  C    Isotropic =   150.3525   Anisotropy =    40.2524
   XX=   134.0479   YX=    -8.4801   ZX=     5.2250
   XY=   -12.8849   YY=   141.2247   ZY=     1.2143
   XZ=     9.4857   YZ=    -2.0199   ZZ=   175.7848
   Eigenvalues:   125.6978   148.1722   177.1874
     20  C    Isotropic =   164.1048   Anisotropy =    30.3458
   XX=   159.7915   YX=    -5.5188   ZX=    13.2426
   XY=     0.4369   YY=   161.7246   ZY=   -11.6888
   XZ=     8.8572   YZ=   -13.6890   ZZ=   170.7981
   Eigenvalues:   149.8490   158.1300   184.3353
     21  C    Isotropic =   165.0393   Anisotropy =    36.6180
   XX=   159.6513   YX=    14.3864   ZX=    -2.3790
   XY=     9.2902   YY=   182.6613   ZY=   -10.5406
   XZ=     1.1956   YZ=    -6.4778   ZZ=   152.8054
   Eigenvalues:   149.5838   156.0828   189.4513
     22  C    Isotropic =   170.8734   Anisotropy =    23.1967
   XX=   157.9137   YX=    -6.9138   ZX=    -5.2411
   XY=    -1.1496   YY=   175.5874   ZY=     7.9774
   XZ=    -5.7112   YZ=     6.3105   ZZ=   179.1192
   Eigenvalues:   156.2855   169.9970   186.3379
     23  C    Isotropic =    39.6661   Anisotropy =   121.9753
   XX=    28.6344   YX=   -77.6850   ZX=    11.4896
   XY=   -79.8857   YY=    53.3173   ZY=    -2.6056
   XZ=    -3.5328   YZ=    -2.9063   ZZ=    37.0465
   Eigenvalues:   -38.7903    36.8055   120.9830
     24  C    Isotropic =    36.3251   Anisotropy =   142.0670
   XX=    33.5196   YX=   -83.3809   ZX=   -25.7096
   XY=   -73.3943   YY=    65.1967   ZY=     2.1482
   XZ=   -26.8596   YZ=    -8.5374   ZZ=    10.2590
   Eigenvalues:   -40.6694    18.6083   131.0364
     25  C    Isotropic =    25.8311   Anisotropy =   151.1288
   XX=    46.4772   YX=   -82.2221   ZX=   -26.1958
   XY=   -87.1303   YY=    35.4479   ZY=   -10.4473
   XZ=   -21.6860   YZ=   -11.7553   ZZ=    -4.4318
   Eigenvalues:   -55.6972     6.6068   126.5836
     26  C    Isotropic =    55.4193   Anisotropy =   142.3941
   XX=    71.9161   YX=   -57.4572   ZX=   -23.1731
   XY=   -82.5448   YY=    87.6539   ZY=   -38.9568
   XZ=    -5.5359   YZ=     2.2198   ZZ=     6.6878
   Eigenvalues:   -15.0212    30.9303   150.3487
     27  C    Isotropic =   167.9715   Anisotropy =    19.6849
   XX=   166.7299   YX=    -0.3326   ZX=     6.1577
   XY=     3.1337   YY=   172.7365   ZY=     8.9726
   XZ=    13.5710   YZ=     7.1229   ZZ=   164.4481
   Eigenvalues:   154.1161   168.7036   181.0948
     28  C    Isotropic =   168.7804   Anisotropy =    20.5966
   XX=   173.9976   YX=    13.1631   ZX=     1.4277
   XY=     4.7643   YY=   172.6164   ZY=     1.0458
   XZ=     2.6341   YZ=     1.0681   ZZ=   159.7271
   Eigenvalues:   159.4390   164.3907   182.5115
     29  C    Isotropic =    45.1624   Anisotropy =   184.2016
   XX=   125.6370   YX=    76.5924   ZX=    33.9896
   XY=    77.8171   YY=   -17.6377   ZY=    13.2374
   XZ=    26.9774   YZ=    21.2564   ZZ=    27.4879
   Eigenvalues:   -51.5000    19.0237   167.9635
     30  C    Isotropic =    43.8999   Anisotropy =   198.7051
   XX=   151.3432   YX=    41.4025   ZX=    30.3341
   XY=    53.1661   YY=    29.7872   ZY=    42.5738
   XZ=    32.8366   YZ=    44.4171   ZZ=   -49.4306
   Eigenvalues:   -69.1428    24.4725   176.3699
     31  C    Isotropic =    53.1091   Anisotropy =   184.4576
   XX=   134.3100   YX=    64.0718   ZX=    61.0585
   XY=    64.3436   YY=    36.6769   ZY=   -25.4074
   XZ=    57.1106   YZ=   -25.9996   ZZ=   -11.6596
   Eigenvalues:   -57.9957    41.2423   176.0809
     32  C    Isotropic =    48.1828   Anisotropy =   193.1622
   XX=   136.0148   YX=    83.7661   ZX=    25.1541
   XY=    78.7079   YY=   -26.8174   ZY=    23.3881
   XZ=    25.1382   YZ=    23.4258   ZZ=    35.3511
   Eigenvalues:   -61.9705    29.5614   176.9576
     33  C    Isotropic =    49.8886   Anisotropy =   190.6139
   XX=   150.0072   YX=    46.8764   ZX=    30.5692
   XY=    45.9245   YY=    38.1903   ZY=    48.5333
   XZ=    32.8710   YZ=    47.1667   ZZ=   -38.5315
   Eigenvalues:   -61.8875    34.5888   176.9646
     34  C    Isotropic =    37.2256   Anisotropy =   210.2431
   XX=   132.6885   YX=    67.3625   ZX=    62.3494
   XY=    74.5969   YY=    14.8669   ZY=   -12.1401
   XZ=    57.6813   YZ=   -15.8708   ZZ=   -35.8787
   Eigenvalues:   -72.6138     6.9028   177.3876
     35  C    Isotropic =    42.0958   Anisotropy =   187.9414
   XX=   -26.2525   YX=   -28.5460   ZX=    -6.4249
   XY=   -39.5077   YY=    -4.5502   ZY=   -51.3854
   XZ=     1.2929   YZ=   -32.0689   ZZ=   157.0903
   Eigenvalues:   -54.7143    13.6117   167.3901
     36  C    Isotropic =    36.1334   Anisotropy =   199.1389
   XX=   -58.6466   YX=    24.2310   ZX=    20.9396
   XY=    30.0861   YY=    18.1478   ZY=   -46.0362
   XZ=    21.2754   YZ=   -62.1593   ZZ=   148.8989
   Eigenvalues:   -73.8617    13.3691   168.8926
     37  C    Isotropic =    51.8923   Anisotropy =   185.7081
   XX=    36.3164   YX=    13.1462   ZX=    12.8964
   XY=    14.1171   YY=   -38.8104   ZY=   -59.2680
   XZ=    10.2469   YZ=   -61.8480   ZZ=   158.1709
   Eigenvalues:   -58.7292    38.7084   175.6977
     38  C    Isotropic =    49.1204   Anisotropy =   190.7734
   XX=   -22.7115   YX=   -44.4635   ZX=    -1.3236
   XY=   -46.1938   YY=     4.2908   ZY=   -41.8123
   XZ=    -1.9949   YZ=   -41.3776   ZZ=   165.7819
   Eigenvalues:   -59.7011    30.7597   176.3027
     39  C    Isotropic =    53.0715   Anisotropy =   183.1404
   XX=   -43.9380   YX=    29.8840   ZX=    16.4076
   XY=    27.5382   YY=    38.5031   ZY=   -35.2843
   XZ=    16.9329   YZ=   -39.1976   ZZ=   164.6495
   Eigenvalues:   -56.4041    40.4535   175.1651
     40  C    Isotropic =    44.8693   Anisotropy =   197.9308
   XX=    21.0837   YX=    17.4500   ZX=     9.7488
   XY=    15.6391   YY=   -48.4109   ZY=   -57.6025
   XZ=     0.1132   YZ=   -58.2012   ZZ=   161.9351
   Eigenvalues:   -66.6870    24.4717   176.8232
     41  P    Isotropic =   249.7769   Anisotropy =   117.4645
   XX=   264.9487   YX=    22.4650   ZX=    47.7218
   XY=    24.7144   YY=   173.1818   ZY=   -20.0362
   XZ=    17.5828   YZ=    -4.3285   ZZ=   311.2001
   Eigenvalues:   164.7237   256.5204   328.0865
     42  P    Isotropic =   253.8191   Anisotropy =   119.6073
   XX=   284.4762   YX=   -42.8659   ZX=   -53.5803
   XY=   -31.3984   YY=   230.4776   ZY=     8.9815
   XZ=   -53.9487   YZ=     1.5716   ZZ=   246.5035
   Eigenvalues:   196.6953   231.2046   333.5573
     43  S    Isotropic =   177.4107   Anisotropy =   202.9012
   XX=   208.8602   YX=   -37.6238   ZX=    39.8131
   XY=    -7.9301   YY=   277.8739   ZY=   141.4539
   XZ=    66.9684   YZ=    51.0347   ZZ=    45.4979
   Eigenvalues:    -4.9001   224.4539   312.6781
     44  Pd   Isotropic =  -177.5708   Anisotropy =   252.0955
   XX=   -53.2665   YX=  -123.7329   ZX=    32.8333
   XY=  -126.0870   YY=  -421.8110   ZY=   143.6563
   XZ=    46.2123   YZ=   134.6298   ZZ=   -57.6349
   Eigenvalues:  -506.7271   -16.4781    -9.5071
     45  Cl   Isotropic =   846.8162   Anisotropy =   275.7747
   XX=   761.3436   YX=    66.7058   ZX=  -113.1951
   XY=    83.1760   YY=  1004.0235   ZY=   -13.8155
   XZ=  -145.7763   YZ=    18.9642   ZZ=   775.0815
   Eigenvalues:   629.9051   879.8775  1030.6659
     46  Cl   Isotropic =   887.1715   Anisotropy =   517.1186
   XX=   760.6001   YX=   209.8565   ZX=    35.9174
   XY=   219.4202   YY=  1073.9206   ZY=  -215.1933
   XZ=    14.6006   YZ=  -119.6787   ZZ=   826.9937
   Eigenvalues:   601.3804   828.2168  1231.9172
     47  H    Isotropic =    24.6126   Anisotropy =    15.4718
   XX=    33.8319   YX=    -1.7785   ZX=    -1.2651
   XY=    -6.4397   YY=    19.2994   ZY=    -0.5913
   XZ=    -0.3028   YZ=    -1.8998   ZZ=    20.7064
   Eigenvalues:    17.5843    21.3263    34.9271
     48  C    Isotropic =   163.1091   Anisotropy =    40.7611
   XX=   169.1633   YX=   -11.0519   ZX=    11.3955
   XY=   -13.9661   YY=   154.5986   ZY=   -21.5640
   XZ=     7.6402   YZ=   -15.2294   ZZ=   165.5654
   Eigenvalues:   140.0756   158.9686   190.2832
     49  H    Isotropic =    24.1361   Anisotropy =     7.1793
   XX=    23.4257   YX=    -1.0892   ZX=     0.0424
   XY=    -1.2138   YY=    22.6686   ZY=    -3.8626
   XZ=     0.3488   YZ=    -3.9649   ZZ=    26.3140
   Eigenvalues:    19.9535    23.5325    28.9223
     50  C    Isotropic =   162.8327   Anisotropy =    40.6891
   XX=   165.1891   YX=     1.9705   ZX=   -12.5495
   XY=     3.5462   YY=   149.6491   ZY=   -15.3319
   XZ=   -16.8111   YZ=   -16.2667   ZZ=   173.6598
   Eigenvalues:   140.9532   157.5862   189.9587
     51  H    Isotropic =    22.8520   Anisotropy =    12.4324
   XX=    27.8487   YX=     4.0536   ZX=    -4.6632
   XY=     3.8295   YY=    18.8518   ZY=     2.2571
   XZ=    -4.9468   YZ=     0.9594   ZZ=    21.8556
   Eigenvalues:    15.4415    21.9743    31.1403
     52  H    Isotropic =    24.3113   Anisotropy =     8.4179
   XX=    22.3460   YX=    -2.0319   ZX=     0.1666
   XY=    -3.5389   YY=    21.9659   ZY=    -1.8246
   XZ=    -0.6324   YZ=    -4.3373   ZZ=    28.6220
   Eigenvalues:    18.7381    24.2726    29.9232
     53  C    Isotropic =   163.3689   Anisotropy =    37.0751
   XX=   149.1848   YX=     7.6510   ZX=     7.5625
   XY=     8.3431   YY=   156.8693   ZY=     2.8350
   XZ=    14.6380   YZ=     2.7204   ZZ=   184.0526
   Eigenvalues:   142.5065   159.5145   188.0856
     54  H    Isotropic =    24.2566   Anisotropy =     6.8032
   XX=    21.9066   YX=     1.1887   ZX=     2.9439
   XY=     1.6190   YY=    25.4591   ZY=     1.6571
   XZ=     3.4760   YZ=     1.8353   ZZ=    25.4041
   Eigenvalues:    19.9793    23.9984    28.7921
     55  C    Isotropic =   162.7612   Anisotropy =    39.6424
   XX=   153.9844   YX=    18.6914   ZX=     2.9674
   XY=    20.0399   YY=   177.6422   ZY=     1.1199
   XZ=     7.6516   YZ=     3.6946   ZZ=   156.6570
   Eigenvalues:   142.2640   156.8302   189.1895
     56  H    Isotropic =    22.0509   Anisotropy =    12.7114
   XX=    19.9562   YX=     2.5796   ZX=    -1.9238
   XY=     3.5090   YY=    27.5880   ZY=    -4.5059
   XZ=     0.1404   YZ=    -4.8590   ZZ=    18.6084
   Eigenvalues:    16.5579    19.0696    30.5252
     57  H    Isotropic =    24.4192   Anisotropy =    13.9386
   XX=    31.7989   YX=     6.2818   ZX=    -0.5393
   XY=     2.6684   YY=    23.1941   ZY=    -1.2914
   XZ=     1.3953   YZ=     0.9913   ZZ=    18.2646
   Eigenvalues:    18.2268    21.3192    33.7116
     58  H    Isotropic =    23.8004   Anisotropy =     3.4618
   XX=    25.9301   YX=    -0.1060   ZX=     0.0952
   XY=    -0.7329   YY=    24.7828   ZY=     1.2019
   XZ=    -0.0947   YZ=     1.5071   ZZ=    20.6883
   Eigenvalues:    20.2782    25.0147    26.1083
     59  H    Isotropic =    24.1240   Anisotropy =     6.5801
   XX=    26.3692   YX=     2.7574   ZX=     0.7921
   XY=     1.5737   YY=    25.7724   ZY=     0.9639
   XZ=     1.0589   YZ=     1.3219   ZZ=    20.2302
   Eigenvalues:    19.9609    23.9003    28.5107
     60  H    Isotropic =    21.8949   Anisotropy =    12.1740
   XX=    20.8762   YX=     7.7169   ZX=     1.0002
   XY=     5.0297   YY=    25.5641   ZY=    -1.3479
   XZ=    -0.4122   YZ=     0.9192   ZZ=    19.2442
   Eigenvalues:    16.3832    19.2905    30.0108
     61  H    Isotropic =    23.5995   Anisotropy =     7.4760
   XX=    27.2450   YX=     2.7617   ZX=     0.8542
   XY=     2.3409   YY=    23.1234   ZY=     0.6074
   XZ=     0.5890   YZ=     0.9469   ZZ=    20.4299
   Eigenvalues:    20.2215    21.9934    28.5835
     62  H    Isotropic =    20.9529   Anisotropy =    12.7754
   XX=    15.8743   YX=    -4.5187   ZX=     2.7644
   XY=    -3.3825   YY=    27.9724   ZY=    -1.2048
   XZ=     0.4726   YZ=    -1.6430   ZZ=    19.0121
   Eigenvalues:    14.3996    18.9894    29.4699
     63  H    Isotropic =    23.7198   Anisotropy =     2.9427
   XX=    22.2106   YX=    -2.1199   ZX=    -0.5383
   XY=    -2.2328   YY=    23.4880   ZY=    -0.7344
   XZ=    -0.8435   YZ=    -0.6574   ZZ=    25.4608
   Eigenvalues:    20.3952    25.0826    25.6816
     64  H    Isotropic =    23.6111   Anisotropy =     6.5421
   XX=    22.0420   YX=    -3.7273   ZX=     0.3643
   XY=    -3.3015   YY=    25.8751   ZY=    -0.0734
   XZ=    -0.0450   YZ=    -0.2831   ZZ=    22.9162
   Eigenvalues:    19.9548    22.9061    27.9725
     65  H    Isotropic =    24.5119   Anisotropy =    12.4442
   XX=    25.4114   YX=    -5.5806   ZX=     1.5463
   XY=    -5.8398   YY=    28.3233   ZY=    -0.0818
   XZ=    -0.6575   YZ=     2.7595   ZZ=    19.8010
   Eigenvalues:    19.0440    21.6836    32.8080
     66  H    Isotropic =    23.9380   Anisotropy =     6.9582
   XX=    23.1665   YX=    -3.5326   ZX=     0.3277
   XY=    -3.2025   YY=    25.9123   ZY=    -1.9618
   XZ=    -0.1862   YZ=    -1.5944   ZZ=    22.7352
   Eigenvalues:    20.4618    22.7753    28.5768
     67  H    Isotropic =    29.1190   Anisotropy =     8.6485
   XX=    25.4424   YX=    -0.8401   ZX=     4.0367
   XY=     0.6658   YY=    29.7266   ZY=    -2.6487
   XZ=     2.7917   YZ=    -2.7803   ZZ=    32.1881
   Eigenvalues:    23.8376    28.6348    34.8847
     68  H    Isotropic =    28.6517   Anisotropy =     7.7434
   XX=    29.1523   YX=     4.0139   ZX=    -2.2543
   XY=     3.3011   YY=    26.0430   ZY=    -2.5884
   XZ=    -1.2910   YZ=    -1.4609   ZZ=    30.7598
   Eigenvalues:    23.5443    28.5969    33.8140
     69  H    Isotropic =    29.1789   Anisotropy =     9.9703
   XX=    24.5490   YX=    -0.8891   ZX=    -1.4614
   XY=    -0.3400   YY=    31.3747   ZY=     4.5103
   XZ=    -1.5069   YZ=     3.7534   ZZ=    31.6129
   Eigenvalues:    24.2405    27.4705    35.8258
     70  H    Isotropic =    30.4157   Anisotropy =     8.7494
   XX=    29.1647   YX=     4.5290   ZX=    -2.2389
   XY=     3.2066   YY=    28.0852   ZY=    -3.5176
   XZ=    -0.3798   YZ=    -2.0270   ZZ=    33.9971
   Eigenvalues:    24.5405    30.4579    36.2486
     71  H    Isotropic =    30.4708   Anisotropy =    10.1402
   XX=    33.5532   YX=     0.8427   ZX=     3.2108
   XY=    -0.6024   YY=    22.7868   ZY=    -3.7202
   XZ=     2.2061   YZ=     0.4669   ZZ=    35.0725
   Eigenvalues:    22.5540    31.6275    37.2309
     72  H    Isotropic =    30.5722   Anisotropy =     5.6037
   XX=    27.4072   YX=     1.0538   ZX=    -0.0833
   XY=    -2.2766   YY=    30.4417   ZY=     1.8900
   XZ=     2.5908   YZ=     0.1323   ZZ=    33.8677
   Eigenvalues:    26.9872    30.4214    34.3080
     73  H    Isotropic =    30.3828   Anisotropy =     4.9111
   XX=    32.9785   YX=    -1.3055   ZX=    -0.3608
   XY=     0.6268   YY=    29.6001   ZY=     2.0536
   XZ=    -2.7920   YZ=     1.0735   ZZ=    28.5697
   Eigenvalues:    27.2212    30.2703    33.6568
     74  H    Isotropic =    30.2733   Anisotropy =     8.5587
   XX=    26.0766   YX=    -0.5377   ZX=     1.2883
   XY=     0.4287   YY=    28.9921   ZY=     1.0792
   XZ=     1.0286   YZ=     0.5412   ZZ=    35.7511
   Eigenvalues:    25.9324    28.9083    35.9791
     75  H    Isotropic =    30.9971   Anisotropy =    10.5820
   XX=    27.0174   YX=    -1.1858   ZX=    -0.0600
   XY=    -0.5774   YY=    37.4988   ZY=     1.8252
   XZ=    -1.3321   YZ=     2.3530   ZZ=    28.4750
   Eigenvalues:    26.7383    28.2012    38.0517
     76  H    Isotropic =    30.8597   Anisotropy =     9.4533
   XX=    29.3821   YX=     1.5883   ZX=     3.0237
   XY=     0.5871   YY=    28.0419   ZY=     2.1686
   XZ=     2.2608   YZ=     3.4013   ZZ=    35.1551
   Eigenvalues:    27.0617    28.3554    37.1619
     77  H    Isotropic =    29.9932   Anisotropy =     4.3253
   XX=    28.4382   YX=     1.7067   ZX=     3.8005
   XY=     1.4535   YY=    31.9470   ZY=    -0.5657
   XZ=     2.1128   YZ=    -2.9282   ZZ=    29.5945
   Eigenvalues:    25.1972    31.9057    32.8768
     78  H    Isotropic =    31.1604   Anisotropy =     9.0856
   XX=    36.8664   YX=     0.1621   ZX=     1.4030
   XY=    -0.7326   YY=    28.3497   ZY=     0.8887
   XZ=     2.1343   YZ=     0.7666   ZZ=    28.2651
   Eigenvalues:    27.2381    29.0256    37.2175
     79  H    Isotropic =    30.8755   Anisotropy =    11.1191
   XX=    28.4796   YX=     3.5865   ZX=     0.8681
   XY=     3.1091   YY=    34.8502   ZY=     4.6230
   XZ=     0.4505   YZ=     3.9904   ZZ=    29.2965
   Eigenvalues:    26.1716    28.1666    38.2882
     80  H    Isotropic =    31.0214   Anisotropy =    10.9664
   XX=    36.0262   YX=     3.6463   ZX=    -2.0201
   XY=     4.2025   YY=    30.2531   ZY=    -0.7287
   XZ=    -1.9417   YZ=     0.0429   ZZ=    26.7848
   Eigenvalues:    26.2942    28.4376    38.3323
     81  H    Isotropic =    30.5863   Anisotropy =     8.7792
   XX=    28.8585   YX=     3.5780   ZX=     1.4906
   XY=     2.0542   YY=    34.2279   ZY=    -4.5388
   XZ=     2.2179   YZ=    -2.6767   ZZ=    28.6725
   Eigenvalues:    24.7192    30.6006    36.4391
     82  H    Isotropic =    28.8772   Anisotropy =    12.3133
   XX=    29.3826   YX=    -2.0040   ZX=    -3.4965
   XY=    -5.0806   YY=    31.6902   ZY=     3.1780
   XZ=    -4.3616   YZ=     5.1877   ZZ=    25.5588
   Eigenvalues:    22.6439    26.9017    37.0861
     83  H    Isotropic =    29.1224   Anisotropy =     9.9144
   XX=    27.9400   YX=     1.9087   ZX=     3.7577
   XY=     3.1756   YY=    29.8860   ZY=     3.6084
   XZ=     2.8202   YZ=     4.0624   ZZ=    29.5411
   Eigenvalues:    25.2670    26.3682    35.7320
     84  H    Isotropic =    29.5101   Anisotropy =    10.2045
   XX=    27.4222   YX=     2.3668   ZX=    -3.0515
   XY=     3.0592   YY=    30.2506   ZY=    -4.8101
   XZ=    -2.3325   YZ=    -3.4043   ZZ=    30.8575
   Eigenvalues:    25.7519    26.4652    36.3131
     85  H    Isotropic =    30.5485   Anisotropy =     7.6468
   XX=    29.6866   YX=    -0.0581   ZX=     1.5095
   XY=    -0.4228   YY=    35.4490   ZY=    -1.2810
   XZ=     0.9980   YZ=    -1.1990   ZZ=    26.5099
   Eigenvalues:    25.9478    30.0513    35.6464
     86  H    Isotropic =    32.4440   Anisotropy =    22.4144
   XX=    44.9260   YX=     0.6006   ZX=     5.9712
   XY=     6.5211   YY=    26.7072   ZY=     1.3157
   XZ=     6.2349   YZ=     1.1970   ZZ=    25.6989
   Eigenvalues:    23.9045    26.0406    47.3869
     87  H    Isotropic =    29.1412   Anisotropy =     9.4543
   XX=    34.5845   YX=     1.5057   ZX=     1.5189
   XY=     0.8987   YY=    25.4480   ZY=    -0.9358
   XZ=     3.5439   YZ=    -1.6823   ZZ=    27.3912
   Eigenvalues:    24.2758    27.7038    35.4441
     88  H    Isotropic =    29.6274   Anisotropy =     5.6639
   XX=    31.7604   YX=    -2.1881   ZX=    -0.1979
   XY=    -1.7201   YY=    25.2700   ZY=    -3.3636
   XZ=    -2.3475   YZ=    -3.2892   ZZ=    31.8519
   Eigenvalues:    23.2615    32.2175    33.4033
     89  H    Isotropic =    29.0139   Anisotropy =     9.8628
   XX=    28.9422   YX=    -3.8468   ZX=    -0.9950
   XY=    -5.6667   YY=    32.1519   ZY=    -0.3383
   XZ=    -0.8010   YZ=     0.1739   ZZ=    25.9475
   Eigenvalues:    24.9245    26.5280    35.5890
     90  H    Isotropic =    28.5105   Anisotropy =     7.3100
   XX=    28.8180   YX=     1.0719   ZX=    -0.7712
   XY=     0.7131   YY=    23.4999   ZY=     2.1366
   XZ=     0.1036   YZ=     0.3734   ZZ=    33.2136
   Eigenvalues:    23.1875    28.9603    33.3838
     91  H    Isotropic =    28.8211   Anisotropy =     6.7843
   XX=    28.3908   YX=     0.2123   ZX=    -3.3891
   XY=    -0.5501   YY=    31.8372   ZY=    -3.4275
   XZ=    -1.9920   YZ=    -2.5788   ZZ=    26.2352
   Eigenvalues:    23.5716    29.5478    33.3439
     92  H    Isotropic =    29.3690   Anisotropy =     9.8076
   XX=    34.8338   YX=    -1.2871   ZX=    -1.8751
   XY=    -0.1826   YY=    25.0825   ZY=    -2.0104
   XZ=    -3.8814   YZ=    -1.7526   ZZ=    28.1909
   Eigenvalues:    23.8384    28.3613    35.9074
     93  H    Isotropic =    28.6191   Anisotropy =     9.0345
   XX=    24.7446   YX=    -1.6627   ZX=    -2.3016
   XY=    -0.0541   YY=    33.2488   ZY=     3.4387
   XZ=    -0.9834   YZ=     2.1347   ZZ=    27.8640
   Eigenvalues:    24.0261    27.1891    34.6421
     94  H    Isotropic =    29.4162   Anisotropy =     9.4156
   XX=    25.6471   YX=     3.1141   ZX=    -1.2024
   XY=     2.9107   YY=    32.3948   ZY=    -4.4332
   XZ=     0.8550   YZ=    -2.7109   ZZ=    30.2068
   Eigenvalues:    24.2370    28.3184    35.6933
     95  H    Isotropic =    28.6236   Anisotropy =     6.7667
   XX=    30.1672   YX=     1.2040   ZX=     4.3127
   XY=     0.7551   YY=    29.5677   ZY=    -1.0776
   XZ=     4.6968   YZ=    -3.3402   ZZ=    26.1359
   Eigenvalues:    22.4184    30.3177    33.1348
     96  H    Isotropic =    29.4454   Anisotropy =     5.3277
   XX=    29.2161   YX=     2.9828   ZX=     2.9925
   XY=     2.2546   YY=    29.1941   ZY=    -2.0758
   XZ=     3.2038   YZ=    -0.1568   ZZ=    29.9258
   Eigenvalues:    24.7688    30.5702    32.9971
     97  H    Isotropic =    28.7020   Anisotropy =     5.4695
   XX=    27.5465   YX=    -2.2253   ZX=    -1.9112
   XY=    -1.8207   YY=    26.9586   ZY=    -0.2269
   XZ=    -1.8115   YZ=    -0.6562   ZZ=    31.6009
   Eigenvalues:    24.8369    28.9208    32.3483
     98  H    Isotropic =    29.0129   Anisotropy =    10.9016
   XX=    25.7729   YX=    -1.9496   ZX=     4.4897
   XY=    -1.3732   YY=    30.9432   ZY=    -3.8758
   XZ=     2.8020   YZ=    -4.7317   ZZ=    30.3225
   Eigenvalues:    23.6676    27.0904    36.2806
 End of Minotr F.D. properties file   721 does not exist.
 End of Minotr F.D. properties file   722 does not exist.
 End of Minotr F.D. properties file   788 does not exist.

 **********************************************************************

            Population analysis using the SCF Density.

 **********************************************************************

 Orbital symmetries:
       Occupied  (A) (A) (A) (A) (A) (A) (A) (A) (A) (A) (A) (A)
                 (A) (A) (A) (A) (A) (A) (A) (A) (A) (A) (A) (A)
                 (A) (A) (A) (A) (A) (A) (A) (A) (A) (A) (A) (A)
                 (A) (A) (A) (A) (A) (A) (A) (A) (A) (A) (A) (A)
                 (A) (A) (A) (A) (A) (A) (A) (A) (A) (A) (A) (A)
                 (A) (A) (A) (A) (A) (A) (A) (A) (A) (A) (A) (A)
                 (A) (A) (A) (A) (A) (A) (A) (A) (A) (A) (A) (A)
                 (A) (A) (A) (A) (A) (A) (A) (A) (A) (A) (A) (A)
                 (A) (A) (A) (A) (A) (A) (A) (A) (A) (A) (A) (A)
                 (A) (A) (A) (A) (A) (A) (A) (A) (A) (A) (A) (A)
                 (A) (A) (A) (A) (A) (A) (A) (A) (A) (A) (A) (A)
                 (A) (A) (A) (A) (A) (A) (A) (A) (A) (A) (A) (A)
                 (A) (A) (A) (A) (A) (A) (A) (A) (A) (A) (A) (A)
                 (A) (A) (A) (A) (A) (A) (A) (A) (A) (A) (A) (A)
                 (A) (A) (A) (A) (A) (A) (A) (A) (A) (A) (A) (A)
                 (A) (A) (A) (A) (A) (A) (A) (A) (A) (A) (A) (A)
                 (A) (A) (A) (A) (A) (A) (A) (A) (A) (A) (A) (A)
                 (A)
       Virtual   (A) (A) (A) (A) (A) (A) (A) (A) (A) (A) (A) (A)
                 (A) (A) (A) (A) (A) (A) (A) (A) (A) (A) (A) (A)
                 (A) (A) (A) (A) (A) (A) (A) (A) (A) (A) (A) (A)
                 (A) (A) (A) (A) (A) (A) (A) (A) (A) (A) (A) (A)
                 (A) (A) (A) (A) (A) (A) (A) (A) (A) (A) (A) (A)
                 (A) (A) (A) (A) (A) (A) (A) (A) (A) (A) (A) (A)
                 (A) (A) (A) (A) (A) (A) (A) (A) (A) (A) (A) (A)
                 (A) (A) (A) (A) (A) (A) (A) (A) (A) (A) (A) (A)
                 (A) (A) (A) (A) (A) (A) (A) (A) (A) (A) (A) (A)
                 (A) (A) (A) (A) (A) (A) (A) (A) (A) (A) (A) (A)
                 (A) (A) (A) (A) (A) (A) (A) (A) (A) (A) (A) (A)
                 (A) (A) (A) (A) (A) (A) (A) (A) (A) (A) (A) (A)
                 (A) (A) (A) (A) (A) (A) (A) (A) (A) (A) (A) (A)
                 (A) (A) (A) (A) (A) (A) (A) (A) (A) (A) (A) (A)
                 (A) (A) (A) (A) (A) (A) (A) (A) (A) (A) (A) (A)
                 (A) (A) (A) (A) (A) (A) (A) (A) (A) (A) (A) (A)
                 (A) (A) (A) (A) (A) (A) (A) (A) (A) (A) (A) (A)
                 (A) (A) (A) (A) (A) (A) (A) (A) (A) (A) (A) (A)
                 (A) (A) (A) (A) (A) (A) (A) (A) (A) (A) (A) (A)
                 (A) (A) (A) (A) (A) (A) (A) (A) (A) (A) (A) (A)
                 (A) (A) (A) (A) (A) (A) (A) (A) (A) (A) (A) (A)
                 (A) (A) (A) (A) (A) (A) (A) (A) (A) (A) (A) (A)
                 (A) (A) (A) (A) (A) (A) (A) (A) (A) (A) (A) (A)
                 (A) (A) (A) (A) (A) (A) (A) (A) (A) (A) (A) (A)
                 (A) (A) (A) (A) (A) (A) (A) (A) (A) (A) (A) (A)
                 (A) (A) (A) (A) (A) (A) (A) (A) (A) (A) (A) (A)
                 (A) (A) (A) (A) (A) (A) (A) (A) (A) (A) (A) (A)
                 (A) (A) (A) (A) (A) (A) (A) (A) (A) (A) (A) (A)
                 (A) (A) (A) (A) (A) (A) (A) (A) (A) (A) (A) (A)
                 (A) (A) (A) (A) (A) (A) (A) (A) (A) (A) (A) (A)
                 (A) (A) (A) (A) (A) (A) (A) (A) (A) (A) (A) (A)
                 (A) (A) (A) (A) (A) (A) (A) (A) (A) (A) (A) (A)
                 (A) (A) (A) (A) (A) (A) (A) (A) (A) (A) (A) (A)
                 (A) (A) (A) (A) (A) (A) (A) (A) (A) (A) (A) (A)
                 (A) (A) (A) (A) (A) (A) (A) (A) (A) (A) (A) (A)
                 (A) (A) (A) (A) (A) (A) (A) (A) (A) (A) (A) (A)
                 (A) (A) (A) (A) (A) (A) (A) (A) (A) (A) (A) (A)
                 (A) (A) (A) (A) (A) (A) (A) (A) (A) (A) (A) (A)
                 (A) (A) (A) (A) (A) (A) (A) (A) (A) (A) (A) (A)
                 (A) (A) (A) (A) (A) (A) (A) (A) (A) (A) (A) (A)
                 (A) (A) (A) (A) (A) (A) (A) (A) (A) (A) (A) (A)
                 (A) (A) (A) (A) (A) (A) (A) (A) (A) (A) (A) (A)
                 (A) (A) (A) (A) (A) (A) (A) (A) (A) (A) (A) (A)
                 (A) (A) (A) (A) (A) (A) (A) (A) (A) (A) (A) (A)
                 (A) (A) (A) (A) (A) (A) (A) (A) (A) (A) (A) (A)
                 (A) (A) (A) (A) (A) (A) (A) (A) (A) (A) (A) (A)
                 (A) (A) (A) (A) (A) (A) (A) (A) (A) (A) (A) (A)
                 (A) (A) (A) (A) (A) (A) (A) (A) (A) (A) (A) (A)
                 (A) (A) (A) (A) (A) (A) (A) (A) (A) (A) (A) (A)
                 (A) (A) (A) (A) (A) (A) (A) (A) (A) (A) (A) (A)
                 (A) (A) (A) (A) (A) (A) (A) (A) (A) (A) (A) (A)
                 (A) (A) (A) (A) (A) (A) (A) (A) (A) (A) (A) (A)
                 (A) (A) (A) (A) (A) (A) (A) (A) (A) (A) (A) (A)
                 (A) (A) (A) (A) (A) (A) (A) (A) (A) (A) (A) (A)
                 (A) (A) (A) (A) (A) (A) (A) (A) (A) (A) (A) (A)
                 (A) (A) (A) (A) (A) (A) (A) (A) (A) (A) (A) (A)
                 (A) (A) (A) (A) (A) (A) (A) (A) (A) (A) (A) (A)
                 (A) (A) (A) (A) (A) (A) (A) (A) (A) (A) (A) (A)
                 (A) (A) (A) (A) (A) (A) (A) (A) (A) (A) (A) (A)
                 (A) (A) (A) (A) (A) (A) (A) (A) (A) (A) (A) (A)
                 (A) (A) (A) (A) (A) (A) (A) (A) (A) (A) (A) (A)
                 (A) (A) (A) (A) (A) (A) (A) (A) (A) (A) (A) (A)
                 (A) (A) (A) (A) (A) (A) (A) (A) (A) (A) (A) (A)
                 (A) (A) (A) (A) (A) (A) (A) (A) (A) (A) (A) (A)
                 (A) (A) (A) (A) (A) (A) (A) (A) (A) (A) (A) (A)
                 (A) (A) (A) (A) (A) (A) (A) (A) (A) (A) (A) (A)
                 (A) (A) (A) (A) (A) (A) (A) (A) (A) (A) (A) (A)
                 (A) (A) (A) (A) (A) (A) (A) (A) (A) (A) (A) (A)
                 (A) (A) (A) (A) (A) (A) (A) (A) (A) (A) (A) (A)
                 (A) (A) (A) (A) (A) (A) (A) (A) (A) (A) (A) (A)
                 (A) (A) (A) (A) (A) (A) (A) (A) (A) (A) (A) (A)
                 (A) (A) (A) (A) (A) (A) (A) (A) (A) (A) (A) (A)
                 (A) (A) (A) (A) (A) (A) (A) (A) (A) (A) (A) (A)
                 (A) (A) (A) (A) (A) (A) (A) (A) (A) (A) (A) (A)
                 (A) (A) (A) (A) (A) (A) (A) (A) (A) (A) (A) (A)
                 (A) (A) (A) (A) (A) (A) (A) (A) (A) (A) (A) (A)
                 (A) (A) (A) (A) (A) (A) (A) (A) (A) (A) (A) (A)
                 (A) (A) (A) (A) (A) (A) (A) (A) (A) (A) (A) (A)
                 (A) (A) (A) (A) (A) (A) (A) (A) (A) (A) (A) (A)
                 (A) (A) (A) (A) (A) (A) (A) (A) (A) (A) (A) (A)
                 (A) (A) (A) (A) (A) (A) (A) (A) (A) (A) (A) (A)
                 (A) (A) (A) (A) (A) (A) (A) (A) (A) (A) (A) (A)
                 (A) (A) (A) (A) (A) (A) (A) (A) (A) (A) (A) (A)
                 (A) (A) (A) (A) (A) (A) (A) (A) (A) (A) (A) (A)
                 (A) (A) (A) (A) (A) (A) (A) (A) (A) (A) (A) (A)
                 (A) (A) (A) (A) (A) (A) (A) (A) (A) (A) (A) (A)
                 (A) (A) (A) (A) (A) (A) (A) (A) (A) (A) (A) (A)
                 (A) (A) (A) (A) (A) (A) (A) (A) (A) (A) (A) (A)
                 (A) (A) (A) (A) (A) (A) (A) (A) (A) (A) (A) (A)
                 (A) (A) (A) (A) (A) (A) (A) (A) (A) (A) (A) (A)
                 (A) (A) (A) (A) (A) (A) (A) (A) (A) (A) (A) (A)
                 (A) (A) (A) (A) (A) (A) (A) (A) (A) (A) (A) (A)
                 (A) (A) (A) (A) (A) (A) (A) (A) (A) (A) (A) (A)
                 (A) (A) (A) (A) (A) (A) (A) (A) (A) (A) (A) (A)
                 (A) (A) (A) (A) (A) (A) (A) (A) (A) (A) (A) (A)
                 (A) (A) (A) (A) (A) (A) (A) (A) (A) (A) (A) (A)
                 (A) (A) (A) (A) (A) (A) (A) (A) (A) (A) (A) (A)
                 (A) (A) (A) (A) (A) (A) (A) (A) (A) (A) (A) (A)
                 (A) (A) (A) (A) (A) (A) (A) (A) (A) (A) (A) (A)
                 (A) (A) (A) (A) (A) (A) (A) (A) (A) (A) (A) (A)
                 (A) (A) (A) (A) (A) (A) (A) (A) (A) (A) (A) (A)
                 (A) (A) (A) (A) (A) (A) (A) (A) (A) (A) (A) (A)
                 (A) (A) (A) (A) (A) (A) (A) (A) (A) (A) (A) (A)
                 (A) (A) (A) (A) (A) (A) (A) (A) (A) (A) (A) (A)
                 (A) (A) (A) (A) (A) (A) (A) (A) (A) (A) (A) (A)
                 (A) (A) (A) (A) (A) (A) (A) (A) (A) (A) (A) (A)
                 (A) (A) (A) (A) (A) (A) (A) (A) (A) (A) (A) (A)
                 (A) (A) (A) (A) (A) (A) (A) (A) (A) (A) (A) (A)
                 (A) (A) (A) (A) (A) (A) (A) (A) (A) (A) (A) (A)
                 (A) (A) (A) (A) (A) (A) (A) (A) (A) (A) (A) (A)
                 (A) (A) (A) (A) (A) (A) (A) (A) (A) (A) (A) (A)
                 (A) (A) (A) (A) (A) (A) (A) (A) (A) (A) (A) (A)
                 (A) (A) (A) (A) (A) (A) (A) (A) (A) (A) (A) (A)
                 (A) (A) (A) (A) (A) (A) (A) (A) (A) (A) (A) (A)
                 (A) (A) (A) (A) (A) (A) (A) (A) (A) (A) (A) (A)
                 (A) (A) (A) (A) (A) (A) (A) (A) (A) (A) (A) (A)
                 (A) (A) (A) (A) (A) (A) (A) (A) (A) (A) (A) (A)
                 (A) (A) (A) (A) (A) (A) (A) (A) (A) (A) (A) (A)
                 (A) (A) (A) (A) (A) (A) (A) (A) (A) (A) (A) (A)
                 (A) (A) (A) (A) (A) (A) (A) (A) (A) (A) (A) (A)
                 (A) (A) (A) (A) (A) (A) (A) (A) (A) (A) (A) (A)
                 (A) (A) (A) (A) (A) (A) (A) (A) (A) (A) (A) (A)
                 (A) (A) (A) (A) (A) (A) (A) (A) (A) (A) (A) (A)
                 (A) (A) (A) (A) (A) (A) (A) (A) (A) (A) (A) (A)
                 (A) (A) (A) (A) (A) (A) (A) (A) (A) (A) (A) (A)
                 (A) (A) (A) (A) (A) (A) (A) (A) (A) (A) (A) (A)
                 (A) (A) (A) (A) (A) (A) (A) (A) (A) (A) (A) (A)
                 (A) (A) (A) (A) (A) (A) (A) (A) (A) (A) (A) (A)
                 (A) (A) (A) (A) (A) (A) (A) (A) (A) (A) (A) (A)
                 (A) (A) (A) (A) (A) (A) (A) (A) (A) (A) (A) (A)
                 (A) (A) (A) (A) (A) (A) (A) (A) (A) (A) (A) (A)
                 (A) (A) (A) (A) (A) (A) (A) (A) (A) (A) (A) (A)
                 (A) (A) (A) (A) (A) (A) (A) (A) (A) (A) (A) (A)
                 (A) (A) (A) (A) (A) (A) (A) (A) (A) (A) (A) (A)
                 (A) (A) (A) (A) (A) (A) (A) (A) (A) (A) (A) (A)
                 (A) (A) (A) (A) (A) (A) (A) (A) (A) (A) (A) (A)
                 (A) (A) (A) (A) (A) (A) (A) (A) (A) (A) (A) (A)
                 (A) (A) (A) (A) (A) (A) (A) (A) (A) (A) (A) (A)
                 (A) (A) (A) (A) (A) (A) (A) (A) (A) (A) (A) (A)
 The electronic state is 1-A.
 Alpha  occ. eigenvalues -- -101.60694-101.60592 -89.06150 -77.26458 -77.25983
 Alpha  occ. eigenvalues --  -10.28714 -10.27830 -10.26126 -10.26085 -10.25581
 Alpha  occ. eigenvalues --  -10.25572 -10.25562 -10.25481 -10.25396 -10.25298
 Alpha  occ. eigenvalues --  -10.25236 -10.24929 -10.24798 -10.24664 -10.24643
 Alpha  occ. eigenvalues --  -10.24586 -10.24584 -10.24447 -10.24438 -10.24273
 Alpha  occ. eigenvalues --  -10.24227 -10.24184 -10.24120 -10.24086 -10.24062
 Alpha  occ. eigenvalues --  -10.24023 -10.24020 -10.23993 -10.23952 -10.23885
 Alpha  occ. eigenvalues --  -10.23789 -10.23705 -10.23589 -10.23205 -10.23107
 Alpha  occ. eigenvalues --  -10.22834 -10.22807 -10.22462 -10.22286 -10.22169
 Alpha  occ. eigenvalues --  -10.21942 -10.21938 -10.21905 -10.21805  -9.43199
 Alpha  occ. eigenvalues --   -9.43119  -8.03974  -7.16407  -7.16299  -7.15932
 Alpha  occ. eigenvalues --   -7.15853  -7.15853  -7.15800  -6.65591  -6.65213
 Alpha  occ. eigenvalues --   -5.97555  -5.97218  -5.96994  -4.79198  -4.79158
 Alpha  occ. eigenvalues --   -4.78929  -4.78805  -4.78771  -4.78572  -3.51470
 Alpha  occ. eigenvalues --   -2.19155  -2.19065  -2.15800  -0.93196  -0.91634
 Alpha  occ. eigenvalues --   -0.89908  -0.89328  -0.88675  -0.88619  -0.82606
 Alpha  occ. eigenvalues --   -0.82129  -0.81707  -0.80915  -0.80513  -0.79661
 Alpha  occ. eigenvalues --   -0.78863  -0.78417  -0.78184  -0.77847  -0.77691
 Alpha  occ. eigenvalues --   -0.77459  -0.76245  -0.74339  -0.73613  -0.72778
 Alpha  occ. eigenvalues --   -0.72512  -0.71522  -0.71362  -0.71140  -0.70454
 Alpha  occ. eigenvalues --   -0.70065  -0.68919  -0.68776  -0.66834  -0.64881
 Alpha  occ. eigenvalues --   -0.63472  -0.63154  -0.62421  -0.62037  -0.60767
 Alpha  occ. eigenvalues --   -0.60407  -0.59926  -0.59031  -0.57410  -0.57167
 Alpha  occ. eigenvalues --   -0.56071  -0.54367  -0.54108  -0.53024  -0.52806
 Alpha  occ. eigenvalues --   -0.51753  -0.51385  -0.50493  -0.49579  -0.49520
 Alpha  occ. eigenvalues --   -0.48766  -0.48268  -0.48015  -0.47908  -0.47425
 Alpha  occ. eigenvalues --   -0.47058  -0.46504  -0.46149  -0.45656  -0.45504
 Alpha  occ. eigenvalues --   -0.45084  -0.44754  -0.44542  -0.44303  -0.44067
 Alpha  occ. eigenvalues --   -0.43879  -0.43736  -0.43592  -0.43452  -0.43209
 Alpha  occ. eigenvalues --   -0.42934  -0.42799  -0.42508  -0.42300  -0.42045
 Alpha  occ. eigenvalues --   -0.41894  -0.41798  -0.41487  -0.41360  -0.40758
 Alpha  occ. eigenvalues --   -0.40731  -0.40493  -0.39942  -0.39797  -0.39526
 Alpha  occ. eigenvalues --   -0.39349  -0.39165  -0.38965  -0.38652  -0.38561
 Alpha  occ. eigenvalues --   -0.38100  -0.37004  -0.36855  -0.36612  -0.36507
 Alpha  occ. eigenvalues --   -0.36333  -0.36259  -0.35931  -0.35867  -0.35771
 Alpha  occ. eigenvalues --   -0.35200  -0.35070  -0.34966  -0.34792  -0.34657
 Alpha  occ. eigenvalues --   -0.34455  -0.33781  -0.32785  -0.32452  -0.31149
 Alpha  occ. eigenvalues --   -0.30954  -0.30259  -0.29704  -0.29614  -0.29154
 Alpha  occ. eigenvalues --   -0.28205  -0.27828  -0.27397  -0.26999  -0.26774
 Alpha  occ. eigenvalues --   -0.26369  -0.26047  -0.25617  -0.25277  -0.24895
 Alpha  occ. eigenvalues --   -0.24434  -0.23535  -0.23332  -0.22852  -0.22460
 Alpha virt. eigenvalues --   -0.07634  -0.04949  -0.04192  -0.03926  -0.03374
 Alpha virt. eigenvalues --   -0.02606  -0.02362  -0.02179  -0.01326  -0.00989
 Alpha virt. eigenvalues --   -0.00639   0.00586   0.01247   0.01828   0.02604
 Alpha virt. eigenvalues --    0.03011   0.03440   0.03960   0.04506   0.04907
 Alpha virt. eigenvalues --    0.05272   0.05431   0.05970   0.06137   0.06623
 Alpha virt. eigenvalues --    0.06707   0.07023   0.07328   0.07550   0.07582
 Alpha virt. eigenvalues --    0.07652   0.08094   0.08469   0.08529   0.08943
 Alpha virt. eigenvalues --    0.09244   0.09383   0.09469   0.09708   0.09937
 Alpha virt. eigenvalues --    0.10022   0.10144   0.10291   0.10515   0.10823
 Alpha virt. eigenvalues --    0.11106   0.11149   0.11416   0.11737   0.11834
 Alpha virt. eigenvalues --    0.12108   0.12286   0.12612   0.12734   0.12953
 Alpha virt. eigenvalues --    0.13208   0.13283   0.13472   0.13655   0.13976
 Alpha virt. eigenvalues --    0.14067   0.14172   0.14383   0.14580   0.14605
 Alpha virt. eigenvalues --    0.14923   0.15185   0.15355   0.15590   0.15684
 Alpha virt. eigenvalues --    0.15738   0.15963   0.16337   0.16443   0.16591
 Alpha virt. eigenvalues --    0.16764   0.16971   0.17096   0.17232   0.17537
 Alpha virt. eigenvalues --    0.17563   0.17771   0.18103   0.18236   0.18423
 Alpha virt. eigenvalues --    0.18699   0.18907   0.19274   0.19521   0.19977
 Alpha virt. eigenvalues --    0.20050   0.20393   0.20435   0.20765   0.20976
 Alpha virt. eigenvalues --    0.21177   0.21384   0.21596   0.21758   0.22028
 Alpha virt. eigenvalues --    0.22121   0.22356   0.22494   0.22709   0.22938
 Alpha virt. eigenvalues --    0.23008   0.23559   0.23633   0.23821   0.23974
 Alpha virt. eigenvalues --    0.24090   0.24418   0.24698   0.24737   0.25278
 Alpha virt. eigenvalues --    0.25290   0.25376   0.25668   0.25717   0.26119
 Alpha virt. eigenvalues --    0.26303   0.26438   0.26650   0.26958   0.27098
 Alpha virt. eigenvalues --    0.27295   0.27549   0.27867   0.28095   0.28298
 Alpha virt. eigenvalues --    0.28343   0.28702   0.28982   0.29094   0.29435
 Alpha virt. eigenvalues --    0.29525   0.29640   0.29832   0.30450   0.30569
[...]
  1830. BD*(   2) C  29 - C  34          0.35962     0.01849  1838(v),1833(v),1846(v)
                                                    1066(g),1813(r),1845(r)
                                                    1067(g),1818(r)
  1831. BD*(   1) C  29 - P  42          0.07124     0.21075   
  1832. BD*(   1) C  30 - C  31          0.01612     0.53180   
  1833. BD*(   2) C  30 - C  31          0.32494     0.01683  1830(v),1838(v),1813(r)
                                                    989(g)
  1834. BD*(   1) C  30 - H  65          0.01581     0.41169   
  1835. BD*(   1) C  31 - C  32          0.01492     0.52583   
  1836. BD*(   1) C  31 - H  66          0.01389     0.39453   
  1837. BD*(   1) C  32 - C  33          0.01457     0.52836   
  1838. BD*(   2) C  32 - C  33          0.31902     0.01915  1830(v),1833(v),1041(g)
                                                    1015(g)
  1839. BD*(   1) C  32 - H  63          0.01320     0.39841   
  1840. BD*(   1) C  33 - C  34          0.01624     0.53980   
  1841. BD*(   1) C  33 - H  64          0.01362     0.40301   
  1842. BD*(   1) C  34 - H  62          0.02246     0.43483   
  1843. BD*(   1) C  35 - C  36          0.02466     0.51903   
  1844. BD*(   1) C  35 - C  40          0.02759     0.52182   
  1845. BD*(   2) C  35 - C  40          0.36972     0.01858  1853(v),1848(v),1771(r)
                                                    1821(v),1830(r),1222(g)
                                                    1094(g),1224(g)
  1846. BD*(   1) C  35 - P  42          0.06480     0.21396   
  1847. BD*(   1) C  36 - C  37          0.01675     0.54394   
  1848. BD*(   2) C  36 - C  37          0.30269     0.02757  1853(v),1845(v),1145(g)
  1849. BD*(   1) C  36 - H  60          0.01569     0.43138   
  1850. BD*(   1) C  37 - C  38          0.01458     0.52960   
  1851. BD*(   1) C  37 - H  61          0.01359     0.40024   
  1852. BD*(   1) C  38 - C  39          0.01444     0.53047   
  1853. BD*(   2) C  38 - C  39          0.32207     0.02025  1845(v),1848(v),1171(g)
                                                    1197(g)
  1854. BD*(   1) C  38 - H  58          0.01294     0.40078   
  1855. BD*(   1) C  39 - C  40          0.01545     0.53299   
  1856. BD*(   1) C  39 - H  59          0.01348     0.39858   
  1857. BD*(   1) C  40 - H  57          0.01608     0.40737   
  1858. BD*(   1) P  41 -Pd  44          0.18111     0.57209  1859(g),1343(g),1335(g)
                                                    1331(g),1337(g),1339(g)
                                                    1247(g),1349(g),1275(v)
                                                    1340(g),1342(g),1345(g)
                                                    1347(g),1338(g),1350(g)
                                                    1344(g),1348(g),936(r)
                                                    1248(g),519(v),1341(g)
                                                    1255(g),364(v),1860(g)
                                                    1283(v),1282(v),857(r)
                                                    1281(v),496(r),1388(v)
                                                    1336(g),1092(r),1286(v)
                                                    1258(g),1384(v),1253(g)
                                                    1346(g),1359(v),363(v)
                                                    1259(g),208(v),1332(g)
                                                    860(r),938(r),1287(v),237(r)
                                                    1261(g),1257(g),858(r)
                                                    207(v),1285(v),1256(g)
                                                    1093(r),962(r),865(r)
                                                    1539(r),1284(v),236(r)
                                                    521(v),235(r),941(r),368(v)
                                                    212(v),1091(r),1251(g)
                                                    1508(r),859(r),1360(v)
                                                    1120(r),1669(r),935(r)
                                                    1121(r),1387(v),626(r)
                                                    209(v),946(r),1783(r)
                                                    1477(r),1334(g),1544(r)
                                                    1390(v),1689(r),866(r)
                                                    1254(g),1280(v),963(r)
                                                    624(r),939(r),1223(r),940(r)
                                                    1357(v),868(r),495(r)
                                                    1396(v),1382(v),1410(r)
                                                    371(v),376(v),211(v),782(r)
                                                    390(r),1766(r),1071(r)
                                                    1799(r),1118(r),1095(r)
                                                    344(r),1277(v),340(r),867(r)
                                                    1755(v),374(v),1262(g)
                                                    964(r),1122(r),366(v)
                                                    1368(v),373(v),780(r)
                                                    1770(v),1758(r),1584(r)
                                                    1249(g),1101(r),1294(v)
                                                    1358(v),1289(v),398(r)
                                                    392(r),534(v),1356(v)
                                                    1225(r),1268(g),243(r)
                                                    494(r),500(r),1781(r),546(r)
                                                    1276(v),1768(r),1278(v)
                                                    525(v),498(r),1844(r)
                                                    1674(r),1821(v),1386(v)
                                                    391(r),1406(v),213(v)
                                                    1352(g),1354(v),524(v)
                                                    1355(v),1119(r),861(r)
                                                    367(v),1404(v),945(r)
                                                    1125(r),1290(v),1266(g)
                                                    1124(r),351(r),533(v),365(v)
                                                    781(r),1069(r),507(r)
                                                    1828(r),1224(r),1383(v)
                                                    870(r),1773(r),1559(r)
                                                    1222(r),649(r),1197(r)
                                                    1263(g),217(v),1370(v)
                                                    675(r)
  1859. BD*(   1) P  42 -Pd  44          0.17981     0.59895  1858(g),989(r),1331(g)
                                                    1335(g),1275(g),1349(g)
                                                    1337(g),1508(r),1345(g)
                                                    1342(g),1338(g),1347(g)
                                                    1247(v),1339(g),1340(g)
                                                    1343(g),1350(g),1344(g)
                                                    936(v),1248(v),1255(v)
                                                    1341(g),519(r),1348(g)
                                                    1283(g),364(r),1861(g)
                                                    857(v),1282(g),1346(g)
                                                    1388(v),1286(g),1092(v)
                                                    1359(v),1281(g),1258(v)
                                                    938(v),496(r),860(v),858(v)
                                                    363(r),1287(g),1259(v)
                                                    208(r),1253(v),207(r)
                                                    1285(g),1384(v),1332(g)
                                                    1284(g),237(r),962(r)
                                                    1261(v),865(v),1257(v)
                                                    235(r),1093(v),941(v),236(r)
                                                    1256(v),1334(g),521(r)
                                                    368(r),859(v),1280(g),212(r)
                                                    1360(v),946(v),1355(v)
                                                    1356(v),1120(r),626(r)
                                                    1121(r),1336(g),1119(r)
                                                    1091(v),866(v),209(r)
                                                    1689(r),935(v),1251(v)
                                                    1276(g),1354(v),1584(r)
                                                    1477(r),939(v),868(v)
                                                    1559(r),1118(r),1386(v)
                                                    1544(r),494(r),495(r),782(r)
                                                    1669(r),1278(g),963(r)
                                                    1122(r),1390(v),1262(v)
                                                    1277(g),1410(r),1387(v)
                                                    1223(r),1358(v),1249(v)
                                                    867(v),780(r),1095(v)
                                                    1396(v),624(r),940(v)
                                                    1294(g),1849(r),964(r)
                                                    1368(v),1071(r),371(r)
                                                    344(r),1333(g),1382(v)
                                                    1769(r),366(r),1225(r)
                                                    1125(r),1254(v),1799(r)
                                                    1829(v),376(r),945(v)
                                                    1840(r),390(r),1290(g)
                                                    398(r),1289(g),340(r),367(r)
                                                    391(r),525(r),211(r),1539(r)
                                                    534(r),217(r),1674(r),498(r)
                                                    1069(r),351(r),1842(r)
                                                    374(r),392(r),373(r),781(r)
                                                    1370(v),1847(r),1353(g)
                                                    870(v),861(v),1357(v),675(r)
                                                    1472(r),243(r),1124(r)
                                                    1268(v),546(r),1263(v)
                                                    965(r),950(v),1787(v),649(r)
                                                    1352(g),507(r),916(r),524(r)
                                                    213(r),833(r),1231(r),871(v)
                                                    1226(r)
  1860. BD*(   1)Pd  44 -Cl  45          0.18355     0.17214  1861(g),1858(g),1344(g)
                                                    1347(g),1247(v),1339(g)
                                                    1348(g),1349(g),1341(g)
                                                    1275(v),1342(g),1345(g)
                                                    1248(v),1343(g),1337(g)
                                                    1350(g),519(r),1338(g)
                                                    1336(g),1335(g),936(r)
                                                    1255(v),364(r),200(g)
                                                    1282(v),1757(v),1283(v)
                                                    1384(v),1258(v),496(r)
                                                    1356(g),363(r),1331(g)
                                                    1259(v),1340(g),857(r)
                                                    1388(v),1092(r),1783(r)
                                                    1539(r),1353(g),1253(v)
                                                    1286(v),1278(v),1281(v)
                                                    1768(r),1257(v)
  1861. BD*(   1)Pd  44 -Cl  46          0.19550     0.19343  1860(g),1859(g),1347(g)
                                                    1349(g),1275(v),1345(g)
                                                    1342(g),1338(g),1247(v)
                                                    1344(g),1341(g),1846(v)
                                                    1350(g),1337(g),1339(g)
                                                    936(r),1757(v),857(r)
                                                    1388(g),1282(v),1831(v)
                                                    1821(v),1255(v),1283(v)
                                                    1346(g),1335(g),1384(g)
                                                    364(r),1286(v),1281(v)
                                                    1842(r),1092(r),860(r)
                                                    1359(v),1353(g),519(r)
                                                    1285(v),1248(v),1355(v)
                                                    1331(g),1284(v),1119(r)
                                                    1253(v),1287(v),1352(g)
                                                    1276(v),1849(r),859(r)
                                                    1258(v),208(r),1382(g)
                                                    938(r)
  1862. BD*(   1) C  48 - H  87          0.00743     0.36270   
  1863. BD*(   1) C  48 - H  88          0.00476     0.36734   
  1864. BD*(   1) C  48 - H  89          0.01065     0.36042   
  1865. BD*(   1) C  50 - H  90          0.00893     0.37264   
  1866. BD*(   1) C  50 - H  91          0.00850     0.36623   
  1867. BD*(   1) C  50 - H  92          0.00433     0.37246   
  1868. BD*(   1) C  53 - H  96          0.00503     0.35527   
  1869. BD*(   1) C  53 - H  97          0.01172     0.34784   
  1870. BD*(   1) C  53 - H  98          0.00753     0.35463   
  1871. BD*(   1) C  55 - H  93          0.00923     0.35833   
  1872. BD*(   1) C  55 - H  94          0.00444     0.36152   
  1873. BD*(   1) C  55 - H  95          0.00868     0.35768   
       -------------------------------
              Total Lewis  429.43393  ( 98.0443%)
        Valence non-Lewis    7.83068  (  1.7878%)
        Rydberg non-Lewis    0.73539  (  0.1679%)
       -------------------------------
            Total unit  1  438.00000  (100.0000%)
           Charge unit  1    0.00000
 1\1\GINC-NOTCH212\SP\RPBE1PBE\Gen\C44H48Cl2P2Pd1S1\U1010977\01-Nov-202
 1\0\\# PBE1PBE gen pseudo=read int=(grid=ultrafine) empiricaldispersio
 n=GD3BJ pop=nbo guess=read geom=check\\title\\0,1\C,0,17.4797888636,4.
 1495980058,6.5596299863\C,0,18.3287605378,3.1515037605,6.0477555115\C,
 0,19.5134521555,2.8113660985,6.7208489532\C,0,19.8266154273,3.48728919
 19,7.914458211\C,0,18.9986595902,4.4939604227,8.4372664549\C,0,17.8196
 535333,4.8226617547,7.7447164503\C,0,15.9738250013,3.7802469249,4.0800
 694449\C,0,15.8053406244,2.403586079,3.8439571493\C,0,15.8590990538,1.
 8969832561,2.5361664013\C,0,16.0885032697,2.7947243645,1.4744649887\C,
 0,16.2778396298,4.1695102674,1.6880087189\C,0,16.2230686865,4.65221328
 36,3.0084086067\C,0,14.6826389932,3.5927642124,6.7506563416\C,0,14.792
 637401,3.5059570822,8.2694331784\C,0,13.9861275695,2.198964178,8.55275
 12083\C,0,12.7445604473,2.6957467168,7.7085264458\C,0,13.4470495014,3.
 123004194,6.3946097561\C,0,13.8365638019,4.6275039472,8.7927329015\C,0
 ,12.4396412466,4.0618675318,8.4348097842\C,0,14.679376093,0.9359364997
 ,8.0162817732\C,0,13.684250191,1.9541451951,10.0406588552\C,0,11.51440
 31135,1.802026989,7.6301724202\C,0,12.9042789742,3.109351482,5.0189135
 102\C,0,12.5806117079,1.9211361467,4.3735809389\C,0,12.5081337063,3.92
 05958897,2.8168113877\C,0,12.8416274151,4.2694256003,4.1227555073\C,0,
 12.6503901669,0.5021545405,4.8579892254\C,0,12.3930652335,4.6792214188
 ,1.5227248658\C,0,11.5853667431,6.1674910339,5.8412871563\C,0,10.45758
 40811,5.3389655193,5.6627039866\C,0,9.3416909848,5.4824298016,6.498370
 4923\C,0,9.3435446425,6.4497112322,7.5139668556\C,0,10.4599726303,7.28
 16000418,7.6844857659\C,0,11.5801149392,7.1466563141,6.8539664677\C,0,
 12.6794661599,7.0930789347,3.3246861765\C,0,13.7439013639,7.5865520012
 ,2.5467667422\C,0,13.4846084488,8.3741963821,1.4199725526\C,0,12.16247
 42139,8.6976037855,1.0774261142\C,0,11.1029336265,8.2420989188,1.87432
 76185\C,0,11.3577277416,7.4408841832,2.9968322857\P,0,15.8771166763,4.
 5242113572,5.7503155101\P,0,13.0610513346,5.9980272257,4.751329572\S,0
 ,12.2212722231,2.2025264102,2.6974446089\Pd,0,15.1083711882,6.67227282
 44,5.6173873734\Cl,0,17.2527538799,7.5395454024,6.1150191875\Cl,0,14.2
 316220262,8.9029267058,5.6061274151\H,0,18.0749180036,2.6372422169,5.1
 154633537\C,0,20.4438402294,1.7587387788,6.1629436677\H,0,20.751113435
 9,3.2293629256,8.4466663941\C,0,19.3660203946,5.2402075163,9.698307381
 \H,0,17.1831115357,5.6331500468,8.1116011372\H,0,15.608712742,1.726651
 8747,4.6826015834\C,0,15.6290573741,0.4289467769,2.2643605844\H,0,16.1
 161731453,2.4066975119,0.448353265\C,0,16.5168035849,5.1221833899,0.53
 93395192\H,0,16.3651038345,5.7198057252,3.2156167702\H,0,10.5282663021
 ,7.0894523796,3.6181263944\H,0,11.9602345356,9.3244355924,0.2029249572
 \H,0,10.0719065685,8.5161601791,1.6275243045\H,0,14.7735068116,7.37464
 31308,2.8505495867\H,0,14.3185343793,8.7586774934,0.8237707366\H,0,12.
 4513431198,7.8000125495,6.9716726366\H,0,8.4746375211,6.5541024774,8.1
 721105223\H,0,10.465032521,8.0405352881,8.473523372\H,0,10.4612955336,
 4.5719756467,4.8820895753\H,0,8.4722641193,4.831546405,6.3579538413\H,
 0,13.1240104059,-0.149182808,4.1031039689\H,0,13.2500295693,0.43773841
 27,5.7764900406\H,0,11.6506248193,0.0838593885,5.0733082836\H,0,12.269
 1507012,3.9760673756,0.6827248097\H,0,11.54049367,5.3768781563,1.51231
 53696\H,0,13.3000358386,5.2735857883,1.3327571513\H,0,10.7980483227,2.
 185868019,6.8828638612\H,0,11.7574208999,0.760852477,7.3656266855\H,0,
 10.9987910755,1.7839951892,8.6056864072\H,0,14.007238888,0.0604530706,
 8.0765787389\H,0,15.015058433,1.0492858815,6.9741847468\H,0,15.5698490
 853,0.70530918,8.6270464271\H,0,13.0317071992,1.0705124832,10.15800010
 34\H,0,14.6225521648,1.7421493448,10.5831541062\H,0,13.1951428272,2.80
 09431029,10.5433297131\H,0,15.8150697317,3.5399005424,8.6720780456\H,0
 ,14.0495622239,5.5897846766,8.2954942841\H,0,13.9607926366,4.778382132
 2,9.8786275156\H,0,11.8345674019,3.8625592958,9.3361307916\H,0,11.8499
 7494,4.7276561898,7.7957896248\H,0,20.7951502857,1.0700681322,6.951106
 4096\H,0,19.9508554999,1.1591693002,5.3799314181\H,0,21.3421855457,2.2
 185708904,5.7112771056\H,0,19.4977429426,6.3169760693,9.48993943\H,0,1
 8.5732940134,5.1561566831,10.4631282249\H,0,20.3031055953,4.8593174536
 ,10.1363403969\H,0,17.5109842325,5.5980106679,0.6131144186\H,0,16.4585
 557143,4.6065659404,-0.4330803858\H,0,15.7712864966,5.9384031865,0.537
 6217677\H,0,15.7451201044,-0.1738503353,3.1804317632\H,0,14.6066550527
 ,0.2576429584,1.8783440264\H,0,16.3318331516,0.040420142,1.5073803091\
 \Version=ES64L-G16RevB.01\State=1-A\HF=-3832.9915896\RMSD=2.364e-09\Di
 pole=-1.7004117,-4.0102408,-0.9471812\Quadrupole=5.1557383,-23.143701,
 17.9879627,-14.2127937,-0.7253903,-6.6804754\PG=C01 [X(C44H48Cl2P2Pd1S
 1)]\\@


 THE CAUTIOUS SELDOM ERR...CONFUCIUS                   
 Job cpu time:       0 days  3 hours  5 minutes 32.5 seconds.
 Elapsed time:       0 days  0 hours  3 minutes 35.9 seconds.
 File lengths (MBytes):  RWF=   1789 Int=      0 D2E=      0 Chk=    269 Scr=      1
 Normal termination of Gaussian 16 at Mon Nov  1 18:25:45 2021.
