 Entering Gaussian System, Link 0=/uufs/chpc.utah.edu/sys/installdir/gaussian16/B01/E6B/g16/g16
 Input=catASium_T2_2_SPE.com
 Output=catASium_T2_2_SPE.log
 Initial command:
 /uufs/chpc.utah.edu/sys/installdir/gaussian16/B01/E6B/g16/l1.exe "/scratch/general/lustre/u1010977/3354018/notchpeak.peaks/Gau-181388.inp" -scrdir="/scratch/general/lustre/u1010977/3354018/notchpeak.peaks/"
 Entering Link 1 = /uufs/chpc.utah.edu/sys/installdir/gaussian16/B01/E6B/g16/l1.exe PID=    181391.
  
 Copyright (c) 1988-2017, Gaussian, Inc.  All Rights Reserved.
  
 This is part of the Gaussian(R) 16 program.  It is based on
 the Gaussian(R) 09 system (copyright 2009, Gaussian, Inc.),
 the Gaussian(R) 03 system (copyright 2003, Gaussian, Inc.),
 the Gaussian(R) 98 system (copyright 1998, Gaussian, Inc.),
 the Gaussian(R) 94 system (copyright 1995, Gaussian, Inc.),
 the Gaussian 92(TM) system (copyright 1992, Gaussian, Inc.),
 the Gaussian 90(TM) system (copyright 1990, Gaussian, Inc.),
 the Gaussian 88(TM) system (copyright 1988, Gaussian, Inc.),
 the Gaussian 86(TM) system (copyright 1986, Carnegie Mellon
 University), and the Gaussian 82(TM) system (copyright 1983,
 Carnegie Mellon University). Gaussian is a federally registered
 trademark of Gaussian, Inc.
  
 This software contains proprietary and confidential information,
 including trade secrets, belonging to Gaussian, Inc.
  
 This software is provided under written license and may be
 used, copied, transmitted, or stored only in accord with that
 written license.
  
 The following legend is applicable only to US Government
 contracts under FAR:
  
                    RESTRICTED RIGHTS LEGEND
  
 Use, reproduction and disclosure by the US Government is
 subject to restrictions as set forth in subparagraphs (a)
 and (c) of the Commercial Computer Software - Restricted
 Rights clause in FAR 52.227-19.
  
 Gaussian, Inc.
 340 Quinnipiac St., Bldg. 40, Wallingford CT 06492
  
  
 ---------------------------------------------------------------
 Warning -- This program may not be used in any manner that
 competes with the business of Gaussian, Inc. or will provide
 assistance to any competitor of Gaussian, Inc.  The licensee
 of this program is prohibited from giving any competitor of
 Gaussian, Inc. access to this program.  By using this program,
 the user acknowledges that Gaussian, Inc. is engaged in the
 business of creating and licensing software in the field of
 computational chemistry and represents and warrants to the
 licensee that it is not a competitor of Gaussian, Inc. and that
 it will not use this program in any manner prohibited above.
 ---------------------------------------------------------------
  

 Cite this work as:
 Gaussian 16, Revision B.01,
 M. J. Frisch, G. W. Trucks, H. B. Schlegel, G. E. Scuseria, 
 M. A. Robb, J. R. Cheeseman, G. Scalmani, V. Barone, 
 G. A. Petersson, H. Nakatsuji, X. Li, M. Caricato, A. V. Marenich, 
 J. Bloino, B. G. Janesko, R. Gomperts, B. Mennucci, H. P. Hratchian, 
 J. V. Ortiz, A. F. Izmaylov, J. L. Sonnenberg, D. Williams-Young, 
 F. Ding, F. Lipparini, F. Egidi, J. Goings, B. Peng, A. Petrone, 
 T. Henderson, D. Ranasinghe, V. G. Zakrzewski, J. Gao, N. Rega, 
 G. Zheng, W. Liang, M. Hada, M. Ehara, K. Toyota, R. Fukuda, 
 J. Hasegawa, M. Ishida, T. Nakajima, Y. Honda, O. Kitao, H. Nakai, 
 T. Vreven, K. Throssell, J. A. Montgomery, Jr., J. E. Peralta, 
 F. Ogliaro, M. J. Bearpark, J. J. Heyd, E. N. Brothers, K. N. Kudin, 
 V. N. Staroverov, T. A. Keith, R. Kobayashi, J. Normand, 
 K. Raghavachari, A. P. Rendell, J. C. Burant, S. S. Iyengar, 
 J. Tomasi, M. Cossi, J. M. Millam, M. Klene, C. Adamo, R. Cammi, 
 J. W. Ochterski, R. L. Martin, K. Morokuma, O. Farkas, 
 J. B. Foresman, and D. J. Fox, Gaussian, Inc., Wallingford CT, 2016.
 
 ******************************************
 Gaussian 16:  ES64L-G16RevB.01 20-Dec-2017
                 1-Nov-2021 
 ******************************************
 %NProcShared=40
 Will use up to   40 processors via shared memory.
 %mem=18GB
 %chk=catASium_T2_2_SPE.chk
 ----------------------------------------------------------------------
 # PBE1PBE gen pseudo=read int=(grid=ultrafine) empiricaldispersion=GD3
 BJ nmr=giao
 ----------------------------------------------------------------------
 1/38=1,172=1/1;
 2/12=2,17=6,18=5,40=1/2;
 3/5=7,11=2,16=1,17=8,25=1,30=1,74=-13,75=-5,124=41/1,2,3,8;
 4//1;
 5/5=2,38=5/2;
 8/6=1,10=90,11=11/1;
 10/13=100,45=16/2;
 6/7=2,8=2,9=2,10=2,28=1/1;
 99/9=1/99;
 -----
 title
 -----
 Symbolic Z-matrix:
 Charge =  0 Multiplicity = 1
 C                     17.50074   4.0963    6.52037 
 C                     17.68726   2.85559   7.16126 
 C                     18.96609   2.44696   7.56644 
 C                     20.05476   3.30302   7.31094 
 C                     19.89309   4.53556   6.65934 
 C                     18.60044   4.92575   6.26046 
 C                     15.90226   3.75274   4.20333 
 C                     16.10742   4.58305   3.09181 
 C                     16.18661   4.04287   1.79502 
 C                     16.05357   2.65314   1.64658 
 C                     15.86791   1.79789   2.75131 
 C                     15.80667   2.36106   4.03473 
 C                     14.65484   3.66513   6.90579 
 C                     14.72096   3.72659   8.42969 
 C                     13.8649   2.47352   8.81003 
 C                     12.6626   2.92345   7.88455 
 C                     13.41102   3.21086   6.55857 
 C                     13.78126   4.91593   8.81615 
 C                     12.37866   4.35651   8.47642 
 C                     14.51038   1.13452   8.41701 
 C                     13.51736   2.38189   10.3055 
 C                     11.41127   2.05721   7.84617 
 C                     12.893    3.12242   5.1736 
 C                     12.55667   1.89914   4.60575 
 C                     12.55797   3.78128   2.9097 
 C                     12.87146   4.21742   4.19319 
 C                     12.59169   0.51775   5.19179 
 C                     12.48452   4.45358   1.56634 
 C                     11.5829   6.23911   5.7173 
 C                     10.46218   5.39733   5.5507 
 C                     9.31199   5.59456   6.32658 
 C                     9.27004   6.62903   7.2724 
 C                     10.37846   7.47309   7.43126 
 C                     11.53283   7.28473   6.65996 
 C                     12.76825   7.00204   3.19522 
 C                     13.85757   7.52683   2.47492 
 C                     13.63841   8.25645   1.3009 
 C                     12.32909   8.49406   0.85494 
 C                     11.24071   8.01436   1.59688 
 C                     11.45681   7.27068   2.76558 
 P                     15.84685   4.5365    5.86512 
 P                     13.09914   5.9883    4.69265 
 S                     12.23535   2.06521   2.90644 
 Pd                    15.04769   6.67425   5.76239 
 Cl                    16.79893   7.47888   7.13723 
 Cl                    14.25068   8.91713   5.49651 
 H                     16.83192   2.19843   7.34621 
 C                     19.17083   1.11908   8.25913 
 H                     21.05885   2.99911   7.63341 
 C                     21.06898   5.44824   6.40198 
 H                     18.44637   5.89744   5.78344 
 H                     16.19043   5.66518   3.24589 
 C                     16.40137   4.94645   0.60258 
 H                     16.09527   2.21851   0.63982 
 C                     15.68776   0.31161   2.55171 
 H                     15.65906   1.71399   4.90652 
 H                     10.60445   6.90241   3.34489 
 H                     12.15737   9.07514  -0.05688 
 H                     10.21696   8.22469   1.27028 
 H                     14.87088   7.39151   2.86303 
 H                     14.49131   8.66526   0.7494 
 H                     12.39825   7.94487   6.77782 
 H                     8.3747    6.77495   7.88567 
 H                     10.35269   8.2833    8.16705 
 H                     10.49655   4.57681   4.82781 
 H                     8.4501    4.93204   6.19429 
 H                     13.09135  -0.18908   4.50643 
 H                     13.15049   0.51544   6.13776 
 H                     11.57955   0.12274   5.39306 
 H                     11.56912   5.05547   1.44294 
 H                     13.33958   5.12819   1.41391 
 H                     12.50538   3.6966    0.76509 
 H                     10.72232   2.40203   7.05536 
 H                     11.63117   0.99297   7.66517 
 H                     10.87431   2.1266    8.80774 
 H                     13.80589   0.29776   8.57541 
 H                     14.8373   1.11417   7.36584 
 H                     15.39414   0.93642   9.04996 
 H                     12.81439   1.54881   10.48518 
 H                     14.43093   2.17142   10.88924 
 H                     13.06694   3.29642   10.71664 
 H                     15.73198   3.78666   8.85861 
 H                     14.04188   5.8202    8.23923 
 H                     13.88699   5.16654   9.88502 
 H                     11.74651   4.2533    9.37539 
 H                     11.82147   4.975     7.76531 
 H                     19.70254   1.24326   9.21922 
 H                     18.20874   0.62196   8.468 
 H                     19.77695   0.43079   7.6421 
 H                     21.21192   5.62309   5.32046 
 H                     20.9084   6.43653   6.86789 
 H                     22.00493   5.02683   6.80389 
 H                     15.90743  -0.249     3.47565 
 H                     14.64556   0.08033   2.26074 
 H                     16.34275  -0.0744    1.75218 
 H                     16.23543   4.40956  -0.3458 
 H                     15.718    5.81431   0.62874 
 H                     17.43079   5.34849   0.58448 
 
 Stoichiometry    C44H48Cl2P2PdS
 Framework group  C1[X(C44H48Cl2P2PdS)]
 Deg. of freedom   288
 Full point group                 C1      NOp   1
 Largest Abelian subgroup         C1      NOp   1
 Largest concise Abelian subgroup C1      NOp   1
                         Standard orientation:                         
 ---------------------------------------------------------------------
 Center     Atomic      Atomic             Coordinates (Angstroms)
 Number     Number       Type             X           Y           Z
 ---------------------------------------------------------------------
      1          6           0        3.161084   -0.865582   -0.614520
      2          6           0        4.162576   -0.058749   -0.039263
      3          6           0        5.514797   -0.414191   -0.147503
      4          6           0        5.842946   -1.597087   -0.837735
      5          6           0        4.859817   -2.423392   -1.403908
      6          6           0        3.508293   -2.047877   -1.282715
      7          6           0        1.090283   -1.319730    1.268940
      8          6           0        0.380103   -2.528730    1.238416
      9          6           0        0.134974   -3.249301    2.421804
     10          6           0        0.619484   -2.723882    3.630226
     11          6           0        1.353464   -1.521807    3.681591
     12          6           0        1.595890   -0.830454    2.485203
     13          6           0        1.335005    1.326824   -0.073783
     14          6           0        2.014393    2.299579   -1.034292
     15          6           0        2.105445    3.578996   -0.138475
     16          6           0        0.568493    3.516598    0.233501
     17          6           0        0.439056    2.037957    0.678270
     18          6           0        0.899289    2.678555   -2.063777
     19          6           0       -0.066592    3.534220   -1.209043
     20          6           0        3.060978    3.436235    1.057599
     21          6           0        2.525356    4.848325   -0.898797
     22          6           0       -0.007039    4.604011    1.130151
     23          6           0       -0.516219    1.450014    1.645788
     24          6           0       -0.447315    1.750448    3.001129
     25          6           0       -2.059571   -0.142308    2.514194
     26          6           0       -1.468673    0.366938    1.362096
     27          6           0        0.479619    2.668767    3.743014
     28          6           0       -3.010535   -1.274910    2.787854
     29          6           0       -2.752093    1.410590   -0.947488
     30          6           0       -3.293678    2.320282   -0.013941
     31          6           0       -3.938314    3.483165   -0.456607
     32          6           0       -4.047418    3.748150   -1.829320
     33          6           0       -3.519724    2.839898   -2.758244
     34          6           0       -2.874042    1.674065   -2.325942
     35          6           0       -3.283267   -1.339158   -0.237020
     36          6           0       -2.999872   -2.709251   -0.389903
     37          6           0       -4.016998   -3.658811   -0.239977
     38          6           0       -5.330194   -3.245305    0.032417
     39          6           0       -5.624661   -1.878712    0.136644
     40          6           0       -4.605588   -0.925375    0.001458
     41         15           0        1.397037   -0.460693   -0.326947
     42         15           0       -1.907399   -0.127254   -0.370131
     43         16           0       -1.505730    0.727076    3.923599
     44         46           0       -0.265015   -0.873187   -1.839105
     45         17           0        1.301200   -1.335731   -3.553009
     46         17           0       -2.045030   -1.439284   -3.338284
     47          1           0        3.890726    0.853828    0.500153
     48          6           0        6.593523    0.450767    0.463381
     49          1           0        6.898596   -1.879839   -0.938694
     50          6           0        5.227885   -3.683689   -2.150972
     51          1           0        2.728527   -2.657865   -1.746781
     52          1           0        0.003560   -2.898906    0.277777
     53          6           0       -0.637037   -4.548041    2.379713
     54          1           0        0.421087   -3.265088    4.564003
     55          6           0        1.824820   -0.964272    5.003813
     56          1           0        2.161211    0.107930    2.503852
     57          1           0       -4.840424    0.140787    0.078245
     58          1           0       -6.128076   -3.987498    0.137678
     59          1           0       -6.653412   -1.549959    0.317116
     60          1           0       -1.987786   -3.019035   -0.664616
     61          1           0       -3.788760   -4.722240   -0.365412
     62          1           0       -2.465219    0.960300   -3.048455
     63          1           0       -4.541649    4.662688   -2.173376
     64          1           0       -3.601866    3.039657   -3.831484
     65          1           0       -3.194514    2.128025    1.058538
     66          1           0       -4.349522    4.185860    0.275803
     67          1           0        0.900464    2.169620    4.633367
     68          1           0        1.319527    2.968063    3.101058
     69          1           0       -0.028910    3.586843    4.088716
     70          1           0       -4.051561   -1.028161    2.521701
     71          1           0       -2.733050   -2.172008    2.215413
     72          1           0       -2.985345   -1.537046    3.858416
     73          1           0       -1.040856    4.356799    1.428569
     74          1           0        0.583067    4.761395    2.047066
     75          1           0       -0.038877    5.563929    0.586737
     76          1           0        2.978130    4.307702    1.732320
     77          1           0        2.869246    2.526070    1.646753
     78          1           0        4.108177    3.397934    0.707157
     79          1           0        2.451133    5.731913   -0.239821
     80          1           0        3.580114    4.762918   -1.214801
     81          1           0        1.926904    5.048929   -1.798742
     82          1           0        2.950769    1.942506   -1.487546
     83          1           0        0.427781    1.770322   -2.477600
     84          1           0        1.324375    3.242876   -2.910730
     85          1           0       -0.117954    4.578002   -1.564428
     86          1           0       -1.092648    3.152589   -1.194312
     87          1           0        7.359372    0.726913   -0.283029
     88          1           0        6.174696    1.383028    0.877935
     89          1           0        7.117236   -0.074976    1.282632
     90          1           0        4.789752   -4.577102   -1.670822
     91          1           0        4.841978   -3.654028   -3.185265
     92          1           0        6.320301   -3.824176   -2.195664
     93          1           0        2.655309   -0.251506    4.867976
     94          1           0        1.004110   -0.426920    5.515698
     95          1           0        2.165886   -1.762908    5.684345
     96          1           0       -0.922444   -4.880954    3.391105
     97          1           0       -1.559258   -4.447170    1.779563
     98          1           0       -0.039474   -5.354823    1.917439
 ---------------------------------------------------------------------
 Rotational constants (GHZ):           0.0629726           0.0497281           0.0477409
 General basis read from cards:  (5D, 7F)
 ======================================================================================================
                                       Pseudopotential Parameters
 ======================================================================================================
  Center     Atomic      Valence      Angular      Power
  Number     Number     Electrons     Momentum     of R      Exponent        Coefficient   SO-Coeffient
 ======================================================================================================
    1          6
                                   No pseudopotential on this center.
    2          6
                                   No pseudopotential on this center.
    3          6
                                   No pseudopotential on this center.
    4          6
                                   No pseudopotential on this center.
    5          6
                                   No pseudopotential on this center.
    6          6
                                   No pseudopotential on this center.
    7          6
                                   No pseudopotential on this center.
    8          6
                                   No pseudopotential on this center.
    9          6
                                   No pseudopotential on this center.
   10          6
                                   No pseudopotential on this center.
   11          6
                                   No pseudopotential on this center.
   12          6
                                   No pseudopotential on this center.
   13          6
                                   No pseudopotential on this center.
   14          6
                                   No pseudopotential on this center.
   15          6
                                   No pseudopotential on this center.
   16          6
                                   No pseudopotential on this center.
   17          6
                                   No pseudopotential on this center.
   18          6
                                   No pseudopotential on this center.
   19          6
                                   No pseudopotential on this center.
   20          6
                                   No pseudopotential on this center.
   21          6
                                   No pseudopotential on this center.
   22          6
                                   No pseudopotential on this center.
   23          6
                                   No pseudopotential on this center.
   24          6
                                   No pseudopotential on this center.
   25          6
                                   No pseudopotential on this center.
   26          6
                                   No pseudopotential on this center.
   27          6
                                   No pseudopotential on this center.
   28          6
                                   No pseudopotential on this center.
   29          6
                                   No pseudopotential on this center.
   30          6
                                   No pseudopotential on this center.
   31          6
                                   No pseudopotential on this center.
   32          6
                                   No pseudopotential on this center.
   33          6
                                   No pseudopotential on this center.
   34          6
                                   No pseudopotential on this center.
   35          6
                                   No pseudopotential on this center.
   36          6
                                   No pseudopotential on this center.
   37          6
                                   No pseudopotential on this center.
   38          6
                                   No pseudopotential on this center.
   39          6
                                   No pseudopotential on this center.
   40          6
                                   No pseudopotential on this center.
   41         15
                                   No pseudopotential on this center.
   42         15
                                   No pseudopotential on this center.
   43         16
                                   No pseudopotential on this center.
   44         46           18
                                      G and up 
                                                     2        1.0000000        0.00000000    0.00000000
                                      S - G
                                                     2       12.4300000      240.22904000    0.00000000
                                                     2        6.1707590       35.17194300    0.00000000
                                      P - G
                                                     2       11.0800000      170.41727600    0.00000000
                                                     2        5.8295540       28.47213300    0.00000000
                                      D - G
                                                     2        9.5100000       69.01384500    0.00000000
                                                     2        4.1397810       11.75086200    0.00000000
                                      F - G
                                                     2       13.2700000      -31.92955400    0.00000000
                                                     2        6.6300000       -5.39821700    0.00000000
   45         17
                                   No pseudopotential on this center.
   46         17
                                   No pseudopotential on this center.
   47          1
                                   No pseudopotential on this center.
   48          6
                                   No pseudopotential on this center.
   49          1
                                   No pseudopotential on this center.
   50          6
                                   No pseudopotential on this center.
   51          1
                                   No pseudopotential on this center.
   52          1
                                   No pseudopotential on this center.
   53          6
                                   No pseudopotential on this center.
   54          1
                                   No pseudopotential on this center.
   55          6
                                   No pseudopotential on this center.
   56          1
                                   No pseudopotential on this center.
   57          1
                                   No pseudopotential on this center.
   58          1
                                   No pseudopotential on this center.
   59          1
                                   No pseudopotential on this center.
   60          1
                                   No pseudopotential on this center.
   61          1
                                   No pseudopotential on this center.
   62          1
                                   No pseudopotential on this center.
   63          1
                                   No pseudopotential on this center.
   64          1
                                   No pseudopotential on this center.
   65          1
                                   No pseudopotential on this center.
   66          1
                                   No pseudopotential on this center.
   67          1
                                   No pseudopotential on this center.
   68          1
                                   No pseudopotential on this center.
   69          1
                                   No pseudopotential on this center.
   70          1
                                   No pseudopotential on this center.
   71          1
                                   No pseudopotential on this center.
   72          1
                                   No pseudopotential on this center.
   73          1
                                   No pseudopotential on this center.
   74          1
                                   No pseudopotential on this center.
   75          1
                                   No pseudopotential on this center.
   76          1
                                   No pseudopotential on this center.
   77          1
                                   No pseudopotential on this center.
   78          1
                                   No pseudopotential on this center.
   79          1
                                   No pseudopotential on this center.
   80          1
                                   No pseudopotential on this center.
   81          1
                                   No pseudopotential on this center.
   82          1
                                   No pseudopotential on this center.
   83          1
                                   No pseudopotential on this center.
   84          1
                                   No pseudopotential on this center.
   85          1
                                   No pseudopotential on this center.
   86          1
                                   No pseudopotential on this center.
   87          1
                                   No pseudopotential on this center.
   88          1
                                   No pseudopotential on this center.
   89          1
                                   No pseudopotential on this center.
   90          1
                                   No pseudopotential on this center.
   91          1
                                   No pseudopotential on this center.
   92          1
                                   No pseudopotential on this center.
   93          1
                                   No pseudopotential on this center.
   94          1
                                   No pseudopotential on this center.
   95          1
                                   No pseudopotential on this center.
   96          1
                                   No pseudopotential on this center.
   97          1
                                   No pseudopotential on this center.
   98          1
                                   No pseudopotential on this center.
 ======================================================================================================
 There are  2121 symmetry adapted cartesian basis functions of A   symmetry.
 There are  1873 symmetry adapted basis functions of A   symmetry.
  1873 basis functions,  3038 primitive gaussians,  2121 cartesian basis functions
   205 alpha electrons      205 beta electrons
       nuclear repulsion energy      9155.3087388372 Hartrees.
 NAtoms=   98 NActive=   98 NUniq=   98 SFac= 1.00D+00 NAtFMM=   60 NAOKFM=T Big=T
 Integral buffers will be    131072 words long.
 Raffenetti 2 integral format.
 Two-electron integral symmetry is turned on.
 Nuclear repulsion after empirical dispersion term =     9155.1202781405 Hartrees.
 One-electron integrals computed using PRISM.
   1 Symmetry operations used in ECPInt.
 ECPInt:  NShTT=  285390 NPrTT=  878453 LenC2=  225858 LenP2D=  458031.
 LDataN:  DoStor=T MaxTD1= 7 Len=  274
 Number of processors reduced to  20 by ecpmxn.
 NBasis=  1873 RedAO= T EigKep=  3.11D-06  NBF=  1873
 NBsUse=  1873 1.00D-06 EigRej= -1.00D+00 NBFU=  1873
 Defaulting to unpruned grid for atomic number  46.
 ExpMin= 1.60D-02 ExpMax= 6.95D+04 ExpMxC= 2.37D+03 IAcc=3 IRadAn=         5 AccDes= 0.00D+00
 Harris functional with IExCor= 1009 and IRadAn=       5 diagonalized for initial guess.
 HarFok:  IExCor= 1009 AccDes= 0.00D+00 IRadAn=         5 IDoV= 1 UseB2=F ITyADJ=14
 ICtDFT=  3500011 ScaDFX=  1.000000  1.000000  1.000000  1.000000
 Defaulting to unpruned grid for atomic number  46.
 FoFCou: FMM=F IPFlag=           0 FMFlag=      100000 FMFlg1=        2001
         NFxFlg=           0 DoJE=T BraDBF=F KetDBF=T FulRan=T
         wScrn=  0.000000 ICntrl=       500 IOpCl=  0 I1Cent=   200000004 NGrid=           0
         NMat0=    1 NMatS0=      1 NMatT0=    0 NMatD0=    1 NMtDS0=    0 NMtDT0=    0
 Petite list used in FoFCou.
 Requested convergence on RMS density matrix=1.00D-08 within 128 cycles.
 Requested convergence on MAX density matrix=1.00D-06.
 Requested convergence on             energy=1.00D-06.
 No special actions if energy rises.
 Defaulting to unpruned grid for atomic number  46.
 Defaulting to unpruned grid for atomic number  46.
 Defaulting to unpruned grid for atomic number  46.
 Defaulting to unpruned grid for atomic number  46.
 Defaulting to unpruned grid for atomic number  46.
 Defaulting to unpruned grid for atomic number  46.
 Defaulting to unpruned grid for atomic number  46.
 Defaulting to unpruned grid for atomic number  46.
 Defaulting to unpruned grid for atomic number  46.
 Defaulting to unpruned grid for atomic number  46.
 Defaulting to unpruned grid for atomic number  46.
 Defaulting to unpruned grid for atomic number  46.
 Defaulting to unpruned grid for atomic number  46.
 Defaulting to unpruned grid for atomic number  46.
 Defaulting to unpruned grid for atomic number  46.
 Defaulting to unpruned grid for atomic number  46.
 Defaulting to unpruned grid for atomic number  46.
 Defaulting to unpruned grid for atomic number  46.
 Defaulting to unpruned grid for atomic number  46.
 Defaulting to unpruned grid for atomic number  46.
 Defaulting to unpruned grid for atomic number  46.
 Defaulting to unpruned grid for atomic number  46.
 Defaulting to unpruned grid for atomic number  46.
 Defaulting to unpruned grid for atomic number  46.
 Defaulting to unpruned grid for atomic number  46.
 Defaulting to unpruned grid for atomic number  46.
 Defaulting to unpruned grid for atomic number  46.
 Defaulting to unpruned grid for atomic number  46.
 Defaulting to unpruned grid for atomic number  46.
 Defaulting to unpruned grid for atomic number  46.
 Defaulting to unpruned grid for atomic number  46.
 Defaulting to unpruned grid for atomic number  46.
 Defaulting to unpruned grid for atomic number  46.
 Defaulting to unpruned grid for atomic number  46.
 Defaulting to unpruned grid for atomic number  46.
 Defaulting to unpruned grid for atomic number  46.
 Defaulting to unpruned grid for atomic number  46.
 Defaulting to unpruned grid for atomic number  46.
 Defaulting to unpruned grid for atomic number  46.
 Defaulting to unpruned grid for atomic number  46.
 EnCoef did     3 forward-backward iterations
 EnCoef did   100 forward-backward iterations
 EnCoef did   100 forward-backward iterations
 EnCoef did     2 forward-backward iterations
 Restarting incremental Fock formation.
 SCF Done:  E(RPBE1PBE) =  -3832.99028650     A.U. after   21 cycles
            NFock= 21  Conv=0.57D-08     -V/T= 2.0252
 DoSCS=F DFT=T ScalE2(SS,OS)=  1.000000  1.000000
 Range of M.O.s used for correlation:     1  1873
 NBasis=  1873 NAE=   205 NBE=   205 NFC=     0 NFV=     0
 NROrb=   1873 NOA=   205 NOB=   205 NVA=  1668 NVB=  1668

 **** Warning!!: The largest alpha MO coefficient is  0.49447663D+02

          Differentiating once with respect to magnetic field using GIAOs.
          Electric field/nuclear overlap derivatives assumed to be zero.
 Defaulting to unpruned grid for atomic number  46.
 FoFCou: FMM=F IPFlag=           0 FMFlag=      100000 FMFlg1=        2001
         NFxFlg=           0 DoJE=F BraDBF=F KetDBF=T FulRan=T
         wScrn=  0.000000 ICntrl=      6100 IOpCl=  0 I1Cent=           7 NGrid=          98
         NMat0=    1 NMatS0=      1 NMatT0=    0 NMatD0=    1 NMtDS0=    0 NMtDT0=    0
 Symmetry not used in FoFCou.
   1 Symmetry operations used in ECPInt.
 ECPInt:  NShTT=  285390 NPrTT=  878453 LenC2=  285391 LenP2D=  878453.
 LDataN:  DoStor=T MaxTD1= 8 Len=  415
 Number of processors reduced to  13 by ecpmxn.
 FoFJK:  IHMeth= 1 ICntrl=    6127 DoSepK=F KAlg= 0 I1Cent=           0 FoldK=F
 IRaf=         1 NMat=       1 IRICut=       1 DoRegI=T DoRafI=F ISym2E= 0 IDoP0=0 IntGTp=1.
 Defaulting to unpruned grid for atomic number  46.
 Defaulting to unpruned grid for atomic number  46.
 Defaulting to unpruned grid for atomic number  46.
 Defaulting to unpruned grid for atomic number  46.
 Defaulting to unpruned grid for atomic number  46.
 Defaulting to unpruned grid for atomic number  46.
 Defaulting to unpruned grid for atomic number  46.
 Defaulting to unpruned grid for atomic number  46.
 Defaulting to unpruned grid for atomic number  46.
 Defaulting to unpruned grid for atomic number  46.
 Defaulting to unpruned grid for atomic number  46.
 Defaulting to unpruned grid for atomic number  46.
 Defaulting to unpruned grid for atomic number  46.
 Defaulting to unpruned grid for atomic number  46.
 Defaulting to unpruned grid for atomic number  46.
 Defaulting to unpruned grid for atomic number  46.
 Defaulting to unpruned grid for atomic number  46.
 Defaulting to unpruned grid for atomic number  46.
 Defaulting to unpruned grid for atomic number  46.
 Defaulting to unpruned grid for atomic number  46.
 Defaulting to unpruned grid for atomic number  46.
 Defaulting to unpruned grid for atomic number  46.
 Defaulting to unpruned grid for atomic number  46.
 Defaulting to unpruned grid for atomic number  46.
 Defaulting to unpruned grid for atomic number  46.
 Defaulting to unpruned grid for atomic number  46.
 Defaulting to unpruned grid for atomic number  46.
 Defaulting to unpruned grid for atomic number  46.
 Defaulting to unpruned grid for atomic number  46.
 Defaulting to unpruned grid for atomic number  46.
 Defaulting to unpruned grid for atomic number  46.
 Defaulting to unpruned grid for atomic number  46.
 Defaulting to unpruned grid for atomic number  46.
 Defaulting to unpruned grid for atomic number  46.
 Defaulting to unpruned grid for atomic number  46.
 Defaulting to unpruned grid for atomic number  46.
 Defaulting to unpruned grid for atomic number  46.
 Defaulting to unpruned grid for atomic number  46.
 Defaulting to unpruned grid for atomic number  46.
 Defaulting to unpruned grid for atomic number  46.
          There are     3 degrees of freedom in the 1st order CPHF.  IDoFFX=0 NUNeed=     3.
      3 vectors produced by pass  0 Test12= 1.14D-11 3.33D-08 XBig12= 2.36D+02 2.05D+00.
 AX will form     3 AO Fock derivatives at one time.
      3 vectors produced by pass  1 Test12= 1.14D-11 3.33D-08 XBig12= 1.03D+00 2.12D-01.
      3 vectors produced by pass  2 Test12= 1.14D-11 3.33D-08 XBig12= 9.67D-03 3.48D-02.
      3 vectors produced by pass  3 Test12= 1.14D-11 3.33D-08 XBig12= 2.25D-04 6.28D-03.
      3 vectors produced by pass  4 Test12= 1.14D-11 3.33D-08 XBig12= 1.75D-06 3.51D-04.
      3 vectors produced by pass  5 Test12= 1.14D-11 3.33D-08 XBig12= 1.07D-08 3.29D-05.
      3 vectors produced by pass  6 Test12= 1.14D-11 3.33D-08 XBig12= 1.23D-10 4.27D-06.
      3 vectors produced by pass  7 Test12= 1.14D-11 3.33D-08 XBig12= 1.13D-12 2.88D-07.
 InvSVY:  IOpt=1 It=  1 EMax= 5.33D-15
 Solved reduced A of dimension    24 with     3 vectors.
 Calculating GIAO nuclear magnetic shielding tensors.
 SCF GIAO Magnetic shielding tensor (ppm):
      1  C    Isotropic =    47.6923   Anisotropy =   165.3084
   XX=   -36.4063   YX=    22.8172   ZX=    -0.4447
   XY=    23.5143   YY=    58.1069   ZY=   -57.9274
   XZ=    -3.5320   YZ=   -60.6226   ZZ=   121.3762
   Eigenvalues:   -42.7709    27.9499   157.8978
      2  C    Isotropic =    51.1430   Anisotropy =   154.6957
   XX=    43.0128   YX=    18.0726   ZX=     2.3394
   XY=     9.1468   YY=     9.9311   ZY=   -86.6502
   XZ=     8.5259   YZ=   -89.4535   ZZ=   100.4851
   Eigenvalues:   -46.1445    45.3001   154.2734
      3  C    Isotropic =    42.1324   Anisotropy =   190.6024
   XX=   -17.1172   YX=   -25.8451   ZX=   -30.5124
   XY=   -28.1852   YY=    29.2973   ZY=   -86.5999
   XZ=   -30.2120   YZ=   -87.1798   ZZ=   114.2171
   Eigenvalues:   -60.4849    17.6814   169.2007
      4  C    Isotropic =    48.0484   Anisotropy =   150.1280
   XX=   -42.6317   YX=    23.2224   ZX=    -0.0273
   XY=    30.7110   YY=    67.1874   ZY=   -46.3525
   XZ=    -0.9983   YZ=   -47.3455   ZZ=   119.5896
   Eigenvalues:   -49.5669    45.5784   148.1338
      5  C    Isotropic =    39.6385   Anisotropy =   195.9456
   XX=     5.9709   YX=    16.6665   ZX=    -1.8394
   XY=    19.5991   YY=     2.4050   ZY=   -99.7215
   XZ=     0.5494   YZ=   -99.1981   ZZ=   110.5398
   Eigenvalues:   -60.2695     8.9162   170.2689
      6  C    Isotropic =    40.8144   Anisotropy =   189.3829
   XX=   -19.0135   YX=   -27.8583   ZX=   -26.3169
   XY=   -31.5875   YY=    30.6653   ZY=   -82.3764
   XZ=   -17.7937   YZ=   -92.7793   ZZ=   110.7916
   Eigenvalues:   -59.3816    14.7552   167.0697
      7  C    Isotropic =    41.0436   Anisotropy =   185.1048
   XX=   130.4102   YX=   -57.8555   ZX=    -4.4530
   XY=   -74.1380   YY=    20.8820   ZY=    35.3610
   XZ=   -12.9459   YZ=    39.8901   ZZ=   -28.1614
   Eigenvalues:   -52.5448    11.2289   164.4469
      8  C    Isotropic =    45.3472   Anisotropy =   167.8869
   XX=   108.8290   YX=   -73.0069   ZX=   -42.2270
   XY=   -61.6769   YY=    55.4179   ZY=   -20.2376
   XZ=   -39.5246   YZ=   -22.8644   ZZ=   -28.2053
   Eigenvalues:   -55.8427    34.6125   157.2718
      9  C    Isotropic =    40.8415   Anisotropy =   196.9700
   XX=   106.5696   YX=  -105.3897   ZX=   -18.4646
   XY=  -100.7051   YY=     1.7048   ZY=    10.2132
   XZ=   -17.9993   YZ=     4.7593   ZZ=    14.2500
   Eigenvalues:   -61.6161    11.9856   172.1548
     10  C    Isotropic =    48.0060   Anisotropy =   151.8394
   XX=   121.8248   YX=   -48.8980   ZX=    12.9441
   XY=   -56.1452   YY=    44.5491   ZY=    44.0439
   XZ=     5.0731   YZ=    42.6522   ZZ=   -22.3558
   Eigenvalues:   -49.9318    44.7176   149.2323
     11  C    Isotropic =    41.0985   Anisotropy =   198.6001
   XX=   117.8650   YX=   -84.7045   ZX=   -38.4047
   XY=   -78.8761   YY=    45.2418   ZY=   -13.8053
   XZ=   -34.0623   YZ=   -14.7603   ZZ=   -39.8114
   Eigenvalues:   -60.9836    10.7805   173.4986
     12  C    Isotropic =    49.6003   Anisotropy =   170.0423
   XX=   104.0076   YX=   -94.8698   ZX=    -5.8873
   XY=   -95.0072   YY=     7.4847   ZY=    -2.6392
   XZ=   -14.8683   YZ=     5.0357   ZZ=    37.3086
   Eigenvalues:   -50.9759    36.8148   162.9618
     13  C    Isotropic =    35.7758   Anisotropy =   167.8295
   XX=    67.9952   YX=    12.4755   ZX=    71.0326
   XY=    -8.9116   YY=   -34.6682   ZY=    37.4164
   XZ=    63.6503   YZ=    70.0486   ZZ=    74.0005
   Eigenvalues:   -62.2043    21.8696   147.6621
     14  C    Isotropic =   125.8420   Anisotropy =    25.2548
   XX=   120.7377   YX=    11.3917   ZX=     8.5170
   XY=    -2.7824   YY=   131.9409   ZY=    11.4561
   XZ=    -1.1981   YZ=    13.2129   ZZ=   124.8474
   Eigenvalues:   115.5318   119.3157   142.6786
     15  C    Isotropic =   122.6616   Anisotropy =    19.8983
   XX=   126.9920   YX=     7.2873   ZX=   -19.8683
   XY=    -0.8607   YY=   129.1413   ZY=     1.2579
   XZ=    -9.3954   YZ=    10.8756   ZZ=   111.8517
   Eigenvalues:   101.2628   130.7950   135.9271
     16  C    Isotropic =   118.7074   Anisotropy =    18.7289
   XX=   128.4068   YX=     0.0832   ZX=    -7.8133
   XY=    10.0914   YY=   121.7334   ZY=     4.1921
   XZ=     6.5561   YZ=     2.2589   ZZ=   105.9820
   Eigenvalues:   105.2297   119.6991   131.1933
     17  C    Isotropic =    24.6724   Anisotropy =   164.6169
   XX=    75.9522   YX=   -30.9668   ZX=    59.0792
   XY=   -30.5765   YY=   -30.0482   ZY=    44.1071
   XZ=    98.3900   YZ=    26.0765   ZZ=    28.1133
   Eigenvalues:   -76.7021    16.3024   134.4171
     18  C    Isotropic =   154.9880   Anisotropy =    22.6462
   XX=   161.4339   YX=    -4.5561   ZX=    13.9363
   XY=    -7.5397   YY=   148.3283   ZY=    -3.4330
   XZ=     7.0908   YZ=     5.9762   ZZ=   155.2017
   Eigenvalues:   142.8838   151.9947   170.0854
     19  C    Isotropic =   150.2843   Anisotropy =    41.1013
   XX=   136.8662   YX=    -6.8632   ZX=    10.3326
   XY=    -8.0182   YY=   142.5664   ZY=    12.2867
   XZ=    15.5450   YZ=     9.5242   ZZ=   171.4202
   Eigenvalues:   125.5490   147.6186   177.6852
     20  C    Isotropic =   162.3570   Anisotropy =    28.8689
   XX=   162.0780   YX=    -2.1969   ZX=    14.9311
   XY=     2.5796   YY=   153.4756   ZY=    -5.7760
   XZ=    10.2660   YZ=    -9.3064   ZZ=   171.5174
   Eigenvalues:   148.3456   157.1225   181.6030
     21  C    Isotropic =   164.5337   Anisotropy =    36.9651
   XX=   156.9313   YX=    10.5179   ZX=    -4.6728
   XY=     6.8372   YY=   176.1108   ZY=   -18.4412
   XZ=     0.5103   YZ=   -15.4051   ZZ=   160.5590
   Eigenvalues:   148.4222   156.0019   189.1771
     22  C    Isotropic =   171.1962   Anisotropy =    22.7386
   XX=   159.0174   YX=    -8.9770   ZX=    -1.7707
   XY=    -3.2395   YY=   178.9303   ZY=     8.1289
   XZ=    -3.5125   YZ=     6.6134   ZZ=   175.6408
   Eigenvalues:   157.2745   169.9588   186.3552
     23  C    Isotropic =    39.9377   Anisotropy =   120.5287
   XX=    41.8970   YX=   -72.2333   ZX=    31.6710
   XY=   -77.4327   YY=    41.7490   ZY=     1.5597
   XZ=    18.3829   YZ=    -0.3002   ZZ=    36.1671
   Eigenvalues:   -37.5882    37.1111   120.2902
     24  C    Isotropic =    35.5663   Anisotropy =   142.2148
   XX=    41.4358   YX=   -91.2214   ZX=    -5.4982
   XY=   -79.0167   YY=    48.7683   ZY=    -4.4411
   XZ=    -7.3404   YZ=   -15.9847   ZZ=    16.4947
   Eigenvalues:   -42.4215    18.7441   130.3762
     25  C    Isotropic =    26.5309   Anisotropy =   150.4121
   XX=    58.3733   YX=   -84.7023   ZX=    -6.3183
   XY=   -89.6038   YY=    15.2102   ZY=   -12.5642
   XZ=     0.5666   YZ=   -11.7815   ZZ=     6.0090
   Eigenvalues:   -55.1099     7.8968   126.8056
     26  C    Isotropic =    54.3106   Anisotropy =   143.8833
   XX=    78.3588   YX=   -64.4978   ZX=    -6.2145
   XY=   -84.3157   YY=    64.6968   ZY=   -52.6198
   XZ=     9.1432   YZ=   -10.9433   ZZ=    19.8762
   Eigenvalues:   -17.8110    30.5100   150.2328
     27  C    Isotropic =   168.0215   Anisotropy =    20.2317
   XX=   167.9769   YX=     1.6497   ZX=     4.9081
   XY=     7.1689   YY=   176.5668   ZY=     5.1378
   XZ=    11.3939   YZ=     5.0264   ZZ=   159.5209
   Eigenvalues:   154.3560   168.1993   181.5093
     28  C    Isotropic =   167.7507   Anisotropy =    17.7698
   XX=   172.4343   YX=    12.8543   ZX=    -1.1507
   XY=     1.9759   YY=   171.4506   ZY=    -2.0516
   XZ=     0.5785   YZ=    -3.5241   ZZ=   159.3670
   Eigenvalues:   158.5812   165.0736   179.5972
     29  C    Isotropic =    44.4231   Anisotropy =   185.3443
   XX=   113.7156   YX=    94.2771   ZX=     3.4532
   XY=    92.4106   YY=     5.9221   ZY=    15.5517
   XZ=    -6.6329   YZ=    20.4921   ZZ=    13.6315
   Eigenvalues:   -52.0786    17.3619   167.9859
     30  C    Isotropic =    43.9198   Anisotropy =   197.7609
   XX=   144.3209   YX=    56.0404   ZX=    -4.8766
   XY=    67.6084   YY=    54.1646   ZY=    10.5033
   XZ=    -4.8625   YZ=    13.1291   ZZ=   -66.7261
   Eigenvalues:   -68.5092    24.5082   175.7604
     31  C    Isotropic =    53.2156   Anisotropy =   183.4974
   XX=   130.7282   YX=    80.3214   ZX=    30.7275
   XY=    79.8698   YY=    31.5715   ZY=   -40.5165
   XZ=    27.5599   YZ=   -40.5494   ZZ=    -2.6529
   Eigenvalues:   -57.7779    41.8775   175.5472
     32  C    Isotropic =    48.4083   Anisotropy =   193.0399
   XX=   123.0973   YX=    99.7546   ZX=   -10.7380
   XY=    94.8900   YY=     1.2986   ZY=    26.0924
   XZ=    -9.0370   YZ=    25.5835   ZZ=    20.8290
   Eigenvalues:   -61.7064    29.8297   177.1016
     33  C    Isotropic =    49.7499   Anisotropy =   190.8477
   XX=   143.8587   YX=    60.8110   ZX=    -4.5921
   XY=    61.0645   YY=    64.2970   ZY=    18.9092
   XZ=    -2.1543   YZ=    16.7801   ZZ=   -58.9061
   Eigenvalues:   -62.2330    34.5009   176.9817
     34  C    Isotropic =    36.3034   Anisotropy =   212.1255
   XX=   128.3186   YX=    84.4484   ZX=    30.6049
   XY=    93.3197   YY=    15.9704   ZY=   -26.7562
   XZ=    21.9758   YZ=   -29.6797   ZZ=   -35.3789
   Eigenvalues:   -71.7952     2.9850   177.7203
     35  C    Isotropic =    44.6291   Anisotropy =   185.6347
   XX=   -14.5856   YX=   -31.0112   ZX=    24.7192
   XY=   -41.6013   YY=   -14.3339   ZY=   -11.5420
   XZ=    36.5464   YZ=     5.9173   ZZ=   162.8066
   Eigenvalues:   -52.6349    18.1366   168.3855
     36  C    Isotropic =    35.9988   Anisotropy =   197.5157
   XX=   -53.7885   YX=    21.1518   ZX=    46.0110
   XY=    26.9594   YY=     6.3318   ZY=   -19.6283
   XZ=    44.1713   YZ=   -34.1155   ZZ=   155.4532
   Eigenvalues:   -73.8335    14.1541   167.6759
     37  C    Isotropic =    51.8829   Anisotropy =   184.9664
   XX=    38.9330   YX=    18.0872   ZX=    28.6878
   XY=    18.9306   YY=   -51.8750   ZY=   -17.6564
   XZ=    26.1069   YZ=   -21.1412   ZZ=   168.5906
   Eigenvalues:   -58.1706    38.6254   175.1938
     38  C    Isotropic =    48.7691   Anisotropy =   191.0186
   XX=   -12.1568   YX=   -44.8662   ZX=    32.4087
   XY=   -46.7224   YY=   -11.7352   ZY=     0.0192
   XZ=    32.3680   YZ=     0.1494   ZZ=   170.1993
   Eigenvalues:   -60.0972    30.2897   176.1148
     39  C    Isotropic =    52.8939   Anisotropy =   183.5029
   XX=   -41.1616   YX=    26.9172   ZX=    38.0564
   XY=    25.4679   YY=    31.7895   ZY=    -9.8117
   XZ=    38.8192   YZ=   -13.4571   ZZ=   168.0539
   Eigenvalues:   -56.7636    40.2162   175.2292
     40  C    Isotropic =    43.6423   Anisotropy =   199.7112
   XX=    19.7741   YX=    22.1601   ZX=    26.3945
   XY=    18.2327   YY=   -62.1532   ZY=   -12.4230
   XZ=    17.1431   YZ=   -14.0075   ZZ=   173.3059
   Eigenvalues:   -68.1949    22.3387   176.7830
     41  P    Isotropic =   251.3315   Anisotropy =   121.7480
   XX=   266.4712   YX=    34.2564   ZX=    28.3025
   XY=    52.9643   YY=   186.5876   ZY=    44.6038
   XZ=     5.1413   YZ=    46.4433   ZZ=   300.9358
   Eigenvalues:   158.2721   263.2256   332.4968
     42  P    Isotropic =   247.2183   Anisotropy =   130.7336
   XX=   278.5813   YX=   -43.1104   ZX=   -54.9759
   XY=   -37.0201   YY=   210.8363   ZY=    16.9038
   XZ=   -54.9661   YZ=     7.1239   ZZ=   252.2375
   Eigenvalues:   188.1317   219.1492   334.3741
     43  S    Isotropic =   177.9421   Anisotropy =   206.5555
   XX=   214.7103   YX=   -40.1079   ZX=    30.1420
   XY=     7.1416   YY=   311.7578   ZY=    64.4973
   XZ=    52.7789   YZ=   -13.6246   ZZ=     7.3583
   Eigenvalues:    -3.1355   221.3161   315.6458
     44  Pd   Isotropic =  -178.9643   Anisotropy =   245.5918
   XX=   -19.4032   YX=   -46.7004   ZX=    11.7609
   XY=   -24.4515   YY=  -431.1754   ZY=   174.4356
   XZ=    20.8360   YZ=   161.2159   ZZ=   -86.3144
   Eigenvalues:  -502.5280   -19.1286   -15.2365
     45  Cl   Isotropic =   890.0815   Anisotropy =   375.1860
   XX=   732.7326   YX=   -21.9876   ZX=   -83.2469
   XY=   -41.9450   YY=  1088.5474   ZY=   -97.9932
   XZ=  -148.6495   YZ=  -145.5251   ZZ=   848.9646
   Eigenvalues:   641.3724   888.6667  1140.2056
     46  Cl   Isotropic =   882.6359   Anisotropy =   486.9406
   XX=   694.6061   YX=   157.2765   ZX=    23.5009
   XY=    68.6989   YY=  1129.5176   ZY=  -236.9658
   XZ=    55.0876   YZ=   -63.9398   ZZ=   823.7839
   Eigenvalues:   632.0391   808.6057  1207.2629
     47  H    Isotropic =    23.9875   Anisotropy =    11.3333
   XX=    31.2503   YX=    -0.5733   ZX=     1.1470
   XY=    -0.5999   YY=    22.1974   ZY=     1.0521
   XZ=     2.5434   YZ=    -0.4126   ZZ=    18.5149
   Eigenvalues:    18.2127    22.2068    31.5431
     48  C    Isotropic =   163.2888   Anisotropy =    39.1813
   XX=   173.3746   YX=    14.3290   ZX=     9.7765
   XY=     8.9924   YY=   165.5707   ZY=    14.5853
   XZ=     9.4238   YZ=    16.3020   ZZ=   150.9210
   Eigenvalues:   141.0162   159.4405   189.4096
     49  H    Isotropic =    24.2054   Anisotropy =     7.4634
   XX=    23.8047   YX=     1.0584   ZX=     0.6183
   XY=     0.9168   YY=    26.3387   ZY=     4.1441
   XZ=     0.4932   YZ=     4.0653   ZZ=    22.4728
   Eigenvalues:    19.8678    23.5675    29.1810
     50  C    Isotropic =   163.0421   Anisotropy =    41.0101
   XX=   162.6778   YX=    -8.8708   ZX=    -4.2988
   XY=   -12.1394   YY=   173.8374   ZY=    19.6653
   XZ=    -6.6881   YZ=    19.0999   ZZ=   152.6112
   Eigenvalues:   141.1047   157.6395   190.3822
     51  H    Isotropic =    22.6270   Anisotropy =    14.1470
   XX=    25.7796   YX=    -7.6822   ZX=    -1.2412
   XY=    -8.1360   YY=    21.8032   ZY=     1.2485
   XZ=     0.4643   YZ=     1.4777   ZZ=    20.2982
   Eigenvalues:    15.4884    20.3342    32.0583
     52  H    Isotropic =    22.3007   Anisotropy =    11.6090
   XX=    20.4869   YX=     1.2199   ZX=    -2.0428
   XY=     1.8015   YY=    25.6259   ZY=    -5.2096
   XZ=    -1.0262   YZ=    -6.5679   ZZ=    20.7894
   Eigenvalues:    16.7857    20.0765    30.0400
     53  C    Isotropic =   162.9999   Anisotropy =    38.8261
   XX=   153.8016   YX=    16.3788   ZX=    -1.3143
   XY=    21.9202   YY=   177.9978   ZY=    -4.5921
   XZ=     2.6179   YZ=    -3.5305   ZZ=   157.2003
   Eigenvalues:   142.7967   157.3190   188.8840
     54  H    Isotropic =    24.5968   Anisotropy =     6.7661
   XX=    22.4931   YX=     1.8793   ZX=     2.8730
   XY=     2.6219   YY=    26.6338   ZY=     1.2706
   XZ=     2.9308   YZ=     1.4089   ZZ=    24.6634
   Eigenvalues:    20.2651    24.4177    29.1075
     55  C    Isotropic =   163.8271   Anisotropy =    37.7117
   XX=   151.2733   YX=     9.6383   ZX=     8.3256
   XY=    13.0653   YY=   159.7222   ZY=     7.9212
   XZ=    15.0922   YZ=     7.4000   ZZ=   180.4859
   Eigenvalues:   142.5061   160.0070   188.9683
     56  H    Isotropic =    24.5053   Anisotropy =     8.9585
   XX=    23.3121   YX=    -1.7363   ZX=     1.0042
   XY=    -1.7256   YY=    20.0086   ZY=    -1.7934
   XZ=     0.1920   YZ=    -0.9746   ZZ=    30.1953
   Eigenvalues:    19.1680    23.8703    30.4777
     57  H    Isotropic =    24.3137   Anisotropy =    13.8951
   XX=    30.8831   YX=     6.2584   ZX=    -3.4902
   XY=     3.0977   YY=    23.2201   ZY=    -3.0398
   XZ=    -0.5700   YZ=    -0.7735   ZZ=    18.8378
   Eigenvalues:    18.1161    21.2478    33.5771
     58  H    Isotropic =    23.7571   Anisotropy =     3.4693
   XX=    25.8212   YX=     0.0541   ZX=    -0.5994
   XY=    -0.6962   YY=    25.1157   ZY=     0.4673
   XZ=    -0.7734   YZ=     0.6428   ZZ=    20.3346
   Eigenvalues:    20.1965    25.0049    26.0700
     59  H    Isotropic =    24.0954   Anisotropy =     6.7213
   XX=    26.0643   YX=     2.9481   ZX=    -0.5321
   XY=     1.8240   YY=    26.2811   ZY=    -0.3708
   XZ=    -0.0164   YZ=    -0.1037   ZZ=    19.9408
   Eigenvalues:    19.9254    23.7845    28.5763
     60  H    Isotropic =    21.9247   Anisotropy =    12.1642
   XX=    19.3086   YX=     7.2742   ZX=    -0.0450
   XY=     4.0817   YY=    26.4013   ZY=    -2.8857
   XZ=    -1.6252   YZ=    -1.2143   ZZ=    20.0641
   Eigenvalues:    16.1409    19.5989    30.0341
     61  H    Isotropic =    23.5347   Anisotropy =     7.3119
   XX=    26.6223   YX=     3.1493   ZX=    -0.5402
   XY=     2.5276   YY=    23.7242   ZY=    -0.1215
   XZ=    -0.9069   YZ=     0.0649   ZZ=    20.2576
   Eigenvalues:    20.1412    22.0536    28.4093
     62  H    Isotropic =    21.1059   Anisotropy =    13.4643
   XX=    17.1807   YX=    -5.1809   ZX=     4.3620
   XY=    -4.6868   YY=    26.7369   ZY=    -2.2804
   XZ=     2.2297   YZ=    -2.7751   ZZ=    19.4001
   Eigenvalues:    14.1321    19.1035    30.0821
     63  H    Isotropic =    23.7476   Anisotropy =     2.9462
   XX=    22.5286   YX=    -2.2435   ZX=     0.3582
   XY=    -2.4027   YY=    23.0365   ZY=     0.1535
   XZ=     0.2243   YZ=     0.1012   ZZ=    25.6777
   Eigenvalues:    20.4282    25.1028    25.7117
     64  H    Isotropic =    23.6434   Anisotropy =     6.7453
   XX=    22.7413   YX=    -3.8933   ZX=     1.4736
   XY=    -3.5397   YY=    25.2641   ZY=    -0.2147
   XZ=     1.0985   YZ=    -0.5127   ZZ=    22.9246
   Eigenvalues:    19.8423    22.9476    28.1402
     65  H    Isotropic =    24.5401   Anisotropy =    12.5933
   XX=    26.6002   YX=    -5.0614   ZX=     2.5973
   XY=    -6.2046   YY=    27.7284   ZY=    -1.6187
   XZ=     0.3127   YZ=     0.9531   ZZ=    19.2917
   Eigenvalues:    18.9027    21.7820    32.9356
     66  H    Isotropic =    23.9410   Anisotropy =     7.0178
   XX=    23.8813   YX=    -3.6704   ZX=     1.3821
   XY=    -3.3840   YY=    24.3907   ZY=    -2.0700
   XZ=     0.9023   YZ=    -1.7733   ZZ=    23.5509
   Eigenvalues:    20.5057    22.6978    28.6195
     67  H    Isotropic =    29.0956   Anisotropy =     8.6497
   XX=    26.2059   YX=     0.1409   ZX=     4.9104
   XY=     1.4999   YY=    28.3197   ZY=    -1.6780
   XZ=     3.2593   YZ=    -1.2128   ZZ=    32.7612
   Eigenvalues:    23.8241    28.6006    34.8621
     68  H    Isotropic =    28.5239   Anisotropy =     7.9180
   XX=    28.3869   YX=     3.4590   ZX=    -2.9651
   XY=     3.4343   YY=    25.3951   ZY=    -1.7960
   XZ=    -1.8411   YZ=     0.0043   ZZ=    31.7896
   Eigenvalues:    23.0925    28.6765    33.8025
     69  H    Isotropic =    29.1230   Anisotropy =    10.0016
   XX=    24.6467   YX=    -1.4923   ZX=    -1.0596
   XY=    -0.6889   YY=    33.1812   ZY=     4.0566
   XZ=    -1.2047   YZ=     3.5586   ZZ=    29.5412
   Eigenvalues:    24.3872    27.1911    35.7908
     70  H    Isotropic =    30.2835   Anisotropy =     8.3986
   XX=    34.5312   YX=     2.5537   ZX=     2.1700
   XY=     0.2650   YY=    23.2510   ZY=    -0.6023
   XZ=     1.0429   YZ=     3.6063   ZZ=    33.0682
   Eigenvalues:    22.9082    32.0597    35.8825
     71  H    Isotropic =    30.8269   Anisotropy =     6.7009
   XX=    27.8067   YX=     1.3950   ZX=     0.4948
   XY=    -1.6309   YY=    30.7953   ZY=     2.5925
   XZ=     3.2716   YZ=     1.5826   ZZ=    33.8788
   Eigenvalues:    27.1204    30.0662    35.2942
     72  H    Isotropic =    30.4471   Anisotropy =     8.2948
   XX=    28.3126   YX=     3.5414   ZX=    -1.8421
   XY=     2.3860   YY=    27.9520   ZY=    -2.6589
   XZ=    -0.3877   YZ=    -0.9856   ZZ=    35.0766
   Eigenvalues:    25.1288    30.2354    35.9769
     73  H    Isotropic =    30.3179   Anisotropy =     5.0477
   XX=    33.0094   YX=    -1.0594   ZX=    -0.4507
   XY=     0.4953   YY=    30.1705   ZY=     1.6279
   XZ=    -3.1877   YZ=     0.5268   ZZ=    27.7737
   Eigenvalues:    26.9248    30.3458    33.6830
     74  H    Isotropic =    30.1906   Anisotropy =     8.5381
   XX=    26.4832   YX=    -0.2446   ZX=     1.9291
   XY=     1.0028   YY=    29.7761   ZY=     2.8806
   XZ=     1.5263   YZ=     2.5042   ZZ=    34.3126
   Eigenvalues:    26.1067    28.5825    35.8827
     75  H    Isotropic =    30.9075   Anisotropy =    10.4505
   XX=    27.3168   YX=    -1.9225   ZX=     0.4095
   XY=    -1.4475   YY=    37.5769   ZY=    -0.7334
   XZ=    -0.8710   YZ=    -0.4125   ZZ=    27.8287
   Eigenvalues:    26.9309    27.9171    37.8744
     76  H    Isotropic =    30.3718   Anisotropy =     9.1320
   XX=    29.5298   YX=     2.4612   ZX=     2.3929
   XY=     1.7347   YY=    30.0406   ZY=     3.6476
   XZ=     2.1271   YZ=     4.8155   ZZ=    31.5451
   Eigenvalues:    26.4823    28.1733    36.4598
     77  H    Isotropic =    29.1725   Anisotropy =     3.8017
   XX=    29.0395   YX=     1.7532   ZX=     2.9907
   XY=     2.3510   YY=    29.1596   ZY=    -1.2643
   XZ=     2.0556   YZ=    -2.7063   ZZ=    29.3183
   Eigenvalues:    24.7874    31.0231    31.7070
     78  H    Isotropic =    30.2678   Anisotropy =    10.5861
   XX=    37.1982   YX=     0.4281   ZX=     0.5422
   XY=     0.2534   YY=    27.7406   ZY=     0.5817
   XZ=     1.7277   YZ=     0.0931   ZZ=    25.8646
   Eigenvalues:    25.7069    27.7713    37.3252
     79  H    Isotropic =    30.6871   Anisotropy =    10.8741
   XX=    28.0048   YX=     2.9733   ZX=    -0.5112
   XY=     2.7073   YY=    36.9534   ZY=     2.0738
   XZ=    -0.5205   YZ=     0.9387   ZZ=    27.1032
   Eigenvalues:    26.1459    27.9789    37.9365
     80  H    Isotropic =    30.7046   Anisotropy =    11.3655
   XX=    35.0252   YX=     3.1721   ZX=    -3.3646
   XY=     3.9653   YY=    29.5550   ZY=    -2.0974
   XZ=    -3.3335   YZ=    -2.4230   ZZ=    27.5334
   Eigenvalues:    25.9037    27.9284    38.2816
     81  H    Isotropic =    30.4035   Anisotropy =     8.7900
   XX=    28.5113   YX=     3.3427   ZX=     1.0845
   XY=     2.3454   YY=    31.7361   ZY=    -5.3015
   XZ=     2.4000   YZ=    -4.2479   ZZ=    30.9631
   Eigenvalues:    24.1566    30.7904    36.2635
     82  H    Isotropic =    28.4369   Anisotropy =     7.3793
   XX=    30.6911   YX=    -2.5827   ZX=    -1.8438
   XY=    -3.0856   YY=    30.2061   ZY=     1.8301
   XZ=     0.1679   YZ=    -1.4343   ZZ=    24.4135
   Eigenvalues:    24.2972    27.6571    33.3564
     83  H    Isotropic =    28.5933   Anisotropy =    13.1626
   XX=    26.0041   YX=     3.4583   ZX=     2.7638
   XY=     4.1610   YY=    34.0278   ZY=     4.1516
   XZ=     2.4788   YZ=     3.6263   ZZ=    25.7481
   Eigenvalues:    23.2447    25.1668    37.3684
     84  H    Isotropic =    29.5160   Anisotropy =     9.9798
   XX=    26.3390   YX=     1.2789   ZX=    -2.5128
   XY=     2.4959   YY=    28.5195   ZY=    -3.7094
   XZ=    -1.4572   YZ=    -3.3128   ZZ=    33.6894
   Eigenvalues:    25.2493    27.1295    36.1692
     85  H    Isotropic =    30.5217   Anisotropy =     7.5338
   XX=    30.0863   YX=    -0.3266   ZX=     1.5620
   XY=    -0.4098   YY=    33.9285   ZY=    -3.1812
   XZ=     1.4889   YZ=    -3.5525   ZZ=    27.5503
   Eigenvalues:    25.7320    30.2889    35.5442
     86  H    Isotropic =    32.3760   Anisotropy =    22.8997
   XX=    45.0099   YX=     3.2778   ZX=     3.5693
   XY=     9.7494   YY=    28.0758   ZY=     0.5951
   XZ=     2.6198   YZ=     0.6911   ZZ=    24.0424
   Eigenvalues:    23.5612    25.9244    47.6425
     87  H    Isotropic =    28.9042   Anisotropy =     9.6344
   XX=    33.3260   YX=     1.9997   ZX=    -3.3319
   XY=     3.4431   YY=    27.3000   ZY=     0.5930
   XZ=    -3.2141   YZ=     0.1074   ZZ=    26.0866
   Eigenvalues:    24.1653    27.2202    35.3271
     88  H    Isotropic =    29.3655   Anisotropy =     6.3689
   XX=    32.2556   YX=    -0.0846   ZX=     0.8723
   XY=    -2.7569   YY=    30.9070   ZY=     3.7510
   XZ=     0.0408   YZ=     3.6437   ZZ=    24.9339
   Eigenvalues:    23.0520    31.4331    33.6114
     89  H    Isotropic =    28.9743   Anisotropy =     9.5597
   XX=    31.3167   YX=    -1.4751   ZX=     3.8739
   XY=    -1.7077   YY=    26.3926   ZY=    -0.2849
   XZ=     5.6513   YZ=    -0.0609   ZZ=    29.2135
   Eigenvalues:    24.8456    26.7298    35.3474
     90  H    Isotropic =    28.9964   Anisotropy =     7.8001
   XX=    28.4726   YX=    -0.7031   ZX=    -2.1070
   XY=     0.3398   YY=    34.1691   ZY=     0.3480
   XZ=    -1.1841   YZ=    -1.3530   ZZ=    24.3475
   Eigenvalues:    23.7441    29.0486    34.1965
     91  H    Isotropic =    28.6182   Anisotropy =     7.0332
   XX=    28.2920   YX=    -2.6516   ZX=     0.1721
   XY=    -1.7899   YY=    25.9631   ZY=     3.0837
   XZ=     1.5251   YZ=     3.9754   ZZ=    31.5997
   Eigenvalues:    23.1684    29.3792    33.3070
     92  H    Isotropic =    29.5043   Anisotropy =     9.7012
   XX=    34.5365   YX=    -1.5669   ZX=    -0.6247
   XY=    -3.7416   YY=    28.4983   ZY=     2.7773
   XZ=    -1.7175   YZ=     2.7837   ZZ=    25.4781
   Eigenvalues:    23.8111    28.7301    35.9718
     93  H    Isotropic =    29.6397   Anisotropy =     5.8907
   XX=    30.3060   YX=     3.8981   ZX=     2.1584
   XY=     3.3730   YY=    28.1718   ZY=    -2.6047
   XZ=     2.4791   YZ=     0.2495   ZZ=    30.4414
   Eigenvalues:    24.5084    30.8439    33.5668
     94  H    Isotropic =    28.9320   Anisotropy =     5.4751
   XX=    27.4088   YX=    -2.7315   ZX=    -0.7593
   XY=    -2.0482   YY=    27.4349   ZY=     0.9460
   XZ=    -0.7744   YZ=     1.2345   ZZ=    31.9523
   Eigenvalues:    25.0242    29.1897    32.5821
     95  H    Isotropic =    29.3264   Anisotropy =    10.9214
   XX=    26.3189   YX=    -0.8111   ZX=     5.0813
   XY=    -0.4469   YY=    29.2263   ZY=    -3.7074
   XZ=     3.2832   YZ=    -4.3042   ZZ=    32.4339
   Eigenvalues:    23.8070    27.5648    36.6073
     96  H    Isotropic =    29.5613   Anisotropy =     9.2731
   XX=    25.8971   YX=     2.5918   ZX=    -1.7365
   XY=     2.6465   YY=    30.3281   ZY=    -4.2741
   XZ=     0.0419   YZ=    -3.0610   ZZ=    32.4587
   Eigenvalues:    24.5809    28.3597    35.7434
     97  H    Isotropic =    28.7403   Anisotropy =     7.1896
   XX=    30.1452   YX=     1.6808   ZX=     4.3353
   XY=     1.7905   YY=    28.6295   ZY=    -1.3284
   XZ=     4.6854   YZ=    -4.4472   ZZ=    27.4462
   Eigenvalues:    22.3070    30.3805    33.5334
     98  H    Isotropic =    28.7763   Anisotropy =     9.6134
   XX=    24.9987   YX=    -2.8391   ZX=    -1.3590
   XY=    -0.8373   YY=    34.7183   ZY=     1.6551
   XZ=    -0.8157   YZ=     0.0912   ZZ=    26.6119
   Eigenvalues:    24.2877    26.8560    35.1852
 End of Minotr F.D. properties file   721 does not exist.
 End of Minotr F.D. properties file   722 does not exist.
 End of Minotr F.D. properties file   788 does not exist.

 **********************************************************************

            Population analysis using the SCF Density.

 **********************************************************************

 Orbital symmetries:
       Occupied  (A) (A) (A) (A) (A) (A) (A) (A) (A) (A) (A) (A)
                 (A) (A) (A) (A) (A) (A) (A) (A) (A) (A) (A) (A)
                 (A) (A) (A) (A) (A) (A) (A) (A) (A) (A) (A) (A)
                 (A) (A) (A) (A) (A) (A) (A) (A) (A) (A) (A) (A)
                 (A) (A) (A) (A) (A) (A) (A) (A) (A) (A) (A) (A)
                 (A) (A) (A) (A) (A) (A) (A) (A) (A) (A) (A) (A)
                 (A) (A) (A) (A) (A) (A) (A) (A) (A) (A) (A) (A)
                 (A) (A) (A) (A) (A) (A) (A) (A) (A) (A) (A) (A)
                 (A) (A) (A) (A) (A) (A) (A) (A) (A) (A) (A) (A)
                 (A) (A) (A) (A) (A) (A) (A) (A) (A) (A) (A) (A)
                 (A) (A) (A) (A) (A) (A) (A) (A) (A) (A) (A) (A)
                 (A) (A) (A) (A) (A) (A) (A) (A) (A) (A) (A) (A)
                 (A) (A) (A) (A) (A) (A) (A) (A) (A) (A) (A) (A)
                 (A) (A) (A) (A) (A) (A) (A) (A) (A) (A) (A) (A)
                 (A) (A) (A) (A) (A) (A) (A) (A) (A) (A) (A) (A)
                 (A) (A) (A) (A) (A) (A) (A) (A) (A) (A) (A) (A)
                 (A) (A) (A) (A) (A) (A) (A) (A) (A) (A) (A) (A)
                 (A)
       Virtual   (A) (A) (A) (A) (A) (A) (A) (A) (A) (A) (A) (A)
                 (A) (A) (A) (A) (A) (A) (A) (A) (A) (A) (A) (A)
                 (A) (A) (A) (A) (A) (A) (A) (A) (A) (A) (A) (A)
                 (A) (A) (A) (A) (A) (A) (A) (A) (A) (A) (A) (A)
                 (A) (A) (A) (A) (A) (A) (A) (A) (A) (A) (A) (A)
                 (A) (A) (A) (A) (A) (A) (A) (A) (A) (A) (A) (A)
                 (A) (A) (A) (A) (A) (A) (A) (A) (A) (A) (A) (A)
                 (A) (A) (A) (A) (A) (A) (A) (A) (A) (A) (A) (A)
                 (A) (A) (A) (A) (A) (A) (A) (A) (A) (A) (A) (A)
                 (A) (A) (A) (A) (A) (A) (A) (A) (A) (A) (A) (A)
                 (A) (A) (A) (A) (A) (A) (A) (A) (A) (A) (A) (A)
                 (A) (A) (A) (A) (A) (A) (A) (A) (A) (A) (A) (A)
                 (A) (A) (A) (A) (A) (A) (A) (A) (A) (A) (A) (A)
                 (A) (A) (A) (A) (A) (A) (A) (A) (A) (A) (A) (A)
                 (A) (A) (A) (A) (A) (A) (A) (A) (A) (A) (A) (A)
                 (A) (A) (A) (A) (A) (A) (A) (A) (A) (A) (A) (A)
                 (A) (A) (A) (A) (A) (A) (A) (A) (A) (A) (A) (A)
                 (A) (A) (A) (A) (A) (A) (A) (A) (A) (A) (A) (A)
                 (A) (A) (A) (A) (A) (A) (A) (A) (A) (A) (A) (A)
                 (A) (A) (A) (A) (A) (A) (A) (A) (A) (A) (A) (A)
                 (A) (A) (A) (A) (A) (A) (A) (A) (A) (A) (A) (A)
                 (A) (A) (A) (A) (A) (A) (A) (A) (A) (A) (A) (A)
                 (A) (A) (A) (A) (A) (A) (A) (A) (A) (A) (A) (A)
                 (A) (A) (A) (A) (A) (A) (A) (A) (A) (A) (A) (A)
                 (A) (A) (A) (A) (A) (A) (A) (A) (A) (A) (A) (A)
                 (A) (A) (A) (A) (A) (A) (A) (A) (A) (A) (A) (A)
                 (A) (A) (A) (A) (A) (A) (A) (A) (A) (A) (A) (A)
                 (A) (A) (A) (A) (A) (A) (A) (A) (A) (A) (A) (A)
                 (A) (A) (A) (A) (A) (A) (A) (A) (A) (A) (A) (A)
                 (A) (A) (A) (A) (A) (A) (A) (A) (A) (A) (A) (A)
                 (A) (A) (A) (A) (A) (A) (A) (A) (A) (A) (A) (A)
                 (A) (A) (A) (A) (A) (A) (A) (A) (A) (A) (A) (A)
                 (A) (A) (A) (A) (A) (A) (A) (A) (A) (A) (A) (A)
                 (A) (A) (A) (A) (A) (A) (A) (A) (A) (A) (A) (A)
                 (A) (A) (A) (A) (A) (A) (A) (A) (A) (A) (A) (A)
                 (A) (A) (A) (A) (A) (A) (A) (A) (A) (A) (A) (A)
                 (A) (A) (A) (A) (A) (A) (A) (A) (A) (A) (A) (A)
                 (A) (A) (A) (A) (A) (A) (A) (A) (A) (A) (A) (A)
                 (A) (A) (A) (A) (A) (A) (A) (A) (A) (A) (A) (A)
                 (A) (A) (A) (A) (A) (A) (A) (A) (A) (A) (A) (A)
                 (A) (A) (A) (A) (A) (A) (A) (A) (A) (A) (A) (A)
                 (A) (A) (A) (A) (A) (A) (A) (A) (A) (A) (A) (A)
                 (A) (A) (A) (A) (A) (A) (A) (A) (A) (A) (A) (A)
                 (A) (A) (A) (A) (A) (A) (A) (A) (A) (A) (A) (A)
                 (A) (A) (A) (A) (A) (A) (A) (A) (A) (A) (A) (A)
                 (A) (A) (A) (A) (A) (A) (A) (A) (A) (A) (A) (A)
                 (A) (A) (A) (A) (A) (A) (A) (A) (A) (A) (A) (A)
                 (A) (A) (A) (A) (A) (A) (A) (A) (A) (A) (A) (A)
                 (A) (A) (A) (A) (A) (A) (A) (A) (A) (A) (A) (A)
                 (A) (A) (A) (A) (A) (A) (A) (A) (A) (A) (A) (A)
                 (A) (A) (A) (A) (A) (A) (A) (A) (A) (A) (A) (A)
                 (A) (A) (A) (A) (A) (A) (A) (A) (A) (A) (A) (A)
                 (A) (A) (A) (A) (A) (A) (A) (A) (A) (A) (A) (A)
                 (A) (A) (A) (A) (A) (A) (A) (A) (A) (A) (A) (A)
                 (A) (A) (A) (A) (A) (A) (A) (A) (A) (A) (A) (A)
                 (A) (A) (A) (A) (A) (A) (A) (A) (A) (A) (A) (A)
                 (A) (A) (A) (A) (A) (A) (A) (A) (A) (A) (A) (A)
                 (A) (A) (A) (A) (A) (A) (A) (A) (A) (A) (A) (A)
                 (A) (A) (A) (A) (A) (A) (A) (A) (A) (A) (A) (A)
                 (A) (A) (A) (A) (A) (A) (A) (A) (A) (A) (A) (A)
                 (A) (A) (A) (A) (A) (A) (A) (A) (A) (A) (A) (A)
                 (A) (A) (A) (A) (A) (A) (A) (A) (A) (A) (A) (A)
                 (A) (A) (A) (A) (A) (A) (A) (A) (A) (A) (A) (A)
                 (A) (A) (A) (A) (A) (A) (A) (A) (A) (A) (A) (A)
                 (A) (A) (A) (A) (A) (A) (A) (A) (A) (A) (A) (A)
                 (A) (A) (A) (A) (A) (A) (A) (A) (A) (A) (A) (A)
                 (A) (A) (A) (A) (A) (A) (A) (A) (A) (A) (A) (A)
                 (A) (A) (A) (A) (A) (A) (A) (A) (A) (A) (A) (A)
                 (A) (A) (A) (A) (A) (A) (A) (A) (A) (A) (A) (A)
                 (A) (A) (A) (A) (A) (A) (A) (A) (A) (A) (A) (A)
                 (A) (A) (A) (A) (A) (A) (A) (A) (A) (A) (A) (A)
                 (A) (A) (A) (A) (A) (A) (A) (A) (A) (A) (A) (A)
                 (A) (A) (A) (A) (A) (A) (A) (A) (A) (A) (A) (A)
                 (A) (A) (A) (A) (A) (A) (A) (A) (A) (A) (A) (A)
                 (A) (A) (A) (A) (A) (A) (A) (A) (A) (A) (A) (A)
                 (A) (A) (A) (A) (A) (A) (A) (A) (A) (A) (A) (A)
                 (A) (A) (A) (A) (A) (A) (A) (A) (A) (A) (A) (A)
                 (A) (A) (A) (A) (A) (A) (A) (A) (A) (A) (A) (A)
                 (A) (A) (A) (A) (A) (A) (A) (A) (A) (A) (A) (A)
                 (A) (A) (A) (A) (A) (A) (A) (A) (A) (A) (A) (A)
                 (A) (A) (A) (A) (A) (A) (A) (A) (A) (A) (A) (A)
                 (A) (A) (A) (A) (A) (A) (A) (A) (A) (A) (A) (A)
                 (A) (A) (A) (A) (A) (A) (A) (A) (A) (A) (A) (A)
                 (A) (A) (A) (A) (A) (A) (A) (A) (A) (A) (A) (A)
                 (A) (A) (A) (A) (A) (A) (A) (A) (A) (A) (A) (A)
                 (A) (A) (A) (A) (A) (A) (A) (A) (A) (A) (A) (A)
                 (A) (A) (A) (A) (A) (A) (A) (A) (A) (A) (A) (A)
                 (A) (A) (A) (A) (A) (A) (A) (A) (A) (A) (A) (A)
                 (A) (A) (A) (A) (A) (A) (A) (A) (A) (A) (A) (A)
                 (A) (A) (A) (A) (A) (A) (A) (A) (A) (A) (A) (A)
                 (A) (A) (A) (A) (A) (A) (A) (A) (A) (A) (A) (A)
                 (A) (A) (A) (A) (A) (A) (A) (A) (A) (A) (A) (A)
                 (A) (A) (A) (A) (A) (A) (A) (A) (A) (A) (A) (A)
                 (A) (A) (A) (A) (A) (A) (A) (A) (A) (A) (A) (A)
                 (A) (A) (A) (A) (A) (A) (A) (A) (A) (A) (A) (A)
                 (A) (A) (A) (A) (A) (A) (A) (A) (A) (A) (A) (A)
                 (A) (A) (A) (A) (A) (A) (A) (A) (A) (A) (A) (A)
                 (A) (A) (A) (A) (A) (A) (A) (A) (A) (A) (A) (A)
                 (A) (A) (A) (A) (A) (A) (A) (A) (A) (A) (A) (A)
                 (A) (A) (A) (A) (A) (A) (A) (A) (A) (A) (A) (A)
                 (A) (A) (A) (A) (A) (A) (A) (A) (A) (A) (A) (A)
                 (A) (A) (A) (A) (A) (A) (A) (A) (A) (A) (A) (A)
                 (A) (A) (A) (A) (A) (A) (A) (A) (A) (A) (A) (A)
                 (A) (A) (A) (A) (A) (A) (A) (A) (A) (A) (A) (A)
                 (A) (A) (A) (A) (A) (A) (A) (A) (A) (A) (A) (A)
                 (A) (A) (A) (A) (A) (A) (A) (A) (A) (A) (A) (A)
                 (A) (A) (A) (A) (A) (A) (A) (A) (A) (A) (A) (A)
                 (A) (A) (A) (A) (A) (A) (A) (A) (A) (A) (A) (A)
                 (A) (A) (A) (A) (A) (A) (A) (A) (A) (A) (A) (A)
                 (A) (A) (A) (A) (A) (A) (A) (A) (A) (A) (A) (A)
                 (A) (A) (A) (A) (A) (A) (A) (A) (A) (A) (A) (A)
                 (A) (A) (A) (A) (A) (A) (A) (A) (A) (A) (A) (A)
                 (A) (A) (A) (A) (A) (A) (A) (A) (A) (A) (A) (A)
                 (A) (A) (A) (A) (A) (A) (A) (A) (A) (A) (A) (A)
                 (A) (A) (A) (A) (A) (A) (A) (A) (A) (A) (A) (A)
                 (A) (A) (A) (A) (A) (A) (A) (A) (A) (A) (A) (A)
                 (A) (A) (A) (A) (A) (A) (A) (A) (A) (A) (A) (A)
                 (A) (A) (A) (A) (A) (A) (A) (A) (A) (A) (A) (A)
                 (A) (A) (A) (A) (A) (A) (A) (A) (A) (A) (A) (A)
                 (A) (A) (A) (A) (A) (A) (A) (A) (A) (A) (A) (A)
                 (A) (A) (A) (A) (A) (A) (A) (A) (A) (A) (A) (A)
                 (A) (A) (A) (A) (A) (A) (A) (A) (A) (A) (A) (A)
                 (A) (A) (A) (A) (A) (A) (A) (A) (A) (A) (A) (A)
                 (A) (A) (A) (A) (A) (A) (A) (A) (A) (A) (A) (A)
                 (A) (A) (A) (A) (A) (A) (A) (A) (A) (A) (A) (A)
                 (A) (A) (A) (A) (A) (A) (A) (A) (A) (A) (A) (A)
                 (A) (A) (A) (A) (A) (A) (A) (A) (A) (A) (A) (A)
                 (A) (A) (A) (A) (A) (A) (A) (A) (A) (A) (A) (A)
                 (A) (A) (A) (A) (A) (A) (A) (A) (A) (A) (A) (A)
                 (A) (A) (A) (A) (A) (A) (A) (A) (A) (A) (A) (A)
                 (A) (A) (A) (A) (A) (A) (A) (A) (A) (A) (A) (A)
                 (A) (A) (A) (A) (A) (A) (A) (A) (A) (A) (A) (A)
                 (A) (A) (A) (A) (A) (A) (A) (A) (A) (A) (A) (A)
                 (A) (A) (A) (A) (A) (A) (A) (A) (A) (A) (A) (A)
                 (A) (A) (A) (A) (A) (A) (A) (A) (A) (A) (A) (A)
                 (A) (A) (A) (A) (A) (A) (A) (A) (A) (A) (A) (A)
                 (A) (A) (A) (A) (A) (A) (A) (A) (A) (A) (A) (A)
                 (A) (A) (A) (A) (A) (A) (A) (A) (A) (A) (A) (A)
                 (A) (A) (A) (A) (A) (A) (A) (A) (A) (A) (A) (A)
 The electronic state is 1-A.
 Alpha  occ. eigenvalues -- -101.60818-101.60813 -89.06144 -77.26637 -77.25912
 Alpha  occ. eigenvalues --  -10.28685 -10.27853 -10.26206 -10.26166 -10.25646
 Alpha  occ. eigenvalues --  -10.25555 -10.25438 -10.25389 -10.25359 -10.25264
 Alpha  occ. eigenvalues --  -10.25175 -10.25021 -10.24716 -10.24674 -10.24655
 Alpha  occ. eigenvalues --  -10.24612 -10.24480 -10.24476 -10.24430 -10.24356
 Alpha  occ. eigenvalues --  -10.24344 -10.24318 -10.24190 -10.24115 -10.24087
 Alpha  occ. eigenvalues --  -10.23978 -10.23969 -10.23930 -10.23889 -10.23843
 Alpha  occ. eigenvalues --  -10.23773 -10.23635 -10.23387 -10.23385 -10.23134
 Alpha  occ. eigenvalues --  -10.22867 -10.22725 -10.22653 -10.22300 -10.22136
 Alpha  occ. eigenvalues --  -10.21846 -10.21749 -10.21703 -10.21697  -9.43346
 Alpha  occ. eigenvalues --   -9.43320  -8.03970  -7.16529  -7.16527  -7.16084
 Alpha  occ. eigenvalues --   -7.16052  -7.16021  -7.15977  -6.65755  -6.65159
 Alpha  occ. eigenvalues --   -5.97551  -5.97214  -5.96988  -4.79361  -4.79322
 Alpha  occ. eigenvalues --   -4.79097  -4.78740  -4.78723  -4.78519  -3.51586
 Alpha  occ. eigenvalues --   -2.19275  -2.19201  -2.15887  -0.93171  -0.91610
 Alpha  occ. eigenvalues --   -0.89726  -0.89348  -0.88749  -0.88657  -0.82645
 Alpha  occ. eigenvalues --   -0.82139  -0.81575  -0.80859  -0.80563  -0.79696
 Alpha  occ. eigenvalues --   -0.78798  -0.78368  -0.78168  -0.77923  -0.77664
 Alpha  occ. eigenvalues --   -0.77565  -0.76182  -0.74375  -0.73793  -0.72960
 Alpha  occ. eigenvalues --   -0.72392  -0.71499  -0.71304  -0.71162  -0.70586
 Alpha  occ. eigenvalues --   -0.70081  -0.68890  -0.68748  -0.66865  -0.64831
 Alpha  occ. eigenvalues --   -0.63563  -0.63108  -0.62512  -0.61801  -0.60826
 Alpha  occ. eigenvalues --   -0.60308  -0.59919  -0.59090  -0.57237  -0.57143
 Alpha  occ. eigenvalues --   -0.56108  -0.54418  -0.54078  -0.53105  -0.52739
 Alpha  occ. eigenvalues --   -0.51777  -0.51441  -0.50425  -0.49491  -0.49483
 Alpha  occ. eigenvalues --   -0.48754  -0.48303  -0.47939  -0.47859  -0.47519
 Alpha  occ. eigenvalues --   -0.47085  -0.46505  -0.46167  -0.45658  -0.45431
 Alpha  occ. eigenvalues --   -0.45317  -0.44806  -0.44459  -0.44384  -0.44067
 Alpha  occ. eigenvalues --   -0.43937  -0.43825  -0.43571  -0.43427  -0.43153
 Alpha  occ. eigenvalues --   -0.42864  -0.42823  -0.42567  -0.42288  -0.42017
 Alpha  occ. eigenvalues --   -0.41824  -0.41803  -0.41423  -0.41331  -0.40860
 Alpha  occ. eigenvalues --   -0.40802  -0.40448  -0.39945  -0.39887  -0.39536
 Alpha  occ. eigenvalues --   -0.39458  -0.39122  -0.38875  -0.38653  -0.38481
 Alpha  occ. eigenvalues --   -0.37607  -0.37197  -0.37035  -0.36749  -0.36537
 Alpha  occ. eigenvalues --   -0.36442  -0.36221  -0.35990  -0.35826  -0.35453
 Alpha  occ. eigenvalues --   -0.35273  -0.35124  -0.34987  -0.34746  -0.34550
 Alpha  occ. eigenvalues --   -0.34348  -0.33891  -0.32828  -0.32415  -0.31095
 Alpha  occ. eigenvalues --   -0.30947  -0.30463  -0.29862  -0.29430  -0.29148
 Alpha  occ. eigenvalues --   -0.28310  -0.27784  -0.27584  -0.27134  -0.26482
 Alpha  occ. eigenvalues --   -0.26243  -0.26194  -0.25598  -0.25275  -0.24818
 Alpha  occ. eigenvalues --   -0.24470  -0.23691  -0.23539  -0.23092  -0.22523
 Alpha virt. eigenvalues --   -0.07490  -0.05181  -0.04263  -0.04050  -0.03619
 Alpha virt. eigenvalues --   -0.02486  -0.02213  -0.01919  -0.01645  -0.01137
 Alpha virt. eigenvalues --   -0.00487   0.00563   0.01192   0.01917   0.02488
 Alpha virt. eigenvalues --    0.03161   0.03675   0.03873   0.04840   0.05044
 Alpha virt. eigenvalues --    0.05193   0.05330   0.05506   0.06335   0.06361
 Alpha virt. eigenvalues --    0.06792   0.07183   0.07323   0.07426   0.07500
 Alpha virt. eigenvalues --    0.07739   0.08128   0.08265   0.08801   0.08961
 Alpha virt. eigenvalues --    0.09236   0.09371   0.09499   0.09621   0.09847
 Alpha virt. eigenvalues --    0.10150   0.10250   0.10580   0.10648   0.11043
 Alpha virt. eigenvalues --    0.11061   0.11311   0.11530   0.11831   0.12163
 Alpha virt. eigenvalues --    0.12265   0.12495   0.12551   0.12979   0.13094
 Alpha virt. eigenvalues --    0.13115   0.13261   0.13595   0.13866   0.14024
 Alpha virt. eigenvalues --    0.14073   0.14180   0.14404   0.14510   0.14652
 Alpha virt. eigenvalues --    0.14868   0.14930   0.15294   0.15599   0.15715
 Alpha virt. eigenvalues --    0.15870   0.16249   0.16290   0.16381   0.16572
 Alpha virt. eigenvalues --    0.16902   0.16959   0.17105   0.17386   0.17552
 Alpha virt. eigenvalues --    0.18012   0.18131   0.18186   0.18344   0.18742
 Alpha virt. eigenvalues --    0.18984   0.19427   0.19676   0.19880   0.20048
 Alpha virt. eigenvalues --    0.20194   0.20551   0.20731   0.20942   0.21128
 Alpha virt. eigenvalues --    0.21230   0.21379   0.21583   0.21751   0.21932
 Alpha virt. eigenvalues --    0.22137   0.22284   0.22400   0.22559   0.22752
 Alpha virt. eigenvalues --    0.22995   0.23157   0.23369   0.23716   0.24188
 Alpha virt. eigenvalues --    0.24305   0.24462   0.24956   0.25027   0.25155
 Alpha virt. eigenvalues --    0.25226   0.25288   0.25531   0.25679   0.25847
 Alpha virt. eigenvalues --    0.25884   0.26366   0.26744   0.26990   0.27084
 Alpha virt. eigenvalues --    0.27551   0.27640   0.28016   0.28060   0.28101
 Alpha virt. eigenvalues --    0.28541   0.28716   0.29088   0.29241   0.29270
 Alpha virt. eigenvalues --    0.29752   0.29789   0.29967   0.30268   0.30496
 Alpha virt. eigenvalues --    0.30665   0.30695   0.30867   0.31195   0.31378
 Alpha virt. eigenvalues --    0.31688   0.31787   0.31888   0.32206   0.32293
 Alpha virt. eigenvalues --    0.32813   0.32956   0.33191   0.33480   0.33683
 Alpha virt. eigenvalues --    0.33948   0.34059   0.34249   0.34337   0.34423
 Alpha virt. eigenvalues --    0.34624   0.34758   0.35061   0.35205   0.35504
 Alpha virt. eigenvalues --    0.35580   0.35831   0.35940   0.36352   0.36466
 Alpha virt. eigenvalues --    0.36881   0.36891   0.36957   0.37355   0.37434
 Alpha virt. eigenvalues --    0.37473   0.37799   0.38046   0.38215   0.38348
 Alpha virt. eigenvalues --    0.38414   0.38579   0.38964   0.39260   0.39289
 Alpha virt. eigenvalues --    0.39565   0.39608   0.39911   0.40066   0.40171
 Alpha virt. eigenvalues --    0.40234   0.40419   0.40527   0.40907   0.40948
 Alpha virt. eigenvalues --    0.41372   0.41428   0.41552   0.41868   0.42123
 Alpha virt. eigenvalues --    0.42312   0.42541   0.42665   0.42693   0.42934
 Alpha virt. eigenvalues --    0.42987   0.43160   0.43342   0.43423   0.43638
[...]
  1822. BD*(   1) C  27 - H  67          0.01000     0.34747   
  1823. BD*(   1) C  27 - H  68          0.00862     0.36487   
  1824. BD*(   1) C  27 - H  69          0.01314     0.34325   
  1825. BD*(   1) C  28 - H  70          0.01384     0.36553   
  1826. BD*(   1) C  28 - H  71          0.01099     0.37380   
  1827. BD*(   1) C  28 - H  72          0.00698     0.36413   
  1828. BD*(   1) C  29 - C  30          0.02676     0.50808   
  1829. BD*(   1) C  29 - C  34          0.02465     0.51806   
  1830. BD*(   2) C  29 - C  34          0.35918     0.01869  1833(v),1838(v),1846(v)
                                                    1813(r),1066(g),1067(g)
                                                    1818(r)
  1831. BD*(   1) C  29 - P  42          0.07052     0.20591   
  1832. BD*(   1) C  30 - C  31          0.01625     0.53309   
  1833. BD*(   2) C  30 - C  31          0.32540     0.01768  1830(v),1838(v),1813(r)
                                                    989(g),968(g)
  1834. BD*(   1) C  30 - H  65          0.01584     0.41310   
  1835. BD*(   1) C  31 - C  32          0.01496     0.52707   
  1836. BD*(   1) C  31 - H  66          0.01389     0.39501   
  1837. BD*(   1) C  32 - C  33          0.01455     0.53010   
  1838. BD*(   2) C  32 - C  33          0.31757     0.02051  1830(v),1833(v),1041(g)
                                                    1015(g)
  1839. BD*(   1) C  32 - H  63          0.01324     0.39924   
  1840. BD*(   1) C  33 - C  34          0.01634     0.54118   
  1841. BD*(   1) C  33 - H  64          0.01361     0.40440   
  1842. BD*(   1) C  34 - H  62          0.02349     0.43827   
  1843. BD*(   1) C  35 - C  36          0.02466     0.51909   
  1844. BD*(   1) C  35 - C  40          0.02765     0.51832   
  1845. BD*(   2) C  35 - C  40          0.37113     0.01644  1853(v),1848(v),1821(v)
                                                    1222(g),1094(g),1831(v)
                                                    1224(g)
  1846. BD*(   1) C  35 - P  42          0.06607     0.21206   
  1847. BD*(   1) C  36 - C  37          0.01661     0.54158   
  1848. BD*(   2) C  36 - C  37          0.30462     0.02534  1853(v),1845(v),1145(g)
                                                    1770(r),1119(g)
  1849. BD*(   1) C  36 - H  60          0.01567     0.42801   
  1850. BD*(   1) C  37 - C  38          0.01461     0.52781   
  1851. BD*(   1) C  37 - H  61          0.01360     0.39803   
  1852. BD*(   1) C  38 - C  39          0.01446     0.52862   
  1853. BD*(   2) C  38 - C  39          0.32250     0.01846  1845(v),1848(v),1171(g)
                                                    1197(g)
  1854. BD*(   1) C  38 - H  58          0.01292     0.39872   
  1855. BD*(   1) C  39 - C  40          0.01544     0.53181   
  1856. BD*(   1) C  39 - H  59          0.01350     0.39642   
  1857. BD*(   1) C  40 - H  57          0.01612     0.40579   
  1858. BD*(   1) P  41 -Pd  44          0.17916     0.58774  1859(g),1331(g),1343(g)
                                                    1349(g),1336(g),1247(g)
                                                    1337(g),1340(g),1338(g)
                                                    1275(v),1342(g),1347(g)
                                                    1345(g),1344(g),1339(g)
                                                    1283(v),519(v),364(v)
                                                    1255(g),1092(r),1258(g)
                                                    1346(g),1860(g),1281(v)
                                                    857(r),1254(g),936(r)
                                                    1332(g),1284(v),363(v)
                                                    1384(v),392(r),1335(g)
                                                    1359(v),208(v),212(v),860(r)
                                                    1388(v),1477(r),963(r)
                                                    1350(g),1382(v),1287(v)
                                                    373(v),207(v),1285(v)
                                                    1357(v),1261(g),938(r)
                                                    1252(g),858(r),937(r)
                                                    1348(g),1259(g),865(r)
                                                    1257(g),234(r),237(r)
                                                    1391(v),1539(r),368(v)
                                                    1256(g),859(r),525(v),210(v)
                                                    935(r),1280(v),1091(r)
                                                    940(r),1584(r),1508(r)
                                                    521(v),495(r),1755(v),209(v)
                                                    941(r),626(r),1069(r),376(v)
                                                    867(r),1669(r),1276(v)
                                                    1387(v),233(r),1249(g)
                                                    866(r),1559(r),1386(v)
                                                    371(v),780(r),1341(g)
                                                    1544(r),966(r),1774(r)
                                                    1570(r),1396(v),782(r)
                                                    1799(r),1263(g),1223(r)
                                                    1253(g),1358(v),624(r)
                                                    1689(r),1286(v),496(r)
                                                    1225(r),1769(v),1291(v)
                                                    1121(r),1264(g),1356(v)
                                                    548(r),649(r),869(r),1360(v)
                                                    1354(v),394(r),1406(v)
                                                    1674(r),1126(r),502(r)
                                                    1368(v),1120(r),871(r)
                                                    1262(g),236(r),211(v),241(r)
                                                    1821(v),1407(v),240(r)
                                                    1768(r),861(r),1295(v)
                                                    524(v),1096(r),1352(g)
                                                    1078(r),1773(r),868(r)
                                                    1383(v),1260(g),552(r)
                                                    964(r),1828(r),1787(g)
                                                    217(v),1231(r),1353(g)
                                                    1289(v),1268(g),989(r)
                                                    1073(r),546(r),1282(v)
                                                    1361(v),343(r),944(r),340(r)
                                                    1780(r),1071(r),675(r)
                                                    909(r),962(r),1197(r)
                                                    1410(r),1269(g)
  1859. BD*(   1) P  42 -Pd  44          0.17956     0.58687  1858(g),1337(g),1331(g)
                                                    1349(g),1275(g),1338(g)
                                                    1347(g),1340(g),1336(g)
                                                    1247(v),1344(g),1342(g)
                                                    1345(g),1343(g),1339(g)
                                                    1283(g),1346(g),1255(v)
                                                    519(r),1092(v),364(r),857(v)
                                                    1258(v),1861(g),936(v)
                                                    1284(g),1281(g),1359(v)
                                                    1254(v),1332(g),1348(g)
                                                    860(v),363(r),208(r),963(r)
                                                    207(r),1388(v),392(r),212(r)
                                                    1287(g),1285(g),938(v)
                                                    1261(v),1384(v),858(v)
                                                    1280(g),1341(g),1559(r)
                                                    865(v),373(r),1382(v)
                                                    1350(g),1276(g),210(r)
                                                    859(v),937(v),1257(v)
                                                    1391(v),234(r),368(r)
                                                    1477(r),525(r),1356(v)
                                                    1357(v),1256(v),237(r)
                                                    1539(r),940(v),1584(r)
                                                    1259(v),1333(g),1386(v)
                                                    1354(v),1252(v),867(v)
                                                    935(v),780(r),866(v),521(r)
                                                    626(r),782(r),1249(v),495(r)
                                                    966(r),1069(r),1091(v)
                                                    1358(v),1508(r),941(v)
                                                    209(r),1689(r),1849(r)
                                                    1225(r),1544(r),1771(r)
                                                    233(r),1396(v),376(r),371(r)
                                                    1291(g),1145(r),1286(g)
                                                    1223(r),496(r),1840(r)
                                                    1570(r),1355(v),869(v)
                                                    1360(v),624(r),1253(v)
                                                    1263(v),236(r),1847(r)
                                                    871(v),1197(r),649(r)
                                                    1295(g),1472(r),1669(r)
                                                    211(r),1367(v),1387(v)
                                                    1774(r),1078(r),1250(v)
                                                    1262(v),1231(r),1121(r)
                                                    1126(r),1118(r),502(r)
                                                    1614(r),391(r),1368(v)
                                                    552(r),1787(v),1120(r)
                                                    868(v),548(r),1352(g),240(r)
                                                    1842(r),545(r),1096(v)
                                                    339(r),241(r),675(r),1376(v)
                                                    1353(g),1799(r),861(v)
                                                    394(r),1071(r),217(r)
                                                    1067(r),989(r),1674(r)
                                                    1269(v),1289(g),1829(v)
                                                    1264(v),1843(v),343(r)
                                                    1260(v),346(r),964(r)
                                                    1773(r),1129(r),1282(g)
                                                    870(v)
  1860. BD*(   1)Pd  44 -Cl  45          0.18377     0.17685  1861(g),1858(g),1343(g)
                                                    1345(g),1342(g),1247(v)
                                                    1349(g),1344(g),1347(g)
                                                    200(g),1275(v),1338(g)
                                                    1336(g),1340(g),1283(v)
                                                    364(r),519(r),1255(v)
                                                    1258(v),1092(r),1335(g)
                                                    1346(g),363(r),1254(v)
                                                    857(r),1384(v),1281(v)
                                                    1757(v),1356(g),1284(v)
                                                    212(r),1353(g),1799(r)
                                                    937(r),936(r),1354(g),392(r)
                                                    373(r),860(r),1249(v)
                                                    1276(v),1768(r),963(r)
                                                    1388(v),1332(g)
  1861. BD*(   1)Pd  44 -Cl  46          0.19367     0.19025  1860(g),1859(g),1347(g)
                                                    1275(v),1344(g),1338(g)
                                                    1349(g),1247(v),1345(g)
                                                    1342(g),1283(v),1757(v)
                                                    1831(v),1346(g),857(r)
                                                    1846(v),1348(g),1343(g)
                                                    1340(g),1255(v),1284(v)
                                                    1384(g),1092(r),364(r)
                                                    1821(v),1842(r),1336(g)
                                                    1388(g),936(r),519(r),860(r)
                                                    1353(g),1382(g),1254(v)
                                                    1281(v),1258(v),1341(g)
                                                    1276(v),1359(v),1337(g)
                                                    963(r),1287(v),208(r)
                                                    1285(v),1333(g),859(r)
                                                    1559(r),1849(r)
  1862. BD*(   1) C  48 - H  87          0.00860     0.36030   
  1863. BD*(   1) C  48 - H  88          0.00459     0.36453   
  1864. BD*(   1) C  48 - H  89          0.00993     0.35795   
  1865. BD*(   1) C  50 - H  90          0.00877     0.36755   
  1866. BD*(   1) C  50 - H  91          0.00848     0.37377   
  1867. BD*(   1) C  50 - H  92          0.00441     0.37325   
  1868. BD*(   1) C  53 - H  96          0.00467     0.36089   
  1869. BD*(   1) C  53 - H  97          0.00823     0.36061   
  1870. BD*(   1) C  53 - H  98          0.01026     0.35570   
  1871. BD*(   1) C  55 - H  93          0.00529     0.35713   
  1872. BD*(   1) C  55 - H  94          0.01200     0.34890   
  1873. BD*(   1) C  55 - H  95          0.00704     0.35684   
       -------------------------------
              Total Lewis  429.44662  ( 98.0472%)
        Valence non-Lewis    7.81872  (  1.7851%)
        Rydberg non-Lewis    0.73466  (  0.1677%)
       -------------------------------
            Total unit  1  438.00000  (100.0000%)
           Charge unit  1    0.00000
 1\1\GINC-NOTCH135\SP\RPBE1PBE\Gen\C44H48Cl2P2Pd1S1\U1010977\01-Nov-202
 1\0\\# PBE1PBE gen pseudo=read int=(grid=ultrafine) empiricaldispersio
 n=GD3BJ pop=nbo guess=read geom=check\\title\\0,1\C,0,17.5007432261,4.
 0962999374,6.5203725225\C,0,17.6872586834,2.8555878802,7.1612572867\C,
 0,18.966087239,2.4469552751,7.5664382988\C,0,20.0547645726,3.303021574
 4,7.3109397858\C,0,19.8930935269,4.5355601258,6.6593381238\C,0,18.6004
 35089,4.9257487654,6.2604616661\C,0,15.9022567286,3.7527378139,4.20332
 78363\C,0,16.1074206279,4.5830457094,3.091813223\C,0,16.1866057381,4.0
 428728857,1.795024935\C,0,16.053565369,2.6531371178,1.6465814655\C,0,1
 5.8679077898,1.7978855441,2.751310311\C,0,15.806671674,2.3610615164,4.
 0347297122\C,0,14.6548432327,3.665130843,6.9057944031\C,0,14.720961796
 5,3.7265944986,8.4296863011\C,0,13.8649031707,2.4735223404,8.810027172
 1\C,0,12.6626012519,2.9234536299,7.884547506\C,0,13.4110235871,3.21085
 57768,6.5585703311\C,0,13.781255357,4.9159307819,8.8161466136\C,0,12.3
 786552999,4.3565070116,8.4764150042\C,0,14.5103806571,1.1345236871,8.4
 17013384\C,0,13.5173627975,2.3818885141,10.3054975075\C,0,11.411270265
 2,2.0572069834,7.8461688794\C,0,12.8930017532,3.1224171922,5.173597645
 9\C,0,12.5566744873,1.899144878,4.605753436\C,0,12.5579658178,3.781275
 1681,2.9097038415\C,0,12.8714574332,4.2174199418,4.193185107\C,0,12.59
 16882559,0.5177505681,5.1917870408\C,0,12.4845165055,4.4535832589,1.56
 63441976\C,0,11.5828954008,6.2391096365,5.7173018823\C,0,10.4621751336
 ,5.3973282334,5.5507021692\C,0,9.3119936289,5.5945646648,6.3265781006\
 C,0,9.2700396169,6.6290285453,7.2724045748\C,0,10.3784624328,7.4730929
 932,7.4312578939\C,0,11.5328340579,7.2847298672,6.6599575709\C,0,12.76
 82509392,7.0020387261,3.1952210349\C,0,13.8575656773,7.5268250703,2.47
 49186379\C,0,13.6384133866,8.2564468212,1.3009032813\C,0,12.3290913575
 ,8.4940596799,0.8549399659\C,0,11.2407133133,8.0143639457,1.596879554\
 C,0,11.456814497,7.2706775737,2.7655833264\P,0,15.8468493282,4.5364952
 979,5.8651201768\P,0,13.0991376011,5.9882994954,4.6926480147\S,0,12.23
 53462612,2.0652050168,2.9064432969\Pd,0,15.0476893252,6.6742461784,5.7
 6239112\Cl,0,16.7989264072,7.478883253,7.1372267062\Cl,0,14.2506789164
 ,8.9171326439,5.4965073201\H,0,16.8319197958,2.1984315856,7.3462128779
 \C,0,19.1708336054,1.1190840302,8.2591282089\H,0,21.058849429,2.999106
 9582,7.6334106873\C,0,21.0689822025,5.4482396407,6.4019834544\H,0,18.4
 46369319,5.8974442329,5.783439361\H,0,16.1904289939,5.6651792044,3.245
 8880725\C,0,16.4013653221,4.9464485753,0.6025794579\H,0,16.0952733341,
 2.2185126952,0.6398217111\C,0,15.6877617715,0.3116146273,2.551712993\H
 ,0,15.6590636242,1.7139905217,4.9065156906\H,0,10.6044492281,6.9024149
 947,3.3448931844\H,0,12.1573699446,9.0751372243,-0.0568756669\H,0,10.2
 169600708,8.2246944814,1.2702760428\H,0,14.8708823098,7.3915084306,2.8
 630283772\H,0,14.4913067203,8.6652577722,0.7494004213\H,0,12.398251252
 7,7.9448663761,6.7778248629\H,0,8.3746980097,6.7749492185,7.8856654561
 \H,0,10.3526870294,8.283300885,8.1670531322\H,0,10.4965472504,4.576810
 7761,4.8278067993\H,0,8.4501002765,4.9320414855,6.1942869556\H,0,13.09
 13512578,-0.1890763158,4.5064258367\H,0,13.1504873681,0.5154396989,6.1
 377619867\H,0,11.5795484087,0.1227372825,5.3930637099\H,0,11.569118546
 4,5.0554742043,1.442935423\H,0,13.3395815279,5.1281927947,1.413905087\
 H,0,12.5053826383,3.69660381,0.7650941038\H,0,10.7223199634,2.40203448
 71,7.0553553664\H,0,11.6311740602,0.9929655638,7.6651678311\H,0,10.874
 3092014,2.1266004852,8.8077368801\H,0,13.8058905103,0.2977609144,8.575
 4050268\H,0,14.8373016451,1.1141701944,7.3658363615\H,0,15.3941432988,
 0.9364247186,9.049959477\H,0,12.8143867249,1.5488072343,10.4851815327\
 H,0,14.4309333354,2.171419942,10.8892435617\H,0,13.0669437189,3.296423
 2578,10.7166373634\H,0,15.7319788769,3.7866599862,8.8586111049\H,0,14.
 0418846601,5.8201968037,8.2392312722\H,0,13.8869912182,5.1665385401,9.
 8850249632\H,0,11.7465062819,4.2533020528,9.3753889422\H,0,11.82147363
 27,4.9749964921,7.7653107341\H,0,19.7025428217,1.2432565912,9.21921954
 54\H,0,18.2087400432,0.6219634373,8.4680005524\H,0,19.7769484963,0.430
 7852928,7.6421008606\H,0,21.2119203414,5.6230927535,5.3204628921\H,0,2
 0.9084029545,6.4365262084,6.8678912881\H,0,22.004927476,5.026832914,6.
 8038886737\H,0,15.9074257664,-0.249002371,3.4756473721\H,0,14.64556136
 69,0.0803349361,2.2607372841\H,0,16.3427529733,-0.0743991366,1.7521812
 102\H,0,16.2354319186,4.4095624344,-0.3457987389\H,0,15.7180011891,5.8
 143065685,0.6287411199\H,0,17.4307890735,5.3484876461,0.5844811321\\Ve
 rsion=ES64L-G16RevB.01\State=1-A\HF=-3832.9902865\RMSD=3.671e-09\Dipol
 e=-1.4469379,-3.9264548,-1.5183267\Quadrupole=10.3737711,-21.4055517,1
 1.0317806,-10.5162035,-4.60347,-13.4593297\PG=C01 [X(C44H48Cl2P2Pd1S1)
 ]\\@


 CONTRAIWISE...CONTINUED TWEEDLEDEE, IF IT WAS SO, IT MIGHT BE,
 AND IF IT WERE SO, IT WOULD BE.....
 BUT AS IT ISN'T, IT AIN'T....
 THAT'S LOGIC.....
 ALICE THROUGH THE LOOKING GLASS
 Job cpu time:       0 days  2 hours 53 minutes 50.3 seconds.
 Elapsed time:       0 days  0 hours  4 minutes 22.6 seconds.
 File lengths (MBytes):  RWF=   1789 Int=      0 D2E=      0 Chk=    269 Scr=      1
 Normal termination of Gaussian 16 at Mon Nov  1 20:15:16 2021.
