 Entering Gaussian System, Link 0=/uufs/chpc.utah.edu/sys/installdir/gaussian16/B01/E6B/g16/g16
 Input=catASium_T2_2_SPE_NoPd.com
 Output=catASium_T2_2_SPE_NoPd.log
 Initial command:
 /uufs/chpc.utah.edu/sys/installdir/gaussian16/B01/E6B/g16/l1.exe "/scratch/general/lustre/u1010977/3354019/notchpeak.peaks/Gau-270379.inp" -scrdir="/scratch/general/lustre/u1010977/3354019/notchpeak.peaks/"
 Entering Link 1 = /uufs/chpc.utah.edu/sys/installdir/gaussian16/B01/E6B/g16/l1.exe PID=    270381.
  
 Copyright (c) 1988-2017, Gaussian, Inc.  All Rights Reserved.
  
 This is part of the Gaussian(R) 16 program.  It is based on
 the Gaussian(R) 09 system (copyright 2009, Gaussian, Inc.),
 the Gaussian(R) 03 system (copyright 2003, Gaussian, Inc.),
 the Gaussian(R) 98 system (copyright 1998, Gaussian, Inc.),
 the Gaussian(R) 94 system (copyright 1995, Gaussian, Inc.),
 the Gaussian 92(TM) system (copyright 1992, Gaussian, Inc.),
 the Gaussian 90(TM) system (copyright 1990, Gaussian, Inc.),
 the Gaussian 88(TM) system (copyright 1988, Gaussian, Inc.),
 the Gaussian 86(TM) system (copyright 1986, Carnegie Mellon
 University), and the Gaussian 82(TM) system (copyright 1983,
 Carnegie Mellon University). Gaussian is a federally registered
 trademark of Gaussian, Inc.
  
 This software contains proprietary and confidential information,
 including trade secrets, belonging to Gaussian, Inc.
  
 This software is provided under written license and may be
 used, copied, transmitted, or stored only in accord with that
 written license.
  
 The following legend is applicable only to US Government
 contracts under FAR:
  
                    RESTRICTED RIGHTS LEGEND
  
 Use, reproduction and disclosure by the US Government is
 subject to restrictions as set forth in subparagraphs (a)
 and (c) of the Commercial Computer Software - Restricted
 Rights clause in FAR 52.227-19.
  
 Gaussian, Inc.
 340 Quinnipiac St., Bldg. 40, Wallingford CT 06492
  
  
 ---------------------------------------------------------------
 Warning -- This program may not be used in any manner that
 competes with the business of Gaussian, Inc. or will provide
 assistance to any competitor of Gaussian, Inc.  The licensee
 of this program is prohibited from giving any competitor of
 Gaussian, Inc. access to this program.  By using this program,
 the user acknowledges that Gaussian, Inc. is engaged in the
 business of creating and licensing software in the field of
 computational chemistry and represents and warrants to the
 licensee that it is not a competitor of Gaussian, Inc. and that
 it will not use this program in any manner prohibited above.
 ---------------------------------------------------------------
  

 Cite this work as:
 Gaussian 16, Revision B.01,
 M. J. Frisch, G. W. Trucks, H. B. Schlegel, G. E. Scuseria, 
 M. A. Robb, J. R. Cheeseman, G. Scalmani, V. Barone, 
 G. A. Petersson, H. Nakatsuji, X. Li, M. Caricato, A. V. Marenich, 
 J. Bloino, B. G. Janesko, R. Gomperts, B. Mennucci, H. P. Hratchian, 
 J. V. Ortiz, A. F. Izmaylov, J. L. Sonnenberg, D. Williams-Young, 
 F. Ding, F. Lipparini, F. Egidi, J. Goings, B. Peng, A. Petrone, 
 T. Henderson, D. Ranasinghe, V. G. Zakrzewski, J. Gao, N. Rega, 
 G. Zheng, W. Liang, M. Hada, M. Ehara, K. Toyota, R. Fukuda, 
 J. Hasegawa, M. Ishida, T. Nakajima, Y. Honda, O. Kitao, H. Nakai, 
 T. Vreven, K. Throssell, J. A. Montgomery, Jr., J. E. Peralta, 
 F. Ogliaro, M. J. Bearpark, J. J. Heyd, E. N. Brothers, K. N. Kudin, 
 V. N. Staroverov, T. A. Keith, R. Kobayashi, J. Normand, 
 K. Raghavachari, A. P. Rendell, J. C. Burant, S. S. Iyengar, 
 J. Tomasi, M. Cossi, J. M. Millam, M. Klene, C. Adamo, R. Cammi, 
 J. W. Ochterski, R. L. Martin, K. Morokuma, O. Farkas, 
 J. B. Foresman, and D. J. Fox, Gaussian, Inc., Wallingford CT, 2016.
 
 ******************************************
 Gaussian 16:  ES64L-G16RevB.01 20-Dec-2017
                 1-Nov-2021 
 ******************************************
 %NProcShared=32
 Will use up to   32 processors via shared memory.
 %mem=18GB
 %chk=catASium_T2_2_SPE_NoPd.chk
 ----------------------------------------------------------------------
 # PBE1PBE/def2TZVP int=(grid=ultrafine) empiricaldispersion=GD3BJ nmr=
 giao
 ----------------------------------------------------------------------
 1/38=1,172=1/1;
 2/12=2,17=6,18=5,40=1/2;
 3/5=44,7=101,11=2,25=1,30=1,74=-13,75=-5,124=41/1,2,3,8;
 4//1;
 5/5=2,38=5/2;
 8/6=1,10=90,11=11/1;
 10/13=100,45=16/2;
 6/7=2,8=2,9=2,10=2,28=1/1;
 99/9=1/99;
 -----
 title
 -----
 Symbolic Z-matrix:
 Charge =  0 Multiplicity = 1
 C                     17.50074   4.0963    6.52037 
 C                     17.68726   2.85559   7.16126 
 C                     18.96609   2.44696   7.56644 
 C                     20.05476   3.30302   7.31094 
 C                     19.89309   4.53556   6.65934 
 C                     18.60044   4.92575   6.26046 
 C                     15.90226   3.75274   4.20333 
 C                     16.10742   4.58305   3.09181 
 C                     16.18661   4.04287   1.79502 
 C                     16.05357   2.65314   1.64658 
 C                     15.86791   1.79789   2.75131 
 C                     15.80667   2.36106   4.03473 
 C                     14.65484   3.66513   6.90579 
 C                     14.72096   3.72659   8.42969 
 C                     13.8649   2.47352   8.81003 
 C                     12.6626   2.92345   7.88455 
 C                     13.41102   3.21086   6.55857 
 C                     13.78126   4.91593   8.81615 
 C                     12.37866   4.35651   8.47642 
 C                     14.51038   1.13452   8.41701 
 C                     13.51736   2.38189   10.3055 
 C                     11.41127   2.05721   7.84617 
 C                     12.893    3.12242   5.1736 
 C                     12.55667   1.89914   4.60575 
 C                     12.55797   3.78128   2.9097 
 C                     12.87146   4.21742   4.19319 
 C                     12.59169   0.51775   5.19179 
 C                     12.48452   4.45358   1.56634 
 C                     11.5829   6.23911   5.7173 
 C                     10.46218   5.39733   5.5507 
 C                     9.31199   5.59456   6.32658 
 C                     9.27004   6.62903   7.2724 
 C                     10.37846   7.47309   7.43126 
 C                     11.53283   7.28473   6.65996 
 C                     12.76825   7.00204   3.19522 
 C                     13.85757   7.52683   2.47492 
 C                     13.63841   8.25645   1.3009 
 C                     12.32909   8.49406   0.85494 
 C                     11.24071   8.01436   1.59688 
 C                     11.45681   7.27068   2.76558 
 P                     15.84685   4.5365    5.86512 
 P                     13.09914   5.9883    4.69265 
 S                     12.23535   2.06521   2.90644 
 H                     16.83192   2.19843   7.34621 
 C                     19.17083   1.11908   8.25913 
 H                     21.05885   2.99911   7.63341 
 C                     21.06898   5.44824   6.40198 
 H                     18.44637   5.89744   5.78344 
 H                     16.19043   5.66518   3.24589 
 C                     16.40137   4.94645   0.60258 
 H                     16.09527   2.21851   0.63982 
 C                     15.68776   0.31161   2.55171 
 H                     15.65906   1.71399   4.90652 
 H                     10.60445   6.90241   3.34489 
 H                     12.15737   9.07514  -0.05688 
 H                     10.21696   8.22469   1.27028 
 H                     14.87088   7.39151   2.86303 
 H                     14.49131   8.66526   0.7494 
 H                     12.39825   7.94487   6.77782 
 H                     8.3747    6.77495   7.88567 
 H                     10.35269   8.2833    8.16705 
 H                     10.49655   4.57681   4.82781 
 H                     8.4501    4.93204   6.19429 
 H                     13.09135  -0.18908   4.50643 
 H                     13.15049   0.51544   6.13776 
 H                     11.57955   0.12274   5.39306 
 H                     11.56912   5.05547   1.44294 
 H                     13.33958   5.12819   1.41391 
 H                     12.50538   3.6966    0.76509 
 H                     10.72232   2.40203   7.05536 
 H                     11.63117   0.99297   7.66517 
 H                     10.87431   2.1266    8.80774 
 H                     13.80589   0.29776   8.57541 
 H                     14.8373   1.11417   7.36584 
 H                     15.39414   0.93642   9.04996 
 H                     12.81439   1.54881   10.48518 
 H                     14.43093   2.17142   10.88924 
 H                     13.06694   3.29642   10.71664 
 H                     15.73198   3.78666   8.85861 
 H                     14.04188   5.8202    8.23923 
 H                     13.88699   5.16654   9.88502 
 H                     11.74651   4.2533    9.37539 
 H                     11.82147   4.975     7.76531 
 H                     19.70254   1.24326   9.21922 
 H                     18.20874   0.62196   8.468 
 H                     19.77695   0.43079   7.6421 
 H                     21.21192   5.62309   5.32046 
 H                     20.9084   6.43653   6.86789 
 H                     22.00493   5.02683   6.80389 
 H                     15.90743  -0.249     3.47565 
 H                     14.64556   0.08033   2.26074 
 H                     16.34275  -0.0744    1.75218 
 H                     16.23543   4.40956  -0.3458 
 H                     15.718    5.81431   0.62874 
 H                     17.43079   5.34849   0.58448 
 
 Stoichiometry    C44H48P2S
 Framework group  C1[X(C44H48P2S)]
 Deg. of freedom   279
 Full point group                 C1      NOp   1
 Largest Abelian subgroup         C1      NOp   1
 Largest concise Abelian subgroup C1      NOp   1
                         Standard orientation:                         
 ---------------------------------------------------------------------
 Center     Atomic      Atomic             Coordinates (Angstroms)
 Number     Number       Type             X           Y           Z
 ---------------------------------------------------------------------
      1          6           0        3.154985   -0.689719   -1.322114
      2          6           0        4.116993   -0.062889   -0.505711
      3          6           0        5.480325   -0.354325   -0.657186
      4          6           0        5.859816   -1.290810   -1.638171
      5          6           0        4.916333   -1.938616   -2.450612
      6          6           0        3.552780   -1.631547   -2.281061
      7          6           0        1.035064   -1.684229    0.277503
      8          6           0        0.356034   -2.845909   -0.117953
      9          6           0        0.089792   -3.873393    0.805686
     10          6           0        0.521300   -3.701882    2.130633
     11          6           0        1.223594   -2.552365    2.545052
     12          6           0        1.488277   -1.549304    1.600650
     13          6           0        1.259069    1.236198   -0.259123
     14          6           0        1.945709    2.449223   -0.881612
     15          6           0        1.975945    3.426520    0.339724
     16          6           0        0.429573    3.240259    0.619939
     17          6           0        0.321752    1.694531    0.627097
     18          6           0        0.856146    3.086321   -1.805668
     19          6           0       -0.157954    3.653498   -0.783137
     20          6           0        2.894818    2.967013    1.483641
     21          6           0        2.389492    4.864195   -0.017600
     22          6           0       -0.201549    4.023594    1.762635
     23          6           0       -0.650179    0.844879    1.353567
     24          6           0       -0.633262    0.753298    2.740393
     25          6           0       -2.181885   -0.949090    1.680844
     26          6           0       -1.566029   -0.128269    0.741271
     27          6           0        0.246044    1.439228    3.744998
     28          6           0       -3.113372   -2.126359    1.589303
     29          6           0       -2.797901    1.503972   -1.230741
     30          6           0       -3.391975    2.106882   -0.101166
     31          6           0       -4.049928    3.338008   -0.224566
     32          6           0       -4.120259    3.976476   -1.471112
     33          6           0       -3.540252    3.373452   -2.596383
     34          6           0       -2.880840    2.142420   -2.483711
     35          6           0       -3.284795   -1.341887   -1.340473
     36          6           0       -2.963123   -2.609639   -1.860255
     37          6           0       -3.961120   -3.577432   -2.021710
     38          6           0       -5.292279   -3.275850   -1.695013
     39          6           0       -5.623327   -1.997942   -1.223306
     40          6           0       -4.623964   -1.030638   -1.046579
     41         15           0        1.373065   -0.407083   -1.000602
     42         15           0       -1.935324   -0.121972   -1.075566
     43         16           0       -1.696122   -0.503001    3.297640
     44          1           0        3.805322    0.657377    0.257012
     45          6           0        6.516910    0.319369    0.212648
     46          1           0        6.924811   -1.518757   -1.773686
     47          6           0        5.339471   -2.932836   -3.506268
     48          1           0        2.803844   -2.097577   -2.927117
     49          1           0        0.020456   -2.936541   -1.157576
     50          6           0       -0.648444   -5.118816    0.371605
     51          1           0        0.305580   -4.486441    2.866932
     52          6           0        1.637432   -2.382201    3.987645
     53          1           0        2.029575   -0.646031    1.903295
     54          1           0       -4.887186   -0.032466   -0.683110
     55          1           0       -6.074814   -4.028985   -1.832758
     56          1           0       -6.665187   -1.747813   -0.997599
     57          1           0       -1.935280   -2.815320   -2.171677
     58          1           0       -3.702956   -4.559407   -2.431328
     59          1           0       -2.431148    1.666334   -3.361059
     60          1           0       -4.625109    4.943720   -1.563761
     61          1           0       -3.591902    3.865558   -3.572938
     62          1           0       -3.323477    1.622430    0.877416
     63          1           0       -4.502059    3.800658    0.659081
     64          1           0        0.649445    0.716036    4.475238
     65          1           0        1.099049    1.918768    3.245446
     66          1           0       -0.295868    2.215839    4.314368
     67          1           0       -4.150797   -1.829592    1.363176
     68          1           0       -2.795362   -2.822410    0.799459
     69          1           0       -3.117014   -2.678380    2.543617
     70          1           0       -1.238273    3.687811    1.939831
     71          1           0        0.354051    3.925355    2.708884
     72          1           0       -0.238945    5.096982    1.509266
     73          1           0        2.768545    3.612496    2.371882
     74          1           0        2.706111    1.925336    1.786234
     75          1           0        3.953601    3.043627    1.177031
     76          1           0        2.272058    5.525856    0.859270
     77          1           0        3.455847    4.886036   -0.304091
     78          1           0        1.816246    5.301073   -0.847548
     79          1           0        2.904935    2.247259   -1.380445
     80          1           0        0.420845    2.324361   -2.475283
     81          1           0        1.294945    3.871887   -2.443499
     82          1           0       -0.223093    4.754247   -0.833403
     83          1           0       -1.174305    3.268554   -0.915417
     84          1           0        7.299921    0.804994   -0.396426
     85          1           0        6.062012    1.091520    0.855480
     86          1           0        7.026081   -0.407901    0.871189
     87          1           0        4.907745   -3.931311   -3.313000
     88          1           0        4.987188   -2.619221   -4.504821
     89          1           0        6.435872   -3.039553   -3.546525
     90          1           0        2.454271   -1.648249    4.089068
     91          1           0        0.787439   -2.022071    4.597691
     92          1           0        1.975343   -3.334956    4.429624
     93          1           0       -0.958746   -5.726545    1.237388
     94          1           0       -1.552613   -4.866490   -0.211197
     95          1           0       -0.016457   -5.754606   -0.274956
 ---------------------------------------------------------------------
 Rotational constants (GHZ):           0.0792257           0.0600732           0.0491611
 Standard basis: def2TZVP (5D, 7F)
 There are  1998 symmetry adapted cartesian basis functions of A   symmetry.
 There are  1763 symmetry adapted basis functions of A   symmetry.
  1763 basis functions,  2835 primitive gaussians,  1998 cartesian basis functions
   179 alpha electrons      179 beta electrons
       nuclear repulsion energy      7092.3041544785 Hartrees.
 NAtoms=   95 NActive=   95 NUniq=   95 SFac= 1.00D+00 NAtFMM=   60 NAOKFM=T Big=T
 Integral buffers will be    131072 words long.
 Raffenetti 2 integral format.
 Two-electron integral symmetry is turned on.
 Nuclear repulsion after empirical dispersion term =     7092.1427073854 Hartrees.
 One-electron integrals computed using PRISM.
   1 Symmetry operations used in ECPInt.
 ECPInt:  NShTT=  255970 NPrTT=  781845 LenC2=  199438 LenP2D=  401202.
 LDataN:  DoStor=T MaxTD1= 6 Len=  172
 Number of processors reduced to  21 by ecpmxn.
 NBasis=  1763 RedAO= T EigKep=  3.34D-06  NBF=  1763
 NBsUse=  1763 1.00D-06 EigRej= -1.00D+00 NBFU=  1763
 ExpMin= 9.04D-02 ExpMax= 6.07D+04 ExpMxC= 2.07D+03 IAcc=3 IRadAn=         5 AccDes= 0.00D+00
 Harris functional with IExCor= 1009 and IRadAn=       5 diagonalized for initial guess.
 HarFok:  IExCor= 1009 AccDes= 0.00D+00 IRadAn=         5 IDoV= 1 UseB2=F ITyADJ=14
 ICtDFT=  3500011 ScaDFX=  1.000000  1.000000  1.000000  1.000000
 FoFCou: FMM=F IPFlag=           0 FMFlag=      100000 FMFlg1=        2001
         NFxFlg=           0 DoJE=T BraDBF=F KetDBF=T FulRan=T
         wScrn=  0.000000 ICntrl=       500 IOpCl=  0 I1Cent=   200000004 NGrid=           0
         NMat0=    1 NMatS0=      1 NMatT0=    0 NMatD0=    1 NMtDS0=    0 NMtDT0=    0
 Petite list used in FoFCou.
 Requested convergence on RMS density matrix=1.00D-08 within 128 cycles.
 Requested convergence on MAX density matrix=1.00D-06.
 Requested convergence on             energy=1.00D-06.
 No special actions if energy rises.
 Integral accuracy reduced to 1.0D-05 until final iterations.
 Problem detected with inexpensive integrals.
 Switching to full accuracy and repeating last cycle.
 SCF Done:  E(RPBE1PBE) =  -2784.79739166     A.U. after   16 cycles
            NFock= 16  Conv=0.65D-08     -V/T= 2.0046
 DoSCS=F DFT=T ScalE2(SS,OS)=  1.000000  1.000000
 Range of M.O.s used for correlation:     1  1763
 NBasis=  1763 NAE=   179 NBE=   179 NFC=     0 NFV=     0
 NROrb=   1763 NOA=   179 NOB=   179 NVA=  1584 NVB=  1584

 **** Warning!!: The largest alpha MO coefficient is  0.48096643D+02

          Differentiating once with respect to magnetic field using GIAOs.
          Electric field/nuclear overlap derivatives assumed to be zero.
 FoFCou: FMM=F IPFlag=           0 FMFlag=      100000 FMFlg1=        2001
         NFxFlg=           0 DoJE=F BraDBF=F KetDBF=T FulRan=T
         wScrn=  0.000000 ICntrl=      6100 IOpCl=  0 I1Cent=           7 NGrid=          95
         NMat0=    1 NMatS0=      1 NMatT0=    0 NMatD0=    1 NMtDS0=    0 NMtDT0=    0
 Symmetry not used in FoFCou.
   1 Symmetry operations used in ECPInt.
 ECPInt:  NShTT=  255970 NPrTT=  781845 LenC2=  255971 LenP2D=  781845.
 LDataN:  DoStor=T MaxTD1= 7 Len=  274
 Number of processors reduced to  13 by ecpmxn.
 FoFJK:  IHMeth= 1 ICntrl=    6127 DoSepK=F KAlg= 0 I1Cent=           0 FoldK=F
 IRaf=         1 NMat=       1 IRICut=       1 DoRegI=T DoRafI=F ISym2E= 0 IDoP0=0 IntGTp=1.
          There are     3 degrees of freedom in the 1st order CPHF.  IDoFFX=0 NUNeed=     3.
      3 vectors produced by pass  0 Test12= 9.45D-12 3.33D-08 XBig12= 1.88D+02 1.55D+00.
 AX will form     3 AO Fock derivatives at one time.
      3 vectors produced by pass  1 Test12= 9.45D-12 3.33D-08 XBig12= 6.97D-01 1.56D-01.
      3 vectors produced by pass  2 Test12= 9.45D-12 3.33D-08 XBig12= 4.13D-03 8.15D-03.
      3 vectors produced by pass  3 Test12= 9.45D-12 3.33D-08 XBig12= 1.35D-05 5.63D-04.
      3 vectors produced by pass  4 Test12= 9.45D-12 3.33D-08 XBig12= 6.93D-08 5.16D-05.
      3 vectors produced by pass  5 Test12= 9.45D-12 3.33D-08 XBig12= 4.51D-10 4.71D-06.
      3 vectors produced by pass  6 Test12= 9.45D-12 3.33D-08 XBig12= 2.15D-12 3.34D-07.
 InvSVY:  IOpt=1 It=  1 EMax= 3.55D-15
 Solved reduced A of dimension    21 with     3 vectors.
 Calculating GIAO nuclear magnetic shielding tensors.
 SCF GIAO Magnetic shielding tensor (ppm):
      1  C    Isotropic =    36.6067   Anisotropy =   196.7958
   XX=   -44.9688   YX=    16.5937   ZX=     1.2819
   XY=    20.3282   YY=    85.0497   ZY=   -91.2327
   XZ=    -3.5359   YZ=   -86.9837   ZZ=    69.7392
   Eigenvalues:   -49.5429    -8.4409   167.8039
      2  C    Isotropic =    44.0951   Anisotropy =   149.1208
   XX=    40.4018   YX=    19.3891   ZX=    10.8061
   XY=    12.9061   YY=    61.8372   ZY=   -87.6523
   XZ=    12.6714   YZ=  -104.4283   ZZ=    30.0462
   Eigenvalues:   -55.3396    44.1158   143.5090
      3  C    Isotropic =    40.7925   Anisotropy =   192.1394
   XX=   -14.9368   YX=   -12.7043   ZX=   -39.4689
   XY=   -15.0675   YY=    84.2150   ZY=   -94.7630
   XZ=   -39.3892   YZ=  -100.6667   ZZ=    53.0993
   Eigenvalues:   -62.7658    16.2578   168.8854
      4  C    Isotropic =    51.2679   Anisotropy =   145.5252
   XX=   -40.5748   YX=    22.8301   ZX=     2.7570
   XY=    30.4746   YY=    99.1670   ZY=   -49.9033
   XZ=     3.4823   YZ=   -49.0562   ZZ=    95.2113
   Eigenvalues:   -46.6303    52.1493   148.2846
      5  C    Isotropic =    40.6969   Anisotropy =   194.5128
   XX=     9.5869   YX=    22.3249   ZX=     3.9359
   XY=    24.1784   YY=    66.4113   ZY=  -110.8575
   XZ=     6.2446   YZ=  -114.0973   ZZ=    46.0924
   Eigenvalues:   -62.0229    13.7414   170.3721
      6  C    Isotropic =    49.3138   Anisotropy =   163.2300
   XX=     1.2151   YX=   -20.9845   ZX=   -48.0952
   XY=   -34.1716   YY=    90.8357   ZY=   -75.9385
   XZ=   -33.9172   YZ=   -89.6834   ZZ=    55.8906
   Eigenvalues:   -54.6823    44.4899   158.1338
      7  C    Isotropic =    40.8969   Anisotropy =   196.0280
   XX=   133.3828   YX=   -63.6053   ZX=   -23.1219
   XY=   -72.2818   YY=    -0.3458   ZY=    41.1060
   XZ=   -29.4123   YZ=    48.4327   ZZ=   -10.3463
   Eigenvalues:   -55.1349     6.2433   171.5822
      8  C    Isotropic =    47.1763   Anisotropy =   162.9378
   XX=   113.1805   YX=   -55.5220   ZX=   -56.6814
   XY=   -42.3157   YY=    64.7506   ZY=     4.5045
   XZ=   -51.8049   YZ=     2.1130   ZZ=   -36.4022
   Eigenvalues:   -55.3249    41.0522   155.8014
      9  C    Isotropic =    42.8710   Anisotropy =   194.3879
   XX=   112.4987   YX=   -95.0710   ZX=   -44.0199
   XY=   -89.2689   YY=    -1.8362   ZY=     0.4316
   XZ=   -41.6615   YZ=    -4.9686   ZZ=    17.9505
   Eigenvalues:   -60.3192    16.4692   172.4629
     10  C    Isotropic =    49.5968   Anisotropy =   149.4688
   XX=   124.8045   YX=   -49.0773   ZX=     3.2903
   XY=   -54.8543   YY=    16.1398   ZY=    53.6110
   XZ=    -6.6416   YZ=    52.2793   ZZ=     7.8460
   Eigenvalues:   -48.3802    47.9280   149.2426
     11  C    Isotropic =    40.4318   Anisotropy =   199.2392
   XX=   125.5170   YX=   -67.8482   ZX=   -53.2984
   XY=   -66.1433   YY=    42.9181   ZY=     3.6045
   XZ=   -50.8587   YZ=     4.3998   ZZ=   -47.1397
   Eigenvalues:   -63.9517    11.9891   173.2579
     12  C    Isotropic =    47.0457   Anisotropy =   168.5622
   XX=   103.3224   YX=   -89.8846   ZX=   -30.0156
   XY=   -86.3468   YY=     5.8253   ZY=   -14.4061
   XZ=   -37.2546   YZ=   -10.5329   ZZ=    31.9894
   Eigenvalues:   -55.2563    36.9729   159.4205
     13  C    Isotropic =    35.5610   Anisotropy =   166.6937
   XX=    52.0877   YX=   -16.3968   ZX=    75.6330
   XY=   -19.5173   YY=   -46.5779   ZY=    -5.8265
   XZ=    55.6006   YZ=    32.6358   ZZ=   101.1731
   Eigenvalues:   -54.7583    14.7511   146.6901
     14  C    Isotropic =   125.9485   Anisotropy =    22.7982
   XX=   120.4950   YX=     6.5276   ZX=    10.0706
   XY=    -3.9322   YY=   126.0226   ZY=    11.3519
   XZ=    -4.6013   YZ=    12.1596   ZZ=   131.3278
   Eigenvalues:   116.4917   120.2064   141.1473
     15  C    Isotropic =   123.4796   Anisotropy =    19.8215
   XX=   129.0897   YX=    10.3285   ZX=   -15.3859
   XY=     2.3084   YY=   124.8310   ZY=     5.4152
   XZ=    -9.2423   YZ=    12.5574   ZZ=   116.5183
   Eigenvalues:   103.3732   130.3717   136.6939
     16  C    Isotropic =   120.3753   Anisotropy =    19.1239
   XX=   130.7783   YX=     1.7024   ZX=    -8.2612
   XY=     9.2653   YY=   119.1677   ZY=     5.7150
   XZ=     7.9568   YZ=     4.9962   ZZ=   111.1800
   Eigenvalues:   108.1708   119.8307   133.1246
     17  C    Isotropic =    30.7774   Anisotropy =   155.4992
   XX=    78.0864   YX=   -50.3734   ZX=    41.6853
   XY=   -54.9564   YY=   -43.9909   ZY=    19.0160
   XZ=    78.9584   YZ=    16.1533   ZZ=    58.2369
   Eigenvalues:   -75.3950    33.2838   134.4436
     18  C    Isotropic =   157.8945   Anisotropy =    23.5827
   XX=   165.3578   YX=    -9.9244   ZX=    10.0697
   XY=    -9.3557   YY=   148.8964   ZY=    -7.0645
   XZ=     3.3323   YZ=     0.9981   ZZ=   159.4294
   Eigenvalues:   144.4511   155.6162   173.6164
     19  C    Isotropic =   149.6094   Anisotropy =    41.6509
   XX=   135.5535   YX=   -11.0818   ZX=     6.0770
   XY=   -13.3662   YY=   137.5266   ZY=     1.1570
   XZ=     9.4804   YZ=    -1.7445   ZZ=   175.7483
   Eigenvalues:   123.6777   147.7739   177.3767
     20  C    Isotropic =   162.0695   Anisotropy =    28.5476
   XX=   160.9914   YX=    -6.4575   ZX=    13.4621
   XY=     0.0830   YY=   158.6376   ZY=    -9.4100
   XZ=    10.0993   YZ=   -12.7273   ZZ=   166.5794
   Eigenvalues:   148.4988   156.6084   181.1012
     21  C    Isotropic =   164.6506   Anisotropy =    36.4949
   XX=   157.1421   YX=    11.1388   ZX=    -2.0128
   XY=     6.2612   YY=   183.8898   ZY=   -11.2519
   XZ=     2.1659   YZ=    -8.5737   ZZ=   152.9199
   Eigenvalues:   149.0121   155.9591   188.9805
     22  C    Isotropic =   171.3675   Anisotropy =    21.5811
   XX=   160.2551   YX=    -8.5993   ZX=    -5.0361
   XY=    -2.6715   YY=   174.6099   ZY=     7.2769
   XZ=    -4.8438   YZ=     5.3782   ZZ=   179.2374
   Eigenvalues:   157.9353   170.4122   185.7549
     23  C    Isotropic =    40.7979   Anisotropy =   119.9945
   XX=    44.0900   YX=   -77.7213   ZX=     9.2770
   XY=   -76.1012   YY=    43.4269   ZY=    -0.6375
   XZ=    -6.1796   YZ=    -5.4944   ZZ=    34.8768
   Eigenvalues:   -33.1707    34.7702   120.7942
     24  C    Isotropic =    40.2990   Anisotropy =   137.7004
   XX=    48.0125   YX=   -85.2069   ZX=   -27.8363
   XY=   -72.4794   YY=    55.1053   ZY=    -3.2629
   XZ=   -28.5260   YZ=   -13.7133   ZZ=    17.7791
   Eigenvalues:   -39.5855    28.3832   132.0992
     25  C    Isotropic =    32.1889   Anisotropy =   147.3729
   XX=    68.1075   YX=   -76.0510   ZX=   -35.5370
   XY=   -86.2245   YY=    18.8463   ZY=   -13.7797
   XZ=   -21.4111   YZ=    -9.6095   ZZ=     9.6127
   Eigenvalues:   -52.7154    18.8445   130.4375
     26  C    Isotropic =    46.4728   Anisotropy =   132.8227
   XX=    68.3067   YX=   -68.3157   ZX=   -22.3369
   XY=   -61.6811   YY=    70.8461   ZY=   -34.1375
   XZ=   -28.2077   YZ=     5.5109   ZZ=     0.2658
   Eigenvalues:   -25.9201    30.3173   135.0213
     27  C    Isotropic =   167.7695   Anisotropy =    19.9733
   XX=   167.5529   YX=     0.4201   ZX=     5.6848
   XY=     3.5842   YY=   171.3369   ZY=     7.7742
   XZ=    12.6124   YZ=     9.4252   ZZ=   164.4187
   Eigenvalues:   154.7334   167.4901   181.0850
     28  C    Isotropic =   168.1316   Anisotropy =    17.1834
   XX=   172.3089   YX=    11.9620   ZX=     3.7044
   XY=     1.9390   YY=   172.0730   ZY=     1.4118
   XZ=     1.7471   YZ=     1.4491   ZZ=   160.0130
   Eigenvalues:   159.4356   165.3720   179.5872
     29  C    Isotropic =    35.0975   Anisotropy =   211.0444
   XX=   115.6309   YX=    94.6525   ZX=    36.3396
   XY=    93.7695   YY=    -5.4935   ZY=    17.5092
   XZ=    32.5438   YZ=    22.0360   ZZ=    -4.8449
   Eigenvalues:   -56.9451   -13.5562   175.7937
     30  C    Isotropic =    41.5501   Anisotropy =   198.7040
   XX=   142.4002   YX=    48.1251   ZX=    26.8670
   XY=    63.9380   YY=    35.3040   ZY=    47.5225
   XZ=    22.2732   YZ=    46.4982   ZZ=   -53.0538
   Eigenvalues:   -73.3870    24.0179   174.0195
     31  C    Isotropic =    50.8441   Anisotropy =   187.2229
   XX=   122.8434   YX=    70.7250   ZX=    62.4271
   XY=    72.3820   YY=    51.4089   ZY=   -20.2598
   XZ=    56.3632   YZ=   -21.2323   ZZ=   -21.7199
   Eigenvalues:   -62.7379    39.6109   175.6593
     32  C    Isotropic =    51.6042   Anisotropy =   188.6600
   XX=   118.8447   YX=   101.0651   ZX=    18.3643
   XY=    93.3990   YY=    -4.0461   ZY=    17.9124
   XZ=    19.9294   YZ=    20.6466   ZZ=    40.0140
   Eigenvalues:   -58.2341    35.6692   177.3776
     33  C    Isotropic =    51.1932   Anisotropy =   187.8244
   XX=   141.4254   YX=    57.9081   ZX=    17.3186
   XY=    57.3475   YY=    48.8864   ZY=    50.0962
   XZ=    20.3173   YZ=    50.6031   ZZ=   -36.7323
   Eigenvalues:   -60.3011    37.4713   176.4095
     34  C    Isotropic =    44.6819   Anisotropy =   188.2995
   XX=   121.9664   YX=    60.4897   ZX=    66.6227
   XY=    75.0508   YY=    38.7980   ZY=   -15.3442
   XZ=    56.9461   YZ=   -27.5621   ZZ=   -26.7187
   Eigenvalues:   -69.1164    32.9473   170.2149
     35  C    Isotropic =    41.6140   Anisotropy =   204.9810
   XX=   -24.2327   YX=   -30.1153   ZX=    18.0943
   XY=   -42.4675   YY=    -3.0858   ZY=   -67.9671
   XZ=    23.2729   YZ=   -54.1646   ZZ=   152.1605
   Eigenvalues:   -54.0144     0.5885   178.2680
     36  C    Isotropic =    41.8928   Anisotropy =   185.8693
   XX=   -54.7666   YX=    10.2330   ZX=    49.9391
   XY=    18.2793   YY=    45.6160   ZY=   -46.7164
   XZ=    43.1676   YZ=   -59.7537   ZZ=   134.8290
   Eigenvalues:   -71.8868    31.7596   165.8057
     37  C    Isotropic =    52.0917   Anisotropy =   184.1790
   XX=    39.0051   YX=    12.8527   ZX=    30.2193
   XY=    13.7214   YY=   -25.1038   ZY=   -72.7901
   XZ=    29.4767   YZ=   -76.6474   ZZ=   142.3737
   Eigenvalues:   -59.1376    40.5350   174.8777
     38  C    Isotropic =    50.5844   Anisotropy =   188.2856
   XX=    -8.5328   YX=   -52.2904   ZX=    12.2227
   XY=   -53.5589   YY=     2.9038   ZY=   -49.7384
   XZ=    12.6583   YZ=   -49.4667   ZZ=   157.3822
   Eigenvalues:   -58.9328    34.5778   176.1081
     39  C    Isotropic =    51.9430   Anisotropy =   184.4497
   XX=   -46.0929   YX=    15.9738   ZX=    38.9399
   XY=    13.2088   YY=    48.8516   ZY=   -42.9348
   XZ=    39.7132   YZ=   -48.4333   ZZ=   153.0703
   Eigenvalues:   -58.8315    39.7510   174.9095
     40  C    Isotropic =    40.4125   Anisotropy =   203.3621
   XX=    13.3993   YX=    19.4487   ZX=    30.6781
   XY=    16.0715   YY=   -37.0601   ZY=   -71.3535
   XZ=    17.4047   YZ=   -86.3800   ZZ=   144.8983
   Eigenvalues:   -73.7698    19.0201   175.9873
     41  P    Isotropic =   296.1788   Anisotropy =    74.6289
   XX=   290.8380   YX=     7.0716   ZX=    17.6069
   XY=     8.4040   YY=   294.6950   ZY=    24.8050
   XZ=    39.8309   YZ=    42.0162   ZZ=   303.0034
   Eigenvalues:   257.7721   284.8329   345.9314
     42  P    Isotropic =   300.8051   Anisotropy =    54.8926
   XX=   305.2629   YX=   -42.2879   ZX=   -32.9803
   XY=   -19.2823   YY=   279.6095   ZY=   -18.4932
   XZ=   -13.1646   YZ=    -6.4031   ZZ=   317.5429
   Eigenvalues:   250.8018   314.2133   337.4002
     43  S    Isotropic =   163.6655   Anisotropy =   167.2230
   XX=   200.5357   YX=   -41.7695   ZX=    37.1568
   XY=    -3.6955   YY=   228.9254   ZY=   113.2759
   XZ=    64.0320   YZ=    85.4343   ZZ=    61.5354
   Eigenvalues:    -0.0163   215.8653   275.1475
     44  H    Isotropic =    23.5187   Anisotropy =    11.5650
   XX=    30.8604   YX=    -0.9418   ZX=     0.6789
   XY=    -2.0874   YY=    21.3649   ZY=     1.4574
   XZ=     2.2250   YZ=     0.2713   ZZ=    18.3309
   Eigenvalues:    17.8492    21.4784    31.2287
     45  C    Isotropic =   163.3565   Anisotropy =    38.5309
   XX=   171.9134   YX=    10.4052   ZX=    13.5571
   XY=     5.0937   YY=   157.0528   ZY=    16.7750
   XZ=    11.4206   YZ=    18.2518   ZZ=   161.1034
   Eigenvalues:   141.1916   159.8342   189.0438
     46  H    Isotropic =    24.3688   Anisotropy =     7.7187
   XX=    23.5207   YX=     0.8315   ZX=     0.6533
   XY=     0.6217   YY=    24.1603   ZY=     4.5312
   XZ=     0.4880   YZ=     4.5497   ZZ=    25.4256
   Eigenvalues:    20.1993    23.3925    29.5147
     47  C    Isotropic =   162.8321   Anisotropy =    41.7567
   XX=   162.9558   YX=    -7.2706   ZX=    -6.6170
   XY=   -11.0010   YY=   161.0150   ZY=    22.8849
   XZ=    -9.6384   YZ=    22.0783   ZZ=   164.5255
   Eigenvalues:   140.1480   157.6784   190.6699
     48  H    Isotropic =    23.8115   Anisotropy =    12.1201
   XX=    25.9763   YX=    -2.8777   ZX=    -5.5884
   XY=    -3.6104   YY=    21.5213   ZY=     2.6692
   XZ=    -4.2843   YZ=     3.3969   ZZ=    23.9370
   Eigenvalues:    19.4582    20.0847    31.8916
     49  H    Isotropic =    23.2848   Anisotropy =     8.5021
   XX=    23.6816   YX=     2.4970   ZX=    -1.7007
   XY=     2.4393   YY=    27.7475   ZY=     0.1792
   XZ=    -0.4716   YZ=    -0.5930   ZZ=    18.4252
   Eigenvalues:    18.2005    22.7010    28.9528
     50  C    Isotropic =   163.0889   Anisotropy =    39.1567
   XX=   152.9981   YX=    16.0297   ZX=     3.5443
   XY=    20.0184   YY=   178.8653   ZY=     2.8142
   XZ=     8.7960   YZ=     3.9372   ZZ=   157.4034
   Eigenvalues:   142.6358   157.4376   189.1934
     51  H    Isotropic =    24.7615   Anisotropy =     6.9016
   XX=    22.5235   YX=     0.9145   ZX=     3.0984
   XY=     1.5851   YY=    25.9951   ZY=     1.8840
   XZ=     3.3568   YZ=     2.0389   ZZ=    25.7659
   Eigenvalues:    20.5326    24.3893    29.3626
     52  C    Isotropic =   163.0924   Anisotropy =    38.3597
   XX=   149.9589   YX=     6.6011   ZX=     9.0663
   XY=     7.3264   YY=   155.4121   ZY=     1.7627
   XZ=    16.7839   YZ=     1.1189   ZZ=   183.9063
   Eigenvalues:   142.5931   158.0186   188.6655
     53  H    Isotropic =    24.4626   Anisotropy =     8.4856
   XX=    23.3952   YX=    -1.7498   ZX=    -0.2942
   XY=    -1.7947   YY=    22.0394   ZY=    -4.6756
   XZ=    -0.6330   YZ=    -3.6312   ZZ=    27.9531
   Eigenvalues:    19.1436    24.1245    30.1196
     54  H    Isotropic =    23.9817   Anisotropy =    13.9779
   XX=    29.8660   YX=     7.2292   ZX=    -0.3162
   XY=     3.8753   YY=    24.2581   ZY=    -1.4849
   XZ=     2.0016   YZ=     0.7630   ZZ=    17.8209
   Eigenvalues:    17.6284    21.0163    33.3002
     55  H    Isotropic =    23.8354   Anisotropy =     3.6630
   XX=    25.7897   YX=    -0.1954   ZX=    -0.3099
   XY=    -0.8785   YY=    24.5010   ZY=     1.7525
   XZ=    -0.5829   YZ=     1.9617   ZZ=    21.2156
   Eigenvalues:    20.3724    24.8565    26.2775
     56  H    Isotropic =    24.1216   Anisotropy =     6.6090
   XX=    25.4502   YX=     2.6307   ZX=     0.7395
   XY=     1.5512   YY=    26.3833   ZY=     1.5305
   XZ=     1.2155   YZ=     1.8575   ZZ=    20.5313
   Eigenvalues:    20.0416    23.7957    28.5276
     57  H    Isotropic =    22.6298   Anisotropy =     8.8577
   XX=    21.0265   YX=     3.5790   ZX=     3.1338
   XY=     2.3551   YY=    25.5440   ZY=     2.1253
   XZ=     0.4917   YZ=     3.4638   ZZ=    21.3188
   Eigenvalues:    19.3074    20.0471    28.5350
     58  H    Isotropic =    23.6221   Anisotropy =     6.3812
   XX=    26.6187   YX=     2.4728   ZX=     0.8091
   XY=     1.9639   YY=    23.1277   ZY=     1.2967
   XZ=     0.2562   YZ=     1.4950   ZZ=    21.1199
   Eigenvalues:    20.3451    22.6450    27.8763
     59  H    Isotropic =    23.5608   Anisotropy =     8.3343
   XX=    21.8309   YX=    -1.1994   ZX=     2.4842
   XY=    -1.0711   YY=    25.1453   ZY=    -4.0548
   XZ=     1.5726   YZ=    -3.8898   ZZ=    23.7063
   Eigenvalues:    19.8933    21.6722    29.1170
     60  H    Isotropic =    23.8884   Anisotropy =     3.1432
   XX=    22.7744   YX=    -1.9284   ZX=    -0.3389
   XY=    -2.1407   YY=    23.1948   ZY=    -0.7925
   XZ=    -0.4262   YZ=    -0.8982   ZZ=    25.6958
   Eigenvalues:    20.7908    24.8904    25.9838
     61  H    Isotropic =    23.9096   Anisotropy =     5.1060
   XX=    23.1647   YX=    -3.4206   ZX=     0.3372
   XY=    -3.0202   YY=    24.7772   ZY=     0.0544
   XZ=     0.2360   YZ=    -0.3269   ZZ=    23.7867
   Eigenvalues:    20.6448    23.7703    27.3136
     62  H    Isotropic =    24.1404   Anisotropy =    12.5739
   XX=    26.5658   YX=    -5.3129   ZX=     2.2532
   XY=    -6.1220   YY=    27.0087   ZY=     0.2350
   XZ=    -0.4929   YZ=     2.6613   ZZ=    18.8466
   Eigenvalues:    17.9674    21.9308    32.5230
     63  H    Isotropic =    23.8992   Anisotropy =     6.9565
   XX=    23.9467   YX=    -3.4099   ZX=     0.7246
   XY=    -3.2141   YY=    25.3012   ZY=    -1.8642
   XZ=     0.3724   YZ=    -1.8581   ZZ=    22.4496
   Eigenvalues:    20.7818    22.3789    28.5369
     64  H    Isotropic =    29.0333   Anisotropy =     8.3856
   XX=    25.9962   YX=    -1.1960   ZX=     4.4796
   XY=     0.7441   YY=    29.4784   ZY=    -2.6812
   XZ=     3.3448   YZ=    -2.1309   ZZ=    31.6254
   Eigenvalues:    23.8347    28.6415    34.6237
     65  H    Isotropic =    28.5141   Anisotropy =     8.1360
   XX=    28.5072   YX=     3.9935   ZX=    -2.1344
   XY=     3.9811   YY=    26.7319   ZY=    -3.4633
   XZ=    -0.9845   YZ=    -1.6325   ZZ=    30.3033
   Eigenvalues:    23.3636    28.2406    33.9382
     66  H    Isotropic =    29.1327   Anisotropy =     9.6190
   XX=    25.0381   YX=    -1.3250   ZX=    -1.6875
   XY=    -0.4897   YY=    30.8539   ZY=     4.2263
   XZ=    -1.6753   YZ=     3.8242   ZZ=    31.5059
   Eigenvalues:    24.6257    27.2269    35.5453
     67  H    Isotropic =    30.3449   Anisotropy =     8.8737
   XX=    34.4108   YX=     1.8644   ZX=     3.5490
   XY=     0.4814   YY=    23.7641   ZY=    -3.3926
   XZ=     1.4560   YZ=     1.0750   ZZ=    32.8597
   Eigenvalues:    23.4102    31.3638    36.2607
     68  H    Isotropic =    30.9773   Anisotropy =     6.6174
   XX=    28.3943   YX=     0.9698   ZX=     1.1690
   XY=    -2.5814   YY=    30.0171   ZY=     1.9924
   XZ=     2.7521   YZ=     1.0543   ZZ=    34.5204
   Eigenvalues:    27.2579    30.2850    35.3889
     69  H    Isotropic =    30.5812   Anisotropy =     7.5817
   XX=    28.5579   YX=     3.8334   ZX=    -0.6394
   XY=     2.4939   YY=    29.9665   ZY=    -4.0387
   XZ=     0.3782   YZ=    -2.2545   ZZ=    33.2192
   Eigenvalues:    25.5080    30.5999    35.6357
     70  H    Isotropic =    30.3109   Anisotropy =     5.3020
   XX=    33.4137   YX=    -0.6951   ZX=    -0.5118
   XY=     1.4906   YY=    29.4478   ZY=     1.8309
   XZ=    -2.6406   YZ=     0.4859   ZZ=    28.0711
   Eigenvalues:    27.0241    30.0629    33.8455
     71  H    Isotropic =    30.1587   Anisotropy =     8.0364
   XX=    26.5869   YX=    -0.8917   ZX=     1.3744
   XY=     0.4695   YY=    28.6516   ZY=     0.9742
   XZ=     1.3463   YZ=     0.4904   ZZ=    35.2375
   Eigenvalues:    26.3329    28.6269    35.5163
     72  H    Isotropic =    31.0071   Anisotropy =    10.0211
   XX=    27.8095   YX=    -2.2039   ZX=    -0.2375
   XY=    -1.3382   YY=    36.9918   ZY=     1.6616
   XZ=    -1.2645   YZ=     1.8436   ZZ=    28.2199
   Eigenvalues:    27.2162    28.1172    37.6878
     73  H    Isotropic =    30.3626   Anisotropy =     8.4890
   XX=    29.4454   YX=     1.4073   ZX=     2.6123
   XY=     0.8550   YY=    27.9207   ZY=     2.4193
   XZ=     2.1148   YZ=     3.5415   ZZ=    33.7217
   Eigenvalues:    26.6547    28.4111    36.0219
     74  H    Isotropic =    28.7400   Anisotropy =     3.4883
   XX=    28.6143   YX=     0.8521   ZX=     3.0118
   XY=     1.5686   YY=    30.0813   ZY=    -1.0567
   XZ=     2.3175   YZ=    -2.5730   ZZ=    27.5244
   Eigenvalues:    24.5033    30.6512    31.0655
     75  H    Isotropic =    30.2862   Anisotropy =    10.4191
   XX=    37.0790   YX=     0.1199   ZX=     0.7629
   XY=    -0.3638   YY=    27.4837   ZY=     0.8200
   XZ=     1.8232   YZ=     0.3210   ZZ=    26.2958
   Eigenvalues:    25.9262    27.7001    37.2322
     76  H    Isotropic =    30.6785   Anisotropy =    10.2583
   XX=    28.0773   YX=     2.5817   ZX=     0.1416
   XY=     2.3379   YY=    35.2841   ZY=     4.3660
   XZ=     0.0482   YZ=     3.0892   ZZ=    28.6742
   Eigenvalues:    26.3239    28.1942    37.5174
     77  H    Isotropic =    30.7743   Anisotropy =    11.1379
   XX=    35.1530   YX=     3.7859   ZX=    -2.0862
   XY=     4.6214   YY=    30.6532   ZY=    -1.2874
   XZ=    -1.9016   YZ=    -1.7241   ZZ=    26.5167
   Eigenvalues:    25.9571    28.1662    38.1996
     78  H    Isotropic =    30.4880   Anisotropy =     8.7479
   XX=    28.5827   YX=     2.6600   ZX=     1.9541
   XY=     1.4950   YY=    34.0468   ZY=    -4.5197
   XZ=     2.8356   YZ=    -3.5689   ZZ=    28.8347
   Eigenvalues:    24.3451    30.7990    36.3200
     79  H    Isotropic =    28.6077   Anisotropy =     8.4790
   XX=    30.8654   YX=    -3.0995   ZX=    -2.8659
   XY=    -3.8439   YY=    29.6597   ZY=     2.2669
   XZ=    -1.5143   YZ=    -1.1139   ZZ=    25.2981
   Eigenvalues:    24.4412    27.1216    34.2603
     80  H    Isotropic =    30.2349   Anisotropy =     8.6116
   XX=    29.3301   YX=     0.8603   ZX=     3.3636
   XY=     2.1969   YY=    28.9397   ZY=     3.1352
   XZ=     3.3622   YZ=     2.3309   ZZ=    32.4350
   Eigenvalues:    27.1126    27.6162    35.9760
     81  H    Isotropic =    29.8812   Anisotropy =    10.6984
   XX=    27.2715   YX=     1.5312   ZX=    -2.1351
   XY=     2.5799   YY=    30.0416   ZY=    -5.1630
   XZ=    -1.0903   YZ=    -4.9032   ZZ=    32.3304
   Eigenvalues:    25.6645    26.9656    37.0135
     82  H    Isotropic =    30.6330   Anisotropy =     7.1964
   XX=    30.5197   YX=    -0.8641   ZX=     1.5841
   XY=    -0.9009   YY=    34.7718   ZY=    -1.4264
   XZ=     1.5732   YZ=    -2.0852   ZZ=    26.6076
   Eigenvalues:    25.8333    30.6352    35.4306
     83  H    Isotropic =    32.4137   Anisotropy =    23.2961
   XX=    44.8618   YX=     2.7675   ZX=     5.1447
   XY=     8.6429   YY=    26.9763   ZY=     0.8405
   XZ=     6.2481   YZ=     0.4401   ZZ=    25.4028
   Eigenvalues:    23.4899    25.8067    47.9444
     84  H    Isotropic =    28.9853   Anisotropy =     9.3060
   XX=    33.1574   YX=     2.8710   ZX=    -2.5278
   XY=     4.1396   YY=    27.3985   ZY=     1.0010
   XZ=    -2.1216   YZ=     0.4822   ZZ=    26.4000
   Eigenvalues:    24.2466    27.5200    35.1893
     85  H    Isotropic =    29.3085   Anisotropy =     6.7673
   XX=    32.0572   YX=    -0.5457   ZX=     0.6505
   XY=    -2.9663   YY=    28.6143   ZY=     4.6423
   XZ=    -1.0722   YZ=     4.4475   ZZ=    27.2541
   Eigenvalues:    23.2256    30.8799    33.8201
     86  H    Isotropic =    29.0056   Anisotropy =     9.0210
   XX=    30.8880   YX=    -2.4012   ZX=     3.1889
   XY=    -3.1216   YY=    26.8615   ZY=    -1.0679
   XZ=     4.6817   YZ=    -0.7853   ZZ=    29.2672
   Eigenvalues:    25.0246    26.9725    35.0196
     87  H    Isotropic =    28.9694   Anisotropy =     7.7856
   XX=    28.2138   YX=     0.3478   ZX=    -2.2070
   XY=     1.1030   YY=    33.5208   ZY=     3.2326
   XZ=    -1.0109   YZ=     1.4991   ZZ=    25.1736
   Eigenvalues:    23.8534    28.8950    34.1597
     88  H    Isotropic =    28.8533   Anisotropy =     8.0445
   XX=    27.6680   YX=    -1.8189   ZX=    -0.7766
   XY=    -1.1898   YY=    24.8939   ZY=     0.9808
   XZ=     0.8453   YZ=     1.8341   ZZ=    33.9979
   Eigenvalues:    24.0627    28.2808    34.2162
     89  H    Isotropic =    29.5003   Anisotropy =     8.8670
   XX=    34.2252   YX=    -0.9650   ZX=    -0.8098
   XY=    -2.8058   YY=    26.8715   ZY=     3.0749
   XZ=    -2.4371   YZ=     3.0933   ZZ=    27.4043
   Eigenvalues:    24.0331    29.0563    35.4117
     90  H    Isotropic =    29.6122   Anisotropy =     5.5962
   XX=    30.0362   YX=     3.1790   ZX=     2.9986
   XY=     2.4581   YY=    29.1685   ZY=    -2.9814
   XZ=     3.2021   YZ=     0.0842   ZZ=    29.6319
   Eigenvalues:    24.6802    30.8134    33.3430
     91  H    Isotropic =    28.9250   Anisotropy =     5.1303
   XX=    27.6920   YX=    -2.3786   ZX=    -1.7580
   XY=    -1.7374   YY=    27.3386   ZY=    -0.6230
   XZ=    -1.5065   YZ=    -0.1405   ZZ=    31.7444
   Eigenvalues:    25.1497    29.2800    32.3452
     92  H    Isotropic =    29.4063   Anisotropy =    10.5467
   XX=    26.2943   YX=    -2.0537   ZX=     4.4422
   XY=    -1.2498   YY=    31.6585   ZY=    -3.7680
   XZ=     2.8831   YZ=    -4.3919   ZZ=    30.2660
   Eigenvalues:    24.0309    27.7505    36.4374
     93  H    Isotropic =    29.6261   Anisotropy =     8.5757
   XX=    26.1212   YX=     2.9364   ZX=    -1.0157
   XY=     2.5872   YY=    32.4707   ZY=    -3.7716
   XZ=     0.6865   YZ=    -2.5601   ZZ=    30.2864
   Eigenvalues:    24.8783    28.6568    35.3432
     94  H    Isotropic =    28.8380   Anisotropy =     7.4968
   XX=    30.2287   YX=     0.2703   ZX=     4.8788
   XY=     0.3159   YY=    29.8415   ZY=     0.2663
   XZ=     5.2986   YZ=    -2.9336   ZZ=    26.4438
   Eigenvalues:    22.6836    29.9945    33.8359
     95  H    Isotropic =    28.9117   Anisotropy =     9.7010
   XX=    25.6317   YX=    -2.4811   ZX=    -2.2387
   XY=    -0.7230   YY=    33.3290   ZY=     4.1756
   XZ=    -1.1403   YZ=     2.4980   ZZ=    27.7744
   Eigenvalues:    24.6945    26.6615    35.3791
 End of Minotr F.D. properties file   721 does not exist.
 End of Minotr F.D. properties file   722 does not exist.
 End of Minotr F.D. properties file   788 does not exist.

 **********************************************************************

            Population analysis using the SCF Density.

 **********************************************************************

 Orbital symmetries:
       Occupied  (A) (A) (A) (A) (A) (A) (A) (A) (A) (A) (A) (A)
                 (A) (A) (A) (A) (A) (A) (A) (A) (A) (A) (A) (A)
                 (A) (A) (A) (A) (A) (A) (A) (A) (A) (A) (A) (A)
                 (A) (A) (A) (A) (A) (A) (A) (A) (A) (A) (A) (A)
                 (A) (A) (A) (A) (A) (A) (A) (A) (A) (A) (A) (A)
                 (A) (A) (A) (A) (A) (A) (A) (A) (A) (A) (A) (A)
                 (A) (A) (A) (A) (A) (A) (A) (A) (A) (A) (A) (A)
                 (A) (A) (A) (A) (A) (A) (A) (A) (A) (A) (A) (A)
                 (A) (A) (A) (A) (A) (A) (A) (A) (A) (A) (A) (A)
                 (A) (A) (A) (A) (A) (A) (A) (A) (A) (A) (A) (A)
                 (A) (A) (A) (A) (A) (A) (A) (A) (A) (A) (A) (A)
                 (A) (A) (A) (A) (A) (A) (A) (A) (A) (A) (A) (A)
                 (A) (A) (A) (A) (A) (A) (A) (A) (A) (A) (A) (A)
                 (A) (A) (A) (A) (A) (A) (A) (A) (A) (A) (A) (A)
                 (A) (A) (A) (A) (A) (A) (A) (A) (A) (A) (A)
       Virtual   (A) (A) (A) (A) (A) (A) (A) (A) (A) (A) (A) (A)
                 (A) (A) (A) (A) (A) (A) (A) (A) (A) (A) (A) (A)
                 (A) (A) (A) (A) (A) (A) (A) (A) (A) (A) (A) (A)
                 (A) (A) (A) (A) (A) (A) (A) (A) (A) (A) (A) (A)
                 (A) (A) (A) (A) (A) (A) (A) (A) (A) (A) (A) (A)
                 (A) (A) (A) (A) (A) (A) (A) (A) (A) (A) (A) (A)
                 (A) (A) (A) (A) (A) (A) (A) (A) (A) (A) (A) (A)
                 (A) (A) (A) (A) (A) (A) (A) (A) (A) (A) (A) (A)
                 (A) (A) (A) (A) (A) (A) (A) (A) (A) (A) (A) (A)
                 (A) (A) (A) (A) (A) (A) (A) (A) (A) (A) (A) (A)
                 (A) (A) (A) (A) (A) (A) (A) (A) (A) (A) (A) (A)
                 (A) (A) (A) (A) (A) (A) (A) (A) (A) (A) (A) (A)
                 (A) (A) (A) (A) (A) (A) (A) (A) (A) (A) (A) (A)
                 (A) (A) (A) (A) (A) (A) (A) (A) (A) (A) (A) (A)
                 (A) (A) (A) (A) (A) (A) (A) (A) (A) (A) (A) (A)
                 (A) (A) (A) (A) (A) (A) (A) (A) (A) (A) (A) (A)
                 (A) (A) (A) (A) (A) (A) (A) (A) (A) (A) (A) (A)
                 (A) (A) (A) (A) (A) (A) (A) (A) (A) (A) (A) (A)
                 (A) (A) (A) (A) (A) (A) (A) (A) (A) (A) (A) (A)
                 (A) (A) (A) (A) (A) (A) (A) (A) (A) (A) (A) (A)
                 (A) (A) (A) (A) (A) (A) (A) (A) (A) (A) (A) (A)
                 (A) (A) (A) (A) (A) (A) (A) (A) (A) (A) (A) (A)
                 (A) (A) (A) (A) (A) (A) (A) (A) (A) (A) (A) (A)
                 (A) (A) (A) (A) (A) (A) (A) (A) (A) (A) (A) (A)
                 (A) (A) (A) (A) (A) (A) (A) (A) (A) (A) (A) (A)
                 (A) (A) (A) (A) (A) (A) (A) (A) (A) (A) (A) (A)
                 (A) (A) (A) (A) (A) (A) (A) (A) (A) (A) (A) (A)
                 (A) (A) (A) (A) (A) (A) (A) (A) (A) (A) (A) (A)
                 (A) (A) (A) (A) (A) (A) (A) (A) (A) (A) (A) (A)
                 (A) (A) (A) (A) (A) (A) (A) (A) (A) (A) (A) (A)
                 (A) (A) (A) (A) (A) (A) (A) (A) (A) (A) (A) (A)
                 (A) (A) (A) (A) (A) (A) (A) (A) (A) (A) (A) (A)
                 (A) (A) (A) (A) (A) (A) (A) (A) (A) (A) (A) (A)
                 (A) (A) (A) (A) (A) (A) (A) (A) (A) (A) (A) (A)
                 (A) (A) (A) (A) (A) (A) (A) (A) (A) (A) (A) (A)
                 (A) (A) (A) (A) (A) (A) (A) (A) (A) (A) (A) (A)
                 (A) (A) (A) (A) (A) (A) (A) (A) (A) (A) (A) (A)
                 (A) (A) (A) (A) (A) (A) (A) (A) (A) (A) (A) (A)
                 (A) (A) (A) (A) (A) (A) (A) (A) (A) (A) (A) (A)
                 (A) (A) (A) (A) (A) (A) (A) (A) (A) (A) (A) (A)
                 (A) (A) (A) (A) (A) (A) (A) (A) (A) (A) (A) (A)
                 (A) (A) (A) (A) (A) (A) (A) (A) (A) (A) (A) (A)
                 (A) (A) (A) (A) (A) (A) (A) (A) (A) (A) (A) (A)
                 (A) (A) (A) (A) (A) (A) (A) (A) (A) (A) (A) (A)
                 (A) (A) (A) (A) (A) (A) (A) (A) (A) (A) (A) (A)
                 (A) (A) (A) (A) (A) (A) (A) (A) (A) (A) (A) (A)
                 (A) (A) (A) (A) (A) (A) (A) (A) (A) (A) (A) (A)
                 (A) (A) (A) (A) (A) (A) (A) (A) (A) (A) (A) (A)
                 (A) (A) (A) (A) (A) (A) (A) (A) (A) (A) (A) (A)
                 (A) (A) (A) (A) (A) (A) (A) (A) (A) (A) (A) (A)
                 (A) (A) (A) (A) (A) (A) (A) (A) (A) (A) (A) (A)
                 (A) (A) (A) (A) (A) (A) (A) (A) (A) (A) (A) (A)
                 (A) (A) (A) (A) (A) (A) (A) (A) (A) (A) (A) (A)
                 (A) (A) (A) (A) (A) (A) (A) (A) (A) (A) (A) (A)
                 (A) (A) (A) (A) (A) (A) (A) (A) (A) (A) (A) (A)
                 (A) (A) (A) (A) (A) (A) (A) (A) (A) (A) (A) (A)
                 (A) (A) (A) (A) (A) (A) (A) (A) (A) (A) (A) (A)
                 (A) (A) (A) (A) (A) (A) (A) (A) (A) (A) (A) (A)
                 (A) (A) (A) (A) (A) (A) (A) (A) (A) (A) (A) (A)
                 (A) (A) (A) (A) (A) (A) (A) (A) (A) (A) (A) (A)
                 (A) (A) (A) (A) (A) (A) (A) (A) (A) (A) (A) (A)
                 (A) (A) (A) (A) (A) (A) (A) (A) (A) (A) (A) (A)
                 (A) (A) (A) (A) (A) (A) (A) (A) (A) (A) (A) (A)
                 (A) (A) (A) (A) (A) (A) (A) (A) (A) (A) (A) (A)
                 (A) (A) (A) (A) (A) (A) (A) (A) (A) (A) (A) (A)
                 (A) (A) (A) (A) (A) (A) (A) (A) (A) (A) (A) (A)
                 (A) (A) (A) (A) (A) (A) (A) (A) (A) (A) (A) (A)
                 (A) (A) (A) (A) (A) (A) (A) (A) (A) (A) (A) (A)
                 (A) (A) (A) (A) (A) (A) (A) (A) (A) (A) (A) (A)
                 (A) (A) (A) (A) (A) (A) (A) (A) (A) (A) (A) (A)
                 (A) (A) (A) (A) (A) (A) (A) (A) (A) (A) (A) (A)
                 (A) (A) (A) (A) (A) (A) (A) (A) (A) (A) (A) (A)
                 (A) (A) (A) (A) (A) (A) (A) (A) (A) (A) (A) (A)
                 (A) (A) (A) (A) (A) (A) (A) (A) (A) (A) (A) (A)
                 (A) (A) (A) (A) (A) (A) (A) (A) (A) (A) (A) (A)
                 (A) (A) (A) (A) (A) (A) (A) (A) (A) (A) (A) (A)
                 (A) (A) (A) (A) (A) (A) (A) (A) (A) (A) (A) (A)
                 (A) (A) (A) (A) (A) (A) (A) (A) (A) (A) (A) (A)
                 (A) (A) (A) (A) (A) (A) (A) (A) (A) (A) (A) (A)
                 (A) (A) (A) (A) (A) (A) (A) (A) (A) (A) (A) (A)
                 (A) (A) (A) (A) (A) (A) (A) (A) (A) (A) (A) (A)
                 (A) (A) (A) (A) (A) (A) (A) (A) (A) (A) (A) (A)
                 (A) (A) (A) (A) (A) (A) (A) (A) (A) (A) (A) (A)
                 (A) (A) (A) (A) (A) (A) (A) (A) (A) (A) (A) (A)
                 (A) (A) (A) (A) (A) (A) (A) (A) (A) (A) (A) (A)
                 (A) (A) (A) (A) (A) (A) (A) (A) (A) (A) (A) (A)
                 (A) (A) (A) (A) (A) (A) (A) (A) (A) (A) (A) (A)
                 (A) (A) (A) (A) (A) (A) (A) (A) (A) (A) (A) (A)
                 (A) (A) (A) (A) (A) (A) (A) (A) (A) (A) (A) (A)
                 (A) (A) (A) (A) (A) (A) (A) (A) (A) (A) (A) (A)
                 (A) (A) (A) (A) (A) (A) (A) (A) (A) (A) (A) (A)
                 (A) (A) (A) (A) (A) (A) (A) (A) (A) (A) (A) (A)
                 (A) (A) (A) (A) (A) (A) (A) (A) (A) (A) (A) (A)
                 (A) (A) (A) (A) (A) (A) (A) (A) (A) (A) (A) (A)
                 (A) (A) (A) (A) (A) (A) (A) (A) (A) (A) (A) (A)
                 (A) (A) (A) (A) (A) (A) (A) (A) (A) (A) (A) (A)
                 (A) (A) (A) (A) (A) (A) (A) (A) (A) (A) (A) (A)
                 (A) (A) (A) (A) (A) (A) (A) (A) (A) (A) (A) (A)
                 (A) (A) (A) (A) (A) (A) (A) (A) (A) (A) (A) (A)
                 (A) (A) (A) (A) (A) (A) (A) (A) (A) (A) (A) (A)
                 (A) (A) (A) (A) (A) (A) (A) (A) (A) (A) (A) (A)
                 (A) (A) (A) (A) (A) (A) (A) (A) (A) (A) (A) (A)
                 (A) (A) (A) (A) (A) (A) (A) (A) (A) (A) (A) (A)
                 (A) (A) (A) (A) (A) (A) (A) (A) (A) (A) (A) (A)
                 (A) (A) (A) (A) (A) (A) (A) (A) (A) (A) (A) (A)
                 (A) (A) (A) (A) (A) (A) (A) (A) (A) (A) (A) (A)
                 (A) (A) (A) (A) (A) (A) (A) (A) (A) (A) (A) (A)
                 (A) (A) (A) (A) (A) (A) (A) (A) (A) (A) (A) (A)
                 (A) (A) (A) (A) (A) (A) (A) (A) (A) (A) (A) (A)
                 (A) (A) (A) (A) (A) (A) (A) (A) (A) (A) (A) (A)
                 (A) (A) (A) (A) (A) (A) (A) (A) (A) (A) (A) (A)
                 (A) (A) (A) (A) (A) (A) (A) (A) (A) (A) (A) (A)
                 (A) (A) (A) (A) (A) (A) (A) (A) (A) (A) (A) (A)
                 (A) (A) (A) (A) (A) (A) (A) (A) (A) (A) (A) (A)
                 (A) (A) (A) (A) (A) (A) (A) (A) (A) (A) (A) (A)
                 (A) (A) (A) (A) (A) (A) (A) (A) (A) (A) (A) (A)
                 (A) (A) (A) (A) (A) (A) (A) (A) (A) (A) (A) (A)
                 (A) (A) (A) (A) (A) (A) (A) (A) (A) (A) (A) (A)
                 (A) (A) (A) (A) (A) (A) (A) (A) (A) (A) (A) (A)
                 (A) (A) (A) (A) (A) (A) (A) (A) (A) (A) (A) (A)
                 (A) (A) (A) (A) (A) (A) (A) (A) (A) (A) (A) (A)
                 (A) (A) (A) (A) (A) (A) (A) (A) (A) (A) (A) (A)
                 (A) (A) (A) (A) (A) (A) (A) (A) (A) (A) (A) (A)
                 (A) (A) (A) (A) (A) (A) (A) (A) (A) (A) (A) (A)
                 (A) (A) (A) (A) (A) (A) (A) (A) (A) (A) (A) (A)
                 (A) (A) (A) (A) (A) (A) (A) (A) (A) (A) (A) (A)
                 (A) (A) (A) (A) (A) (A) (A) (A) (A) (A) (A) (A)
                 (A) (A) (A) (A) (A) (A) (A) (A) (A) (A) (A) (A)
                 (A) (A) (A) (A) (A) (A) (A) (A) (A) (A) (A) (A)
                 (A) (A) (A) (A) (A) (A) (A) (A) (A) (A) (A) (A)
                 (A) (A) (A) (A) (A) (A) (A) (A) (A) (A) (A) (A)
                 (A) (A) (A) (A) (A) (A) (A) (A) (A) (A) (A) (A)
 The electronic state is 1-A.
 Alpha  occ. eigenvalues --  -89.03631 -77.19978 -77.18669 -10.25759 -10.25352
 Alpha  occ. eigenvalues --  -10.24177 -10.23891 -10.23881 -10.23781 -10.23723
 Alpha  occ. eigenvalues --  -10.23635 -10.23601 -10.23545 -10.23500 -10.23472
 Alpha  occ. eigenvalues --  -10.23445 -10.23437 -10.23412 -10.23338 -10.23306
 Alpha  occ. eigenvalues --  -10.23295 -10.23286 -10.23196 -10.23195 -10.23081
 Alpha  occ. eigenvalues --  -10.22901 -10.22641 -10.22636 -10.22538 -10.22459
 Alpha  occ. eigenvalues --  -10.22118 -10.21908 -10.21904 -10.21891 -10.21872
 Alpha  occ. eigenvalues --  -10.21819 -10.21803 -10.21802 -10.21753 -10.21704
 Alpha  occ. eigenvalues --  -10.21659 -10.21625 -10.20943 -10.20844 -10.20706
 Alpha  occ. eigenvalues --  -10.20605 -10.20328  -8.01462  -6.59511  -6.58298
 Alpha  occ. eigenvalues --   -5.95042  -5.94710  -5.94483  -4.73109  -4.73094
 Alpha  occ. eigenvalues --   -4.72649  -4.71889  -4.71876  -4.71453  -0.91000
 Alpha  occ. eigenvalues --   -0.89376  -0.88394  -0.87829  -0.87709  -0.87351
 Alpha  occ. eigenvalues --   -0.80348  -0.79829  -0.79784  -0.79688  -0.78816
 Alpha  occ. eigenvalues --   -0.77984  -0.77297  -0.77047  -0.76870  -0.76678
 Alpha  occ. eigenvalues --   -0.76608  -0.76458  -0.74219  -0.72256  -0.70751
 Alpha  occ. eigenvalues --   -0.70435  -0.69545  -0.69424  -0.69172  -0.68708
 Alpha  occ. eigenvalues --   -0.66875  -0.66318  -0.64749  -0.62934  -0.62795
 Alpha  occ. eigenvalues --   -0.62167  -0.61617  -0.59851  -0.59212  -0.58427
 Alpha  occ. eigenvalues --   -0.58117  -0.58000  -0.55329  -0.54794  -0.54186
 Alpha  occ. eigenvalues --   -0.53171  -0.52523  -0.51484  -0.50648  -0.50419
 Alpha  occ. eigenvalues --   -0.49561  -0.48414  -0.48074  -0.47730  -0.47294
 Alpha  occ. eigenvalues --   -0.47217  -0.46792  -0.46651  -0.46220  -0.46029
 Alpha  occ. eigenvalues --   -0.44611  -0.44579  -0.43927  -0.43901  -0.43649
 Alpha  occ. eigenvalues --   -0.43418  -0.43254  -0.43118  -0.43094  -0.42443
 Alpha  occ. eigenvalues --   -0.42282  -0.42040  -0.42002  -0.41757  -0.41467
 Alpha  occ. eigenvalues --   -0.41059  -0.40856  -0.40769  -0.40692  -0.40361
 Alpha  occ. eigenvalues --   -0.40166  -0.40154  -0.39819  -0.39605  -0.38803
 Alpha  occ. eigenvalues --   -0.38602  -0.38306  -0.38227  -0.38008  -0.37947
 Alpha  occ. eigenvalues --   -0.37685  -0.36925  -0.36676  -0.36668  -0.36088
 Alpha  occ. eigenvalues --   -0.35771  -0.35436  -0.34839  -0.34556  -0.34419
 Alpha  occ. eigenvalues --   -0.34237  -0.34177  -0.33686  -0.33555  -0.33444
 Alpha  occ. eigenvalues --   -0.33203  -0.32821  -0.32505  -0.31436  -0.30665
 Alpha  occ. eigenvalues --   -0.29246  -0.28284  -0.27607  -0.27196  -0.26990
 Alpha  occ. eigenvalues --   -0.26573  -0.26345  -0.25482  -0.24524  -0.24094
 Alpha  occ. eigenvalues --   -0.23745  -0.22457  -0.21142  -0.18492
 Alpha virt. eigenvalues --   -0.03336  -0.03006  -0.02497  -0.01873  -0.01470
 Alpha virt. eigenvalues --   -0.00793  -0.00705  -0.00261   0.00423   0.00846
 Alpha virt. eigenvalues --    0.02703   0.03481   0.04242   0.04728   0.04990
 Alpha virt. eigenvalues --    0.05392   0.05829   0.06191   0.06526   0.06550
 Alpha virt. eigenvalues --    0.07064   0.07213   0.07447   0.08052   0.08333
 Alpha virt. eigenvalues --    0.08484   0.08716   0.08913   0.09174   0.09221
 Alpha virt. eigenvalues --    0.09627   0.09915   0.09955   0.10323   0.10493
 Alpha virt. eigenvalues --    0.10527   0.10907   0.10955   0.11238   0.11455
 Alpha virt. eigenvalues --    0.11883   0.11960   0.12215   0.12445   0.12619
 Alpha virt. eigenvalues --    0.12838   0.13112   0.13277   0.13458   0.13506
 Alpha virt. eigenvalues --    0.13933   0.14139   0.14213   0.14329   0.14340
 Alpha virt. eigenvalues --    0.14734   0.14807   0.15282   0.15411   0.15439
 Alpha virt. eigenvalues --    0.15729   0.16082   0.16168   0.16341   0.16525
 Alpha virt. eigenvalues --    0.16608   0.16753   0.16998   0.17235   0.17618
 Alpha virt. eigenvalues --    0.17649   0.17940   0.18004   0.18286   0.18350
 Alpha virt. eigenvalues --    0.18503   0.19018   0.19139   0.19265   0.19638
 Alpha virt. eigenvalues --    0.19759   0.20036   0.20432   0.20899   0.21121
 Alpha virt. eigenvalues --    0.21258   0.21435   0.21650   0.21793   0.22015
 Alpha virt. eigenvalues --    0.22299   0.22383   0.22526   0.22660   0.23118
 Alpha virt. eigenvalues --    0.23172   0.23426   0.23445   0.23783   0.23930
 Alpha virt. eigenvalues --    0.24124   0.24403   0.24613   0.24735   0.24877
 Alpha virt. eigenvalues --    0.25046   0.25338   0.25641   0.25780   0.26265
 Alpha virt. eigenvalues --    0.26475   0.26674   0.27029   0.27157   0.27384
 Alpha virt. eigenvalues --    0.27871   0.28003   0.28294   0.28494   0.28630
 Alpha virt. eigenvalues --    0.29128   0.29201   0.29294   0.29691   0.29823
 Alpha virt. eigenvalues --    0.30307   0.30375   0.30468   0.30696   0.30981
 Alpha virt. eigenvalues --    0.31224   0.31643   0.31790   0.31917   0.32260
 Alpha virt. eigenvalues --    0.32335   0.32584   0.32871   0.32913   0.33169
 Alpha virt. eigenvalues --    0.33493   0.33500   0.33810   0.34247   0.34355
 Alpha virt. eigenvalues --    0.34575   0.34650   0.35175   0.35262   0.35375
 Alpha virt. eigenvalues --    0.35646   0.35828   0.35890   0.36201   0.36371
 Alpha virt. eigenvalues --    0.36515   0.36792   0.36977   0.37251   0.37411
 Alpha virt. eigenvalues --    0.37664   0.37814   0.38062   0.38107   0.38314
 Alpha virt. eigenvalues --    0.38659   0.38954   0.39101   0.39376   0.39514
 Alpha virt. eigenvalues --    0.39785   0.39928   0.39981   0.40078   0.40353
 Alpha virt. eigenvalues --    0.40561   0.40917   0.40995   0.41113   0.41288
 Alpha virt. eigenvalues --    0.41456   0.41872   0.42024   0.42201   0.42516
 Alpha virt. eigenvalues --    0.42781   0.42818   0.43112   0.43249   0.43404
 Alpha virt. eigenvalues --    0.43531   0.43647   0.44036   0.44180   0.44417
 Alpha virt. eigenvalues --    0.44501   0.44526   0.44856   0.44875   0.44929
 Alpha virt. eigenvalues --    0.45051   0.45365   0.45461   0.45612   0.45950
 Alpha virt. eigenvalues --    0.46194   0.46423   0.46444   0.46739   0.46857
 Alpha virt. eigenvalues --    0.46924   0.47128   0.47346   0.47435   0.47525
 Alpha virt. eigenvalues --    0.47738   0.48045   0.48172   0.48447   0.48516
 Alpha virt. eigenvalues --    0.48610   0.48736   0.49043   0.49145   0.49470
 Alpha virt. eigenvalues --    0.49548   0.49692   0.49875   0.49954   0.50266
 Alpha virt. eigenvalues --    0.50523   0.50610   0.50734   0.50945   0.51261
 Alpha virt. eigenvalues --    0.51289   0.51600   0.51688   0.51931   0.52078
 Alpha virt. eigenvalues --    0.52281   0.52447   0.52966   0.53054   0.53147
 Alpha virt. eigenvalues --    0.53359   0.53420   0.53632   0.54168   0.54615
 Alpha virt. eigenvalues --    0.54707   0.54799   0.55119   0.55233   0.55504
 Alpha virt. eigenvalues --    0.55807   0.56154   0.56235   0.56719   0.56966
 Alpha virt. eigenvalues --    0.57098   0.57301   0.57701   0.57860   0.58201
 Alpha virt. eigenvalues --    0.58265   0.58609   0.58790   0.58938   0.58997
 Alpha virt. eigenvalues --    0.59197   0.60066   0.60202   0.60527   0.60644
 Alpha virt. eigenvalues --    0.60870   0.60980   0.61317   0.61412   0.61674
 Alpha virt. eigenvalues --    0.61869   0.62445   0.62583   0.62738   0.62821
 Alpha virt. eigenvalues --    0.63534   0.63603   0.63909   0.64057   0.64531
 Alpha virt. eigenvalues --    0.64728   0.64939   0.65842   0.66059   0.66181
 Alpha virt. eigenvalues --    0.66472   0.66747   0.67022   0.67086   0.67542
 Alpha virt. eigenvalues --    0.67820   0.68130   0.68527   0.68684   0.68832
 Alpha virt. eigenvalues --    0.68969   0.69266   0.69364   0.69740   0.69774
 Alpha virt. eigenvalues --    0.70162   0.70473   0.70592   0.71081   0.71184
 Alpha virt. eigenvalues --    0.71350   0.71785   0.71946   0.71990   0.72582
 Alpha virt. eigenvalues --    0.72671   0.72773   0.73372   0.73636   0.73781
 Alpha virt. eigenvalues --    0.74135   0.74263   0.74469   0.75056   0.75358
 Alpha virt. eigenvalues --    0.75425   0.75681   0.75877   0.76552   0.76941
 Alpha virt. eigenvalues --    0.77237   0.77333   0.77444   0.77637   0.78125
 Alpha virt. eigenvalues --    0.78270   0.78580   0.78991   0.79358   0.79655
 Alpha virt. eigenvalues --    0.79883   0.80420   0.80644   0.80948   0.81225
 Alpha virt. eigenvalues --    0.81452   0.81832   0.82150   0.82576   0.82635
 Alpha virt. eigenvalues --    0.82748   0.83021   0.83462   0.83694   0.83891
 Alpha virt. eigenvalues --    0.84284   0.84687   0.84858   0.85102   0.85214
 Alpha virt. eigenvalues --    0.85760   0.85908   0.86108   0.86609   0.86716
 Alpha virt. eigenvalues --    0.86832   0.87374   0.87506   0.87616   0.88077
 Alpha virt. eigenvalues --    0.88221   0.88440   0.88886   0.89282   0.89519
 Alpha virt. eigenvalues --    0.89787   0.89872   0.90296   0.90690   0.90777
 Alpha virt. eigenvalues --    0.91228   0.91875   0.92173   0.92386   0.92587
 Alpha virt. eigenvalues --    0.92796   0.93214   0.93586   0.93800   0.94032
 Alpha virt. eigenvalues --    0.94276   0.94602   0.95237   0.95566   0.96261
 Alpha virt. eigenvalues --    0.96520   0.96679   0.96683   0.97142   0.97531
 Alpha virt. eigenvalues --    0.98268   0.98735   0.98824   0.99043   0.99500
 Alpha virt. eigenvalues --    0.99799   1.00014   1.00341   1.00553   1.01080
 Alpha virt. eigenvalues --    1.01281   1.01675   1.02047   1.02473   1.02910
 Alpha virt. eigenvalues --    1.03221   1.03523   1.03761   1.04059   1.04182
 Alpha virt. eigenvalues --    1.04837   1.05160   1.05423   1.06256   1.06367
 Alpha virt. eigenvalues --    1.06892   1.06963   1.07286   1.07422   1.07677
 Alpha virt. eigenvalues --    1.07922   1.08410   1.08905   1.08975   1.09494
 Alpha virt. eigenvalues --    1.09570   1.09789   1.10108   1.10346   1.10827
 Alpha virt. eigenvalues --    1.11026   1.11186   1.11356   1.12034   1.12285
 Alpha virt. eigenvalues --    1.12726   1.13161   1.13261   1.13429   1.14101
 Alpha virt. eigenvalues --    1.14278   1.14399   1.14936   1.15312   1.15825
 Alpha virt. eigenvalues --    1.16105   1.16377   1.16457   1.16788   1.17263
 Alpha virt. eigenvalues --    1.17546   1.17782   1.17966   1.18326   1.18717
 Alpha virt. eigenvalues --    1.18771   1.18966   1.19445   1.19747   1.19966
 Alpha virt. eigenvalues --    1.20191   1.20773   1.21071   1.21319   1.21533
 Alpha virt. eigenvalues --    1.21936   1.22477   1.22740   1.23427   1.23805
 Alpha virt. eigenvalues --    1.24000   1.24281   1.24483   1.24888   1.25010
 Alpha virt. eigenvalues --    1.25353   1.25645   1.25990   1.26151   1.26443
 Alpha virt. eigenvalues --    1.27003   1.27181   1.27731   1.27860   1.28087
 Alpha virt. eigenvalues --    1.28624   1.29146   1.29201   1.29727   1.30005
 Alpha virt. eigenvalues --    1.30445   1.30679   1.30894   1.31074   1.31238
 Alpha virt. eigenvalues --    1.31774   1.32210   1.32473   1.32926   1.33018
 Alpha virt. eigenvalues --    1.33171   1.33274   1.33725   1.34179   1.34330
 Alpha virt. eigenvalues --    1.34934   1.35207   1.35557   1.35699   1.36320
 Alpha virt. eigenvalues --    1.36645   1.36878   1.37623   1.37769   1.38324
 Alpha virt. eigenvalues --    1.38670   1.38928   1.39085   1.39946   1.39987
 Alpha virt. eigenvalues --    1.40299   1.40879   1.40986   1.41027   1.41890
 Alpha virt. eigenvalues --    1.42081   1.42451   1.42689   1.43380   1.43633
 Alpha virt. eigenvalues --    1.44117   1.44763   1.45188   1.45291   1.45884
 Alpha virt. eigenvalues --    1.46204   1.46675   1.46939   1.47172   1.47900
 Alpha virt. eigenvalues --    1.47931   1.48502   1.48748   1.49412   1.49773
 Alpha virt. eigenvalues --    1.49980   1.50312   1.50472   1.51312   1.51417
 Alpha virt. eigenvalues --    1.51695   1.52132   1.52242   1.52509   1.52922
 Alpha virt. eigenvalues --    1.53145   1.53424   1.53772   1.53987   1.54325
 Alpha virt. eigenvalues --    1.54368   1.54558   1.54780   1.55094   1.55255
 Alpha virt. eigenvalues --    1.55456   1.55591   1.55981   1.56110   1.56369
 Alpha virt. eigenvalues --    1.56780   1.57028   1.57266   1.57536   1.57714
 Alpha virt. eigenvalues --    1.58168   1.58341   1.58834   1.58989   1.59200
 Alpha virt. eigenvalues --    1.59380   1.59554   1.59844   1.60412   1.60572
 Alpha virt. eigenvalues --    1.60859   1.61015   1.61249   1.61709   1.61778
 Alpha virt. eigenvalues --    1.62038   1.62156   1.62441   1.62671   1.63122
 Alpha virt. eigenvalues --    1.63444   1.63654   1.64016   1.64187   1.64619
 Alpha virt. eigenvalues --    1.64768   1.64812   1.65161   1.65286   1.65684
 Alpha virt. eigenvalues --    1.66407   1.66455   1.66669   1.67055   1.67253
 Alpha virt. eigenvalues --    1.67777   1.67957   1.68257   1.68545   1.68843
 Alpha virt. eigenvalues --    1.69336   1.69501   1.69849   1.69894   1.70140
 Alpha virt. eigenvalues --    1.70517   1.70694   1.70897   1.71274   1.71549
 Alpha virt. eigenvalues --    1.71766   1.71923   1.72256   1.72537   1.72900
 Alpha virt. eigenvalues --    1.73169   1.73597   1.73834   1.74183   1.74251
 Alpha virt. eigenvalues --    1.74500   1.74865   1.75032   1.75364   1.75579
 Alpha virt. eigenvalues --    1.75892   1.76156   1.76253   1.76908   1.77071
 Alpha virt. eigenvalues --    1.77503   1.77573   1.78220   1.78382   1.78549
 Alpha virt. eigenvalues --    1.78998   1.79406   1.79685   1.80074   1.80206
 Alpha virt. eigenvalues --    1.80564   1.81018   1.81497   1.81833   1.81973
 Alpha virt. eigenvalues --    1.82410   1.82727   1.83670   1.84036   1.84309
 Alpha virt. eigenvalues --    1.85412   1.85540   1.85702   1.86193   1.86397
 Alpha virt. eigenvalues --    1.87117   1.87443   1.87630   1.88131   1.88617
 Alpha virt. eigenvalues --    1.89173   1.89371   1.89543   1.90126   1.90326
 Alpha virt. eigenvalues --    1.90399   1.90939   1.91615   1.91726   1.92114
 Alpha virt. eigenvalues --    1.92660   1.92940   1.93343   1.93872   1.94802
 Alpha virt. eigenvalues --    1.94829   1.94981   1.95540   1.95950   1.96689
 Alpha virt. eigenvalues --    1.97130   1.97263   1.97422   1.98493   1.98659
 Alpha virt. eigenvalues --    1.98782   1.99214   1.99430   1.99920   2.00330
 Alpha virt. eigenvalues --    2.00457   2.00672   2.00957   2.01213   2.01734
 Alpha virt. eigenvalues --    2.02076   2.02300   2.02374   2.02841   2.03361
 Alpha virt. eigenvalues --    2.03457   2.03693   2.04062   2.04376   2.04507
 Alpha virt. eigenvalues --    2.05059   2.05082   2.05615   2.06118   2.06436
 Alpha virt. eigenvalues --    2.06595   2.07171   2.07418   2.07841   2.08165
 Alpha virt. eigenvalues --    2.08384   2.08504   2.09018   2.09307   2.09901
 Alpha virt. eigenvalues --    2.10050   2.10188   2.10606   2.11064   2.11434
 Alpha virt. eigenvalues --    2.11835   2.11932   2.12335   2.12784   2.13010
 Alpha virt. eigenvalues --    2.13196   2.13785   2.14183   2.14456   2.14691
 Alpha virt. eigenvalues --    2.14898   2.15259   2.15505   2.16279   2.16409
 Alpha virt. eigenvalues --    2.16550   2.16788   2.17846   2.18086   2.18415
 Alpha virt. eigenvalues --    2.18797   2.18992   2.19363   2.19658   2.19825
 Alpha virt. eigenvalues --    2.20089   2.20528   2.20899   2.21467   2.21787
 Alpha virt. eigenvalues --    2.22211   2.23015   2.23209   2.23509   2.23894
 Alpha virt. eigenvalues --    2.24003   2.24535   2.24716   2.25076   2.25483
 Alpha virt. eigenvalues --    2.25687   2.26013   2.26561   2.27308   2.27921
 Alpha virt. eigenvalues --    2.28256   2.28586   2.29247   2.29776   2.29845
 Alpha virt. eigenvalues --    2.30440   2.30590   2.31050   2.31389   2.31731
 Alpha virt. eigenvalues --    2.31876   2.32144   2.32397   2.32671   2.33026
 Alpha virt. eigenvalues --    2.33525   2.33978   2.34319   2.34624   2.35530
 Alpha virt. eigenvalues --    2.35817   2.36067   2.36518   2.36964   2.37263
 Alpha virt. eigenvalues --    2.37455   2.37857   2.38157   2.38855   2.39200
 Alpha virt. eigenvalues --    2.39347   2.39745   2.40152   2.40597   2.40861
 Alpha virt. eigenvalues --    2.41646   2.41879   2.42232   2.42424   2.42755
 Alpha virt. eigenvalues --    2.43073   2.43105   2.43538   2.43808   2.44122
 Alpha virt. eigenvalues --    2.44753   2.44974   2.45468   2.45518   2.46115
 Alpha virt. eigenvalues --    2.46205   2.46407   2.46977   2.47230   2.47499
 Alpha virt. eigenvalues --    2.47885   2.47980   2.48269   2.49012   2.49505
 Alpha virt. eigenvalues --    2.49580   2.50068   2.50747   2.50962   2.51346
 Alpha virt. eigenvalues --    2.52018   2.52184   2.52398   2.52816   2.53102
 Alpha virt. eigenvalues --    2.53383   2.53671   2.53832   2.54133   2.54537
 Alpha virt. eigenvalues --    2.54897   2.55198   2.55719   2.55959   2.56209
 Alpha virt. eigenvalues --    2.56490   2.56728   2.57166   2.57468   2.57652
 Alpha virt. eigenvalues --    2.57916   2.58484   2.58667   2.59151   2.59429
 Alpha virt. eigenvalues --    2.59944   2.60000   2.60414   2.60562   2.61059
 Alpha virt. eigenvalues --    2.61333   2.61852   2.62156   2.62315   2.62392
 Alpha virt. eigenvalues --    2.62692   2.63087   2.63419   2.64100   2.64383
 Alpha virt. eigenvalues --    2.64758   2.65116   2.65280   2.65399   2.65642
 Alpha virt. eigenvalues --    2.65812   2.66207   2.66579   2.66720   2.66730
 Alpha virt. eigenvalues --    2.67094   2.67321   2.67543   2.67868   2.68183
 Alpha virt. eigenvalues --    2.68386   2.68848   2.68936   2.69067   2.69174
 Alpha virt. eigenvalues --    2.69568   2.69828   2.70019   2.70218   2.70384
 Alpha virt. eigenvalues --    2.70746   2.70933   2.71122   2.71496   2.71909
 Alpha virt. eigenvalues --    2.72244   2.72468   2.72687   2.72804   2.73600
 Alpha virt. eigenvalues --    2.73741   2.74073   2.74135   2.74597   2.75064
 Alpha virt. eigenvalues --    2.75262   2.75582   2.75785   2.76195   2.76410
 Alpha virt. eigenvalues --    2.76881   2.76921   2.77684   2.78348   2.78687
 Alpha virt. eigenvalues --    2.78730   2.78956   2.79072   2.79467   2.79698
 Alpha virt. eigenvalues --    2.79861   2.80143   2.80602   2.80813   2.81054
 Alpha virt. eigenvalues --    2.81623   2.82227   2.82640   2.82928   2.83407
 Alpha virt. eigenvalues --    2.83657   2.83760   2.84187   2.84276   2.85004
 Alpha virt. eigenvalues --    2.85351   2.85430   2.85690   2.86195   2.86625
 Alpha virt. eigenvalues --    2.86725   2.86978   2.87318   2.87446   2.87867
 Alpha virt. eigenvalues --    2.87976   2.88434   2.88763   2.89143   2.89400
 Alpha virt. eigenvalues --    2.89729   2.89793   2.90195   2.90535   2.90743
 Alpha virt. eigenvalues --    2.90917   2.91318   2.91652   2.92197   2.92380
 Alpha virt. eigenvalues --    2.92415   2.92923   2.93397   2.93720   2.93845
 Alpha virt. eigenvalues --    2.94422   2.94775   2.94992   2.95569   2.95656
 Alpha virt. eigenvalues --    2.96341   2.96504   2.96919   2.97070   2.97257
 Alpha virt. eigenvalues --    2.97304   2.97963   2.98178   2.99089   2.99405
 Alpha virt. eigenvalues --    2.99630   2.99787   3.00429   3.00763   3.01079
 Alpha virt. eigenvalues --    3.01121   3.01745   3.02305   3.02548   3.02779
 Alpha virt. eigenvalues --    3.03165   3.03366   3.03804   3.04912   3.05205
 Alpha virt. eigenvalues --    3.05707   3.06117   3.06263   3.06530   3.07014
 Alpha virt. eigenvalues --    3.07190   3.07918   3.08079   3.08368   3.08699
 Alpha virt. eigenvalues --    3.08948   3.09210   3.09627   3.10064   3.10450
 Alpha virt. eigenvalues --    3.10992   3.11228   3.11524   3.11703   3.12259
 Alpha virt. eigenvalues --    3.13089   3.13264   3.13339   3.13586   3.13838
 Alpha virt. eigenvalues --    3.14186   3.14404   3.14591   3.14896   3.15434
 Alpha virt. eigenvalues --    3.15595   3.15829   3.16056   3.16402   3.16909
 Alpha virt. eigenvalues --    3.17102   3.17339   3.17631   3.17806   3.18302
 Alpha virt. eigenvalues --    3.18370   3.18523   3.18838   3.19069   3.19325
 Alpha virt. eigenvalues --    3.19701   3.20041   3.20277   3.20537   3.20852
 Alpha virt. eigenvalues --    3.21277   3.21517   3.21849   3.22009   3.22196
 Alpha virt. eigenvalues --    3.22504   3.23170   3.23476   3.23735   3.24108
 Alpha virt. eigenvalues --    3.24268   3.24309   3.25036   3.25449   3.25559
 Alpha virt. eigenvalues --    3.25801   3.26139   3.26279   3.26567   3.26809
 Alpha virt. eigenvalues --    3.27252   3.27542   3.27755   3.27844   3.28138
 Alpha virt. eigenvalues --    3.28382   3.28583   3.28776   3.29319   3.29504
 Alpha virt. eigenvalues --    3.29779   3.30082   3.30232   3.30595   3.30621
 Alpha virt. eigenvalues --    3.31152   3.31279   3.31408   3.31657   3.31895
 Alpha virt. eigenvalues --    3.32184   3.32658   3.32687   3.33241   3.33403
 Alpha virt. eigenvalues --    3.33619   3.33694   3.33851   3.34490   3.34563
 Alpha virt. eigenvalues --    3.35016   3.35155   3.35425   3.35595   3.35713
 Alpha virt. eigenvalues --    3.35771   3.35956   3.36179   3.36579   3.36755
 Alpha virt. eigenvalues --    3.36994   3.37498   3.37682   3.37801   3.38175
 Alpha virt. eigenvalues --    3.38448   3.38783   3.39000   3.39573   3.39725
 Alpha virt. eigenvalues --    3.39921   3.40388   3.40512   3.40674   3.41021
 Alpha virt. eigenvalues --    3.41286   3.41716   3.42326   3.42366   3.42734
 Alpha virt. eigenvalues --    3.42882   3.43026   3.43204   3.43376   3.44070
 Alpha virt. eigenvalues --    3.44166   3.44254   3.44416   3.45004   3.45098
 Alpha virt. eigenvalues --    3.45461   3.45634   3.45991   3.46201   3.46618
 Alpha virt. eigenvalues --    3.46739   3.47065   3.47197   3.47417   3.48274
 Alpha virt. eigenvalues --    3.48427   3.48584   3.48812   3.49228   3.49756
 Alpha virt. eigenvalues --    3.49949   3.50192   3.50571   3.50806   3.51042
 Alpha virt. eigenvalues --    3.51345   3.51405   3.51670   3.51951   3.52403
 Alpha virt. eigenvalues --    3.52786   3.53068   3.53141   3.53679   3.53890
 Alpha virt. eigenvalues --    3.54339   3.54703   3.55099   3.55183   3.55393
 Alpha virt. eigenvalues --    3.55681   3.55937   3.56474   3.56978   3.57124
 Alpha virt. eigenvalues --    3.57506   3.57714   3.58011   3.58342   3.58810
 Alpha virt. eigenvalues --    3.59554   3.60074   3.60408   3.60770   3.61267
 Alpha virt. eigenvalues --    3.61531   3.61948   3.62362   3.62609   3.63168
 Alpha virt. eigenvalues --    3.63743   3.64099   3.64471   3.64646   3.65166
 Alpha virt. eigenvalues --    3.65353   3.66037   3.66323   3.66908   3.67136
 Alpha virt. eigenvalues --    3.67461   3.67605   3.67910   3.68532   3.68594
 Alpha virt. eigenvalues --    3.69518   3.70200   3.70347   3.70747   3.71146
 Alpha virt. eigenvalues --    3.71640   3.71750   3.72290   3.72424   3.73014
 Alpha virt. eigenvalues --    3.73314   3.73650   3.74196   3.74435   3.74749
 Alpha virt. eigenvalues --    3.74963   3.75295   3.75482   3.75858   3.76147
 Alpha virt. eigenvalues --    3.76629   3.76790   3.76898   3.77099   3.77740
 Alpha virt. eigenvalues --    3.78052   3.78107   3.78536   3.79565   3.79720
 Alpha virt. eigenvalues --    3.80098   3.80566   3.81239   3.81640   3.82016
 Alpha virt. eigenvalues --    3.83030   3.83270   3.83548   3.84152   3.84849
[...]
  1568. RY*(   1) H  80                  0.00108     0.80535   
  1569. RY*(   2) H  80                  0.00021     2.46783   
  1570. RY*(   3) H  80                  0.00013     2.54742   
  1571. RY*(   4) H  80                  0.00007     2.71093   
  1572. RY*(   5) H  80                  0.00001     2.89351   
  1573. RY*(   1) H  81                  0.00058     0.92566   
  1574. RY*(   2) H  81                  0.00017     2.46008   
  1575. RY*(   3) H  81                  0.00013     2.53259   
  1576. RY*(   4) H  81                  0.00011     2.00681   
  1577. RY*(   5) H  81                  0.00001     2.97090   
  1578. RY*(   1) H  82                  0.00061     1.89211   
  1579. RY*(   2) H  82                  0.00015     2.61537   
  1580. RY*(   3) H  82                  0.00013     2.54821   
  1581. RY*(   4) H  82                  0.00008     1.65069   
  1582. RY*(   5) H  82                  0.00001     2.84283   
  1583. RY*(   1) H  83                  0.00156     0.99510   
  1584. RY*(   2) H  83                  0.00022     2.77769   
  1585. RY*(   3) H  83                  0.00016     2.65707   
  1586. RY*(   4) H  83                  0.00013     2.59417   
  1587. RY*(   5) H  83                  0.00002     3.32539   
  1588. RY*(   1) H  84                  0.00048     0.87020   
  1589. RY*(   2) H  84                  0.00020     1.76477   
  1590. RY*(   3) H  84                  0.00010     2.17760   
  1591. RY*(   4) H  84                  0.00006     2.30307   
  1592. RY*(   5) H  84                  0.00002     2.99252   
  1593. RY*(   1) H  85                  0.00057     0.85785   
  1594. RY*(   2) H  85                  0.00015     1.99816   
  1595. RY*(   3) H  85                  0.00010     2.16015   
  1596. RY*(   4) H  85                  0.00006     2.39013   
  1597. RY*(   5) H  85                  0.00001     3.02857   
  1598. RY*(   1) H  86                  0.00052     0.87818   
  1599. RY*(   2) H  86                  0.00020     1.75330   
  1600. RY*(   3) H  86                  0.00010     2.17143   
  1601. RY*(   4) H  86                  0.00006     2.27984   
  1602. RY*(   5) H  86                  0.00002     2.99235   
  1603. RY*(   1) H  87                  0.00050     0.93647   
  1604. RY*(   2) H  87                  0.00020     1.68031   
  1605. RY*(   3) H  87                  0.00010     2.16228   
  1606. RY*(   4) H  87                  0.00006     2.29383   
  1607. RY*(   5) H  87                  0.00002     2.99535   
  1608. RY*(   1) H  88                  0.00050     0.96782   
  1609. RY*(   2) H  88                  0.00020     1.65780   
  1610. RY*(   3) H  88                  0.00010     2.16552   
  1611. RY*(   4) H  88                  0.00006     2.29665   
  1612. RY*(   5) H  88                  0.00002     2.98915   
  1613. RY*(   1) H  89                  0.00039     1.00118   
  1614. RY*(   2) H  89                  0.00017     1.60992   
  1615. RY*(   3) H  89                  0.00010     2.15773   
  1616. RY*(   4) H  89                  0.00006     2.40958   
  1617. RY*(   5) H  89                  0.00001     3.01158   
  1618. RY*(   1) H  90                  0.00046     0.97102   
  1619. RY*(   2) H  90                  0.00017     1.77487   
  1620. RY*(   3) H  90                  0.00010     2.19729   
  1621. RY*(   4) H  90                  0.00006     2.42995   
  1622. RY*(   5) H  90                  0.00001     2.95261   
  1623. RY*(   1) H  91                  0.00117     0.86330   
  1624. RY*(   2) H  91                  0.00018     1.85559   
  1625. RY*(   3) H  91                  0.00010     2.20615   
  1626. RY*(   4) H  91                  0.00007     2.32768   
  1627. RY*(   5) H  91                  0.00003     3.05242   
  1628. RY*(   1) H  92                  0.00046     0.89234   
  1629. RY*(   2) H  92                  0.00018     1.76670   
  1630. RY*(   3) H  92                  0.00010     2.23259   
  1631. RY*(   4) H  92                  0.00006     2.35962   
  1632. RY*(   5) H  92                  0.00002     2.99279   
  1633. RY*(   1) H  93                  0.00039     1.07039   
  1634. RY*(   2) H  93                  0.00015     1.60678   
  1635. RY*(   3) H  93                  0.00010     2.18418   
  1636. RY*(   4) H  93                  0.00006     2.42818   
  1637. RY*(   5) H  93                  0.00001     2.98363   
  1638. RY*(   1) H  94                  0.00078     1.03926   
  1639. RY*(   2) H  94                  0.00015     2.04281   
  1640. RY*(   3) H  94                  0.00009     2.22302   
  1641. RY*(   4) H  94                  0.00007     2.40381   
  1642. RY*(   5) H  94                  0.00002     3.06324   
  1643. RY*(   1) H  95                  0.00057     0.85780   
  1644. RY*(   2) H  95                  0.00017     1.75575   
  1645. RY*(   3) H  95                  0.00010     2.18690   
  1646. RY*(   4) H  95                  0.00006     2.32272   
  1647. RY*(   5) H  95                  0.00001     2.98254   
  1648. BD*(   1) C   1 - C   2          0.02971     0.54330   
  1649. BD*(   1) C   1 - C   6          0.02037     0.55336   
  1650. BD*(   2) C   1 - C   6          0.35483     0.04160  1658(v),1653(v),1664(r)
                                                    312(g),1666(v)
  1651. BD*(   1) C   1 - P  41          0.05257     0.25345   
  1652. BD*(   1) C   2 - C   3          0.02596     0.55924   
  1653. BD*(   2) C   2 - C   3          0.32927     0.05018  1658(v),1650(v),1675(r)
                                                    1754(v),1752(v),208(g)
  1654. BD*(   1) C   2 - H  44          0.01747     0.43111   
  1655. BD*(   1) C   3 - C   4          0.02239     0.54244   
  1656. BD*(   1) C   3 - C  45          0.01462     0.39525   
  1657. BD*(   1) C   4 - C   5          0.02108     0.55129   
  1658. BD*(   2) C   4 - C   5          0.33520     0.04506  1650(v),1653(v),260(g)
                                                    1755(v),1756(v)
  1659. BD*(   1) C   4 - H  46          0.01540     0.40250   
  1660. BD*(   1) C   5 - C   6          0.02432     0.54352   
  1661. BD*(   1) C   5 - C  47          0.01374     0.39703   
  1662. BD*(   1) C   6 - H  48          0.01745     0.41121   
  1663. BD*(   1) C   7 - C   8          0.02222     0.55133   
  1664. BD*(   2) C   7 - C   8          0.36100     0.04380  1670(v),1675(v),1707(r)
                                                    1650(r),1712(r),1651(v)
                                                    363(g),364(g),1681(v)
  1665. BD*(   1) C   7 - C  12          0.03147     0.54948   
  1666. BD*(   1) C   7 - P  41          0.04087     0.24455   
  1667. BD*(   1) C   8 - C   9          0.02635     0.54762   
  1668. BD*(   1) C   8 - H  49          0.01868     0.41830   
  1669. BD*(   1) C   9 - C  10          0.02173     0.55169   
  1670. BD*(   2) C   9 - C  10          0.33851     0.04608  1664(v),1675(v),416(g)
                                                    1760(v),1759(v)
  1671. BD*(   1) C   9 - C  50          0.01433     0.39478   
  1672. BD*(   1) C  10 - C  11          0.02278     0.54385   
  1673. BD*(   1) C  10 - H  51          0.01552     0.40845   
  1674. BD*(   1) C  11 - C  12          0.02561     0.55649   
  1675. BD*(   2) C  11 - C  12          0.32142     0.05276  1670(v),1664(v),1653(r)
                                                    1762(v),467(g),1763(v)
  1676. BD*(   1) C  11 - C  52          0.01462     0.39768   
  1677. BD*(   1) C  12 - H  53          0.01778     0.42209   
  1678. BD*(   1) C  13 - C  14          0.02808     0.37867   
  1679. BD*(   1) C  13 - C  17          0.02994     0.58996   
  1680. BD*(   2) C  13 - C  17          0.18623     0.06546  1707(v),1689(v),1683(v)
                                                    1708(v),1706(v),494(g)
                                                    1666(v),1685(v),1651(v)
  1681. BD*(   1) C  13 - P  41          0.04343     0.27246   
  1682. BD*(   1) C  14 - C  15          0.03729     0.33062   
  1683. BD*(   1) C  14 - C  18          0.02469     0.33567   
  1684. BD*(   1) C  14 - H  79          0.02364     0.40231   
  1685. BD*(   1) C  15 - C  16          0.05135     0.32174   
  1686. BD*(   1) C  15 - C  20          0.02488     0.35342   
  1687. BD*(   1) C  15 - C  21          0.02570     0.35463   
  1688. BD*(   1) C  16 - C  17          0.05059     0.37591   
  1689. BD*(   1) C  16 - C  19          0.03797     0.32726   
  1690. BD*(   1) C  16 - C  22          0.02362     0.37762   
  1691. BD*(   1) C  17 - C  23          0.04235     0.46662   
  1692. BD*(   1) C  18 - C  19          0.01020     0.35813   
  1693. BD*(   1) C  18 - H  80          0.01323     0.40389   
  1694. BD*(   1) C  18 - H  81          0.01299     0.39169   
  1695. BD*(   1) C  19 - H  82          0.01501     0.39820   
  1696. BD*(   1) C  19 - H  83          0.01404     0.43963   
  1697. BD*(   1) C  20 - H  73          0.00940     0.38024   
  1698. BD*(   1) C  20 - H  74          0.00882     0.39410   
  1699. BD*(   1) C  20 - H  75          0.00875     0.38164   
  1700. BD*(   1) C  21 - H  76          0.00784     0.37937   
  1701. BD*(   1) C  21 - H  77          0.00777     0.38063   
  1702. BD*(   1) C  21 - H  78          0.00762     0.39502   
  1703. BD*(   1) C  22 - H  70          0.00727     0.38712   
  1704. BD*(   1) C  22 - H  71          0.00905     0.38619   
  1705. BD*(   1) C  22 - H  72          0.00810     0.38381   
  1706. BD*(   1) C  23 - C  24          0.03873     0.53736   
  1707. BD*(   2) C  23 - C  24          0.32098     0.04437  1712(v),1664(r),1680(v)
                                                    1718(v),1688(v),1679(v)
                                                    1716(v),779(g),1277(v)
  1708. BD*(   1) C  23 - C  26          0.03266     0.46333   
  1709. BD*(   1) C  24 - C  27          0.01749     0.38639   
  1710. BD*(   1) C  24 - S  43          0.03250     0.22360   
  1711. BD*(   1) C  25 - C  26          0.03798     0.54038   
  1712. BD*(   2) C  25 - C  26          0.33702     0.03361  1707(v),1664(r),1725(v)
                                                    1719(v),805(g),1720(v)
                                                    833(g),1277(v)
  1713. BD*(   1) C  25 - C  28          0.01839     0.38722   
  1714. BD*(   1) C  25 - S  43          0.03963     0.21657   
  1715. BD*(   1) C  26 - P  42          0.04496     0.22874   
  1716. BD*(   1) C  27 - H  64          0.01036     0.36670   
  1717. BD*(   1) C  27 - H  65          0.00890     0.38416   
  1718. BD*(   1) C  27 - H  66          0.01374     0.36164   
  1719. BD*(   1) C  28 - H  67          0.01435     0.38306   
  1720. BD*(   1) C  28 - H  68          0.01145     0.39077   
  1721. BD*(   1) C  28 - H  69          0.00696     0.38250   
  1722. BD*(   1) C  29 - C  30          0.03097     0.52166   
  1723. BD*(   2) C  29 - C  30          0.37380     0.02487  1729(v),1734(v),1738(r)
                                                    1749(r),1740(v),936(g)
                                                    962(v),1040(v)
  1724. BD*(   1) C  29 - C  34          0.02439     0.52846   
  1725. BD*(   1) C  29 - P  42          0.04237     0.23623   
  1726. BD*(   1) C  30 - C  31          0.01790     0.54667   
  1727. BD*(   1) C  30 - H  62          0.01635     0.43083   
  1728. BD*(   1) C  31 - C  32          0.01505     0.53730   
  1729. BD*(   2) C  31 - C  32          0.33162     0.02686  1723(v),1734(v),988(g)
                                                    962(g)
  1730. BD*(   1) C  31 - H  63          0.01439     0.40595   
  1731. BD*(   1) C  32 - C  33          0.01467     0.53720   
  1732. BD*(   1) C  32 - H  60          0.01321     0.40630   
  1733. BD*(   1) C  33 - C  34          0.01590     0.54159   
  1734. BD*(   2) C  33 - C  34          0.31703     0.02974  1729(v),1723(v),1014(g)
                                                    1040(g)
  1735. BD*(   1) C  33 - H  61          0.01360     0.40680   
  1736. BD*(   1) C  34 - H  59          0.01647     0.40826   
  1737. BD*(   1) C  35 - C  36          0.02417     0.52594   
  1738. BD*(   2) C  35 - C  36          0.36615     0.02329  1744(v),1749(v),1723(r)
                                                    1715(v),1092(g)
  1739. BD*(   1) C  35 - C  40          0.03156     0.52807   
  1740. BD*(   1) C  35 - P  42          0.03870     0.23838   
  1741. BD*(   1) C  36 - C  37          0.01665     0.54039   
  1742. BD*(   1) C  36 - H  57          0.01676     0.41084   
  1743. BD*(   1) C  37 - C  38          0.01490     0.53163   
  1744. BD*(   2) C  37 - C  38          0.33244     0.02178  1738(v),1749(v),1144(g)
                                                    1118(g)
  1745. BD*(   1) C  37 - H  58          0.01368     0.40141   
  1746. BD*(   1) C  38 - C  39          0.01470     0.53406   
  1747. BD*(   1) C  38 - H  55          0.01307     0.40212   
  1748. BD*(   1) C  39 - C  40          0.01714     0.54001   
  1749. BD*(   2) C  39 - C  40          0.31257     0.02721  1738(v),1744(v),1723(r)
                                                    1170(g)
  1750. BD*(   1) C  39 - H  56          0.01410     0.40204   
  1751. BD*(   1) C  40 - H  54          0.01683     0.41865   
  1752. BD*(   1) C  45 - H  84          0.00860     0.36769   
  1753. BD*(   1) C  45 - H  85          0.00474     0.37416   
  1754. BD*(   1) C  45 - H  86          0.00997     0.36638   
  1755. BD*(   1) C  47 - H  87          0.00939     0.36796   
  1756. BD*(   1) C  47 - H  88          0.00894     0.36850   
  1757. BD*(   1) C  47 - H  89          0.00466     0.37437   
  1758. BD*(   1) C  50 - H  93          0.00487     0.37325   
  1759. BD*(   1) C  50 - H  94          0.00868     0.37172   
  1760. BD*(   1) C  50 - H  95          0.01083     0.36635   
  1761. BD*(   1) C  52 - H  90          0.00546     0.37362   
  1762. BD*(   1) C  52 - H  91          0.01236     0.36641   
  1763. BD*(   1) C  52 - H  92          0.00734     0.37238   
       -------------------------------
              Total Lewis  350.40246  ( 97.8778%)
        Valence non-Lewis    6.94014  (  1.9386%)
        Rydberg non-Lewis    0.65739  (  0.1836%)
       -------------------------------
            Total unit  1  358.00000  (100.0000%)
           Charge unit  1    0.00000
 1\1\GINC-NOTCH076\SP\RPBE1PBE\def2TZVP\C44H48P2S1\U1010977\01-Nov-2021
 \0\\# PBE1PBE/def2TZVP int=(grid=ultrafine) empiricaldispersion=GD3BJ 
 pop=nbo guess=read geom=check\\title\\0,1\C,0,17.5007432261,4.09629993
 74,6.5203725225\C,0,17.6872586834,2.8555878802,7.1612572867\C,0,18.966
 087239,2.4469552751,7.5664382988\C,0,20.0547645726,3.3030215744,7.3109
 397858\C,0,19.8930935269,4.5355601258,6.6593381238\C,0,18.600435089,4.
 9257487654,6.2604616661\C,0,15.9022567286,3.7527378139,4.2033278363\C,
 0,16.1074206279,4.5830457094,3.091813223\C,0,16.1866057381,4.042872885
 7,1.795024935\C,0,16.053565369,2.6531371178,1.6465814655\C,0,15.867907
 7898,1.7978855441,2.751310311\C,0,15.806671674,2.3610615164,4.03472971
 22\C,0,14.6548432327,3.665130843,6.9057944031\C,0,14.7209617965,3.7265
 944986,8.4296863011\C,0,13.8649031707,2.4735223404,8.8100271721\C,0,12
 .6626012519,2.9234536299,7.884547506\C,0,13.4110235871,3.2108557768,6.
 5585703311\C,0,13.781255357,4.9159307819,8.8161466136\C,0,12.378655299
 9,4.3565070116,8.4764150042\C,0,14.5103806571,1.1345236871,8.417013384
 \C,0,13.5173627975,2.3818885141,10.3054975075\C,0,11.4112702652,2.0572
 069834,7.8461688794\C,0,12.8930017532,3.1224171922,5.1735976459\C,0,12
 .5566744873,1.899144878,4.605753436\C,0,12.5579658178,3.7812751681,2.9
 097038415\C,0,12.8714574332,4.2174199418,4.193185107\C,0,12.5916882559
 ,0.5177505681,5.1917870408\C,0,12.4845165055,4.4535832589,1.5663441976
 \C,0,11.5828954008,6.2391096365,5.7173018823\C,0,10.4621751336,5.39732
 82334,5.5507021692\C,0,9.3119936289,5.5945646648,6.3265781006\C,0,9.27
 00396169,6.6290285453,7.2724045748\C,0,10.3784624328,7.4730929932,7.43
 12578939\C,0,11.5328340579,7.2847298672,6.6599575709\C,0,12.7682509392
 ,7.0020387261,3.1952210349\C,0,13.8575656773,7.5268250703,2.4749186379
 \C,0,13.6384133866,8.2564468212,1.3009032813\C,0,12.3290913575,8.49405
 96799,0.8549399659\C,0,11.2407133133,8.0143639457,1.596879554\C,0,11.4
 56814497,7.2706775737,2.7655833264\P,0,15.8468493282,4.5364952979,5.86
 51201768\P,0,13.0991376011,5.9882994954,4.6926480147\S,0,12.2353462612
 ,2.0652050168,2.9064432969\H,0,16.8319197958,2.1984315856,7.3462128779
 \C,0,19.1708336054,1.1190840302,8.2591282089\H,0,21.058849429,2.999106
 9582,7.6334106873\C,0,21.0689822025,5.4482396407,6.4019834544\H,0,18.4
 46369319,5.8974442329,5.783439361\H,0,16.1904289939,5.6651792044,3.245
 8880725\C,0,16.4013653221,4.9464485753,0.6025794579\H,0,16.0952733341,
 2.2185126952,0.6398217111\C,0,15.6877617715,0.3116146273,2.551712993\H
 ,0,15.6590636242,1.7139905217,4.9065156906\H,0,10.6044492281,6.9024149
 947,3.3448931844\H,0,12.1573699446,9.0751372243,-0.0568756669\H,0,10.2
 169600708,8.2246944814,1.2702760428\H,0,14.8708823098,7.3915084306,2.8
 630283772\H,0,14.4913067203,8.6652577722,0.7494004213\H,0,12.398251252
 7,7.9448663761,6.7778248629\H,0,8.3746980097,6.7749492185,7.8856654561
 \H,0,10.3526870294,8.283300885,8.1670531322\H,0,10.4965472504,4.576810
 7761,4.8278067993\H,0,8.4501002765,4.9320414855,6.1942869556\H,0,13.09
 13512578,-0.1890763158,4.5064258367\H,0,13.1504873681,0.5154396989,6.1
 377619867\H,0,11.5795484087,0.1227372825,5.3930637099\H,0,11.569118546
 4,5.0554742043,1.442935423\H,0,13.3395815279,5.1281927947,1.413905087\
 H,0,12.5053826383,3.69660381,0.7650941038\H,0,10.7223199634,2.40203448
 71,7.0553553664\H,0,11.6311740602,0.9929655638,7.6651678311\H,0,10.874
 3092014,2.1266004852,8.8077368801\H,0,13.8058905103,0.2977609144,8.575
 4050268\H,0,14.8373016451,1.1141701944,7.3658363615\H,0,15.3941432988,
 0.9364247186,9.049959477\H,0,12.8143867249,1.5488072343,10.4851815327\
 H,0,14.4309333354,2.171419942,10.8892435617\H,0,13.0669437189,3.296423
 2578,10.7166373634\H,0,15.7319788769,3.7866599862,8.8586111049\H,0,14.
 0418846601,5.8201968037,8.2392312722\H,0,13.8869912182,5.1665385401,9.
 8850249632\H,0,11.7465062819,4.2533020528,9.3753889422\H,0,11.82147363
 27,4.9749964921,7.7653107341\H,0,19.7025428217,1.2432565912,9.21921954
 54\H,0,18.2087400432,0.6219634373,8.4680005524\H,0,19.7769484963,0.430
 7852928,7.6421008606\H,0,21.2119203414,5.6230927535,5.3204628921\H,0,2
 0.9084029545,6.4365262084,6.8678912881\H,0,22.004927476,5.026832914,6.
 8038886737\H,0,15.9074257664,-0.249002371,3.4756473721\H,0,14.64556136
 69,0.0803349361,2.2607372841\H,0,16.3427529733,-0.0743991366,1.7521812
 102\H,0,16.2354319186,4.4095624344,-0.3457987389\H,0,15.7180011891,5.8
 143065685,0.6287411199\H,0,17.4307890735,5.3484876461,0.5844811321\\Ve
 rsion=ES64L-G16RevB.01\State=1-A\HF=-2784.7973917\RMSD=4.668e-09\Dipol
 e=-0.3038773,-0.1708985,-0.3457614\Quadrupole=0.4149147,-1.9976529,1.5
 827382,-1.3638094,-1.0990188,-5.865242\PG=C01 [X(C44H48P2S1)]\\@


     ON THE SURVIVAL OF THE FITTEST -
 "STRONG REPRESENTATIVES FROM EACH PAST ERA THRIVE TODAY,
 SUCH AS PROGRAMMING IN THE THIRTY YEAR OLD LANGUAGE KNOWN
 AS FORTRAN, AND EVEN IN THE ANCIENT SCRIPT KNOWN AS DIRECT
 MACHINE CODE. SOME PEOPLE MIGHT LOOK ON SUCH RELICS AS LIVING
 FOSSILS; OTHERS WOULD POINT OUT THAT EVEN A VERY OLD SPECIES
 MIGHT STILL BE FILLING A PARTICULAR ECOLOGICAL NICHE."
     -- ALAN KAY, SCI.AM. SEPTEMBER 1984
 Job cpu time:       0 days  2 hours 18 minutes 54.1 seconds.
 Elapsed time:       0 days  0 hours  4 minutes 22.0 seconds.
 File lengths (MBytes):  RWF=   1586 Int=      0 D2E=      0 Chk=    239 Scr=      1
 Normal termination of Gaussian 16 at Mon Nov  1 19:32:39 2021.
