 Entering Gaussian System, Link 0=/uufs/chpc.utah.edu/sys/installdir/gaussian16/B01/E6B/g16/g16
 Input=catASium_T2_1_SPE_NoPd.com
 Output=catASium_T2_1_SPE_NoPd.log
 Initial command:
 /uufs/chpc.utah.edu/sys/installdir/gaussian16/B01/E6B/g16/l1.exe "/scratch/general/lustre/u1010977/3354017/notchpeak.peaks/Gau-119456.inp" -scrdir="/scratch/general/lustre/u1010977/3354017/notchpeak.peaks/"
 Entering Link 1 = /uufs/chpc.utah.edu/sys/installdir/gaussian16/B01/E6B/g16/l1.exe PID=    119459.
  
 Copyright (c) 1988-2017, Gaussian, Inc.  All Rights Reserved.
  
 This is part of the Gaussian(R) 16 program.  It is based on
 the Gaussian(R) 09 system (copyright 2009, Gaussian, Inc.),
 the Gaussian(R) 03 system (copyright 2003, Gaussian, Inc.),
 the Gaussian(R) 98 system (copyright 1998, Gaussian, Inc.),
 the Gaussian(R) 94 system (copyright 1995, Gaussian, Inc.),
 the Gaussian 92(TM) system (copyright 1992, Gaussian, Inc.),
 the Gaussian 90(TM) system (copyright 1990, Gaussian, Inc.),
 the Gaussian 88(TM) system (copyright 1988, Gaussian, Inc.),
 the Gaussian 86(TM) system (copyright 1986, Carnegie Mellon
 University), and the Gaussian 82(TM) system (copyright 1983,
 Carnegie Mellon University). Gaussian is a federally registered
 trademark of Gaussian, Inc.
  
 This software contains proprietary and confidential information,
 including trade secrets, belonging to Gaussian, Inc.
  
 This software is provided under written license and may be
 used, copied, transmitted, or stored only in accord with that
 written license.
  
 The following legend is applicable only to US Government
 contracts under FAR:
  
                    RESTRICTED RIGHTS LEGEND
  
 Use, reproduction and disclosure by the US Government is
 subject to restrictions as set forth in subparagraphs (a)
 and (c) of the Commercial Computer Software - Restricted
 Rights clause in FAR 52.227-19.
  
 Gaussian, Inc.
 340 Quinnipiac St., Bldg. 40, Wallingford CT 06492
  
  
 ---------------------------------------------------------------
 Warning -- This program may not be used in any manner that
 competes with the business of Gaussian, Inc. or will provide
 assistance to any competitor of Gaussian, Inc.  The licensee
 of this program is prohibited from giving any competitor of
 Gaussian, Inc. access to this program.  By using this program,
 the user acknowledges that Gaussian, Inc. is engaged in the
 business of creating and licensing software in the field of
 computational chemistry and represents and warrants to the
 licensee that it is not a competitor of Gaussian, Inc. and that
 it will not use this program in any manner prohibited above.
 ---------------------------------------------------------------
  

 Cite this work as:
 Gaussian 16, Revision B.01,
 M. J. Frisch, G. W. Trucks, H. B. Schlegel, G. E. Scuseria, 
 M. A. Robb, J. R. Cheeseman, G. Scalmani, V. Barone, 
 G. A. Petersson, H. Nakatsuji, X. Li, M. Caricato, A. V. Marenich, 
 J. Bloino, B. G. Janesko, R. Gomperts, B. Mennucci, H. P. Hratchian, 
 J. V. Ortiz, A. F. Izmaylov, J. L. Sonnenberg, D. Williams-Young, 
 F. Ding, F. Lipparini, F. Egidi, J. Goings, B. Peng, A. Petrone, 
 T. Henderson, D. Ranasinghe, V. G. Zakrzewski, J. Gao, N. Rega, 
 G. Zheng, W. Liang, M. Hada, M. Ehara, K. Toyota, R. Fukuda, 
 J. Hasegawa, M. Ishida, T. Nakajima, Y. Honda, O. Kitao, H. Nakai, 
 T. Vreven, K. Throssell, J. A. Montgomery, Jr., J. E. Peralta, 
 F. Ogliaro, M. J. Bearpark, J. J. Heyd, E. N. Brothers, K. N. Kudin, 
 V. N. Staroverov, T. A. Keith, R. Kobayashi, J. Normand, 
 K. Raghavachari, A. P. Rendell, J. C. Burant, S. S. Iyengar, 
 J. Tomasi, M. Cossi, J. M. Millam, M. Klene, C. Adamo, R. Cammi, 
 J. W. Ochterski, R. L. Martin, K. Morokuma, O. Farkas, 
 J. B. Foresman, and D. J. Fox, Gaussian, Inc., Wallingford CT, 2016.
 
 ******************************************
 Gaussian 16:  ES64L-G16RevB.01 20-Dec-2017
                 1-Nov-2021 
 ******************************************
 %NProcShared=32
 Will use up to   32 processors via shared memory.
 %mem=18GB
 %chk=catASium_T2_1_SPE_NoPd.chk
 ----------------------------------------------------------------------
 # PBE1PBE/def2TZVP int=(grid=ultrafine) empiricaldispersion=GD3BJ nmr=
 giao
 ----------------------------------------------------------------------
 1/38=1,172=1/1;
 2/12=2,17=6,18=5,40=1/2;
 3/5=44,7=101,11=2,25=1,30=1,74=-13,75=-5,124=41/1,2,3,8;
 4//1;
 5/5=2,38=5/2;
 8/6=1,10=90,11=11/1;
 10/13=100,45=16/2;
 6/7=2,8=2,9=2,10=2,28=1/1;
 99/9=1/99;
 -----
 title
 -----
 Symbolic Z-matrix:
 Charge =  0 Multiplicity = 1
 C                     17.47979   4.1496    6.55963 
 C                     18.32876   3.1515    6.04776 
 C                     19.51345   2.81137   6.72085 
 C                     19.82662   3.48729   7.91446 
 C                     18.99866   4.49396   8.43727 
 C                     17.81965   4.82266   7.74472 
 C                     15.97383   3.78025   4.08007 
 C                     15.80534   2.40359   3.84396 
 C                     15.8591   1.89698   2.53617 
 C                     16.0885   2.79472   1.47446 
 C                     16.27784   4.16951   1.68801 
 C                     16.22307   4.65221   3.00841 
 C                     14.68264   3.59276   6.75066 
 C                     14.79264   3.50596   8.26943 
 C                     13.98613   2.19896   8.55275 
 C                     12.74456   2.69575   7.70853 
 C                     13.44705   3.123     6.39461 
 C                     13.83656   4.6275    8.79273 
 C                     12.43964   4.06187   8.43481 
 C                     14.67938   0.93594   8.01628 
 C                     13.68425   1.95415   10.04066 
 C                     11.5144   1.80203   7.63017 
 C                     12.90428   3.10935   5.01891 
 C                     12.58061   1.92114   4.37358 
 C                     12.50813   3.9206    2.81681 
 C                     12.84163   4.26943   4.12276 
 C                     12.65039   0.50215   4.85799 
 C                     12.39307   4.67922   1.52272 
 C                     11.58537   6.16749   5.84129 
 C                     10.45758   5.33897   5.6627 
 C                     9.34169   5.48243   6.49837 
 C                     9.34354   6.44971   7.51397 
 C                     10.45997   7.2816    7.68449 
 C                     11.58011   7.14666   6.85397 
 C                     12.67947   7.09308   3.32469 
 C                     13.7439   7.58655   2.54677 
 C                     13.48461   8.3742    1.41997 
 C                     12.16247   8.6976    1.07743 
 C                     11.10293   8.2421    1.87433 
 C                     11.35773   7.44088   2.99683 
 P                     15.87712   4.52421   5.75032 
 P                     13.06105   5.99803   4.75133 
 S                     12.22127   2.20253   2.69744 
 H                     18.07492   2.63724   5.11546 
 C                     20.44384   1.75874   6.16294 
 H                     20.75111   3.22936   8.44667 
 C                     19.36602   5.24021   9.69831 
 H                     17.18311   5.63315   8.1116 
 H                     15.60871   1.72665   4.6826 
 C                     15.62906   0.42895   2.26436 
 H                     16.11617   2.4067    0.44835 
 C                     16.5168   5.12218   0.53934 
 H                     16.3651   5.71981   3.21562 
 H                     10.52827   7.08945   3.61813 
 H                     11.96023   9.32444   0.20292 
 H                     10.07191   8.51616   1.62752 
 H                     14.77351   7.37464   2.85055 
 H                     14.31853   8.75868   0.82377 
 H                     12.45134   7.80001   6.97167 
 H                     8.47464   6.5541    8.17211 
 H                     10.46503   8.04054   8.47352 
 H                     10.4613   4.57198   4.88209 
 H                     8.47226   4.83155   6.35795 
 H                     13.12401  -0.14918   4.1031 
 H                     13.25003   0.43774   5.77649 
 H                     11.65062   0.08386   5.07331 
 H                     12.26915   3.97607   0.68272 
 H                     11.54049   5.37688   1.51232 
 H                     13.30004   5.27359   1.33276 
 H                     10.79805   2.18587   6.88286 
 H                     11.75742   0.76085   7.36563 
 H                     10.99879   1.784     8.60569 
 H                     14.00724   0.06045   8.07658 
 H                     15.01506   1.04929   6.97418 
 H                     15.56985   0.70531   8.62705 
 H                     13.03171   1.07051   10.158 
 H                     14.62255   1.74215   10.58315 
 H                     13.19514   2.80094   10.54333 
 H                     15.81507   3.5399    8.67208 
 H                     14.04956   5.58978   8.29549 
 H                     13.96079   4.77838   9.87863 
 H                     11.83457   3.86256   9.33613 
 H                     11.84997   4.72766   7.79579 
 H                     20.79515   1.07007   6.95111 
 H                     19.95086   1.15917   5.37993 
 H                     21.34219   2.21857   5.71128 
 H                     19.49774   6.31698   9.48994 
 H                     18.57329   5.15616   10.46313 
 H                     20.30311   4.85932   10.13634 
 H                     17.51098   5.59801   0.61311 
 H                     16.45856   4.60657  -0.43308 
 H                     15.77129   5.9384    0.53762 
 H                     15.74512  -0.17385   3.18043 
 H                     14.60666   0.25764   1.87834 
 H                     16.33183   0.04042   1.50738 
 
 Stoichiometry    C44H48P2S
 Framework group  C1[X(C44H48P2S)]
 Deg. of freedom   279
 Full point group                 C1      NOp   1
 Largest Abelian subgroup         C1      NOp   1
 Largest concise Abelian subgroup C1      NOp   1
                         Standard orientation:                         
 ---------------------------------------------------------------------
 Center     Atomic      Atomic             Coordinates (Angstroms)
 Number     Number       Type             X           Y           Z
 ---------------------------------------------------------------------
      1          6           0        3.125390   -0.671266   -1.397709
      2          6           0        3.924911   -1.584023   -0.685950
      3          6           0        5.303162   -1.671859   -0.940804
      4          6           0        5.861693   -0.827028   -1.917507
      5          6           0        5.080070    0.083640   -2.646875
      6          6           0        3.701074    0.151821   -2.379579
      7          6           0        0.887979   -1.938467   -0.004597
      8          6           0        1.210902   -2.074145    1.357990
      9          6           0        0.803261   -3.210866    2.073215
     10          6           0        0.071698   -4.206851    1.396011
     11          6           0       -0.245983   -4.101490    0.032389
     12          6           0        0.177121   -2.954155   -0.663357
     13          6           0        1.329608    0.999866    0.069631
     14          6           0        2.213162    2.211672   -0.208175
     15          6           0        2.284528    2.860402    1.210632
     16          6           0        0.712210    2.839051    1.379029
     17          6           0        0.407337    1.363960    1.013546
     18          6           0        1.287053    3.194957   -0.996376
     19          6           0        0.281096    3.643264    0.092899
     20          6           0        3.063132    2.006140    2.224360
     21          6           0        2.905422    4.267184    1.230410
     22          6           0        0.109186    3.423983    2.648823
     23          6           0       -0.691019    0.505599    1.507669
     24          6           0       -0.769703    0.115288    2.839787
     25          6           0       -2.435216   -1.107932    1.371311
     26          6           0       -1.669412   -0.186962    0.661559
     27          6           0        0.114039    0.453170    4.005061
     28          6           0       -3.487510   -2.114212    0.992507
     29          6           0       -2.543157    1.978590   -0.975861
     30          6           0       -3.145911    2.425135    0.218930
     31          6           0       -3.631454    3.736460    0.312802
     32          6           0       -3.519232    4.607734   -0.780524
     33          6           0       -2.930543    4.160681   -1.972630
     34          6           0       -2.442711    2.851540   -2.076852
     35          6           0       -3.362214   -0.707548   -1.683572
     36          6           0       -3.150175   -1.928825   -2.350819
     37          6           0       -4.239728   -2.715684   -2.739418
     38          6           0       -5.549022   -2.276202   -2.489273
     39          6           0       -5.763506   -1.040862   -1.862301
     40          6           0       -4.673910   -0.255440   -1.458845
     41         15           0        1.347201   -0.469359   -0.996259
     42         15           0       -1.901822    0.257597   -1.121604
     43         16           0       -2.002119   -1.088563    3.062568
     44          1           0        3.475988   -2.238573    0.067776
     45          6           0        6.163857   -2.668705   -0.198910
     46          1           0        6.937629   -0.889587   -2.124671
     47          6           0        5.684556    0.957011   -3.721064
     48          1           0        3.067394    0.823337   -2.966262
     49          1           0        1.763747   -1.278328    1.869129
     50          6           0        1.099324   -3.344914    3.548446
     51          1           0       -0.263066   -5.090637    1.953765
     52          6           0       -1.036778   -5.174430   -0.680052
     53          1           0       -0.052544   -2.834918   -1.729143
     54          1           0       -4.845242    0.709609   -0.972181
     55          1           0       -6.401812   -2.886002   -2.804652
     56          1           0       -6.783340   -0.680638   -1.691377
     57          1           0       -2.128463   -2.239167   -2.589713
     58          1           0       -4.066057   -3.661417   -3.263004
     59          1           0       -1.992771    2.489881   -3.007725
     60          1           0       -3.890536    5.634899   -0.702322
     61          1           0       -2.843685    4.835779   -2.830118
     62          1           0       -3.218543    1.752152    1.078851
     63          1           0       -4.092477    4.078148    1.245527
     64          1           0        0.363037   -0.451598    4.586269
     65          1           0        1.057801    0.895528    3.657220
     66          1           0       -0.363112    1.169085    4.698355
     67          1           0       -3.713267   -2.766144    1.852390
     68          1           0       -4.428255   -1.643868    0.664652
     69          1           0       -3.140853   -2.754586    0.166854
     70          1           0       -0.969149    3.195545    2.711901
     71          1           0        0.591221    3.047598    3.564826
     72          1           0        0.216272    4.522315    2.645744
     73          1           0        2.945711    2.403924    3.248984
     74          1           0        2.746591    0.951973    2.218960
     75          1           0        4.141484    2.028561    1.988098
     76          1           0        2.834941    4.701960    2.243519
     77          1           0        3.978005    4.206717    0.974354
     78          1           0        2.436904    4.973070    0.529563
     79          1           0        3.177459    1.993388   -0.688931
     80          1           0        0.800354    2.682605   -1.844443
     81          1           0        1.865261    4.041108   -1.405116
     82          1           0        0.357974    4.724213    0.302315
     83          1           0       -0.763279    3.442681   -0.168587
     84          1           0        7.111894   -2.213783    0.137481
     85          1           0        5.643895   -3.069706    0.686790
     86          1           0        6.427954   -3.526703   -0.844329
     87          1           0        5.234171    0.733583   -4.704645
     88          1           0        5.502691    2.028127   -3.520898
     89          1           0        6.773530    0.806002   -3.801129
     90          1           0       -0.442207   -5.643660   -1.484141
     91          1           0       -1.356927   -5.969145    0.013337
     92          1           0       -1.940976   -4.752548   -1.155925
     93          1           0        1.897702   -2.652825    3.864084
     94          1           0        0.200246   -3.115638    4.150735
     95          1           0        1.412403   -4.370582    3.808932
 ---------------------------------------------------------------------
 Rotational constants (GHZ):           0.0790080           0.0591588           0.0494488
 Standard basis: def2TZVP (5D, 7F)
 There are  1998 symmetry adapted cartesian basis functions of A   symmetry.
 There are  1763 symmetry adapted basis functions of A   symmetry.
  1763 basis functions,  2835 primitive gaussians,  1998 cartesian basis functions
   179 alpha electrons      179 beta electrons
       nuclear repulsion energy      7080.0702240774 Hartrees.
 NAtoms=   95 NActive=   95 NUniq=   95 SFac= 1.00D+00 NAtFMM=   60 NAOKFM=T Big=T
 Integral buffers will be    131072 words long.
 Raffenetti 2 integral format.
 Two-electron integral symmetry is turned on.
 Nuclear repulsion after empirical dispersion term =     7079.9098211993 Hartrees.
 One-electron integrals computed using PRISM.
   1 Symmetry operations used in ECPInt.
 ECPInt:  NShTT=  255970 NPrTT=  781845 LenC2=  199265 LenP2D=  400448.
 LDataN:  DoStor=T MaxTD1= 6 Len=  172
 Number of processors reduced to  21 by ecpmxn.
 NBasis=  1763 RedAO= T EigKep=  3.39D-06  NBF=  1763
 NBsUse=  1763 1.00D-06 EigRej= -1.00D+00 NBFU=  1763
 ExpMin= 9.04D-02 ExpMax= 6.07D+04 ExpMxC= 2.07D+03 IAcc=3 IRadAn=         5 AccDes= 0.00D+00
 Harris functional with IExCor= 1009 and IRadAn=       5 diagonalized for initial guess.
 HarFok:  IExCor= 1009 AccDes= 0.00D+00 IRadAn=         5 IDoV= 1 UseB2=F ITyADJ=14
 ICtDFT=  3500011 ScaDFX=  1.000000  1.000000  1.000000  1.000000
 FoFCou: FMM=F IPFlag=           0 FMFlag=      100000 FMFlg1=        2001
         NFxFlg=           0 DoJE=T BraDBF=F KetDBF=T FulRan=T
         wScrn=  0.000000 ICntrl=       500 IOpCl=  0 I1Cent=   200000004 NGrid=           0
         NMat0=    1 NMatS0=      1 NMatT0=    0 NMatD0=    1 NMtDS0=    0 NMtDT0=    0
 Petite list used in FoFCou.
 Requested convergence on RMS density matrix=1.00D-08 within 128 cycles.
 Requested convergence on MAX density matrix=1.00D-06.
 Requested convergence on             energy=1.00D-06.
 No special actions if energy rises.
 Integral accuracy reduced to 1.0D-05 until final iterations.
 Problem detected with inexpensive integrals.
 Switching to full accuracy and repeating last cycle.
 SCF Done:  E(RPBE1PBE) =  -2784.79902788     A.U. after   16 cycles
            NFock= 16  Conv=0.59D-08     -V/T= 2.0046
 DoSCS=F DFT=T ScalE2(SS,OS)=  1.000000  1.000000
 Range of M.O.s used for correlation:     1  1763
 NBasis=  1763 NAE=   179 NBE=   179 NFC=     0 NFV=     0
 NROrb=   1763 NOA=   179 NOB=   179 NVA=  1584 NVB=  1584

 **** Warning!!: The largest alpha MO coefficient is  0.51590125D+02

          Differentiating once with respect to magnetic field using GIAOs.
          Electric field/nuclear overlap derivatives assumed to be zero.
 FoFCou: FMM=F IPFlag=           0 FMFlag=      100000 FMFlg1=        2001
         NFxFlg=           0 DoJE=F BraDBF=F KetDBF=T FulRan=T
         wScrn=  0.000000 ICntrl=      6100 IOpCl=  0 I1Cent=           7 NGrid=          95
         NMat0=    1 NMatS0=      1 NMatT0=    0 NMatD0=    1 NMtDS0=    0 NMtDT0=    0
 Symmetry not used in FoFCou.
   1 Symmetry operations used in ECPInt.
 ECPInt:  NShTT=  255970 NPrTT=  781845 LenC2=  255971 LenP2D=  781845.
 LDataN:  DoStor=T MaxTD1= 7 Len=  274
 Number of processors reduced to  13 by ecpmxn.
 FoFJK:  IHMeth= 1 ICntrl=    6127 DoSepK=F KAlg= 0 I1Cent=           0 FoldK=F
 IRaf=         1 NMat=       1 IRICut=       1 DoRegI=T DoRafI=F ISym2E= 0 IDoP0=0 IntGTp=1.
          There are     3 degrees of freedom in the 1st order CPHF.  IDoFFX=0 NUNeed=     3.
      3 vectors produced by pass  0 Test12= 9.45D-12 3.33D-08 XBig12= 2.01D+02 1.86D+00.
 AX will form     3 AO Fock derivatives at one time.
      3 vectors produced by pass  1 Test12= 9.45D-12 3.33D-08 XBig12= 7.88D-01 1.86D-01.
      3 vectors produced by pass  2 Test12= 9.45D-12 3.33D-08 XBig12= 4.52D-03 8.74D-03.
      3 vectors produced by pass  3 Test12= 9.45D-12 3.33D-08 XBig12= 1.46D-05 5.41D-04.
      3 vectors produced by pass  4 Test12= 9.45D-12 3.33D-08 XBig12= 7.89D-08 5.13D-05.
      3 vectors produced by pass  5 Test12= 9.45D-12 3.33D-08 XBig12= 5.04D-10 4.13D-06.
      3 vectors produced by pass  6 Test12= 9.45D-12 3.33D-08 XBig12= 2.41D-12 3.17D-07.
 InvSVY:  IOpt=1 It=  1 EMax= 5.33D-15
 Solved reduced A of dimension    21 with     3 vectors.
 Calculating GIAO nuclear magnetic shielding tensors.
 SCF GIAO Magnetic shielding tensor (ppm):
      1  C    Isotropic =    41.0589   Anisotropy =   197.5145
   XX=   -40.0312   YX=    33.2697   ZX=    35.1631
   XY=    21.0339   YY=    84.3234   ZY=    88.9552
   XZ=    29.6053   YZ=    76.6026   ZZ=    78.8845
   Eigenvalues:   -48.7253    -0.8332   172.7353
      2  C    Isotropic =    47.5017   Anisotropy =   165.9664
   XX=    36.5372   YX=    -4.9611   ZX=    34.4598
   XY=     5.4509   YY=    59.3591   ZY=    94.4431
   XZ=    49.2431   YZ=   101.3018   ZZ=    46.6089
   Eigenvalues:   -55.5678    39.9270   158.1460
      3  C    Isotropic =    41.0915   Anisotropy =   193.5787
   XX=    -3.2984   YX=    47.4525   ZX=    -6.5836
   XY=    45.0215   YY=    59.9067   ZY=    98.0408
   XZ=    -3.0191   YZ=   105.7018   ZZ=    66.6663
   Eigenvalues:   -62.6399    15.7705   170.1440
      4  C    Isotropic =    51.7195   Anisotropy =   143.0923
   XX=   -39.4608   YX=    19.1517   ZX=    26.8966
   XY=    12.9788   YY=    94.6338   ZY=    48.2981
   XZ=    28.4722   YZ=    40.7054   ZZ=    99.9856
   Eigenvalues:   -45.1952    53.2393   147.1144
      5  C    Isotropic =    41.9593   Anisotropy =   193.2341
   XX=     8.4675   YX=    -0.0900   ZX=    39.0387
   XY=     0.1252   YY=    67.9798   ZY=   106.1449
   XZ=    40.4891   YZ=   108.0778   ZZ=    49.4307
   Eigenvalues:   -61.6289    16.7248   170.7820
      6  C    Isotropic =    48.2445   Anisotropy =   166.7022
   XX=    19.7444   YX=    46.0398   ZX=   -20.7050
   XY=    58.0855   YY=    66.2795   ZY=    82.9406
   XZ=    -5.1503   YZ=    97.9302   ZZ=    58.7095
   Eigenvalues:   -56.4810    41.8351   159.3793
      7  C    Isotropic =    47.8222   Anisotropy =   190.6020
   XX=   131.2311   YX=   -71.3583   ZX=   -18.4575
   XY=   -79.9724   YY=     1.5260   ZY=    44.5390
   XZ=   -22.3205   YZ=    46.4193   ZZ=    10.7095
   Eigenvalues:   -52.2969    20.8733   174.8902
      8  C    Isotropic =    43.7490   Anisotropy =   170.4294
   XX=    98.6507   YX=   -87.3181   ZX=   -40.5439
   XY=   -83.2563   YY=    17.2260   ZY=   -25.2452
   XZ=   -49.1669   YZ=   -21.3416   ZZ=    15.3703
   Eigenvalues:   -62.1316    36.0099   157.3686
      9  C    Isotropic =    40.3587   Anisotropy =   199.8247
   XX=   124.7958   YX=   -65.7114   ZX=   -49.2811
   XY=   -62.9394   YY=    48.0439   ZY=    21.7037
   XZ=   -47.5560   YZ=    20.4935   ZZ=   -51.7635
   Eigenvalues:   -64.3925    11.8934   173.5752
     10  C    Isotropic =    48.6332   Anisotropy =   151.2262
   XX=   114.8358   YX=   -63.2004   ZX=     2.5964
   XY=   -66.6482   YY=     6.4582   ZY=    49.8600
   XZ=    -5.7276   YZ=    47.1771   ZZ=    24.6056
   Eigenvalues:   -49.9208    46.3697   149.4507
     11  C    Isotropic =    41.9830   Anisotropy =   196.1132
   XX=   107.0876   YX=   -91.9009   ZX=   -51.9041
   XY=   -91.6794   YY=    13.4998   ZY=    -7.4078
   XZ=   -50.5630   YZ=   -10.4905   ZZ=     5.3615
   Eigenvalues:   -62.1924    15.4163   172.7251
     12  C    Isotropic =    44.3475   Anisotropy =   168.1530
   XX=   112.5768   YX=   -54.5649   ZX=   -54.5449
   XY=   -39.7490   YY=    67.0329   ZY=    26.3296
   XZ=   -41.5093   YZ=    23.0893   ZZ=   -46.5673
   Eigenvalues:   -61.0338    37.6267   156.4495
     13  C    Isotropic =    33.9538   Anisotropy =   165.2099
   XX=    37.5894   YX=   -42.6262   ZX=    60.6103
   XY=   -43.5823   YY=   -37.3370   ZY=   -51.2243
   XZ=    44.8494   YZ=    -9.7441   ZZ=   101.6090
   Eigenvalues:   -57.2549    15.0226   144.0938
     14  C    Isotropic =   127.3756   Anisotropy =    29.2574
   XX=   120.1694   YX=     3.0569   ZX=    13.5323
   XY=    -3.9970   YY=   120.0540   ZY=     8.3066
   XZ=    -4.9178   YZ=    13.2790   ZZ=   141.9033
   Eigenvalues:   114.7561   120.4901   146.8805
     15  C    Isotropic =   123.6270   Anisotropy =    20.2659
   XX=   130.9737   YX=    12.4603   ZX=   -11.6541
   XY=     3.2746   YY=   117.3813   ZY=     7.7350
   XZ=    -7.2441   YZ=    14.1689   ZZ=   122.5260
   Eigenvalues:   103.4061   130.3373   137.1376
     16  C    Isotropic =   119.9771   Anisotropy =    18.7665
   XX=   131.5474   YX=     1.8312   ZX=    -8.5408
   XY=     5.1542   YY=   116.2445   ZY=     8.0842
   XZ=     9.6132   YZ=     4.1414   ZZ=   112.1394
   Eigenvalues:   107.6327   119.8105   132.4881
     17  C    Isotropic =    35.6613   Anisotropy =   149.1734
   XX=    62.5079   YX=   -67.5748   ZX=    26.5033
   XY=   -82.2912   YY=   -19.7045   ZY=   -10.8020
   XZ=    61.5426   YZ=   -15.4110   ZZ=    64.1805
   Eigenvalues:   -65.1212    36.9948   135.1102
     18  C    Isotropic =   158.6073   Anisotropy =    21.5945
   XX=   161.7587   YX=   -12.9903   ZX=     5.8773
   XY=   -10.9615   YY=   154.9591   ZY=   -10.5426
   XZ=    -1.2208   YZ=    -1.3481   ZZ=   159.1042
   Eigenvalues:   145.0457   157.7727   173.0037
     19  C    Isotropic =   149.2973   Anisotropy =    42.4111
   XX=   130.3866   YX=   -10.8205   ZX=     0.6762
   XY=   -14.7297   YY=   143.2901   ZY=    -8.4155
   XZ=     2.7226   YZ=   -10.8197   ZZ=   174.2151
   Eigenvalues:   122.2637   148.0568   177.5713
     20  C    Isotropic =   163.7400   Anisotropy =    30.3100
   XX=   158.7518   YX=    -7.8366   ZX=    10.9546
   XY=    -0.8208   YY=   167.5149   ZY=   -12.8299
   XZ=     7.8451   YZ=   -15.1141   ZZ=   164.9532
   Eigenvalues:   149.5894   157.6839   183.9467
     21  C    Isotropic =   164.8611   Anisotropy =    36.4743
   XX=   160.3248   YX=    14.9621   ZX=     0.7162
   XY=     9.4506   YY=   184.0124   ZY=    -2.7396
   XZ=     3.2294   YZ=     0.7052   ZZ=   150.2461
   Eigenvalues:   149.3957   156.0103   189.1773
     22  C    Isotropic =   171.0472   Anisotropy =    22.1593
   XX=   158.6568   YX=    -5.7470   ZX=    -7.2670
   XY=     0.1701   YY=   173.1187   ZY=     6.1628
   XZ=    -6.5119   YZ=     4.0163   ZZ=   181.3661
   Eigenvalues:   156.6172   170.7043   185.8201
     23  C    Isotropic =    40.2588   Anisotropy =   122.6154
   XX=    26.2180   YX=   -76.7150   ZX=    -8.4379
   XY=   -71.6251   YY=    63.1122   ZY=     1.3742
   XZ=   -23.8624   YZ=    -3.7600   ZZ=    31.4462
   Eigenvalues:   -34.5317    33.3057   122.0024
     24  C    Isotropic =    41.6122   Anisotropy =   136.3457
   XX=    35.5431   YX=   -73.6226   ZX=   -40.6927
   XY=   -61.7711   YY=    75.3867   ZY=     7.5127
   XZ=   -42.7395   YZ=    -2.7534   ZZ=    13.9069
   Eigenvalues:   -37.0721    29.3994   132.5093
     25  C    Isotropic =    31.5438   Anisotropy =   147.9179
   XX=    51.5906   YX=   -70.7581   ZX=   -50.0623
   XY=   -82.2175   YY=    42.4286   ZY=    -6.7808
   XZ=   -38.4157   YZ=    -4.8559   ZZ=     0.6122
   Eigenvalues:   -53.6319    18.1076   130.1557
     26  C    Isotropic =    48.4288   Anisotropy =   131.8054
   XX=    60.8870   YX=   -57.8267   ZX=   -36.9582
   XY=   -53.4045   YY=    87.6552   ZY=   -14.6508
   XZ=   -34.0218   YZ=    23.5283   ZZ=    -3.2559
   Eigenvalues:   -23.1481    32.1353   136.2990
     27  C    Isotropic =   167.7323   Anisotropy =    19.2679
   XX=   166.1977   YX=    -1.3345   ZX=     6.5070
   XY=     0.1793   YY=   167.9393   ZY=     7.7976
   XZ=    13.7234   YZ=     7.9193   ZZ=   169.0598
   Eigenvalues:   154.7723   167.8470   180.5775
     28  C    Isotropic =   169.2502   Anisotropy =    19.8795
   XX=   174.1798   YX=    11.1854   ZX=     5.3985
   XY=     4.2951   YY=   171.3597   ZY=     2.9623
   XZ=     4.2636   YZ=     4.6657   ZZ=   162.2110
   Eigenvalues:   160.3397   164.9075   182.5032
     29  C    Isotropic =    35.9145   Anisotropy =   210.0998
   XX=   131.3726   YX=    63.3435   ZX=    62.3546
   XY=    63.2126   YY=   -34.1097   ZY=    11.2621
   XZ=    59.1067   YZ=    16.0997   ZZ=    10.4805
   Eigenvalues:   -56.4073   -11.8303   175.9810
     30  C    Isotropic =    42.0481   Anisotropy =   199.0460
   XX=   149.1133   YX=    18.9797   ZX=    54.3618
   XY=    35.5447   YY=     2.4818   ZY=    57.4595
   XZ=    52.0272   YZ=    56.2390   ZZ=   -25.4509
   Eigenvalues:   -73.1940    24.5928   174.7454
     31  C    Isotropic =    50.5597   Anisotropy =   187.3117
   XX=   129.2762   YX=    46.5838   ZX=    82.3896
   XY=    48.9748   YY=    41.3605   ZY=   -11.9748
   XZ=    76.4517   YZ=   -12.6513   ZZ=   -18.9576
   Eigenvalues:   -62.9037    39.1485   175.4342
     32  C    Isotropic =    51.3073   Anisotropy =   188.7403
   XX=   136.8117   YX=    74.2492   ZX=    43.3038
   XY=    66.2742   YY=   -32.7097   ZY=     6.0618
   XZ=    43.8714   YZ=     9.4910   ZZ=    49.8200
   Eigenvalues:   -58.6038    35.3917   177.1342
     33  C    Isotropic =    51.2135   Anisotropy =   187.6736
   XX=   149.2294   YX=    32.6991   ZX=    45.0971
   XY=    31.2522   YY=    14.0303   ZY=    59.1479
   XZ=    48.2182   YZ=    60.1536   ZZ=    -9.6193
   Eigenvalues:   -59.9479    37.2592   176.3292
     34  C    Isotropic =    44.3331   Anisotropy =   188.4692
   XX=   127.2147   YX=    34.4104   ZX=    85.3772
   XY=    50.1028   YY=    30.7218   ZY=    -9.2127
   XZ=    76.3306   YZ=   -22.5160   ZZ=   -24.9374
   Eigenvalues:   -70.0744    33.0944   169.9792
     35  C    Isotropic =    40.4353   Anisotropy =   205.9221
   XX=   -35.1862   YX=   -16.8479   ZX=   -12.3848
   XY=   -28.4401   YY=    24.6558   ZY=   -92.0009
   XZ=   -10.0179   YZ=   -75.5874   ZZ=   131.8362
   Eigenvalues:   -54.3953    -2.0156   177.7167
     36  C    Isotropic =    42.2889   Anisotropy =   186.9577
   XX=   -55.8592   YX=    25.4234   ZX=    25.5987
   XY=    34.5186   YY=    57.9372   ZY=   -59.6895
   XZ=    19.9094   YZ=   -75.7210   ZZ=   124.7888
   Eigenvalues:   -71.9054    31.8448   166.9274
     37  C    Isotropic =    52.0540   Anisotropy =   184.4434
   XX=    38.5212   YX=    11.6713   ZX=    11.1232
   XY=    12.4584   YY=    -4.4950   ZY=   -95.8800
   XZ=    10.1082   YZ=   -98.7548   ZZ=   122.1358
   Eigenvalues:   -59.7792    40.9249   175.0163
     38  C    Isotropic =    51.0040   Anisotropy =   187.9365
   XX=   -20.5956   YX=   -41.1574   ZX=   -18.9396
   XY=   -42.6911   YY=    33.8218   ZY=   -72.9575
   XZ=   -18.5234   YZ=   -71.2203   ZZ=   139.7860
   Eigenvalues:   -58.3740    35.0911   176.2951
     39  C    Isotropic =    52.1023   Anisotropy =   184.3528
   XX=   -45.5250   YX=    30.4872   ZX=    16.6831
   XY=    27.4041   YY=    58.8838   ZY=   -58.3050
   XZ=    16.2575   YZ=   -63.7031   ZZ=   142.9480
   Eigenvalues:   -58.5114    39.8141   175.0041
     40  C    Isotropic =    41.3076   Anisotropy =   201.9372
   XX=    17.6301   YX=    21.1069   ZX=    11.1337
   XY=    18.3288   YY=   -13.4376   ZY=   -95.6372
   XZ=    -3.8212   YZ=  -110.1072   ZZ=   119.7301
   Eigenvalues:   -73.3952    21.3855   175.9324
     41  P    Isotropic =   302.5909   Anisotropy =    38.4625
   XX=   283.4595   YX=    15.2129   ZX=    30.7993
   XY=     2.6075   YY=   321.5180   ZY=   -15.3356
   XZ=    28.9301   YZ=    -6.9936   ZZ=   302.7952
   Eigenvalues:   258.7063   320.8338   328.2326
     42  P    Isotropic =   299.5541   Anisotropy =    55.3659
   XX=   300.3975   YX=   -35.7581   ZX=   -43.0082
   XY=   -19.0424   YY=   290.9801   ZY=   -14.8252
   XZ=   -15.9261   YZ=    -7.5031   ZZ=   307.2848
   Eigenvalues:   253.0110   309.1867   336.4647
     43  S    Isotropic =   161.9247   Anisotropy =   162.5270
   XX=   192.9554   YX=   -45.0097   ZX=    47.7515
   XY=   -25.9743   YY=   177.3002   ZY=   133.9878
   XZ=    78.6568   YZ=   101.8631   ZZ=   115.5184
   Eigenvalues:    -1.9427   217.4408   270.2760
     44  H    Isotropic =    24.3645   Anisotropy =    15.8517
   XX=    33.7978   YX=    -1.5135   ZX=    -1.7095
   XY=    -6.0735   YY=    19.9875   ZY=    -0.1663
   XZ=    -1.9286   YZ=    -1.2795   ZZ=    19.3083
   Eigenvalues:    17.9322    20.2290    34.9323
     45  C    Isotropic =   163.3499   Anisotropy =    39.7463
   XX=   168.0358   YX=   -12.4930   ZX=     8.3590
   XY=   -13.8872   YY=   164.4475   ZY=   -22.6647
   XZ=     4.1957   YZ=   -15.8288   ZZ=   157.5663
   Eigenvalues:   140.8525   159.3497   189.8474
     46  H    Isotropic =    24.3382   Anisotropy =     7.3470
   XX=    23.1837   YX=    -0.8818   ZX=    -0.4275
   XY=    -1.0825   YY=    24.9814   ZY=    -4.2064
   XZ=    -0.3239   YZ=    -4.3700   ZZ=    24.8494
   Eigenvalues:    20.3061    23.4723    29.2362
     47  C    Isotropic =   162.8666   Anisotropy =    40.8185
   XX=   165.7766   YX=     4.5030   ZX=   -12.0966
   XY=     7.8896   YY=   157.6153   ZY=   -19.1954
   XZ=   -15.6667   YZ=   -19.4739   ZZ=   165.2079
   Eigenvalues:   140.8756   157.6453   190.0789
     48  H    Isotropic =    23.7674   Anisotropy =    11.8632
   XX=    26.2489   YX=     1.2356   ZX=    -5.1685
   XY=     1.4653   YY=    19.5400   ZY=     0.8922
   XZ=    -6.2376   YZ=    -0.8875   ZZ=    25.5131
   Eigenvalues:    18.8255    20.8004    31.6761
     49  H    Isotropic =    24.3147   Anisotropy =     8.1945
   XX=    22.3496   YX=    -1.6024   ZX=    -0.9758
   XY=    -3.4432   YY=    24.3726   ZY=    -3.2571
   XZ=    -1.8389   YZ=    -5.4345   ZZ=    26.2220
   Eigenvalues:    18.6508    24.5156    29.7777
     50  C    Isotropic =   162.7535   Anisotropy =    37.5519
   XX=   148.4643   YX=     5.4710   ZX=     7.2619
   XY=     4.3239   YY=   155.1865   ZY=    -3.3972
   XZ=    14.5254   YZ=    -3.8507   ZZ=   184.6096
   Eigenvalues:   142.7994   157.6729   187.7881
     51  H    Isotropic =    24.4326   Anisotropy =     6.9118
   XX=    22.0302   YX=     0.5243   ZX=     2.9936
   XY=     0.8062   YY=    24.8494   ZY=     1.6713
   XZ=     3.6631   YZ=     1.8450   ZZ=    26.4181
   Eigenvalues:    20.2231    24.0342    29.0404
     52  C    Isotropic =   162.9459   Anisotropy =    39.8206
   XX=   154.3150   YX=    17.9980   ZX=     6.8717
   XY=    18.3017   YY=   174.3603   ZY=     6.2550
   XZ=    12.2093   YZ=     8.7411   ZZ=   160.1625
   Eigenvalues:   142.2993   157.0454   189.4930
     53  H    Isotropic =    23.3692   Anisotropy =     9.5244
   XX=    23.8763   YX=     3.5413   ZX=    -0.8327
   XY=     3.1604   YY=    27.5834   ZY=     1.4397
   XZ=     1.6317   YZ=     1.1737   ZZ=    18.6480
   Eigenvalues:    18.4593    21.9296    29.7188
     54  H    Isotropic =    24.0679   Anisotropy =    14.2500
   XX=    30.9778   YX=     6.2734   ZX=     2.0888
   XY=     2.6755   YY=    22.9099   ZY=    -0.1791
   XZ=     3.7609   YZ=     1.9039   ZZ=    18.3159
   Eigenvalues:    17.6692    20.9665    33.5679
     55  H    Isotropic =    23.8704   Anisotropy =     3.5982
   XX=    25.6943   YX=    -0.5885   ZX=     0.3065
   XY=    -1.1682   YY=    24.1394   ZY=     1.9874
   XZ=     0.0524   YZ=     2.3002   ZZ=    21.7777
   Eigenvalues:    20.4410    24.9011    26.2693
     56  H    Isotropic =    24.1513   Anisotropy =     6.5300
   XX=    25.7436   YX=     2.2234   ZX=     1.7805
   XY=     1.1325   YY=    25.3452   ZY=     2.1520
   XZ=     2.1182   YZ=     2.5019   ZZ=    21.3650
   Eigenvalues:    20.0566    23.8926    28.5046
     57  H    Isotropic =    22.8233   Anisotropy =     8.7708
   XX=    21.7792   YX=     3.0537   ZX=     3.8500
   XY=     2.5406   YY=    24.1415   ZY=     2.0616
   XZ=     1.6126   YZ=     3.9915   ZZ=    22.5493
   Eigenvalues:    19.3964    20.4030    28.6705
     58  H    Isotropic =    23.6888   Anisotropy =     6.5309
   XX=    27.0687   YX=     1.5123   ZX=     1.8258
   XY=     1.1950   YY=    22.3094   ZY=     1.3428
   XZ=     1.4193   YZ=     1.6487   ZZ=    21.6884
   Eigenvalues:    20.4400    22.5837    28.0427
     59  H    Isotropic =    23.4776   Anisotropy =     8.3737
   XX=    21.5660   YX=    -0.6772   ZX=     1.5735
   XY=    -0.3267   YY=    26.7156   ZY=    -3.9816
   XZ=     0.6220   YZ=    -3.7692   ZZ=    22.1514
   Eigenvalues:    19.6610    21.7118    29.0601
     60  H    Isotropic =    23.8514   Anisotropy =     3.1494
   XX=    22.3814   YX=    -1.5569   ZX=    -1.0701
   XY=    -1.7758   YY=    24.0631   ZY=    -1.2784
   XZ=    -1.3032   YZ=    -1.2380   ZZ=    25.1096
   Eigenvalues:    20.7144    24.8887    25.9509
     61  H    Isotropic =    23.8551   Anisotropy =     5.0834
   XX=    22.4222   YX=    -3.0986   ZX=    -0.4015
   XY=    -2.6498   YY=    25.5211   ZY=     0.0474
   XZ=    -0.5824   YZ=    -0.2637   ZZ=    23.6220
   Eigenvalues:    20.6299    23.6913    27.2440
     62  H    Isotropic =    24.1244   Anisotropy =    12.3805
   XX=    24.9560   YX=    -5.6496   ZX=     1.4233
   XY=    -5.7176   YY=    27.5496   ZY=     1.1437
   XZ=    -1.0189   YZ=     4.0456   ZZ=    19.8676
   Eigenvalues:    18.1928    21.8023    32.3780
     63  H    Isotropic =    23.8854   Anisotropy =     6.9117
   XX=    23.0804   YX=    -2.9978   ZX=    -0.0802
   XY=    -2.7821   YY=    26.7480   ZY=    -1.3886
   XZ=    -0.5230   YZ=    -1.2525   ZZ=    21.8277
   Eigenvalues:    20.6865    22.4764    28.4932
     64  H    Isotropic =    29.0825   Anisotropy =     8.4564
   XX=    25.3150   YX=    -1.4644   ZX=     3.4248
   XY=     0.4130   YY=    31.0769   ZY=    -3.0635
   XZ=     2.6324   YZ=    -3.0606   ZZ=    30.8556
   Eigenvalues:    23.8877    28.6397    34.7201
     65  H    Isotropic =    28.6434   Anisotropy =     7.9859
   XX=    29.5429   YX=     4.2847   ZX=    -1.6649
   XY=     3.6105   YY=    27.2219   ZY=    -3.3076
   XZ=    -0.7105   YZ=    -2.1757   ZZ=    29.1654
   Eigenvalues:    23.7897    28.1732    33.9674
     66  H    Isotropic =    29.1980   Anisotropy =     9.6146
   XX=    24.9119   YX=    -0.5422   ZX=    -1.7207
   XY=     0.0335   YY=    29.6463   ZY=     3.9714
   XZ=    -1.7380   YZ=     3.3361   ZZ=    33.0357
   Eigenvalues:    24.4960    27.4903    35.6077
     67  H    Isotropic =    30.5710   Anisotropy =     8.0814
   XX=    29.6293   YX=     4.7817   ZX=    -1.0654
   XY=     3.3304   YY=    29.7824   ZY=    -4.2082
   XZ=     0.4325   YZ=    -2.6044   ZZ=    32.3012
   Eigenvalues:    24.9385    30.8158    35.9586
     68  H    Isotropic =    30.5376   Anisotropy =    10.5064
   XX=    33.3751   YX=    -0.2497   ZX=     3.9017
   XY=    -0.7893   YY=    24.5644   ZY=    -6.2273
   XZ=     2.4272   YZ=    -1.6836   ZZ=    33.6732
   Eigenvalues:    23.0461    31.0249    37.5419
     69  H    Isotropic =    30.7737   Anisotropy =     5.5007
   XX=    27.9458   YX=     0.7340   ZX=     0.6700
   XY=    -2.8425   YY=    30.2940   ZY=     1.4979
   XZ=     2.1978   YZ=    -0.2067   ZZ=    34.0814
   Eigenvalues:    27.1844    30.6959    34.4408
     70  H    Isotropic =    30.3825   Anisotropy =     5.0868
   XX=    33.3685   YX=    -1.1932   ZX=    -0.3697
   XY=     1.1759   YY=    29.0094   ZY=     1.9822
   XZ=    -2.3494   YZ=     0.8611   ZZ=    28.7695
   Eigenvalues:    27.2918    30.0819    33.7737
     71  H    Isotropic =    30.2619   Anisotropy =     8.1237
   XX=    26.2375   YX=    -0.7282   ZX=     0.7055
   XY=     0.2855   YY=    29.0716   ZY=    -0.6668
   XZ=     0.6797   YZ=    -1.2928   ZZ=    35.4766
   Eigenvalues:    26.1780    28.9300    35.6777
     72  H    Isotropic =    31.0947   Anisotropy =    10.1360
   XX=    27.4252   YX=    -1.1042   ZX=    -0.3719
   XY=    -0.1937   YY=    36.1991   ZY=     3.3454
   XZ=    -1.4103   YZ=     3.7791   ZZ=    29.6597
   Eigenvalues:    27.0468    28.3852    37.8521
     73  H    Isotropic =    30.8477   Anisotropy =     8.8814
   XX=    29.3656   YX=     0.6593   ZX=     2.8542
   XY=    -0.0724   YY=    27.2528   ZY=     0.1418
   XZ=     1.9118   YZ=     1.3793   ZZ=    35.9247
   Eigenvalues:    27.1818    28.5927    36.7686
     74  H    Isotropic =    29.6370   Anisotropy =     4.6344
   XX=    28.1625   YX=     0.9941   ZX=     3.6933
   XY=     0.9283   YY=    32.4067   ZY=    -0.0274
   XZ=     1.9457   YZ=    -2.2744   ZZ=    28.3418
   Eigenvalues:    25.1257    31.0588    32.7266
     75  H    Isotropic =    31.1947   Anisotropy =     8.8344
   XX=    36.6731   YX=    -0.5812   ZX=     1.3637
   XY=    -1.4984   YY=    28.2163   ZY=     0.6259
   XZ=     1.8738   YZ=     0.4651   ZZ=    28.6946
   Eigenvalues:    27.5080    28.9917    37.0843
     76  H    Isotropic =    30.8833   Anisotropy =    10.5675
   XX=    28.6844   YX=     3.1055   ZX=     1.5176
   XY=     2.7423   YY=    32.5854   ZY=     5.3109
   XZ=     0.9701   YZ=     4.5212   ZZ=    31.3802
   Eigenvalues:    26.3462    28.3755    37.9284
     77  H    Isotropic =    31.0848   Anisotropy =    10.7490
   XX=    36.3288   YX=     3.5684   ZX=    -0.9841
   XY=     4.2409   YY=    30.1273   ZY=     0.0439
   XZ=    -0.8165   YZ=     0.7118   ZZ=    26.7984
   Eigenvalues:    26.4620    28.5416    38.2508
     78  H    Isotropic =    30.6339   Anisotropy =     8.6485
   XX=    28.9955   YX=     3.0967   ZX=     2.0448
   XY=     1.6235   YY=    35.3410   ZY=    -3.1647
   XZ=     2.4384   YZ=    -1.4253   ZZ=    27.5653
   Eigenvalues:    24.9123    30.5898    36.3996
     79  H    Isotropic =    29.0676   Anisotropy =    12.9589
   XX=    29.4354   YX=    -2.2244   ZX=    -4.3714
   XY=    -4.2358   YY=    30.0861   ZY=     3.4008
   XZ=    -6.2726   YZ=     5.4010   ZZ=    27.6813
   Eigenvalues:    22.8258    26.6701    37.7068
     80  H    Isotropic =    30.2152   Anisotropy =     7.2641
   XX=    29.9589   YX=    -0.5141   ZX=     3.1465
   XY=     1.1252   YY=    27.3485   ZY=     0.9039
   XZ=     2.5371   YZ=     0.8004   ZZ=    33.3382
   Eigenvalues:    27.2239    28.3637    35.0579
     81  H    Isotropic =    29.8183   Anisotropy =    10.5809
   XX=    28.2724   YX=     2.6116   ZX=    -2.7570
   XY=     3.3867   YY=    31.7302   ZY=    -4.9777
   XZ=    -2.1213   YZ=    -3.8204   ZZ=    29.4525
   Eigenvalues:    26.0328    26.5499    36.8723
     82  H    Isotropic =    30.6628   Anisotropy =     7.2401
   XX=    29.9962   YX=    -0.4209   ZX=     1.4985
   XY=    -0.6788   YY=    35.4342   ZY=     0.2491
   XZ=     1.0018   YZ=     0.0992   ZZ=    26.5581
   Eigenvalues:    26.1394    30.3596    35.4895
     83  H    Isotropic =    32.4939   Anisotropy =    22.6236
   XX=    44.8373   YX=    -0.8771   ZX=     6.5969
   XY=     4.1186   YY=    25.9961   ZY=     0.3420
   XZ=     8.1996   YZ=    -0.2713   ZZ=    26.6482
   Eigenvalues:    23.8897    26.0157    47.5763
     84  H    Isotropic =    29.1960   Anisotropy =     8.9107
   XX=    34.2024   YX=     1.1297   ZX=     1.8884
   XY=     0.0204   YY=    26.2970   ZY=    -1.1837
   XZ=     3.5947   YZ=    -1.9573   ZZ=    27.0885
   Eigenvalues:    24.5522    27.8993    35.1365
     85  H    Isotropic =    29.5670   Anisotropy =     5.8946
   XX=    31.6221   YX=    -1.8075   ZX=    -0.9966
   XY=    -0.9474   YY=    27.2440   ZY=    -4.3497
   XZ=    -3.1088   YZ=    -4.1116   ZZ=    29.8348
   Eigenvalues:    23.4460    31.7582    33.4967
     86  H    Isotropic =    29.1136   Anisotropy =     9.6651
   XX=    28.7063   YX=    -3.2549   ZX=    -1.8474
   XY=    -5.0615   YY=    32.3127   ZY=     0.9623
   XZ=    -2.1690   YZ=     1.5913   ZZ=    26.3218
   Eigenvalues:    24.9364    26.8473    35.5570
     87  H    Isotropic =    28.7469   Anisotropy =     8.3603
   XX=    27.8896   YX=     0.6821   ZX=    -0.5627
   XY=     0.0032   YY=    24.1229   ZY=    -0.0733
   XZ=     0.2384   YZ=    -1.8035   ZZ=    34.2283
   Eigenvalues:    24.0090    27.9113    34.3205
     88  H    Isotropic =    28.7815   Anisotropy =     6.6896
   XX=    27.9482   YX=     0.6333   ZX=    -3.2146
   XY=    -0.4227   YY=    32.8790   ZY=    -1.8780
   XZ=    -2.1121   YZ=    -1.0489   ZZ=    25.5175
   Eigenvalues:    23.6537    29.4496    33.2413
     89  H    Isotropic =    29.3685   Anisotropy =     8.9543
   XX=    34.3877   YX=    -1.1657   ZX=    -1.8674
   XY=     0.4393   YY=    26.3478   ZY=    -2.4376
   XZ=    -3.5731   YZ=    -2.1771   ZZ=    27.3701
   Eigenvalues:    24.0850    28.6826    35.3381
     90  H    Isotropic =    28.7994   Anisotropy =     9.2804
   XX=    25.4372   YX=    -1.0759   ZX=    -2.5120
   XY=     0.1271   YY=    31.3746   ZY=     4.9332
   XZ=    -0.9284   YZ=     3.4433   ZZ=    29.5863
   Eigenvalues:    24.5683    26.8434    34.9863
     91  H    Isotropic =    29.4776   Anisotropy =     8.6874
   XX=    26.0652   YX=     3.4553   ZX=    -0.5946
   XY=     2.8655   YY=    33.4729   ZY=    -3.0957
   XZ=     1.4269   YZ=    -1.4420   ZZ=    28.8946
   Eigenvalues:    24.5507    28.6128    35.2692
     92  H    Isotropic =    28.7094   Anisotropy =     7.3493
   XX=    30.2558   YX=    -0.1054   ZX=     4.8142
   XY=    -0.5933   YY=    29.9601   ZY=     0.4184
   XZ=     5.0446   YZ=    -1.9407   ZZ=    25.9122
   Eigenvalues:    22.6698    29.8494    33.6089
     93  H    Isotropic =    29.3979   Anisotropy =     4.9690
   XX=    29.1068   YX=     2.3239   ZX=     3.2882
   XY=     1.4242   YY=    29.7440   ZY=    -2.1969
   XZ=     3.4774   YZ=    -0.0837   ZZ=    29.3429
   Eigenvalues:    24.8904    30.5927    32.7106
     94  H    Isotropic =    28.7160   Anisotropy =     5.1330
   XX=    27.7820   YX=    -1.6389   ZX=    -2.6045
   XY=    -1.3584   YY=    27.6685   ZY=    -1.2039
   XZ=    -2.3051   YZ=    -1.4365   ZZ=    30.6974
   Eigenvalues:    24.9605    29.0495    32.1380
     95  H    Isotropic =    29.1005   Anisotropy =    10.5758
   XX=    25.6827   YX=    -2.5103   ZX=     3.6631
   XY=    -1.6589   YY=    32.9414   ZY=    -3.3204
   XZ=     2.2005   YZ=    -4.1353   ZZ=    28.6774
   Eigenvalues:    23.8835    27.2670    36.1511
 End of Minotr F.D. properties file   721 does not exist.
 End of Minotr F.D. properties file   722 does not exist.
 End of Minotr F.D. properties file   788 does not exist.

 **********************************************************************

            Population analysis using the SCF Density.

 **********************************************************************

 Orbital symmetries:
       Occupied  (A) (A) (A) (A) (A) (A) (A) (A) (A) (A) (A) (A)
                 (A) (A) (A) (A) (A) (A) (A) (A) (A) (A) (A) (A)
                 (A) (A) (A) (A) (A) (A) (A) (A) (A) (A) (A) (A)
                 (A) (A) (A) (A) (A) (A) (A) (A) (A) (A) (A) (A)
                 (A) (A) (A) (A) (A) (A) (A) (A) (A) (A) (A) (A)
                 (A) (A) (A) (A) (A) (A) (A) (A) (A) (A) (A) (A)
                 (A) (A) (A) (A) (A) (A) (A) (A) (A) (A) (A) (A)
                 (A) (A) (A) (A) (A) (A) (A) (A) (A) (A) (A) (A)
                 (A) (A) (A) (A) (A) (A) (A) (A) (A) (A) (A) (A)
                 (A) (A) (A) (A) (A) (A) (A) (A) (A) (A) (A) (A)
                 (A) (A) (A) (A) (A) (A) (A) (A) (A) (A) (A) (A)
                 (A) (A) (A) (A) (A) (A) (A) (A) (A) (A) (A) (A)
                 (A) (A) (A) (A) (A) (A) (A) (A) (A) (A) (A) (A)
                 (A) (A) (A) (A) (A) (A) (A) (A) (A) (A) (A) (A)
                 (A) (A) (A) (A) (A) (A) (A) (A) (A) (A) (A)
       Virtual   (A) (A) (A) (A) (A) (A) (A) (A) (A) (A) (A) (A)
                 (A) (A) (A) (A) (A) (A) (A) (A) (A) (A) (A) (A)
                 (A) (A) (A) (A) (A) (A) (A) (A) (A) (A) (A) (A)
                 (A) (A) (A) (A) (A) (A) (A) (A) (A) (A) (A) (A)
                 (A) (A) (A) (A) (A) (A) (A) (A) (A) (A) (A) (A)
                 (A) (A) (A) (A) (A) (A) (A) (A) (A) (A) (A) (A)
                 (A) (A) (A) (A) (A) (A) (A) (A) (A) (A) (A) (A)
                 (A) (A) (A) (A) (A) (A) (A) (A) (A) (A) (A) (A)
                 (A) (A) (A) (A) (A) (A) (A) (A) (A) (A) (A) (A)
                 (A) (A) (A) (A) (A) (A) (A) (A) (A) (A) (A) (A)
                 (A) (A) (A) (A) (A) (A) (A) (A) (A) (A) (A) (A)
                 (A) (A) (A) (A) (A) (A) (A) (A) (A) (A) (A) (A)
                 (A) (A) (A) (A) (A) (A) (A) (A) (A) (A) (A) (A)
                 (A) (A) (A) (A) (A) (A) (A) (A) (A) (A) (A) (A)
                 (A) (A) (A) (A) (A) (A) (A) (A) (A) (A) (A) (A)
                 (A) (A) (A) (A) (A) (A) (A) (A) (A) (A) (A) (A)
                 (A) (A) (A) (A) (A) (A) (A) (A) (A) (A) (A) (A)
                 (A) (A) (A) (A) (A) (A) (A) (A) (A) (A) (A) (A)
                 (A) (A) (A) (A) (A) (A) (A) (A) (A) (A) (A) (A)
                 (A) (A) (A) (A) (A) (A) (A) (A) (A) (A) (A) (A)
                 (A) (A) (A) (A) (A) (A) (A) (A) (A) (A) (A) (A)
                 (A) (A) (A) (A) (A) (A) (A) (A) (A) (A) (A) (A)
                 (A) (A) (A) (A) (A) (A) (A) (A) (A) (A) (A) (A)
                 (A) (A) (A) (A) (A) (A) (A) (A) (A) (A) (A) (A)
                 (A) (A) (A) (A) (A) (A) (A) (A) (A) (A) (A) (A)
                 (A) (A) (A) (A) (A) (A) (A) (A) (A) (A) (A) (A)
                 (A) (A) (A) (A) (A) (A) (A) (A) (A) (A) (A) (A)
                 (A) (A) (A) (A) (A) (A) (A) (A) (A) (A) (A) (A)
                 (A) (A) (A) (A) (A) (A) (A) (A) (A) (A) (A) (A)
                 (A) (A) (A) (A) (A) (A) (A) (A) (A) (A) (A) (A)
                 (A) (A) (A) (A) (A) (A) (A) (A) (A) (A) (A) (A)
                 (A) (A) (A) (A) (A) (A) (A) (A) (A) (A) (A) (A)
                 (A) (A) (A) (A) (A) (A) (A) (A) (A) (A) (A) (A)
                 (A) (A) (A) (A) (A) (A) (A) (A) (A) (A) (A) (A)
                 (A) (A) (A) (A) (A) (A) (A) (A) (A) (A) (A) (A)
                 (A) (A) (A) (A) (A) (A) (A) (A) (A) (A) (A) (A)
                 (A) (A) (A) (A) (A) (A) (A) (A) (A) (A) (A) (A)
                 (A) (A) (A) (A) (A) (A) (A) (A) (A) (A) (A) (A)
                 (A) (A) (A) (A) (A) (A) (A) (A) (A) (A) (A) (A)
                 (A) (A) (A) (A) (A) (A) (A) (A) (A) (A) (A) (A)
                 (A) (A) (A) (A) (A) (A) (A) (A) (A) (A) (A) (A)
                 (A) (A) (A) (A) (A) (A) (A) (A) (A) (A) (A) (A)
                 (A) (A) (A) (A) (A) (A) (A) (A) (A) (A) (A) (A)
                 (A) (A) (A) (A) (A) (A) (A) (A) (A) (A) (A) (A)
                 (A) (A) (A) (A) (A) (A) (A) (A) (A) (A) (A) (A)
                 (A) (A) (A) (A) (A) (A) (A) (A) (A) (A) (A) (A)
                 (A) (A) (A) (A) (A) (A) (A) (A) (A) (A) (A) (A)
                 (A) (A) (A) (A) (A) (A) (A) (A) (A) (A) (A) (A)
                 (A) (A) (A) (A) (A) (A) (A) (A) (A) (A) (A) (A)
                 (A) (A) (A) (A) (A) (A) (A) (A) (A) (A) (A) (A)
                 (A) (A) (A) (A) (A) (A) (A) (A) (A) (A) (A) (A)
                 (A) (A) (A) (A) (A) (A) (A) (A) (A) (A) (A) (A)
                 (A) (A) (A) (A) (A) (A) (A) (A) (A) (A) (A) (A)
                 (A) (A) (A) (A) (A) (A) (A) (A) (A) (A) (A) (A)
                 (A) (A) (A) (A) (A) (A) (A) (A) (A) (A) (A) (A)
                 (A) (A) (A) (A) (A) (A) (A) (A) (A) (A) (A) (A)
                 (A) (A) (A) (A) (A) (A) (A) (A) (A) (A) (A) (A)
                 (A) (A) (A) (A) (A) (A) (A) (A) (A) (A) (A) (A)
                 (A) (A) (A) (A) (A) (A) (A) (A) (A) (A) (A) (A)
                 (A) (A) (A) (A) (A) (A) (A) (A) (A) (A) (A) (A)
                 (A) (A) (A) (A) (A) (A) (A) (A) (A) (A) (A) (A)
                 (A) (A) (A) (A) (A) (A) (A) (A) (A) (A) (A) (A)
                 (A) (A) (A) (A) (A) (A) (A) (A) (A) (A) (A) (A)
                 (A) (A) (A) (A) (A) (A) (A) (A) (A) (A) (A) (A)
                 (A) (A) (A) (A) (A) (A) (A) (A) (A) (A) (A) (A)
                 (A) (A) (A) (A) (A) (A) (A) (A) (A) (A) (A) (A)
                 (A) (A) (A) (A) (A) (A) (A) (A) (A) (A) (A) (A)
                 (A) (A) (A) (A) (A) (A) (A) (A) (A) (A) (A) (A)
                 (A) (A) (A) (A) (A) (A) (A) (A) (A) (A) (A) (A)
                 (A) (A) (A) (A) (A) (A) (A) (A) (A) (A) (A) (A)
                 (A) (A) (A) (A) (A) (A) (A) (A) (A) (A) (A) (A)
                 (A) (A) (A) (A) (A) (A) (A) (A) (A) (A) (A) (A)
                 (A) (A) (A) (A) (A) (A) (A) (A) (A) (A) (A) (A)
                 (A) (A) (A) (A) (A) (A) (A) (A) (A) (A) (A) (A)
                 (A) (A) (A) (A) (A) (A) (A) (A) (A) (A) (A) (A)
                 (A) (A) (A) (A) (A) (A) (A) (A) (A) (A) (A) (A)
                 (A) (A) (A) (A) (A) (A) (A) (A) (A) (A) (A) (A)
                 (A) (A) (A) (A) (A) (A) (A) (A) (A) (A) (A) (A)
                 (A) (A) (A) (A) (A) (A) (A) (A) (A) (A) (A) (A)
                 (A) (A) (A) (A) (A) (A) (A) (A) (A) (A) (A) (A)
                 (A) (A) (A) (A) (A) (A) (A) (A) (A) (A) (A) (A)
                 (A) (A) (A) (A) (A) (A) (A) (A) (A) (A) (A) (A)
                 (A) (A) (A) (A) (A) (A) (A) (A) (A) (A) (A) (A)
                 (A) (A) (A) (A) (A) (A) (A) (A) (A) (A) (A) (A)
                 (A) (A) (A) (A) (A) (A) (A) (A) (A) (A) (A) (A)
                 (A) (A) (A) (A) (A) (A) (A) (A) (A) (A) (A) (A)
                 (A) (A) (A) (A) (A) (A) (A) (A) (A) (A) (A) (A)
                 (A) (A) (A) (A) (A) (A) (A) (A) (A) (A) (A) (A)
                 (A) (A) (A) (A) (A) (A) (A) (A) (A) (A) (A) (A)
                 (A) (A) (A) (A) (A) (A) (A) (A) (A) (A) (A) (A)
                 (A) (A) (A) (A) (A) (A) (A) (A) (A) (A) (A) (A)
                 (A) (A) (A) (A) (A) (A) (A) (A) (A) (A) (A) (A)
                 (A) (A) (A) (A) (A) (A) (A) (A) (A) (A) (A) (A)
                 (A) (A) (A) (A) (A) (A) (A) (A) (A) (A) (A) (A)
                 (A) (A) (A) (A) (A) (A) (A) (A) (A) (A) (A) (A)
                 (A) (A) (A) (A) (A) (A) (A) (A) (A) (A) (A) (A)
                 (A) (A) (A) (A) (A) (A) (A) (A) (A) (A) (A) (A)
                 (A) (A) (A) (A) (A) (A) (A) (A) (A) (A) (A) (A)
                 (A) (A) (A) (A) (A) (A) (A) (A) (A) (A) (A) (A)
                 (A) (A) (A) (A) (A) (A) (A) (A) (A) (A) (A) (A)
                 (A) (A) (A) (A) (A) (A) (A) (A) (A) (A) (A) (A)
                 (A) (A) (A) (A) (A) (A) (A) (A) (A) (A) (A) (A)
                 (A) (A) (A) (A) (A) (A) (A) (A) (A) (A) (A) (A)
                 (A) (A) (A) (A) (A) (A) (A) (A) (A) (A) (A) (A)
                 (A) (A) (A) (A) (A) (A) (A) (A) (A) (A) (A) (A)
                 (A) (A) (A) (A) (A) (A) (A) (A) (A) (A) (A) (A)
                 (A) (A) (A) (A) (A) (A) (A) (A) (A) (A) (A) (A)
                 (A) (A) (A) (A) (A) (A) (A) (A) (A) (A) (A) (A)
                 (A) (A) (A) (A) (A) (A) (A) (A) (A) (A) (A) (A)
                 (A) (A) (A) (A) (A) (A) (A) (A) (A) (A) (A) (A)
                 (A) (A) (A) (A) (A) (A) (A) (A) (A) (A) (A) (A)
                 (A) (A) (A) (A) (A) (A) (A) (A) (A) (A) (A) (A)
                 (A) (A) (A) (A) (A) (A) (A) (A) (A) (A) (A) (A)
                 (A) (A) (A) (A) (A) (A) (A) (A) (A) (A) (A) (A)
                 (A) (A) (A) (A) (A) (A) (A) (A) (A) (A) (A) (A)
                 (A) (A) (A) (A) (A) (A) (A) (A) (A) (A) (A) (A)
                 (A) (A) (A) (A) (A) (A) (A) (A) (A) (A) (A) (A)
                 (A) (A) (A) (A) (A) (A) (A) (A) (A) (A) (A) (A)
                 (A) (A) (A) (A) (A) (A) (A) (A) (A) (A) (A) (A)
                 (A) (A) (A) (A) (A) (A) (A) (A) (A) (A) (A) (A)
                 (A) (A) (A) (A) (A) (A) (A) (A) (A) (A) (A) (A)
                 (A) (A) (A) (A) (A) (A) (A) (A) (A) (A) (A) (A)
                 (A) (A) (A) (A) (A) (A) (A) (A) (A) (A) (A) (A)
                 (A) (A) (A) (A) (A) (A) (A) (A) (A) (A) (A) (A)
                 (A) (A) (A) (A) (A) (A) (A) (A) (A) (A) (A) (A)
                 (A) (A) (A) (A) (A) (A) (A) (A) (A) (A) (A) (A)
                 (A) (A) (A) (A) (A) (A) (A) (A) (A) (A) (A) (A)
                 (A) (A) (A) (A) (A) (A) (A) (A) (A) (A) (A) (A)
                 (A) (A) (A) (A) (A) (A) (A) (A) (A) (A) (A) (A)
                 (A) (A) (A) (A) (A) (A) (A) (A) (A) (A) (A) (A)
                 (A) (A) (A) (A) (A) (A) (A) (A) (A) (A) (A) (A)
                 (A) (A) (A) (A) (A) (A) (A) (A) (A) (A) (A) (A)
 The electronic state is 1-A.
 Alpha  occ. eigenvalues --  -89.03616 -77.19887 -77.18884 -10.25784 -10.25262
 Alpha  occ. eigenvalues --  -10.24078 -10.23851 -10.23780 -10.23675 -10.23672
 Alpha  occ. eigenvalues --  -10.23615 -10.23603 -10.23526 -10.23514 -10.23492
 Alpha  occ. eigenvalues --  -10.23436 -10.23363 -10.23359 -10.23357 -10.23334
 Alpha  occ. eigenvalues --  -10.23329 -10.23302 -10.23244 -10.23181 -10.23126
 Alpha  occ. eigenvalues --  -10.23114 -10.22827 -10.22546 -10.22324 -10.22314
 Alpha  occ. eigenvalues --  -10.22235 -10.22222 -10.22150 -10.22075 -10.22045
 Alpha  occ. eigenvalues --  -10.21966 -10.21901 -10.21863 -10.21806 -10.21784
 Alpha  occ. eigenvalues --  -10.21656 -10.21514 -10.20912 -10.20481 -10.20446
 Alpha  occ. eigenvalues --  -10.20282 -10.20226  -8.01447  -6.59429  -6.58504
 Alpha  occ. eigenvalues --   -5.95025  -5.94694  -5.94469  -4.73025  -4.73013
 Alpha  occ. eigenvalues --   -4.72566  -4.72105  -4.72073  -4.71661  -0.90835
 Alpha  occ. eigenvalues --   -0.89294  -0.88323  -0.88004  -0.87816  -0.87476
 Alpha  occ. eigenvalues --   -0.80308  -0.80051  -0.79797  -0.79712  -0.78871
 Alpha  occ. eigenvalues --   -0.77839  -0.77207  -0.77180  -0.76909  -0.76577
 Alpha  occ. eigenvalues --   -0.76493  -0.76385  -0.74147  -0.72174  -0.70981
 Alpha  occ. eigenvalues --   -0.70517  -0.69731  -0.69272  -0.69196  -0.68528
 Alpha  occ. eigenvalues --   -0.66748  -0.66299  -0.64690  -0.62837  -0.62710
 Alpha  occ. eigenvalues --   -0.62195  -0.61568  -0.60233  -0.58913  -0.58683
 Alpha  occ. eigenvalues --   -0.58198  -0.58046  -0.55265  -0.54795  -0.54121
 Alpha  occ. eigenvalues --   -0.53144  -0.52351  -0.51382  -0.50932  -0.50353
 Alpha  occ. eigenvalues --   -0.49478  -0.48492  -0.48151  -0.47823  -0.47143
 Alpha  occ. eigenvalues --   -0.47082  -0.46721  -0.46657  -0.46112  -0.45946
 Alpha  occ. eigenvalues --   -0.44626  -0.44416  -0.43989  -0.43768  -0.43732
 Alpha  occ. eigenvalues --   -0.43425  -0.43232  -0.43158  -0.43024  -0.42584
 Alpha  occ. eigenvalues --   -0.42251  -0.42174  -0.41994  -0.41671  -0.41556
 Alpha  occ. eigenvalues --   -0.41240  -0.40981  -0.40911  -0.40594  -0.40499
 Alpha  occ. eigenvalues --   -0.40157  -0.40017  -0.39745  -0.39615  -0.38766
 Alpha  occ. eigenvalues --   -0.38493  -0.38421  -0.38084  -0.37934  -0.37752
 Alpha  occ. eigenvalues --   -0.37677  -0.36883  -0.36648  -0.36446  -0.36125
 Alpha  occ. eigenvalues --   -0.35876  -0.35591  -0.34797  -0.34702  -0.34516
 Alpha  occ. eigenvalues --   -0.34400  -0.33950  -0.33599  -0.33445  -0.33261
 Alpha  occ. eigenvalues --   -0.33100  -0.32744  -0.32456  -0.31444  -0.30473
 Alpha  occ. eigenvalues --   -0.29185  -0.28348  -0.27587  -0.27109  -0.27017
 Alpha  occ. eigenvalues --   -0.26759  -0.26449  -0.25277  -0.24687  -0.24417
 Alpha  occ. eigenvalues --   -0.24148  -0.22399  -0.20948  -0.18342
 Alpha virt. eigenvalues --   -0.03201  -0.02868  -0.02400  -0.01858  -0.01539
 Alpha virt. eigenvalues --   -0.01076  -0.00799  -0.00292   0.00265   0.00694
 Alpha virt. eigenvalues --    0.02587   0.03578   0.04256   0.04844   0.04911
 Alpha virt. eigenvalues --    0.05273   0.05378   0.06289   0.06455   0.06870
 Alpha virt. eigenvalues --    0.07163   0.07272   0.07564   0.07902   0.08217
 Alpha virt. eigenvalues --    0.08425   0.08610   0.08842   0.09044   0.09410
 Alpha virt. eigenvalues --    0.09644   0.09686   0.10049   0.10300   0.10374
 Alpha virt. eigenvalues --    0.10744   0.10814   0.11020   0.11484   0.11586
 Alpha virt. eigenvalues --    0.11857   0.12122   0.12183   0.12217   0.12372
 Alpha virt. eigenvalues --    0.12607   0.12780   0.13133   0.13431   0.13533
 Alpha virt. eigenvalues --    0.13772   0.13940   0.14045   0.14374   0.14547
 Alpha virt. eigenvalues --    0.14864   0.15098   0.15154   0.15316   0.15414
 Alpha virt. eigenvalues --    0.15489   0.15941   0.16088   0.16334   0.16610
 Alpha virt. eigenvalues --    0.16944   0.17050   0.17159   0.17374   0.17491
 Alpha virt. eigenvalues --    0.17617   0.17974   0.18129   0.18301   0.18397
 Alpha virt. eigenvalues --    0.18613   0.18905   0.19031   0.19195   0.19505
 Alpha virt. eigenvalues --    0.19742   0.19893   0.20124   0.20327   0.20499
 Alpha virt. eigenvalues --    0.21181   0.21361   0.21590   0.21712   0.21946
 Alpha virt. eigenvalues --    0.22125   0.22231   0.22726   0.22774   0.22867
 Alpha virt. eigenvalues --    0.23054   0.23238   0.23574   0.23694   0.23981
 Alpha virt. eigenvalues --    0.24087   0.24281   0.24595   0.24848   0.24931
 Alpha virt. eigenvalues --    0.25342   0.25431   0.25578   0.25786   0.26212
 Alpha virt. eigenvalues --    0.26497   0.26809   0.26948   0.27148   0.27351
 Alpha virt. eigenvalues --    0.27714   0.28005   0.28211   0.28344   0.28622
 Alpha virt. eigenvalues --    0.28908   0.29210   0.29426   0.29638   0.29949
 Alpha virt. eigenvalues --    0.30118   0.30204   0.30471   0.30641   0.31014
 Alpha virt. eigenvalues --    0.31170   0.31667   0.31838   0.32052   0.32275
 Alpha virt. eigenvalues --    0.32356   0.32556   0.32702   0.32790   0.33190
 Alpha virt. eigenvalues --    0.33410   0.33599   0.33736   0.33948   0.34161
 Alpha virt. eigenvalues --    0.34338   0.34565   0.34798   0.35132   0.35370
 Alpha virt. eigenvalues --    0.35552   0.35763   0.35939   0.36074   0.36396
 Alpha virt. eigenvalues --    0.36525   0.36845   0.36916   0.37127   0.37521
 Alpha virt. eigenvalues --    0.37530   0.37848   0.37991   0.38103   0.38384
 Alpha virt. eigenvalues --    0.38523   0.38604   0.38947   0.39165   0.39472
 Alpha virt. eigenvalues --    0.39788   0.39898   0.40120   0.40315   0.40507
 Alpha virt. eigenvalues --    0.40557   0.40711   0.40922   0.41058   0.41118
 Alpha virt. eigenvalues --    0.41490   0.41684   0.42030   0.42280   0.42505
 Alpha virt. eigenvalues --    0.42649   0.42811   0.42992   0.43126   0.43278
 Alpha virt. eigenvalues --    0.43423   0.43666   0.43825   0.43996   0.44131
 Alpha virt. eigenvalues --    0.44351   0.44450   0.44571   0.44817   0.44972
 Alpha virt. eigenvalues --    0.45270   0.45303   0.45425   0.45800   0.45902
 Alpha virt. eigenvalues --    0.46068   0.46192   0.46350   0.46364   0.46669
 Alpha virt. eigenvalues --    0.46800   0.46817   0.47085   0.47175   0.47276
 Alpha virt. eigenvalues --    0.47643   0.47721   0.48116   0.48148   0.48520
 Alpha virt. eigenvalues --    0.48634   0.48931   0.48962   0.49338   0.49499
 Alpha virt. eigenvalues --    0.49619   0.49718   0.49888   0.49968   0.50219
 Alpha virt. eigenvalues --    0.50449   0.50518   0.50784   0.50836   0.51035
 Alpha virt. eigenvalues --    0.51229   0.51392   0.51504   0.51802   0.52051
 Alpha virt. eigenvalues --    0.52237   0.52533   0.52641   0.53024   0.53048
 Alpha virt. eigenvalues --    0.53195   0.53458   0.53706   0.53923   0.54213
 Alpha virt. eigenvalues --    0.54556   0.54742   0.54972   0.55361   0.55477
 Alpha virt. eigenvalues --    0.55743   0.55885   0.56282   0.56686   0.56801
 Alpha virt. eigenvalues --    0.56952   0.57350   0.57549   0.57909   0.58144
 Alpha virt. eigenvalues --    0.58288   0.58603   0.58810   0.59145   0.59256
 Alpha virt. eigenvalues --    0.59667   0.59851   0.59961   0.60118   0.60390
 Alpha virt. eigenvalues --    0.60563   0.60874   0.61128   0.61279   0.61469
 Alpha virt. eigenvalues --    0.61735   0.62152   0.62258   0.62600   0.62798
 Alpha virt. eigenvalues --    0.63157   0.63386   0.63850   0.64191   0.64464
 Alpha virt. eigenvalues --    0.64592   0.64804   0.65268   0.65515   0.65670
 Alpha virt. eigenvalues --    0.65956   0.66502   0.66518   0.66868   0.67446
 Alpha virt. eigenvalues --    0.67591   0.67865   0.68207   0.68389   0.68502
 Alpha virt. eigenvalues --    0.68748   0.68976   0.69262   0.69472   0.69569
 Alpha virt. eigenvalues --    0.69705   0.70100   0.70459   0.70859   0.70862
 Alpha virt. eigenvalues --    0.71174   0.71408   0.71852   0.72109   0.72411
 Alpha virt. eigenvalues --    0.72567   0.72754   0.72997   0.73022   0.73706
 Alpha virt. eigenvalues --    0.73878   0.74068   0.74416   0.74486   0.75064
 Alpha virt. eigenvalues --    0.75268   0.75326   0.75847   0.76098   0.76481
 Alpha virt. eigenvalues --    0.76842   0.77165   0.77505   0.77711   0.77902
 Alpha virt. eigenvalues --    0.78222   0.78329   0.78524   0.79369   0.79393
 Alpha virt. eigenvalues --    0.79553   0.79945   0.80620   0.81027   0.81295
 Alpha virt. eigenvalues --    0.81320   0.81491   0.81738   0.82074   0.82391
 Alpha virt. eigenvalues --    0.82641   0.82929   0.83120   0.83801   0.83998
 Alpha virt. eigenvalues --    0.84064   0.84209   0.84356   0.84949   0.85063
 Alpha virt. eigenvalues --    0.85314   0.85852   0.86090   0.86137   0.86447
 Alpha virt. eigenvalues --    0.86680   0.87213   0.87469   0.87592   0.87829
 Alpha virt. eigenvalues --    0.87873   0.88040   0.88528   0.89034   0.89399
 Alpha virt. eigenvalues --    0.89795   0.89884   0.90488   0.90690   0.91087
 Alpha virt. eigenvalues --    0.91427   0.91492   0.91675   0.92371   0.92401
 Alpha virt. eigenvalues --    0.92765   0.93258   0.93311   0.93604   0.93738
 Alpha virt. eigenvalues --    0.93931   0.94498   0.94868   0.95011   0.95744
 Alpha virt. eigenvalues --    0.96063   0.96292   0.96724   0.97242   0.97507
 Alpha virt. eigenvalues --    0.97706   0.97962   0.98429   0.99155   0.99329
 Alpha virt. eigenvalues --    0.99390   0.99889   1.00482   1.00775   1.01448
 Alpha virt. eigenvalues --    1.01584   1.01849   1.02312   1.02535   1.03025
 Alpha virt. eigenvalues --    1.03121   1.03422   1.03684   1.03948   1.04110
 Alpha virt. eigenvalues --    1.04855   1.04956   1.05160   1.05864   1.06179
 Alpha virt. eigenvalues --    1.06439   1.06936   1.07049   1.07366   1.07623
 Alpha virt. eigenvalues --    1.07805   1.07957   1.08211   1.08824   1.09048
 Alpha virt. eigenvalues --    1.09110   1.09733   1.10008   1.10413   1.10586
 Alpha virt. eigenvalues --    1.10912   1.11475   1.11486   1.11795   1.12148
 Alpha virt. eigenvalues --    1.12391   1.12818   1.13199   1.13257   1.13598
 Alpha virt. eigenvalues --    1.13944   1.14341   1.14825   1.15113   1.15553
 Alpha virt. eigenvalues --    1.16024   1.16371   1.16662   1.16819   1.16913
 Alpha virt. eigenvalues --    1.17028   1.17349   1.17727   1.17936   1.18479
 Alpha virt. eigenvalues --    1.18761   1.19032   1.19470   1.19641   1.19965
 Alpha virt. eigenvalues --    1.20334   1.20674   1.20872   1.21113   1.21576
 Alpha virt. eigenvalues --    1.21854   1.22618   1.22791   1.22912   1.23408
 Alpha virt. eigenvalues --    1.23705   1.23768   1.24419   1.24725   1.25097
 Alpha virt. eigenvalues --    1.25425   1.25614   1.25958   1.26265   1.26359
 Alpha virt. eigenvalues --    1.26775   1.27403   1.27597   1.28032   1.28228
 Alpha virt. eigenvalues --    1.28384   1.28919   1.29335   1.29697   1.29818
 Alpha virt. eigenvalues --    1.30110   1.30392   1.30699   1.30723   1.31066
 Alpha virt. eigenvalues --    1.31395   1.31504   1.32121   1.32328   1.32487
 Alpha virt. eigenvalues --    1.32748   1.33324   1.33445   1.33910   1.34362
 Alpha virt. eigenvalues --    1.34819   1.34952   1.35427   1.35946   1.35988
 Alpha virt. eigenvalues --    1.36120   1.36831   1.37171   1.37449   1.37992
 Alpha virt. eigenvalues --    1.38519   1.39307   1.39604   1.39902   1.39993
 Alpha virt. eigenvalues --    1.40549   1.40630   1.40808   1.41292   1.41381
 Alpha virt. eigenvalues --    1.41692   1.42098   1.42805   1.43396   1.43682
 Alpha virt. eigenvalues --    1.43958   1.44297   1.44920   1.45047   1.45436
 Alpha virt. eigenvalues --    1.45964   1.46745   1.46970   1.47112   1.47970
 Alpha virt. eigenvalues --    1.48188   1.48850   1.48998   1.49269   1.49627
 Alpha virt. eigenvalues --    1.49782   1.50081   1.50723   1.51173   1.51486
 Alpha virt. eigenvalues --    1.51687   1.51812   1.52287   1.52488   1.52878
 Alpha virt. eigenvalues --    1.53110   1.53387   1.53900   1.54098   1.54180
 Alpha virt. eigenvalues --    1.54543   1.54694   1.54860   1.54919   1.55254
 Alpha virt. eigenvalues --    1.55544   1.55645   1.56383   1.56568   1.56662
 Alpha virt. eigenvalues --    1.56758   1.56933   1.57183   1.57618   1.57728
 Alpha virt. eigenvalues --    1.57887   1.58159   1.58710   1.59018   1.59131
 Alpha virt. eigenvalues --    1.59299   1.59501   1.59871   1.60321   1.60403
 Alpha virt. eigenvalues --    1.60544   1.61071   1.61495   1.61707   1.61714
 Alpha virt. eigenvalues --    1.61991   1.62149   1.62446   1.62738   1.63121
 Alpha virt. eigenvalues --    1.63683   1.63865   1.63999   1.64303   1.64561
 Alpha virt. eigenvalues --    1.64782   1.65113   1.65485   1.65821   1.66028
 Alpha virt. eigenvalues --    1.66249   1.66506   1.66698   1.67026   1.67168
 Alpha virt. eigenvalues --    1.67245   1.67774   1.67961   1.68067   1.68502
 Alpha virt. eigenvalues --    1.68908   1.69306   1.69569   1.69770   1.69872
 Alpha virt. eigenvalues --    1.70524   1.70714   1.70993   1.71217   1.71402
 Alpha virt. eigenvalues --    1.71515   1.71902   1.72532   1.72571   1.72857
 Alpha virt. eigenvalues --    1.73150   1.73286   1.73740   1.73952   1.74559
 Alpha virt. eigenvalues --    1.74844   1.75255   1.75313   1.75448   1.75641
 Alpha virt. eigenvalues --    1.75854   1.76208   1.76341   1.76882   1.77156
 Alpha virt. eigenvalues --    1.77725   1.77871   1.78039   1.78198   1.78228
 Alpha virt. eigenvalues --    1.78836   1.79276   1.79775   1.79958   1.80187
 Alpha virt. eigenvalues --    1.80603   1.80987   1.81275   1.82079   1.82263
 Alpha virt. eigenvalues --    1.82543   1.83008   1.83714   1.83922   1.84332
 Alpha virt. eigenvalues --    1.84590   1.85180   1.85436   1.86318   1.86381
 Alpha virt. eigenvalues --    1.86721   1.87056   1.87439   1.88118   1.88287
 Alpha virt. eigenvalues --    1.88755   1.88840   1.89301   1.89756   1.89941
 Alpha virt. eigenvalues --    1.90207   1.90476   1.90813   1.91854   1.92448
 Alpha virt. eigenvalues --    1.92751   1.92909   1.93220   1.93811   1.94368
 Alpha virt. eigenvalues --    1.94400   1.94679   1.95662   1.95957   1.96209
 Alpha virt. eigenvalues --    1.96556   1.96920   1.97313   1.97602   1.98183
 Alpha virt. eigenvalues --    1.98440   1.98672   1.99338   1.99575   1.99723
 Alpha virt. eigenvalues --    2.00421   2.00766   2.00920   2.01446   2.01701
 Alpha virt. eigenvalues --    2.01893   2.02248   2.02560   2.03060   2.03257
 Alpha virt. eigenvalues --    2.03389   2.03478   2.03925   2.04454   2.04672
 Alpha virt. eigenvalues --    2.05147   2.05286   2.05697   2.05924   2.06112
 Alpha virt. eigenvalues --    2.06780   2.06983   2.07113   2.07442   2.07766
 Alpha virt. eigenvalues --    2.08163   2.08238   2.08742   2.09008   2.09354
 Alpha virt. eigenvalues --    2.10056   2.10176   2.10374   2.10764   2.10938
 Alpha virt. eigenvalues --    2.11152   2.11629   2.12241   2.12417   2.12621
 Alpha virt. eigenvalues --    2.13159   2.13478   2.13858   2.14300   2.14626
 Alpha virt. eigenvalues --    2.14870   2.15080   2.15853   2.16207   2.16549
 Alpha virt. eigenvalues --    2.16713   2.17027   2.17431   2.17802   2.18032
 Alpha virt. eigenvalues --    2.18729   2.18966   2.19263   2.19500   2.19913
 Alpha virt. eigenvalues --    2.19967   2.20388   2.20901   2.21303   2.21397
 Alpha virt. eigenvalues --    2.22060   2.22282   2.22485   2.23088   2.23481
 Alpha virt. eigenvalues --    2.23811   2.23879   2.24583   2.24693   2.25110
 Alpha virt. eigenvalues --    2.25811   2.25865   2.26117   2.26834   2.27094
 Alpha virt. eigenvalues --    2.27695   2.28320   2.28745   2.28845   2.29442
 Alpha virt. eigenvalues --    2.29733   2.30337   2.30532   2.31057   2.31178
 Alpha virt. eigenvalues --    2.31895   2.31982   2.32476   2.32760   2.33165
 Alpha virt. eigenvalues --    2.33336   2.33685   2.34113   2.34349   2.34878
 Alpha virt. eigenvalues --    2.35696   2.36078   2.36416   2.36848   2.37021
 Alpha virt. eigenvalues --    2.37397   2.37999   2.38376   2.38826   2.39085
 Alpha virt. eigenvalues --    2.39330   2.39802   2.40207   2.40509   2.40654
 Alpha virt. eigenvalues --    2.40977   2.41348   2.41440   2.41784   2.42027
 Alpha virt. eigenvalues --    2.42401   2.42763   2.43280   2.43559   2.44134
 Alpha virt. eigenvalues --    2.44490   2.44835   2.45251   2.45472   2.45674
 Alpha virt. eigenvalues --    2.46422   2.46628   2.46968   2.47321   2.47548
 Alpha virt. eigenvalues --    2.47722   2.48188   2.48329   2.48860   2.49079
 Alpha virt. eigenvalues --    2.49800   2.50269   2.50586   2.50787   2.51146
 Alpha virt. eigenvalues --    2.51196   2.51808   2.52233   2.52424   2.52688
 Alpha virt. eigenvalues --    2.52961   2.53231   2.54137   2.54355   2.54672
 Alpha virt. eigenvalues --    2.54965   2.55132   2.55270   2.55816   2.55986
 Alpha virt. eigenvalues --    2.56168   2.56608   2.56811   2.57075   2.57304
 Alpha virt. eigenvalues --    2.57918   2.58209   2.58353   2.58776   2.59199
 Alpha virt. eigenvalues --    2.59420   2.59889   2.60139   2.60288   2.60664
 Alpha virt. eigenvalues --    2.60911   2.61460   2.61758   2.62134   2.62169
 Alpha virt. eigenvalues --    2.62508   2.62700   2.63375   2.63583   2.64012
 Alpha virt. eigenvalues --    2.64230   2.64543   2.65117   2.65182   2.65314
 Alpha virt. eigenvalues --    2.65533   2.65886   2.66364   2.66622   2.66868
 Alpha virt. eigenvalues --    2.67017   2.67264   2.67486   2.67527   2.67815
 Alpha virt. eigenvalues --    2.68145   2.68267   2.68534   2.68841   2.69054
 Alpha virt. eigenvalues --    2.69311   2.69763   2.69999   2.70185   2.70459
 Alpha virt. eigenvalues --    2.70601   2.70860   2.71175   2.71271   2.71478
 Alpha virt. eigenvalues --    2.71896   2.72156   2.72319   2.72769   2.73143
 Alpha virt. eigenvalues --    2.73159   2.73375   2.73668   2.74259   2.74550
 Alpha virt. eigenvalues --    2.74848   2.75283   2.75624   2.75831   2.76266
 Alpha virt. eigenvalues --    2.76614   2.76975   2.77373   2.78010   2.78135
 Alpha virt. eigenvalues --    2.78305   2.78504   2.79260   2.79305   2.79458
 Alpha virt. eigenvalues --    2.79718   2.79855   2.80145   2.80799   2.80937
 Alpha virt. eigenvalues --    2.81690   2.81991   2.82631   2.82783   2.83178
 Alpha virt. eigenvalues --    2.83318   2.83834   2.84146   2.84318   2.84898
 Alpha virt. eigenvalues --    2.85276   2.85649   2.85889   2.86060   2.86214
 Alpha virt. eigenvalues --    2.86682   2.86810   2.87013   2.87375   2.87717
 Alpha virt. eigenvalues --    2.87934   2.88045   2.88368   2.88951   2.89191
 Alpha virt. eigenvalues --    2.89368   2.89833   2.90219   2.90395   2.90694
 Alpha virt. eigenvalues --    2.90727   2.90983   2.91359   2.91826   2.92052
 Alpha virt. eigenvalues --    2.92543   2.92705   2.92922   2.93621   2.94187
 Alpha virt. eigenvalues --    2.94299   2.94759   2.95127   2.95400   2.95813
 Alpha virt. eigenvalues --    2.96113   2.96498   2.96884   2.97203   2.97304
 Alpha virt. eigenvalues --    2.97662   2.97731   2.98181   2.98579   2.98984
 Alpha virt. eigenvalues --    2.99726   2.99955   3.00098   3.00641   3.00902
 Alpha virt. eigenvalues --    3.01292   3.01523   3.01977   3.02066   3.02601
 Alpha virt. eigenvalues --    3.03165   3.03607   3.04050   3.04195   3.04889
 Alpha virt. eigenvalues --    3.05363   3.05895   3.06078   3.06384   3.06681
 Alpha virt. eigenvalues --    3.07332   3.07505   3.07914   3.08280   3.08623
 Alpha virt. eigenvalues --    3.09016   3.09335   3.09756   3.09936   3.10559
 Alpha virt. eigenvalues --    3.11085   3.11231   3.11362   3.11933   3.12675
 Alpha virt. eigenvalues --    3.12771   3.13008   3.13258   3.13465   3.13828
 Alpha virt. eigenvalues --    3.14105   3.14239   3.14740   3.15165   3.15515
 Alpha virt. eigenvalues --    3.15569   3.15685   3.15805   3.16209   3.16476
 Alpha virt. eigenvalues --    3.16770   3.17016   3.17454   3.17533   3.17911
 Alpha virt. eigenvalues --    3.18191   3.18593   3.18880   3.19149   3.19383
 Alpha virt. eigenvalues --    3.19548   3.19957   3.20165   3.20339   3.20803
 Alpha virt. eigenvalues --    3.20840   3.21076   3.21374   3.21736   3.22017
 Alpha virt. eigenvalues --    3.22330   3.22707   3.23187   3.23591   3.23934
 Alpha virt. eigenvalues --    3.23981   3.24388   3.24697   3.25351   3.25460
 Alpha virt. eigenvalues --    3.25862   3.26133   3.26366   3.26441   3.26650
 Alpha virt. eigenvalues --    3.26952   3.27558   3.27826   3.28053   3.28368
 Alpha virt. eigenvalues --    3.28593   3.28794   3.28853   3.29131   3.29273
 Alpha virt. eigenvalues --    3.29499   3.29700   3.29908   3.30246   3.30560
 Alpha virt. eigenvalues --    3.30941   3.31191   3.31322   3.31423   3.31625
 Alpha virt. eigenvalues --    3.31831   3.32037   3.32741   3.33029   3.33169
 Alpha virt. eigenvalues --    3.33276   3.33581   3.33780   3.33898   3.34130
 Alpha virt. eigenvalues --    3.34161   3.34869   3.35045   3.35148   3.35434
 Alpha virt. eigenvalues --    3.35756   3.35952   3.36099   3.36331   3.36771
 Alpha virt. eigenvalues --    3.36830   3.37397   3.37534   3.37734   3.38107
 Alpha virt. eigenvalues --    3.38298   3.38575   3.38768   3.39033   3.39304
 Alpha virt. eigenvalues --    3.39825   3.40121   3.40535   3.40663   3.41077
 Alpha virt. eigenvalues --    3.41318   3.41431   3.41713   3.42092   3.42408
 Alpha virt. eigenvalues --    3.42424   3.42844   3.43227   3.43342   3.43618
 Alpha virt. eigenvalues --    3.43775   3.44052   3.44577   3.44694   3.44863
 Alpha virt. eigenvalues --    3.45162   3.45350   3.45532   3.45910   3.46178
 Alpha virt. eigenvalues --    3.46849   3.46980   3.47404   3.47753   3.48234
 Alpha virt. eigenvalues --    3.48270   3.48667   3.48744   3.49069   3.49523
 Alpha virt. eigenvalues --    3.49625   3.49908   3.50167   3.50575   3.50681
 Alpha virt. eigenvalues --    3.51442   3.51523   3.51970   3.52283   3.52449
 Alpha virt. eigenvalues --    3.52650   3.52937   3.53430   3.53623   3.54077
 Alpha virt. eigenvalues --    3.54351   3.54670   3.55157   3.55282   3.55649
 Alpha virt. eigenvalues --    3.55731   3.56031   3.56434   3.56743   3.56789
 Alpha virt. eigenvalues --    3.57295   3.57394   3.57695   3.58540   3.59022
 Alpha virt. eigenvalues --    3.59256   3.59473   3.60120   3.60494   3.60677
 Alpha virt. eigenvalues --    3.61306   3.61990   3.62680   3.63103   3.63192
 Alpha virt. eigenvalues --    3.63898   3.64267   3.64280   3.64568   3.64994
 Alpha virt. eigenvalues --    3.65475   3.66058   3.66322   3.66683   3.67158
 Alpha virt. eigenvalues --    3.67336   3.67740   3.67946   3.68376   3.68522
 Alpha virt. eigenvalues --    3.69294   3.69815   3.70506   3.70697   3.71145
 Alpha virt. eigenvalues --    3.71435   3.71801   3.71971   3.72273   3.72422
 Alpha virt. eigenvalues --    3.73178   3.73320   3.74046   3.74327   3.74492
 Alpha virt. eigenvalues --    3.74908   3.75220   3.75516   3.75605   3.76539
 Alpha virt. eigenvalues --    3.76608   3.76689   3.77175   3.77339   3.77961
 Alpha virt. eigenvalues --    3.78068   3.78508   3.78653   3.79088   3.79899
 Alpha virt. eigenvalues --    3.80273   3.80391   3.80704   3.81462   3.81579
 Alpha virt. eigenvalues --    3.82571   3.83013   3.83218   3.84356   3.84914
[...]
  1564. RY*(   2) H  79                  0.00026     2.47186   
  1565. RY*(   3) H  79                  0.00018     2.64234   
  1566. RY*(   4) H  79                  0.00016     2.65255   
  1567. RY*(   5) H  79                  0.00002     3.23190   
  1568. RY*(   1) H  80                  0.00113     0.78648   
  1569. RY*(   2) H  80                  0.00021     2.47896   
  1570. RY*(   3) H  80                  0.00013     2.56056   
  1571. RY*(   4) H  80                  0.00006     2.77119   
  1572. RY*(   5) H  80                  0.00001     2.86675   
  1573. RY*(   1) H  81                  0.00057     0.95885   
  1574. RY*(   2) H  81                  0.00016     2.43461   
  1575. RY*(   3) H  81                  0.00013     2.53349   
  1576. RY*(   4) H  81                  0.00011     2.02178   
  1577. RY*(   5) H  81                  0.00001     2.98046   
  1578. RY*(   1) H  82                  0.00062     1.88287   
  1579. RY*(   2) H  82                  0.00015     2.62979   
  1580. RY*(   3) H  82                  0.00013     2.55604   
  1581. RY*(   4) H  82                  0.00008     1.67341   
  1582. RY*(   5) H  82                  0.00001     2.82021   
  1583. RY*(   1) H  83                  0.00145     1.03529   
  1584. RY*(   2) H  83                  0.00022     2.73080   
  1585. RY*(   3) H  83                  0.00016     2.69383   
  1586. RY*(   4) H  83                  0.00013     2.61627   
  1587. RY*(   5) H  83                  0.00002     3.30890   
  1588. RY*(   1) H  84                  0.00048     0.86066   
  1589. RY*(   2) H  84                  0.00019     1.77049   
  1590. RY*(   3) H  84                  0.00010     2.18527   
  1591. RY*(   4) H  84                  0.00006     2.32701   
  1592. RY*(   5) H  84                  0.00001     2.99649   
  1593. RY*(   1) H  85                  0.00037     1.12755   
  1594. RY*(   2) H  85                  0.00015     1.61906   
  1595. RY*(   3) H  85                  0.00010     2.16977   
  1596. RY*(   4) H  85                  0.00006     2.37522   
  1597. RY*(   5) H  85                  0.00000     2.98250   
  1598. RY*(   1) H  86                  0.00055     0.89688   
  1599. RY*(   2) H  86                  0.00021     1.72732   
  1600. RY*(   3) H  86                  0.00010     2.16324   
  1601. RY*(   4) H  86                  0.00006     2.26897   
  1602. RY*(   5) H  86                  0.00002     2.98643   
  1603. RY*(   1) H  87                  0.00052     0.96702   
  1604. RY*(   2) H  87                  0.00019     1.65021   
  1605. RY*(   3) H  87                  0.00010     2.16448   
  1606. RY*(   4) H  87                  0.00006     2.30172   
  1607. RY*(   5) H  87                  0.00002     2.97706   
  1608. RY*(   1) H  88                  0.00054     0.81129   
  1609. RY*(   2) H  88                  0.00020     1.84617   
  1610. RY*(   3) H  88                  0.00010     2.16696   
  1611. RY*(   4) H  88                  0.00007     2.30530   
  1612. RY*(   5) H  88                  0.00002     3.01413   
  1613. RY*(   1) H  89                  0.00039     0.99598   
  1614. RY*(   2) H  89                  0.00016     1.61373   
  1615. RY*(   3) H  89                  0.00010     2.16069   
  1616. RY*(   4) H  89                  0.00006     2.41188   
  1617. RY*(   5) H  89                  0.00001     3.00927   
  1618. RY*(   1) H  90                  0.00053     0.84733   
  1619. RY*(   2) H  90                  0.00018     1.78383   
  1620. RY*(   3) H  90                  0.00010     2.18463   
  1621. RY*(   4) H  90                  0.00006     2.32661   
  1622. RY*(   5) H  90                  0.00001     2.97916   
  1623. RY*(   1) H  91                  0.00038     1.09767   
  1624. RY*(   2) H  91                  0.00015     1.57585   
  1625. RY*(   3) H  91                  0.00010     2.17247   
  1626. RY*(   4) H  91                  0.00006     2.41731   
  1627. RY*(   5) H  91                  0.00001     2.98732   
  1628. RY*(   1) H  92                  0.00079     0.99045   
  1629. RY*(   2) H  92                  0.00017     2.01217   
  1630. RY*(   3) H  92                  0.00009     2.20979   
  1631. RY*(   4) H  92                  0.00007     2.37562   
  1632. RY*(   5) H  92                  0.00002     3.06211   
  1633. RY*(   1) H  93                  0.00050     0.95367   
  1634. RY*(   2) H  93                  0.00017     1.79906   
  1635. RY*(   3) H  93                  0.00010     2.19862   
  1636. RY*(   4) H  93                  0.00006     2.43614   
  1637. RY*(   5) H  93                  0.00001     2.95984   
  1638. RY*(   1) H  94                  0.00112     0.86809   
  1639. RY*(   2) H  94                  0.00018     1.84583   
  1640. RY*(   3) H  94                  0.00010     2.21769   
  1641. RY*(   4) H  94                  0.00008     2.31608   
  1642. RY*(   5) H  94                  0.00003     3.02733   
  1643. RY*(   1) H  95                  0.00047     0.85809   
  1644. RY*(   2) H  95                  0.00018     1.79527   
  1645. RY*(   3) H  95                  0.00009     2.22610   
  1646. RY*(   4) H  95                  0.00006     2.33759   
  1647. RY*(   5) H  95                  0.00002     3.00729   
  1648. BD*(   1) C   1 - C   2          0.02797     0.54778   
  1649. BD*(   1) C   1 - C   6          0.02073     0.54647   
  1650. BD*(   2) C   1 - C   6          0.37071     0.03909  1658(v),1653(v),312(g)
                                                    1681(v),1680(r),1665(r)
                                                    208(v)
  1651. BD*(   1) C   1 - P  41          0.05323     0.25111   
  1652. BD*(   1) C   2 - C   3          0.02492     0.55551   
  1653. BD*(   2) C   2 - C   3          0.33094     0.05007  1658(v),1650(v),1754(v)
                                                    208(g),1668(r),1752(v)
  1654. BD*(   1) C   2 - H  44          0.01782     0.42841   
  1655. BD*(   1) C   3 - C   4          0.02229     0.54481   
  1656. BD*(   1) C   3 - C  45          0.01431     0.39667   
  1657. BD*(   1) C   4 - C   5          0.02142     0.55016   
  1658. BD*(   2) C   4 - C   5          0.34334     0.04462  1650(v),1653(v),260(g)
                                                    1755(v),1756(v)
  1659. BD*(   1) C   4 - H  46          0.01549     0.40289   
  1660. BD*(   1) C   5 - C   6          0.02495     0.54491   
  1661. BD*(   1) C   5 - C  47          0.01396     0.39601   
  1662. BD*(   1) C   6 - H  48          0.01734     0.41370   
  1663. BD*(   1) C   7 - C   8          0.03168     0.54214   
  1664. BD*(   1) C   7 - C  12          0.02214     0.54549   
  1665. BD*(   2) C   7 - C  12          0.36152     0.03837  1673(v),1668(v),1712(r)
                                                    1707(r),1651(v),468(g)
                                                    1650(r),467(g),338(g)
  1666. BD*(   1) C   7 - P  41          0.03258     0.24943   
  1667. BD*(   1) C   8 - C   9          0.02598     0.55175   
  1668. BD*(   2) C   8 - C   9          0.32551     0.04749  1673(v),1665(v),1759(v)
                                                    1653(r),1760(v),363(g)
                                                    390(g)
  1669. BD*(   1) C   8 - H  49          0.01750     0.42623   
  1670. BD*(   1) C   9 - C  10          0.02295     0.54096   
  1671. BD*(   1) C   9 - C  50          0.01473     0.39396   
  1672. BD*(   1) C  10 - C  11          0.02156     0.54871   
  1673. BD*(   2) C  10 - C  11          0.33580     0.04235  1665(v),1668(v),416(g)
                                                    1761(v),1763(v)
  1674. BD*(   1) C  10 - H  51          0.01546     0.40434   
  1675. BD*(   1) C  11 - C  12          0.02600     0.54356   
  1676. BD*(   1) C  11 - C  52          0.01415     0.39196   
  1677. BD*(   1) C  12 - H  53          0.01787     0.41261   
  1678. BD*(   1) C  13 - C  14          0.02740     0.38446   
  1679. BD*(   1) C  13 - C  17          0.02906     0.59045   
  1680. BD*(   2) C  13 - C  17          0.18370     0.06799  1707(v),1689(v),1683(v)
                                                    1708(v),493(g),1666(v)
                                                    1706(v),1685(v)
  1681. BD*(   1) C  13 - P  41          0.05049     0.26319   
  1682. BD*(   1) C  14 - C  15          0.03765     0.33907   
  1683. BD*(   1) C  14 - C  18          0.02371     0.33640   
  1684. BD*(   1) C  14 - H  79          0.02462     0.40745   
  1685. BD*(   1) C  15 - C  16          0.05108     0.32610   
  1686. BD*(   1) C  15 - C  20          0.02419     0.36022   
  1687. BD*(   1) C  15 - C  21          0.02574     0.35902   
  1688. BD*(   1) C  16 - C  17          0.05024     0.37795   
  1689. BD*(   1) C  16 - C  19          0.03786     0.32831   
  1690. BD*(   1) C  16 - C  22          0.02365     0.37936   
  1691. BD*(   1) C  17 - C  23          0.04220     0.47095   
  1692. BD*(   1) C  18 - C  19          0.01035     0.35757   
  1693. BD*(   1) C  18 - H  80          0.01322     0.40305   
  1694. BD*(   1) C  18 - H  81          0.01318     0.39231   
  1695. BD*(   1) C  19 - H  82          0.01499     0.39959   
  1696. BD*(   1) C  19 - H  83          0.01380     0.43938   
  1697. BD*(   1) C  20 - H  73          0.00850     0.38009   
  1698. BD*(   1) C  20 - H  74          0.00833     0.40024   
  1699. BD*(   1) C  20 - H  75          0.00837     0.38854   
  1700. BD*(   1) C  21 - H  76          0.00779     0.38207   
  1701. BD*(   1) C  21 - H  77          0.00774     0.38337   
  1702. BD*(   1) C  21 - H  78          0.00770     0.39629   
  1703. BD*(   1) C  22 - H  70          0.00734     0.38792   
  1704. BD*(   1) C  22 - H  71          0.00914     0.38818   
  1705. BD*(   1) C  22 - H  72          0.00813     0.38549   
  1706. BD*(   1) C  23 - C  24          0.03895     0.53860   
  1707. BD*(   2) C  23 - C  24          0.32319     0.04472  1712(v),1680(v),1665(r)
                                                    1718(v),1688(v),1679(v)
                                                    779(g),1716(v),1727(r)
  1708. BD*(   1) C  23 - C  26          0.03226     0.46664   
  1709. BD*(   1) C  24 - C  27          0.01750     0.38712   
  1710. BD*(   1) C  24 - S  43          0.03270     0.22431   
  1711. BD*(   1) C  25 - C  26          0.03752     0.53891   
  1712. BD*(   2) C  25 - C  26          0.33953     0.03311  1707(v),1665(r),1725(v)
                                                    1720(v),1721(v),1727(r)
                                                    1724(r),833(g),805(g)
                                                    1277(v)
  1713. BD*(   1) C  25 - C  28          0.01819     0.38671   
  1714. BD*(   1) C  25 - S  43          0.03879     0.21686   
  1715. BD*(   1) C  26 - P  42          0.04480     0.22992   
  1716. BD*(   1) C  27 - H  64          0.01022     0.36805   
  1717. BD*(   1) C  27 - H  65          0.00911     0.38505   
  1718. BD*(   1) C  27 - H  66          0.01408     0.36276   
  1719. BD*(   1) C  28 - H  67          0.00658     0.38231   
  1720. BD*(   1) C  28 - H  68          0.01427     0.38566   
  1721. BD*(   1) C  28 - H  69          0.01246     0.38672   
  1722. BD*(   1) C  29 - C  30          0.03114     0.52237   
  1723. BD*(   1) C  29 - C  34          0.02435     0.52835   
  1724. BD*(   2) C  29 - C  34          0.36795     0.02576  1732(v),1727(v),1040(g)
                                                    1740(v),1712(r)
  1725. BD*(   1) C  29 - P  42          0.04160     0.23880   
  1726. BD*(   1) C  30 - C  31          0.01777     0.54508   
  1727. BD*(   2) C  30 - C  31          0.31913     0.02986  1732(v),1724(v),962(g)
                                                    1712(r),1707(r)
  1728. BD*(   1) C  30 - H  62          0.01638     0.42695   
  1729. BD*(   1) C  31 - C  32          0.01498     0.53692   
  1730. BD*(   1) C  31 - H  63          0.01439     0.40579   
  1731. BD*(   1) C  32 - C  33          0.01466     0.53648   
  1732. BD*(   2) C  32 - C  33          0.33230     0.02608  1724(v),1727(v),988(g)
                                                    1014(g)
  1733. BD*(   1) C  32 - H  60          0.01318     0.40617   
  1734. BD*(   1) C  33 - C  34          0.01601     0.54165   
  1735. BD*(   1) C  33 - H  61          0.01363     0.40659   
  1736. BD*(   1) C  34 - H  59          0.01655     0.40759   
  1737. BD*(   1) C  35 - C  36          0.02390     0.52660   
  1738. BD*(   1) C  35 - C  40          0.03094     0.52965   
  1739. BD*(   2) C  35 - C  40          0.36222     0.02570  1742(v),1747(v),1715(v)
                                                    1196(g)
  1740. BD*(   1) C  35 - P  42          0.03905     0.23921   
  1741. BD*(   1) C  36 - C  37          0.01650     0.54208   
  1742. BD*(   2) C  36 - C  37          0.32042     0.02636  1739(v),1747(v),1118(g)
                                                    1092(g)
  1743. BD*(   1) C  36 - H  57          0.01675     0.41058   
  1744. BD*(   1) C  37 - C  38          0.01492     0.53251   
  1745. BD*(   1) C  37 - H  58          0.01368     0.40215   
  1746. BD*(   1) C  38 - C  39          0.01469     0.53494   
  1747. BD*(   2) C  38 - C  39          0.32979     0.02371  1739(v),1742(v),1144(g)
                                                    1170(g)
  1748. BD*(   1) C  38 - H  55          0.01309     0.40315   
  1749. BD*(   1) C  39 - C  40          0.01708     0.54009   
  1750. BD*(   1) C  39 - H  56          0.01406     0.40328   
  1751. BD*(   1) C  40 - H  54          0.01674     0.41917   
  1752. BD*(   1) C  45 - H  84          0.00759     0.37001   
  1753. BD*(   1) C  45 - H  85          0.00496     0.37595   
  1754. BD*(   1) C  45 - H  86          0.01060     0.36652   
  1755. BD*(   1) C  47 - H  87          0.00931     0.36717   
  1756. BD*(   1) C  47 - H  88          0.00908     0.36711   
  1757. BD*(   1) C  47 - H  89          0.00461     0.37357   
  1758. BD*(   1) C  50 - H  93          0.00519     0.37103   
  1759. BD*(   1) C  50 - H  94          0.01199     0.36441   
  1760. BD*(   1) C  50 - H  95          0.00779     0.36903   
  1761. BD*(   1) C  52 - H  90          0.00979     0.36514   
  1762. BD*(   1) C  52 - H  91          0.00464     0.37135   
  1763. BD*(   1) C  52 - H  92          0.00925     0.36629   
       -------------------------------
              Total Lewis  350.38404  ( 97.8726%)
        Valence non-Lewis    6.95781  (  1.9435%)
        Rydberg non-Lewis    0.65814  (  0.1838%)
       -------------------------------
            Total unit  1  358.00000  (100.0000%)
           Charge unit  1    0.00000
 1\1\GINC-NOTCH056\SP\RPBE1PBE\def2TZVP\C44H48P2S1\U1010977\01-Nov-2021
 \0\\# PBE1PBE/def2TZVP int=(grid=ultrafine) empiricaldispersion=GD3BJ 
 pop=nbo guess=read geom=check\\title\\0,1\C,0,17.4797888636,4.14959800
 58,6.5596299863\C,0,18.3287605378,3.1515037605,6.0477555115\C,0,19.513
 4521555,2.8113660985,6.7208489532\C,0,19.8266154273,3.4872891919,7.914
 458211\C,0,18.9986595902,4.4939604227,8.4372664549\C,0,17.8196535333,4
 .8226617547,7.7447164503\C,0,15.9738250013,3.7802469249,4.0800694449\C
 ,0,15.8053406244,2.403586079,3.8439571493\C,0,15.8590990538,1.89698325
 61,2.5361664013\C,0,16.0885032697,2.7947243645,1.4744649887\C,0,16.277
 8396298,4.1695102674,1.6880087189\C,0,16.2230686865,4.6522132836,3.008
 4086067\C,0,14.6826389932,3.5927642124,6.7506563416\C,0,14.792637401,3
 .5059570822,8.2694331784\C,0,13.9861275695,2.198964178,8.5527512083\C,
 0,12.7445604473,2.6957467168,7.7085264458\C,0,13.4470495014,3.12300419
 4,6.3946097561\C,0,13.8365638019,4.6275039472,8.7927329015\C,0,12.4396
 412466,4.0618675318,8.4348097842\C,0,14.679376093,0.9359364997,8.01628
 17732\C,0,13.684250191,1.9541451951,10.0406588552\C,0,11.5144031135,1.
 802026989,7.6301724202\C,0,12.9042789742,3.109351482,5.0189135102\C,0,
 12.5806117079,1.9211361467,4.3735809389\C,0,12.5081337063,3.9205958897
 ,2.8168113877\C,0,12.8416274151,4.2694256003,4.1227555073\C,0,12.65039
 01669,0.5021545405,4.8579892254\C,0,12.3930652335,4.6792214188,1.52272
 48658\C,0,11.5853667431,6.1674910339,5.8412871563\C,0,10.4575840811,5.
 3389655193,5.6627039866\C,0,9.3416909848,5.4824298016,6.4983704923\C,0
 ,9.3435446425,6.4497112322,7.5139668556\C,0,10.4599726303,7.2816000418
 ,7.6844857659\C,0,11.5801149392,7.1466563141,6.8539664677\C,0,12.67946
 61599,7.0930789347,3.3246861765\C,0,13.7439013639,7.5865520012,2.54676
 67422\C,0,13.4846084488,8.3741963821,1.4199725526\C,0,12.1624742139,8.
 6976037855,1.0774261142\C,0,11.1029336265,8.2420989188,1.8743276185\C,
 0,11.3577277416,7.4408841832,2.9968322857\P,0,15.8771166763,4.52421135
 72,5.7503155101\P,0,13.0610513346,5.9980272257,4.751329572\S,0,12.2212
 722231,2.2025264102,2.6974446089\H,0,18.0749180036,2.6372422169,5.1154
 633537\C,0,20.4438402294,1.7587387788,6.1629436677\H,0,20.7511134359,3
 .2293629256,8.4466663941\C,0,19.3660203946,5.2402075163,9.698307381\H,
 0,17.1831115357,5.6331500468,8.1116011372\H,0,15.608712742,1.726651874
 7,4.6826015834\C,0,15.6290573741,0.4289467769,2.2643605844\H,0,16.1161
 731453,2.4066975119,0.448353265\C,0,16.5168035849,5.1221833899,0.53933
 95192\H,0,16.3651038345,5.7198057252,3.2156167702\H,0,10.5282663021,7.
 0894523796,3.6181263944\H,0,11.9602345356,9.3244355924,0.2029249572\H,
 0,10.0719065685,8.5161601791,1.6275243045\H,0,14.7735068116,7.37464313
 08,2.8505495867\H,0,14.3185343793,8.7586774934,0.8237707366\H,0,12.451
 3431198,7.8000125495,6.9716726366\H,0,8.4746375211,6.5541024774,8.1721
 105223\H,0,10.465032521,8.0405352881,8.473523372\H,0,10.4612955336,4.5
 719756467,4.8820895753\H,0,8.4722641193,4.831546405,6.3579538413\H,0,1
 3.1240104059,-0.149182808,4.1031039689\H,0,13.2500295693,0.4377384127,
 5.7764900406\H,0,11.6506248193,0.0838593885,5.0733082836\H,0,12.269150
 7012,3.9760673756,0.6827248097\H,0,11.54049367,5.3768781563,1.51231536
 96\H,0,13.3000358386,5.2735857883,1.3327571513\H,0,10.7980483227,2.185
 868019,6.8828638612\H,0,11.7574208999,0.760852477,7.3656266855\H,0,10.
 9987910755,1.7839951892,8.6056864072\H,0,14.007238888,0.0604530706,8.0
 765787389\H,0,15.015058433,1.0492858815,6.9741847468\H,0,15.5698490853
 ,0.70530918,8.6270464271\H,0,13.0317071992,1.0705124832,10.1580001034\
 H,0,14.6225521648,1.7421493448,10.5831541062\H,0,13.1951428272,2.80094
 31029,10.5433297131\H,0,15.8150697317,3.5399005424,8.6720780456\H,0,14
 .0495622239,5.5897846766,8.2954942841\H,0,13.9607926366,4.7783821322,9
 .8786275156\H,0,11.8345674019,3.8625592958,9.3361307916\H,0,11.8499749
 4,4.7276561898,7.7957896248\H,0,20.7951502857,1.0700681322,6.951106409
 6\H,0,19.9508554999,1.1591693002,5.3799314181\H,0,21.3421855457,2.2185
 708904,5.7112771056\H,0,19.4977429426,6.3169760693,9.48993943\H,0,18.5
 732940134,5.1561566831,10.4631282249\H,0,20.3031055953,4.8593174536,10
 .1363403969\H,0,17.5109842325,5.5980106679,0.6131144186\H,0,16.4585557
 143,4.6065659404,-0.4330803858\H,0,15.7712864966,5.9384031865,0.537621
 7677\H,0,15.7451201044,-0.1738503353,3.1804317632\H,0,14.6066550527,0.
 2576429584,1.8783440264\H,0,16.3318331516,0.040420142,1.5073803091\\Ve
 rsion=ES64L-G16RevB.01\State=1-A\HF=-2784.7990279\RMSD=4.077e-09\Dipol
 e=-0.2594818,-0.168469,-0.3290436\Quadrupole=-1.2826153,-3.2802631,4.5
 628784,-3.3791225,-0.5009957,-1.6005093\PG=C01 [X(C44H48P2S1)]\\@


 Cherishing children is the mark of a civilized society.
 -- Joan Ganz Cooney
 Job cpu time:       0 days  2 hours 19 minutes  9.9 seconds.
 Elapsed time:       0 days  0 hours  4 minutes 22.7 seconds.
 File lengths (MBytes):  RWF=   1586 Int=      0 D2E=      0 Chk=    239 Scr=      1
 Normal termination of Gaussian 16 at Mon Nov  1 18:08:52 2021.
