 Entering Gaussian System, Link 0=/uufs/chpc.utah.edu/sys/installdir/gaussian16/B01/E6B/g16/g16
 Input=R-pTol-SDP_1_SPE.com
 Output=R-pTol-SDP_1_SPE.log
 Initial command:
 /uufs/chpc.utah.edu/sys/installdir/gaussian16/B01/E6B/g16/l1.exe "/scratch/general/lustre/u1010977/3356279/notchpeak.peaks/Gau-136019.inp" -scrdir="/scratch/general/lustre/u1010977/3356279/notchpeak.peaks/"
 Entering Link 1 = /uufs/chpc.utah.edu/sys/installdir/gaussian16/B01/E6B/g16/l1.exe PID=    136021.
  
 Copyright (c) 1988-2017, Gaussian, Inc.  All Rights Reserved.
  
 This is part of the Gaussian(R) 16 program.  It is based on
 the Gaussian(R) 09 system (copyright 2009, Gaussian, Inc.),
 the Gaussian(R) 03 system (copyright 2003, Gaussian, Inc.),
 the Gaussian(R) 98 system (copyright 1998, Gaussian, Inc.),
 the Gaussian(R) 94 system (copyright 1995, Gaussian, Inc.),
 the Gaussian 92(TM) system (copyright 1992, Gaussian, Inc.),
 the Gaussian 90(TM) system (copyright 1990, Gaussian, Inc.),
 the Gaussian 88(TM) system (copyright 1988, Gaussian, Inc.),
 the Gaussian 86(TM) system (copyright 1986, Carnegie Mellon
 University), and the Gaussian 82(TM) system (copyright 1983,
 Carnegie Mellon University). Gaussian is a federally registered
 trademark of Gaussian, Inc.
  
 This software contains proprietary and confidential information,
 including trade secrets, belonging to Gaussian, Inc.
  
 This software is provided under written license and may be
 used, copied, transmitted, or stored only in accord with that
 written license.
  
 The following legend is applicable only to US Government
 contracts under FAR:
  
                    RESTRICTED RIGHTS LEGEND
  
 Use, reproduction and disclosure by the US Government is
 subject to restrictions as set forth in subparagraphs (a)
 and (c) of the Commercial Computer Software - Restricted
 Rights clause in FAR 52.227-19.
  
 Gaussian, Inc.
 340 Quinnipiac St., Bldg. 40, Wallingford CT 06492
  
  
 ---------------------------------------------------------------
 Warning -- This program may not be used in any manner that
 competes with the business of Gaussian, Inc. or will provide
 assistance to any competitor of Gaussian, Inc.  The licensee
 of this program is prohibited from giving any competitor of
 Gaussian, Inc. access to this program.  By using this program,
 the user acknowledges that Gaussian, Inc. is engaged in the
 business of creating and licensing software in the field of
 computational chemistry and represents and warrants to the
 licensee that it is not a competitor of Gaussian, Inc. and that
 it will not use this program in any manner prohibited above.
 ---------------------------------------------------------------
  

 Cite this work as:
 Gaussian 16, Revision B.01,
 M. J. Frisch, G. W. Trucks, H. B. Schlegel, G. E. Scuseria, 
 M. A. Robb, J. R. Cheeseman, G. Scalmani, V. Barone, 
 G. A. Petersson, H. Nakatsuji, X. Li, M. Caricato, A. V. Marenich, 
 J. Bloino, B. G. Janesko, R. Gomperts, B. Mennucci, H. P. Hratchian, 
 J. V. Ortiz, A. F. Izmaylov, J. L. Sonnenberg, D. Williams-Young, 
 F. Ding, F. Lipparini, F. Egidi, J. Goings, B. Peng, A. Petrone, 
 T. Henderson, D. Ranasinghe, V. G. Zakrzewski, J. Gao, N. Rega, 
 G. Zheng, W. Liang, M. Hada, M. Ehara, K. Toyota, R. Fukuda, 
 J. Hasegawa, M. Ishida, T. Nakajima, Y. Honda, O. Kitao, H. Nakai, 
 T. Vreven, K. Throssell, J. A. Montgomery, Jr., J. E. Peralta, 
 F. Ogliaro, M. J. Bearpark, J. J. Heyd, E. N. Brothers, K. N. Kudin, 
 V. N. Staroverov, T. A. Keith, R. Kobayashi, J. Normand, 
 K. Raghavachari, A. P. Rendell, J. C. Burant, S. S. Iyengar, 
 J. Tomasi, M. Cossi, J. M. Millam, M. Klene, C. Adamo, R. Cammi, 
 J. W. Ochterski, R. L. Martin, K. Morokuma, O. Farkas, 
 J. B. Foresman, and D. J. Fox, Gaussian, Inc., Wallingford CT, 2016.
 
 ******************************************
 Gaussian 16:  ES64L-G16RevB.01 20-Dec-2017
                 2-Nov-2021 
 ******************************************
 %NProcShared=32
 Will use up to   32 processors via shared memory.
 %mem=18GB
 %chk=R-pTol-SDP_1_SPE.chk
 ----------------------------------------------------------------------
 # PBE1PBE gen pseudo=read int=(grid=ultrafine) empiricaldispersion=GD3
 BJ nmr=giao
 ----------------------------------------------------------------------
 1/38=1,172=1/1;
 2/12=2,17=6,18=5,40=1/2;
 3/5=7,11=2,16=1,17=8,25=1,30=1,74=-13,75=-5,124=41/1,2,3,8;
 4//1;
 5/5=2,38=5/2;
 8/6=1,10=90,11=11/1;
 10/13=100,45=16/2;
 6/7=2,8=2,9=2,10=2,28=1/1;
 99/9=1/99;
 -----
 title
 -----
 Symbolic Z-matrix:
 Charge =  0 Multiplicity = 1
 Pd                   -0.79482   2.79053  -0.16303 
 P                     0.71058   1.07859  -0.30383 
 C                     1.53305   0.61568  -1.8798 
 C                     1.61189  -0.72114  -2.31 
 C                     2.39376  -1.05732  -3.4238 
 C                     3.11257  -0.07808  -4.13005 
 C                     3.03392   1.25576  -3.68154 
 C                     2.25645   1.60492  -2.57541 
 H                     2.19122   2.6486   -2.25777 
 H                     3.58406   2.03734  -4.21797 
 C                     3.92968  -0.43564  -5.34831 
 H                     3.40919  -0.13588  -6.27678 
 H                     4.11518  -1.52079  -5.40838 
 H                     4.90529   0.08067  -5.34606 
 H                     2.44313  -2.10278  -3.74991 
 H                     1.05915  -1.50389  -1.78161 
 C                     2.19988   1.12612   0.76969 
 C                     3.15896   0.09453   0.75592 
 C                     4.32993   0.21317   1.51081 
 C                     4.5928    1.37182   2.26735 
 C                     3.66141   2.42495   2.21573 
 C                     2.48052   2.30796   1.47719 
 H                     1.76222   3.13354   1.44157 
 H                     3.85819   3.34747   2.77302 
 C                     5.83092   1.47899   3.12317 
 H                     6.25634   2.49658   3.09667 
 H                     6.6119    0.77007   2.80238 
 H                     5.5946    1.25535   4.18104 
 H                     5.06457  -0.60045   1.49926 
 H                     3.00393  -0.78928   0.12884 
 C                    -0.49433  -0.28772  -0.00239 
 C                    -0.84935  -0.89909   1.21792 
 C                    -1.96183  -1.77387   1.25776 
 C                    -2.7437   -2.01749   0.12773 
 C                    -2.42164  -1.37117  -1.07431 
 C                    -1.31978  -0.51444  -1.13613 
 H                    -1.10925   0.02178  -2.06751 
 H                    -3.03832  -1.51802  -1.96656 
 H                    -3.60996  -2.68538   0.18881 
 C                    -2.1489   -2.369     2.63418 
 H                    -3.20554  -2.35758   2.95447 
 C                    -1.25979  -1.48529   3.52797 
 H                    -0.79771  -2.03152   4.367 
 H                    -1.86175  -0.67061   3.95248 
 C                    -0.1644   -0.88306   2.57885 
 C                     0.39705   0.38856   3.23087 
 C                     1.50558   0.01144   4.02707 
 C                     2.12408   0.90492   4.90501 
 C                     1.63096   2.20988   4.9966 
 C                     0.56861   2.6141    4.18096 
 C                    -0.06897   1.73205   3.27442 
 P                    -1.29259   2.51501   2.09728 
 C                    -2.85473   1.59584   2.35112 
 C                    -3.66777   1.27996   1.2474 
 C                    -4.85881   0.57293   1.4355 
 C                    -5.28192   0.1789    2.71955 
 C                    -4.46713   0.50858   3.81933 
 C                    -3.26413   1.20344   3.64106 
 H                    -2.62996   1.42372   4.50729 
 H                    -4.77367   0.20769   4.82793 
 C                    -6.5827   -0.56411   2.91006 
 H                    -6.73356  -1.32073   2.12092 
 H                    -6.62142  -1.07304   3.88742 
 H                    -7.44477   0.12675   2.86209 
 H                    -5.47301   0.31974   0.56403 
 H                    -3.35958   1.59413   0.24625 
 C                    -1.53476   4.18414   2.83119 
 C                    -2.46186   4.44846   3.85157 
 C                    -2.54695   5.73085   4.40991 
 C                    -1.71296   6.77453   3.97334 
 C                    -0.78697   6.49855   2.94728 
 C                    -0.70475   5.22808   2.3747 
 H                    -0.01601   5.04198   1.54291 
 H                    -0.13772   7.29982   2.57604 
 C                    -1.82978   8.16275   4.55543 
 H                    -2.40464   8.82587   3.88264 
 H                    -2.34675   8.15227   5.52921 
 H                    -0.83877   8.62772   4.69627 
 H                    -3.28439   5.92577   5.19723 
 H                    -3.13743   3.66355   4.20187 
 Cl                   -2.67845   4.25869  -0.1492 
 H                     0.23536   3.65181   4.23936 
 H                     2.08667   2.93033   5.6836 
 H                     2.98102   0.58293   5.50781 
 C                     1.88944  -1.43613   3.8132 
 H                     2.97622  -1.55327   3.65469 
 C                     1.067    -1.84259   2.57691 
 H                     0.74683  -2.89799   2.58525 
 H                     1.65529  -1.6792    1.66157 
 H                     1.62655  -2.04645   4.69886 
 H                    -1.81952  -3.4266    2.64546 
 Cl                   -0.56664   3.16047  -2.49291 
 
 Stoichiometry    C45H42Cl2P2Pd
 Framework group  C1[X(C45H42Cl2P2Pd)]
 Deg. of freedom   270
 Full point group                 C1      NOp   1
 Largest Abelian subgroup         C1      NOp   1
 Largest concise Abelian subgroup C1      NOp   1
                         Standard orientation:                         
 ---------------------------------------------------------------------
 Center     Atomic      Atomic             Coordinates (Angstroms)
 Number     Number       Type             X           Y           Z
 ---------------------------------------------------------------------
      1         46           0        0.040779   -0.055308   -1.878915
      2         15           0       -1.737193    0.106550   -0.454357
      3          6           0       -3.455128    0.373402   -1.047591
      4          6           0       -4.294965    1.344921   -0.473828
      5          6           0       -5.649266    1.404077   -0.830521
      6          6           0       -6.196860    0.502634   -1.758920
      7          6           0       -5.346946   -0.473041   -2.317667
      8          6           0       -3.995356   -0.541238   -1.973526
      9          1           0       -3.348486   -1.291273   -2.435506
     10          1           0       -5.751032   -1.185542   -3.045910
     11          6           0       -7.648297    0.586339   -2.166362
     12          1           0       -7.753253    1.043450   -3.167791
     13          1           0       -8.233429    1.198280   -1.460165
     14          1           0       -8.111102   -0.414329   -2.220008
     15          1           0       -6.291277    2.168766   -0.377931
     16          1           0       -3.894546    2.062582    0.248697
     17          6           0       -2.067456   -1.281638    0.701754
     18          6           0       -3.130133   -1.242446    1.625542
     19          6           0       -3.413564   -2.358455    2.418828
     20          6           0       -2.673289   -3.549667    2.288721
     21          6           0       -1.661675   -3.600386    1.312347
     22          6           0       -1.360711   -2.484129    0.526846
     23          1           0       -0.572735   -2.533465   -0.231748
     24          1           0       -1.091700   -4.525627    1.173092
     25          6           0       -2.944306   -4.736458    3.180299
     26          1           0       -2.855383   -5.687763    2.628688
     27          1           0       -3.950795   -4.689875    3.627767
     28          1           0       -2.213848   -4.775407    4.010878
     29          1           0       -4.237286   -2.312594    3.140757
     30          1           0       -3.756825   -0.348128    1.702031
     31          6           0       -1.259885    1.724579    0.296399
     32          6           0       -0.498353    1.968926    1.458008
     33          6           0       -0.055407    3.285219    1.732999
     34          6           0       -0.318378    4.344040    0.862710
     35          6           0       -1.032538    4.092842   -0.317649
     36          6           0       -1.488894    2.802848   -0.599717
     37          1           0       -2.001907    2.611124   -1.548076
     38          1           0       -1.222958    4.898319   -1.033828
     39          1           0        0.050342    5.350373    1.089733
     40          6           0        0.694843    3.354361    3.042971
     41          1           0        1.617939    3.955197    2.964829
     42          6           0        0.986793    1.877283    3.364407
     43          1           0        0.980337    1.651842    4.443755
     44          1           0        1.976728    1.605969    2.973658
     45          6           0       -0.114494    1.050426    2.611497
     46          6           0        0.401376   -0.382813    2.418908
     47          6           0       -0.006427   -1.142399    3.542159
     48          6           0        0.463854   -2.438087    3.769432
     49          6           0        1.363514   -2.998036    2.857539
     50          6           0        1.738319   -2.281178    1.716104
     51          6           0        1.267728   -0.970801    1.455706
     52         15           0        1.675243   -0.277143   -0.232101
     53          6           0        2.540086    1.301965    0.096615
     54          6           0        2.286621    2.420979   -0.717360
     55          6           0        2.940225    3.630843   -0.466621
     56          6           0        3.872102    3.756592    0.581645
     57          6           0        4.127306    2.628559    1.384453
     58          6           0        3.466916    1.415450    1.151909
     59          1           0        3.657796    0.558130    1.807369
     60          1           0        4.845047    2.704213    2.209620
     61          6           0        4.588007    5.063529    0.826136
     62          1           0        3.907336    5.923996    0.706665
     63          1           0        5.023080    5.106185    1.838369
     64          1           0        5.413951    5.204353    0.104509
     65          1           0        2.719703    4.498159   -1.099032
     66          1           0        1.577533    2.332991   -1.545275
     67          6           0        2.943852   -1.457571   -0.848935
     68          6           0        4.311250   -1.340592   -0.553804
     69          6           0        5.213695   -2.313858   -1.003081
     70          6           0        4.779967   -3.423950   -1.748041
     71          6           0        3.405278   -3.530605   -2.040049
     72          6           0        2.500577   -2.558629   -1.609387
     73          1           0        1.442971   -2.628161   -1.887791
     74          1           0        3.043798   -4.377106   -2.635147
     75          6           0        5.759878   -4.453547   -2.257300
     76          1           0        5.991714   -4.283693   -3.325118
     77          1           0        6.712186   -4.416463   -1.702902
     78          1           0        5.352625   -5.476035   -2.174858
     79          1           0        6.280321   -2.202720   -0.775810
     80          1           0        4.684019   -0.480280    0.008421
     81         17           0        1.903011    0.240906   -3.344570
     82          1           0        2.404654   -2.761466    0.997340
     83          1           0        1.759054   -4.006923    3.013714
     84          1           0        0.128906   -3.000993    4.648260
     85          6           0       -0.962894   -0.374375    4.427520
     86          1           0       -1.847212   -0.978616    4.697345
     87          6           0       -1.327391    0.854282    3.574533
     88          1           0       -1.513982    1.765495    4.167266
     89          1           0       -2.232647    0.648821    2.983837
     90          1           0       -0.471345   -0.083343    5.376031
     91          1           0        0.066650    3.827607    3.823064
     92         17           0       -1.416480    0.308849   -3.712230
 ---------------------------------------------------------------------
 Rotational constants (GHZ):           0.0651384           0.0480136           0.0464126
 General basis read from cards:  (5D, 7F)
 ======================================================================================================
                                       Pseudopotential Parameters
 ======================================================================================================
  Center     Atomic      Valence      Angular      Power
  Number     Number     Electrons     Momentum     of R      Exponent        Coefficient   SO-Coeffient
 ======================================================================================================
    1         46           18
                                      G and up 
                                                     2        1.0000000        0.00000000    0.00000000
                                      S - G
                                                     2       12.4300000      240.22904000    0.00000000
                                                     2        6.1707590       35.17194300    0.00000000
                                      P - G
                                                     2       11.0800000      170.41727600    0.00000000
                                                     2        5.8295540       28.47213300    0.00000000
                                      D - G
                                                     2        9.5100000       69.01384500    0.00000000
                                                     2        4.1397810       11.75086200    0.00000000
                                      F - G
                                                     2       13.2700000      -31.92955400    0.00000000
                                                     2        6.6300000       -5.39821700    0.00000000
    2         15
                                   No pseudopotential on this center.
    3          6
                                   No pseudopotential on this center.
    4          6
                                   No pseudopotential on this center.
    5          6
                                   No pseudopotential on this center.
    6          6
                                   No pseudopotential on this center.
    7          6
                                   No pseudopotential on this center.
    8          6
                                   No pseudopotential on this center.
    9          1
                                   No pseudopotential on this center.
   10          1
                                   No pseudopotential on this center.
   11          6
                                   No pseudopotential on this center.
   12          1
                                   No pseudopotential on this center.
   13          1
                                   No pseudopotential on this center.
   14          1
                                   No pseudopotential on this center.
   15          1
                                   No pseudopotential on this center.
   16          1
                                   No pseudopotential on this center.
   17          6
                                   No pseudopotential on this center.
   18          6
                                   No pseudopotential on this center.
   19          6
                                   No pseudopotential on this center.
   20          6
                                   No pseudopotential on this center.
   21          6
                                   No pseudopotential on this center.
   22          6
                                   No pseudopotential on this center.
   23          1
                                   No pseudopotential on this center.
   24          1
                                   No pseudopotential on this center.
   25          6
                                   No pseudopotential on this center.
   26          1
                                   No pseudopotential on this center.
   27          1
                                   No pseudopotential on this center.
   28          1
                                   No pseudopotential on this center.
   29          1
                                   No pseudopotential on this center.
   30          1
                                   No pseudopotential on this center.
   31          6
                                   No pseudopotential on this center.
   32          6
                                   No pseudopotential on this center.
   33          6
                                   No pseudopotential on this center.
   34          6
                                   No pseudopotential on this center.
   35          6
                                   No pseudopotential on this center.
   36          6
                                   No pseudopotential on this center.
   37          1
                                   No pseudopotential on this center.
   38          1
                                   No pseudopotential on this center.
   39          1
                                   No pseudopotential on this center.
   40          6
                                   No pseudopotential on this center.
   41          1
                                   No pseudopotential on this center.
   42          6
                                   No pseudopotential on this center.
   43          1
                                   No pseudopotential on this center.
   44          1
                                   No pseudopotential on this center.
   45          6
                                   No pseudopotential on this center.
   46          6
                                   No pseudopotential on this center.
   47          6
                                   No pseudopotential on this center.
   48          6
                                   No pseudopotential on this center.
   49          6
                                   No pseudopotential on this center.
   50          6
                                   No pseudopotential on this center.
   51          6
                                   No pseudopotential on this center.
   52         15
                                   No pseudopotential on this center.
   53          6
                                   No pseudopotential on this center.
   54          6
                                   No pseudopotential on this center.
   55          6
                                   No pseudopotential on this center.
   56          6
                                   No pseudopotential on this center.
   57          6
                                   No pseudopotential on this center.
   58          6
                                   No pseudopotential on this center.
   59          1
                                   No pseudopotential on this center.
   60          1
                                   No pseudopotential on this center.
   61          6
                                   No pseudopotential on this center.
   62          1
                                   No pseudopotential on this center.
   63          1
                                   No pseudopotential on this center.
   64          1
                                   No pseudopotential on this center.
   65          1
                                   No pseudopotential on this center.
   66          1
                                   No pseudopotential on this center.
   67          6
                                   No pseudopotential on this center.
   68          6
                                   No pseudopotential on this center.
   69          6
                                   No pseudopotential on this center.
   70          6
                                   No pseudopotential on this center.
   71          6
                                   No pseudopotential on this center.
   72          6
                                   No pseudopotential on this center.
   73          1
                                   No pseudopotential on this center.
   74          1
                                   No pseudopotential on this center.
   75          6
                                   No pseudopotential on this center.
   76          1
                                   No pseudopotential on this center.
   77          1
                                   No pseudopotential on this center.
   78          1
                                   No pseudopotential on this center.
   79          1
                                   No pseudopotential on this center.
   80          1
                                   No pseudopotential on this center.
   81         17
                                   No pseudopotential on this center.
   82          1
                                   No pseudopotential on this center.
   83          1
                                   No pseudopotential on this center.
   84          1
                                   No pseudopotential on this center.
   85          6
                                   No pseudopotential on this center.
   86          1
                                   No pseudopotential on this center.
   87          6
                                   No pseudopotential on this center.
   88          1
                                   No pseudopotential on this center.
   89          1
                                   No pseudopotential on this center.
   90          1
                                   No pseudopotential on this center.
   91          1
                                   No pseudopotential on this center.
   92         17
                                   No pseudopotential on this center.
 ======================================================================================================
 There are  2079 symmetry adapted cartesian basis functions of A   symmetry.
 There are  1831 symmetry adapted basis functions of A   symmetry.
  1831 basis functions,  2972 primitive gaussians,  2079 cartesian basis functions
   197 alpha electrons      197 beta electrons
       nuclear repulsion energy      8442.9775278673 Hartrees.
 NAtoms=   92 NActive=   92 NUniq=   92 SFac= 1.00D+00 NAtFMM=   60 NAOKFM=T Big=T
 Integral buffers will be    131072 words long.
 Raffenetti 2 integral format.
 Two-electron integral symmetry is turned on.
 Nuclear repulsion after empirical dispersion term =     8442.8010831477 Hartrees.
 One-electron integrals computed using PRISM.
   1 Symmetry operations used in ECPInt.
 ECPInt:  NShTT=  266085 NPrTT=  822392 LenC2=  206912 LenP2D=  421782.
 LDataN:  DoStor=T MaxTD1= 7 Len=  274
 Number of processors reduced to  20 by ecpmxn.
 NBasis=  1831 RedAO= T EigKep=  2.71D-06  NBF=  1831
 NBsUse=  1831 1.00D-06 EigRej= -1.00D+00 NBFU=  1831
 Defaulting to unpruned grid for atomic number  46.
 ExpMin= 1.60D-02 ExpMax= 6.95D+04 ExpMxC= 2.37D+03 IAcc=3 IRadAn=         5 AccDes= 0.00D+00
 Harris functional with IExCor= 1009 and IRadAn=       5 diagonalized for initial guess.
 HarFok:  IExCor= 1009 AccDes= 0.00D+00 IRadAn=         5 IDoV= 1 UseB2=F ITyADJ=14
 ICtDFT=  3500011 ScaDFX=  1.000000  1.000000  1.000000  1.000000
 Defaulting to unpruned grid for atomic number  46.
 FoFCou: FMM=F IPFlag=           0 FMFlag=      100000 FMFlg1=        2001
         NFxFlg=           0 DoJE=T BraDBF=F KetDBF=T FulRan=T
         wScrn=  0.000000 ICntrl=       500 IOpCl=  0 I1Cent=   200000004 NGrid=           0
         NMat0=    1 NMatS0=      1 NMatT0=    0 NMatD0=    1 NMtDS0=    0 NMtDT0=    0
 Petite list used in FoFCou.
 Requested convergence on RMS density matrix=1.00D-08 within 128 cycles.
 Requested convergence on MAX density matrix=1.00D-06.
 Requested convergence on             energy=1.00D-06.
 No special actions if energy rises.
 Defaulting to unpruned grid for atomic number  46.
 Defaulting to unpruned grid for atomic number  46.
 Defaulting to unpruned grid for atomic number  46.
 Defaulting to unpruned grid for atomic number  46.
 Defaulting to unpruned grid for atomic number  46.
 Defaulting to unpruned grid for atomic number  46.
 Defaulting to unpruned grid for atomic number  46.
 Defaulting to unpruned grid for atomic number  46.
 Defaulting to unpruned grid for atomic number  46.
 Defaulting to unpruned grid for atomic number  46.
 Defaulting to unpruned grid for atomic number  46.
 Defaulting to unpruned grid for atomic number  46.
 Defaulting to unpruned grid for atomic number  46.
 Defaulting to unpruned grid for atomic number  46.
 Defaulting to unpruned grid for atomic number  46.
 Defaulting to unpruned grid for atomic number  46.
 Defaulting to unpruned grid for atomic number  46.
 Defaulting to unpruned grid for atomic number  46.
 Defaulting to unpruned grid for atomic number  46.
 Defaulting to unpruned grid for atomic number  46.
 Defaulting to unpruned grid for atomic number  46.
 Defaulting to unpruned grid for atomic number  46.
 Defaulting to unpruned grid for atomic number  46.
 Defaulting to unpruned grid for atomic number  46.
 Defaulting to unpruned grid for atomic number  46.
 Defaulting to unpruned grid for atomic number  46.
 Defaulting to unpruned grid for atomic number  46.
 Defaulting to unpruned grid for atomic number  46.
 Defaulting to unpruned grid for atomic number  46.
 Defaulting to unpruned grid for atomic number  46.
 Defaulting to unpruned grid for atomic number  46.
 Defaulting to unpruned grid for atomic number  46.
 EnCoef did     4 forward-backward iterations
 EnCoef did   100 forward-backward iterations
 EnCoef did   100 forward-backward iterations
 EnCoef did     2 forward-backward iterations
 Restarting incremental Fock formation.
 SCF Done:  E(RPBE1PBE) =  -3469.40198459     A.U. after   22 cycles
            NFock= 22  Conv=0.32D-08     -V/T= 2.0277
 DoSCS=F DFT=T ScalE2(SS,OS)=  1.000000  1.000000
 Range of M.O.s used for correlation:     1  1831
 NBasis=  1831 NAE=   197 NBE=   197 NFC=     0 NFV=     0
 NROrb=   1831 NOA=   197 NOB=   197 NVA=  1634 NVB=  1634

 **** Warning!!: The largest alpha MO coefficient is  0.51705930D+02

          Differentiating once with respect to magnetic field using GIAOs.
          Electric field/nuclear overlap derivatives assumed to be zero.
 Defaulting to unpruned grid for atomic number  46.
 FoFCou: FMM=F IPFlag=           0 FMFlag=      100000 FMFlg1=        2001
         NFxFlg=           0 DoJE=F BraDBF=F KetDBF=T FulRan=T
         wScrn=  0.000000 ICntrl=      6100 IOpCl=  0 I1Cent=           7 NGrid=          92
         NMat0=    1 NMatS0=      1 NMatT0=    0 NMatD0=    1 NMtDS0=    0 NMtDT0=    0
 Symmetry not used in FoFCou.
   1 Symmetry operations used in ECPInt.
 ECPInt:  NShTT=  266085 NPrTT=  822392 LenC2=  266086 LenP2D=  822392.
 LDataN:  DoStor=T MaxTD1= 8 Len=  415
 Number of processors reduced to  13 by ecpmxn.
 FoFJK:  IHMeth= 1 ICntrl=    6127 DoSepK=F KAlg= 0 I1Cent=           0 FoldK=F
 IRaf=         1 NMat=       1 IRICut=       1 DoRegI=T DoRafI=F ISym2E= 0 IDoP0=0 IntGTp=1.
 Defaulting to unpruned grid for atomic number  46.
 Defaulting to unpruned grid for atomic number  46.
 Defaulting to unpruned grid for atomic number  46.
 Defaulting to unpruned grid for atomic number  46.
 Defaulting to unpruned grid for atomic number  46.
 Defaulting to unpruned grid for atomic number  46.
 Defaulting to unpruned grid for atomic number  46.
 Defaulting to unpruned grid for atomic number  46.
 Defaulting to unpruned grid for atomic number  46.
 Defaulting to unpruned grid for atomic number  46.
 Defaulting to unpruned grid for atomic number  46.
 Defaulting to unpruned grid for atomic number  46.
 Defaulting to unpruned grid for atomic number  46.
 Defaulting to unpruned grid for atomic number  46.
 Defaulting to unpruned grid for atomic number  46.
 Defaulting to unpruned grid for atomic number  46.
 Defaulting to unpruned grid for atomic number  46.
 Defaulting to unpruned grid for atomic number  46.
 Defaulting to unpruned grid for atomic number  46.
 Defaulting to unpruned grid for atomic number  46.
 Defaulting to unpruned grid for atomic number  46.
 Defaulting to unpruned grid for atomic number  46.
 Defaulting to unpruned grid for atomic number  46.
 Defaulting to unpruned grid for atomic number  46.
 Defaulting to unpruned grid for atomic number  46.
 Defaulting to unpruned grid for atomic number  46.
 Defaulting to unpruned grid for atomic number  46.
 Defaulting to unpruned grid for atomic number  46.
 Defaulting to unpruned grid for atomic number  46.
 Defaulting to unpruned grid for atomic number  46.
 Defaulting to unpruned grid for atomic number  46.
 Defaulting to unpruned grid for atomic number  46.
          There are     3 degrees of freedom in the 1st order CPHF.  IDoFFX=0 NUNeed=     3.
      3 vectors produced by pass  0 Test12= 1.07D-11 3.33D-08 XBig12= 2.24D+02 1.80D+00.
 AX will form     3 AO Fock derivatives at one time.
      3 vectors produced by pass  1 Test12= 1.07D-11 3.33D-08 XBig12= 1.02D+00 2.11D-01.
      3 vectors produced by pass  2 Test12= 1.07D-11 3.33D-08 XBig12= 1.02D-02 3.46D-02.
      3 vectors produced by pass  3 Test12= 1.07D-11 3.33D-08 XBig12= 2.30D-04 6.98D-03.
      3 vectors produced by pass  4 Test12= 1.07D-11 3.33D-08 XBig12= 1.50D-06 3.03D-04.
      3 vectors produced by pass  5 Test12= 1.07D-11 3.33D-08 XBig12= 9.42D-09 2.63D-05.
      3 vectors produced by pass  6 Test12= 1.07D-11 3.33D-08 XBig12= 1.79D-10 5.14D-06.
      3 vectors produced by pass  7 Test12= 1.07D-11 3.33D-08 XBig12= 3.24D-12 5.15D-07.
      1 vectors produced by pass  8 Test12= 1.07D-11 3.33D-08 XBig12= 2.60D-14 5.82D-08.
 InvSVY:  IOpt=1 It=  1 EMax= 7.11D-15
 Solved reduced A of dimension    25 with     3 vectors.
 Calculating GIAO nuclear magnetic shielding tensors.
 SCF GIAO Magnetic shielding tensor (ppm):
      1  Pd   Isotropic =  -165.4771   Anisotropy =   235.8783
   XX=   -30.2183   YX=   -20.4140   ZX=     4.7012
   XY=   -11.9223   YY=  -454.2515   ZY=   -36.3323
   XZ=   -14.9469   YZ=   -37.6591   ZZ=   -11.9616
   Eigenvalues:  -457.9640   -30.2424    -8.2249
      2  P    Isotropic =   223.8173   Anisotropy =   144.1782
   XX=   216.2950   YX=   -40.2736   ZX=   -38.9400
   XY=   -76.5712   YY=   151.8816   ZY=   -11.7876
   XZ=   -40.0353   YZ=    -3.1773   ZZ=   303.2753
   Eigenvalues:   113.5344   237.9814   319.9361
      3  C    Isotropic =    45.9815   Anisotropy =   179.1175
   XX=   -31.2788   YX=    29.6939   ZX=   -42.9707
   XY=    18.7251   YY=    84.8727   ZY=   -62.2250
   XZ=   -34.7786   YZ=   -79.0454   ZZ=    84.3507
   Eigenvalues:   -43.2071    15.7585   165.3932
      4  C    Isotropic =    48.4709   Anisotropy =   185.4228
   XX=    33.2628   YX=    -1.0537   ZX=   -42.8473
   XY=     8.4855   YY=    43.2877   ZY=  -102.6106
   XZ=   -53.0737   YZ=  -106.0313   ZZ=    68.8620
   Eigenvalues:   -58.8704    32.1970   172.0860
      5  C    Isotropic =    53.1969   Anisotropy =   157.6714
   XX=    23.7219   YX=    56.8808   ZX=     7.6874
   XY=    62.1327   YY=    45.4547   ZY=   -76.5362
   XZ=     3.4898   YZ=   -81.4569   ZZ=    90.4140
   Eigenvalues:   -51.1569    52.4364   158.3111
      6  C    Isotropic =    38.0858   Anisotropy =   203.2157
   XX=   -50.6536   YX=    29.5976   ZX=   -44.9201
   XY=    23.8880   YY=    70.0730   ZY=   -79.5993
   XZ=   -39.9684   YZ=   -78.6830   ZZ=    94.8380
   Eigenvalues:   -62.4219     3.1164   173.5629
      7  C    Isotropic =    51.0849   Anisotropy =   170.2435
   XX=    38.1167   YX=    -3.2044   ZX=   -41.6202
   XY=    -2.3381   YY=    45.6333   ZY=   -99.8125
   XZ=   -51.5003   YZ=   -94.7407   ZZ=    69.5047
   Eigenvalues:   -53.0540    41.7281   164.5806
      8  C    Isotropic =    37.7758   Anisotropy =   202.7408
   XX=    -1.4697   YX=    56.1056   ZX=   -11.2123
   XY=    63.8162   YY=    31.9083   ZY=   -94.7775
   XZ=   -15.5148   YZ=  -103.1051   ZZ=    82.8887
   Eigenvalues:   -70.6322    11.0232   172.9363
      9  H    Isotropic =    23.0678   Anisotropy =    12.3215
   XX=    27.8082   YX=     4.0104   ZX=     4.7706
   XY=     5.0021   YY=    18.6512   ZY=     1.6811
   XZ=     2.4023   YZ=     0.4711   ZZ=    22.7439
   Eigenvalues:    16.7786    21.1426    31.2822
     10  H    Isotropic =    24.0243   Anisotropy =     8.4657
   XX=    29.0003   YX=    -2.6441   ZX=     1.1110
   XY=    -1.5808   YY=    21.7621   ZY=     1.5277
   XZ=     1.2421   YZ=     0.3673   ZZ=    21.3105
   Eigenvalues:    19.9875    22.4173    29.6681
     11  C    Isotropic =   162.8459   Anisotropy =    41.7555
   XX=   187.9103   YX=    -4.2257   ZX=     6.2622
   XY=    -6.4518   YY=   150.8395   ZY=     6.5094
   XZ=    13.5643   YZ=     6.2776   ZZ=   149.7880
   Eigenvalues:   141.3168   156.5380   190.6829
     12  H    Isotropic =    28.7762   Anisotropy =     9.4769
   XX=    29.1724   YX=    -1.6348   ZX=     3.4638
   XY=    -2.6930   YY=    25.9029   ZY=    -2.2777
   XZ=     4.0860   YZ=    -1.9060   ZZ=    31.2535
   Eigenvalues:    24.8136    26.4209    35.0942
     13  H    Isotropic =    29.3316   Anisotropy =     7.9319
   XX=    33.1073   YX=    -3.4821   ZX=    -1.5834
   XY=    -1.3562   YY=    27.2073   ZY=     3.5498
   XZ=    -0.3598   YZ=     2.8013   ZZ=    27.6802
   Eigenvalues:    24.1077    29.2676    34.6195
     14  H    Isotropic =    29.0481   Anisotropy =     8.5808
   XX=    32.3550   YX=     3.3049   ZX=     2.0581
   XY=     2.5770   YY=    30.2859   ZY=     1.7745
   XZ=     0.3116   YZ=     1.2395   ZZ=    24.5034
   Eigenvalues:    24.1041    28.2716    34.7686
     15  H    Isotropic =    24.1021   Anisotropy =     8.3819
   XX=    28.3777   YX=     0.7092   ZX=     3.5791
   XY=     0.2008   YY=    21.5378   ZY=     1.4011
   XZ=     2.2875   YZ=     1.4395   ZZ=    22.3908
   Eigenvalues:    20.1671    22.4492    29.6900
     16  H    Isotropic =    23.6796   Anisotropy =    13.9139
   XX=    32.3732   YX=    -1.4327   ZX=     1.3560
   XY=    -3.8841   YY=    20.8079   ZY=     0.4361
   XZ=    -1.4448   YZ=    -1.6465   ZZ=    17.8576
   Eigenvalues:    17.7135    20.3697    32.9555
     17  C    Isotropic =    49.8603   Anisotropy =   183.9843
   XX=    88.0490   YX=    19.3979   ZX=    72.8289
   XY=    19.1659   YY=    -3.7672   ZY=    60.0051
   XZ=    85.9634   YZ=    53.4305   ZZ=    65.2991
   Eigenvalues:   -41.3903    18.4547   172.5165
     18  C    Isotropic =    42.8162   Anisotropy =   197.5198
   XX=    49.2651   YX=    72.2602   ZX=    73.8384
   XY=    68.1769   YY=   -20.1374   ZY=    37.1935
   XZ=    68.8008   YZ=    29.3267   ZZ=    99.3209
   Eigenvalues:   -64.4658    18.4184   174.4961
     19  C    Isotropic =    52.8038   Anisotropy =   163.7253
   XX=    39.6906   YX=    31.2334   ZX=    98.0646
   XY=    31.6748   YY=    62.4866   ZY=    18.9861
   XZ=   100.3758   YZ=    25.9337   ZZ=    56.2343
   Eigenvalues:   -52.1883    48.6457   161.9540
     20  C    Isotropic =    39.4706   Anisotropy =   205.5557
   XX=    77.9580   YX=    27.5449   ZX=    84.6584
   XY=    31.0599   YY=   -20.3367   ZY=    67.4104
   XZ=    83.6096   YZ=    64.2953   ZZ=    60.7905
   Eigenvalues:   -59.8008     1.7048   176.5078
     21  C    Isotropic =    49.6380   Anisotropy =   177.3069
   XX=    73.4856   YX=    75.6253   ZX=    59.7284
   XY=    66.0031   YY=   -14.6044   ZY=    18.9920
   XZ=    66.6581   YZ=    21.6346   ZZ=    90.0327
   Eigenvalues:   -55.3465    36.4179   167.8426
     22  C    Isotropic =    41.6070   Anisotropy =   189.7155
   XX=    41.0482   YX=    36.5404   ZX=   113.4646
   XY=    33.4285   YY=    34.3996   ZY=    23.4567
   XZ=   108.8659   YZ=    18.4433   ZZ=    49.3731
   Eigenvalues:   -67.2329    23.9698   168.0840
     23  H    Isotropic =    23.4902   Anisotropy =     7.9892
   XX=    20.8396   YX=     1.5237   ZX=     3.3692
   XY=     1.3773   YY=    28.0235   ZY=    -1.1381
   XZ=     0.4110   YZ=    -3.3318   ZZ=    21.6073
   Eigenvalues:    18.6009    23.0534    28.8163
     24  H    Isotropic =    24.7458   Anisotropy =     8.3568
   XX=    23.5372   YX=     4.7527   ZX=    -1.7480
   XY=     3.2626   YY=    25.8800   ZY=    -2.3191
   XZ=    -3.0590   YZ=    -1.0381   ZZ=    24.8203
   Eigenvalues:    20.3010    23.6194    30.3171
     25  C    Isotropic =   162.9206   Anisotropy =    41.1219
   XX=   152.9745   YX=     1.9565   ZX=    -8.8345
   XY=     6.4226   YY=   174.7718   ZY=   -16.6818
   XZ=   -13.3292   YZ=   -20.4776   ZZ=   161.0155
   Eigenvalues:   142.6258   155.8009   190.3352
     26  H    Isotropic =    29.1716   Anisotropy =     9.1687
   XX=    25.9734   YX=     2.7110   ZX=    -2.5607
   XY=     0.4061   YY=    34.9811   ZY=     1.1416
   XZ=    -1.5195   YZ=     0.7218   ZZ=    26.5603
   Eigenvalues:    23.9162    28.3145    35.2841
     27  H    Isotropic =    29.4161   Anisotropy =     9.2672
   XX=    32.0494   YX=     0.8671   ZX=    -4.4030
   XY=     2.0248   YY=    29.2720   ZY=    -3.3468
   XZ=    -4.3900   YZ=    -1.6517   ZZ=    26.9270
   Eigenvalues:    23.9575    28.6967    35.5942
     28  H    Isotropic =    29.1131   Anisotropy =     6.8846
   XX=    28.1937   YX=     0.3434   ZX=     1.4297
   XY=     0.2260   YY=    28.2628   ZY=    -3.1957
   XZ=     2.0973   YZ=    -3.9829   ZZ=    30.8827
   Eigenvalues:    25.1981    28.4384    33.7028
     29  H    Isotropic =    24.5372   Anisotropy =     6.8799
   XX=    24.1905   YX=     0.5758   ZX=    -1.6042
   XY=     0.0423   YY=    27.3693   ZY=    -3.3052
   XZ=     0.3433   YZ=    -3.5818   ZZ=    22.0517
   Eigenvalues:    20.3120    24.1757    29.1238
     30  H    Isotropic =    24.2527   Anisotropy =    10.0020
   XX=    25.1927   YX=     2.0596   ZX=    -2.8583
   XY=     1.9879   YY=    20.5764   ZY=    -6.4921
   XZ=     0.1808   YZ=    -4.3680   ZZ=    26.9891
   Eigenvalues:    17.3174    24.5201    30.9207
     31  C    Isotropic =    46.7055   Anisotropy =   169.3545
   XX=   111.8693   YX=   -40.7067   ZX=   -61.8163
   XY=   -51.6802   YY=   -18.8431   ZY=    -3.2945
   XZ=   -63.2278   YZ=    10.3243   ZZ=    47.0904
   Eigenvalues:   -37.4305    17.9386   159.6085
     32  C    Isotropic =    32.8911   Anisotropy =   175.2020
   XX=   112.7326   YX=     4.2156   ZX=   -62.2112
   XY=    -7.3259   YY=   -23.9378   ZY=    46.3243
   XZ=   -77.2039   YZ=    23.9155   ZZ=     9.8784
   Eigenvalues:   -56.0046     4.9854   149.6924
     33  C    Isotropic =    31.8631   Anisotropy =   174.2236
   XX=    85.5045   YX=   -42.7724   ZX=   -91.3717
   XY=   -31.3328   YY=    17.4671   ZY=    -2.9531
   XZ=   -85.0101   YZ=    14.3735   ZZ=    -7.3824
   Eigenvalues:   -63.3276    10.9047   148.0122
     34  C    Isotropic =    52.3688   Anisotropy =   178.6893
   XX=   126.1477   YX=   -53.7659   ZX=   -57.7064
   XY=   -53.4297   YY=   -28.2209   ZY=    -8.9027
   XZ=   -62.3312   YZ=     0.9437   ZZ=    59.1795
   Eigenvalues:   -50.0864    35.6977   171.4950
     35  C    Isotropic =    53.1059   Anisotropy =   184.4210
   XX=   139.3025   YX=   -14.4379   ZX=   -61.1040
   XY=   -12.1861   YY=    -5.3323   ZY=    58.8787
   XZ=   -68.1255   YZ=    56.1834   ZZ=    25.3474
   Eigenvalues:   -54.5497    37.8141   176.0532
     36  C    Isotropic =    43.4069   Anisotropy =   195.4237
   XX=   120.8534   YX=   -32.2370   ZX=   -88.4701
   XY=   -26.6513   YY=    23.0684   ZY=    13.4433
   XZ=   -96.3963   YZ=     0.9611   ZZ=   -13.7010
   Eigenvalues:   -61.3455    17.8768   173.6894
     37  H    Isotropic =    23.0182   Anisotropy =    10.5043
   XX=    21.3728   YX=     0.0929   ZX=     0.3958
   XY=     1.2038   YY=    29.9379   ZY=     0.2011
   XZ=    -2.1986   YZ=    -1.3631   ZZ=    17.7439
   Eigenvalues:    17.5181    21.5154    30.0210
     38  H    Isotropic =    23.8579   Anisotropy =     5.0946
   XX=    22.9019   YX=     0.7106   ZX=     2.8870
   XY=     0.9254   YY=    26.6517   ZY=     1.1553
   XZ=     1.4297   YZ=     0.7676   ZZ=    22.0201
   Eigenvalues:    20.2495    24.0699    27.2543
     39  H    Isotropic =    24.3382   Anisotropy =     4.1069
   XX=    23.0475   YX=    -2.1119   ZX=     2.1249
   XY=    -1.1188   YY=    25.3728   ZY=    -1.1593
   XZ=     1.0700   YZ=    -0.3534   ZZ=    24.5941
   Eigenvalues:    21.7397    24.1988    27.0761
     40  C    Isotropic =   152.9740   Anisotropy =    28.9100
   XX=   141.7283   YX=    -2.6485   ZX=    16.4997
   XY=    -1.1685   YY=   157.2325   ZY=    -4.4125
   XZ=    18.8369   YZ=    -4.4498   ZZ=   159.9612
   Eigenvalues:   130.9454   155.7293   172.2474
     41  H    Isotropic =    29.5381   Anisotropy =     7.4326
   XX=    30.5062   YX=     4.1654   ZX=    -1.5296
   XY=     3.3889   YY=    30.8610   ZY=     0.6417
   XZ=    -0.7645   YZ=     2.7516   ZZ=    27.2472
   Eigenvalues:    25.0569    29.0643    34.4932
     42  C    Isotropic =   144.9011   Anisotropy =    40.8839
   XX=   142.1844   YX=    12.1823   ZX=    18.3079
   XY=    11.6750   YY=   160.7308   ZY=     1.0085
   XZ=    12.9847   YZ=    15.8677   ZZ=   131.7882
   Eigenvalues:   120.4986   142.0478   172.1571
     43  H    Isotropic =    29.8844   Anisotropy =     7.1307
   XX=    26.4084   YX=     4.8125   ZX=     2.1570
   XY=     1.7834   YY=    29.0546   ZY=    -0.4714
   XZ=     1.2332   YZ=     0.4109   ZZ=    34.1902
   Eigenvalues:    23.9780    31.0370    34.6382
     44  H    Isotropic =    29.6564   Anisotropy =    10.2077
   XX=    34.0664   YX=     4.3118   ZX=    -5.4198
   XY=    -0.1240   YY=    26.6247   ZY=     2.6910
   XZ=    -3.3326   YZ=     2.5093   ZZ=    28.2782
   Eigenvalues:    22.9625    29.5453    36.4615
     45  C    Isotropic =   115.5473   Anisotropy =    39.2213
   XX=    97.0872   YX=    14.2816   ZX=    -5.3238
   XY=    -9.3082   YY=   137.4427   ZY=   -14.2345
   XZ=     4.1899   YZ=    -7.7624   ZZ=   112.1120
   Eigenvalues:    96.9336   108.0135   141.6949
     46  C    Isotropic =    24.2678   Anisotropy =   186.8687
   XX=    89.3643   YX=    72.7385   ZX=    49.1353
   XY=    68.2287   YY=   -37.8878   ZY=     7.5295
   XZ=    58.6474   YZ=    45.0036   ZZ=    21.3268
   Eigenvalues:   -69.2778    -6.7658   148.8469
     47  C    Isotropic =    34.4138   Anisotropy =   174.2165
   XX=    62.8182   YX=    45.5611   ZX=    94.1529
   XY=    51.9186   YY=    15.8222   ZY=    16.7326
   XZ=    92.1516   YZ=   -12.2781   ZZ=    24.6009
   Eigenvalues:   -63.2200    15.9032   150.5581
     48  C    Isotropic =    51.9724   Anisotropy =   180.5046
   XX=   109.8269   YX=    21.4181   ZX=    75.0538
   XY=    22.8244   YY=    29.4195   ZY=    66.6376
   XZ=    80.0912   YZ=    57.4652   ZZ=    16.6707
   Eigenvalues:   -53.4459    37.0543   172.3088
     49  C    Isotropic =    53.8206   Anisotropy =   182.1407
   XX=   112.0643   YX=    68.2009   ZX=    44.9250
   XY=    73.2408   YY=   -22.7308   ZY=    35.9378
   XZ=    47.4437   YZ=    42.2401   ZZ=    72.1284
   Eigenvalues:   -55.8601    42.0741   175.2478
     50  C    Isotropic =    43.3052   Anisotropy =   193.5498
   XX=    85.5320   YX=    68.2134   ZX=    87.3704
   XY=    73.8981   YY=    21.4575   ZY=    -1.5322
   XZ=    90.5965   YZ=     2.7706   ZZ=    22.9262
   Eigenvalues:   -63.8499    21.4272   172.3384
     51  C    Isotropic =    43.6375   Anisotropy =   174.1648
   XX=   100.7081   YX=    33.5089   ZX=    75.2792
   XY=    38.8805   YY=    17.2175   ZY=    51.7001
   XZ=    65.7177   YZ=    35.4197   ZZ=    12.9869
   Eigenvalues:   -37.0822     8.2474   159.7474
     52  P    Isotropic =   237.1853   Anisotropy =   124.3011
   XX=   270.1005   YX=     7.4824   ZX=    69.0328
   XY=    -0.8777   YY=   200.2094   ZY=    -9.5961
   XZ=    55.9402   YZ=   -16.1748   ZZ=   241.2461
   Eigenvalues:   182.9138   208.5894   320.0527
     53  C    Isotropic =    51.4194   Anisotropy =   178.3477
   XX=    87.2729   YX=   -50.8112   ZX=   -78.5454
   XY=   -58.6732   YY=   -13.5644   ZY=    15.3000
   XZ=   -67.0630   YZ=    12.5574   ZZ=    80.5498
   Eigenvalues:   -40.6949    24.6353   170.3179
     54  C    Isotropic =    35.5627   Anisotropy =   204.3934
   XX=    62.9847   YX=   -31.1255   ZX=  -114.7550
   XY=   -35.4096   YY=    22.9985   ZY=    26.9290
   XZ=  -115.9868   YZ=    28.9883   ZZ=    20.7048
   Eigenvalues:   -75.4473    10.3103   171.8249
     55  C    Isotropic =    49.6107   Anisotropy =   175.1281
   XX=   103.3780   YX=   -10.4892   ZX=   -70.2832
   XY=   -11.1818   YY=   -10.4533   ZY=    62.8601
   XZ=   -67.6142   YZ=    69.8712   ZZ=    55.9073
   Eigenvalues:   -56.9480    39.4173   166.3627
     56  C    Isotropic =    37.0545   Anisotropy =   207.4249
   XX=    82.3686   YX=   -60.8970   ZX=   -84.1836
   XY=   -61.2779   YY=   -37.5179   ZY=    20.3186
   XZ=   -84.1673   YZ=    19.6230   ZZ=    66.3128
   Eigenvalues:   -65.3970     1.2227   175.3378
     57  C    Isotropic =    53.8846   Anisotropy =   160.0149
   XX=    68.2256   YX=   -31.9200   ZX=   -96.8111
   XY=   -26.7499   YY=    59.5581   ZY=    14.4022
   XZ=   -98.4166   YZ=    16.4035   ZZ=    33.8701
   Eigenvalues:   -48.5509    49.6435   160.5612
     58  C    Isotropic =    42.0613   Anisotropy =   194.0940
   XX=   108.0026   YX=   -12.0646   ZX=   -72.2144
   XY=   -20.1149   YY=   -20.4191   ZY=    68.7792
   XZ=   -80.0614   YZ=    69.1732   ZZ=    38.6004
   Eigenvalues:   -71.5048    26.2315   171.4573
     59  H    Isotropic =    23.8381   Anisotropy =    10.9846
   XX=    27.3708   YX=     3.4732   ZX=     0.9417
   XY=     3.5164   YY=    22.8212   ZY=     2.6241
   XZ=     4.0007   YZ=     5.7969   ZZ=    21.3223
   Eigenvalues:    17.7787    22.5744    31.1612
     60  H    Isotropic =    24.1705   Anisotropy =     7.1480
   XX=    24.2595   YX=     3.0418   ZX=     0.6713
   XY=     2.0446   YY=    27.5397   ZY=    -1.3638
   XZ=     1.1394   YZ=    -0.2656   ZZ=    20.7121
   Eigenvalues:    20.1815    23.3940    28.9358
     61  C    Isotropic =   162.8532   Anisotropy =    41.3905
   XX=   157.8424   YX=    20.0597   ZX=    12.5877
   XY=    14.6787   YY=   179.0547   ZY=     6.2716
   XZ=     8.0875   YZ=     0.1447   ZZ=   151.6626
   Eigenvalues:   141.6941   156.4187   190.4469
     62  H    Isotropic =    28.9493   Anisotropy =     7.3608
   XX=    28.3097   YX=     0.0586   ZX=     1.8124
   XY=    -1.2799   YY=    33.7862   ZY=    -0.7910
   XZ=     1.8142   YZ=     0.8690   ZZ=    24.7520
   Eigenvalues:    23.9830    29.0083    33.8565
     63  H    Isotropic =    29.2421   Anisotropy =     7.9939
   XX=    27.9319   YX=     2.3304   ZX=     4.2299
   XY=     3.4047   YY=    29.3836   ZY=     1.8037
   XZ=     3.6716   YZ=     0.1304   ZZ=    30.4108
   Eigenvalues:    24.3376    28.8174    34.5713
     64  H    Isotropic =    28.7507   Anisotropy =    10.4353
   XX=    31.7019   YX=     5.4390   ZX=    -2.4308
   XY=     3.4774   YY=    27.6452   ZY=    -1.3355
   XZ=    -2.8402   YZ=    -2.1612   ZZ=    26.9050
   Eigenvalues:    24.7739    25.7706    35.7076
     65  H    Isotropic =    24.1953   Anisotropy =     8.7434
   XX=    25.9008   YX=     4.7816   ZX=     1.6931
   XY=     3.8131   YY=    24.4573   ZY=     2.0061
   XZ=     1.1547   YZ=     0.6648   ZZ=    22.2277
   Eigenvalues:    20.8113    21.7503    30.0242
     66  H    Isotropic =    22.8186   Anisotropy =    10.4052
   XX=    20.3715   YX=     3.3228   ZX=    -3.2455
   XY=     2.2738   YY=    28.6106   ZY=     2.8674
   XZ=    -1.5671   YZ=     2.0315   ZZ=    19.4737
   Eigenvalues:    16.3681    22.3323    29.7554
     67  C    Isotropic =    45.4876   Anisotropy =   183.9820
   XX=    -5.0290   YX=    30.8549   ZX=     0.8791
   XY=    43.3184   YY=    20.0896   ZY=   -91.9140
   XZ=    -5.1366   YZ=   -68.9778   ZZ=   121.4021
   Eigenvalues:   -48.2182    16.5387   168.1422
     68  C    Isotropic =    48.3107   Anisotropy =   188.2558
   XX=    21.2124   YX=   -16.5281   ZX=   -32.3126
   XY=   -18.1111   YY=    15.7428   ZY=   -99.1956
   XZ=   -27.2157   YZ=  -101.1725   ZZ=   107.9770
   Eigenvalues:   -60.1231    31.2407   173.8146
     69  C    Isotropic =    52.2167   Anisotropy =   160.2740
   XX=   -45.3862   YX=    -0.5079   ZX=   -30.8653
   XY=    -3.4430   YY=    82.7079   ZY=   -48.1224
   XZ=   -30.9821   YZ=   -55.9445   ZZ=   119.3283
   Eigenvalues:   -52.0517    49.6357   159.0660
     70  C    Isotropic =    37.8717   Anisotropy =   203.1209
   XX=   -22.0752   YX=    38.8573   ZX=    -5.4737
   XY=    42.9307   YY=    17.0865   ZY=   -90.7188
   XZ=    -5.8917   YZ=   -86.3319   ZZ=   118.6038
   Eigenvalues:   -62.3978     2.7272   173.2856
     71  C    Isotropic =    51.2568   Anisotropy =   168.1268
   XX=    34.4823   YX=   -18.6725   ZX=   -32.4536
   XY=   -16.7780   YY=    21.3442   ZY=   -91.4976
   XZ=   -23.9122   YZ=   -98.0972   ZZ=    97.9439
   Eigenvalues:   -53.2696    43.6987   163.3413
     72  C    Isotropic =    37.5227   Anisotropy =   189.2921
   XX=   -60.9953   YX=     4.7639   ZX=   -35.8074
   XY=    -2.7091   YY=    67.7924   ZY=   -61.2509
   XZ=   -43.8352   YZ=   -78.1184   ZZ=   105.7709
   Eigenvalues:   -71.8224    20.6731   163.7174
     73  H    Isotropic =    22.3833   Anisotropy =    13.9753
   XX=    18.4863   YX=    -6.4235   ZX=    -1.1081
   XY=    -4.4323   YY=    28.1573   ZY=     2.8491
   XZ=    -0.8488   YZ=     3.9903   ZZ=    20.5063
   Eigenvalues:    15.9826    19.4672    31.7002
     74  H    Isotropic =    23.6775   Anisotropy =     8.8208
   XX=    26.9121   YX=    -3.3334   ZX=    -0.4874
   XY=    -3.8635   YY=    23.7688   ZY=     1.4096
   XZ=    -1.3783   YZ=     1.6920   ZZ=    20.3516
   Eigenvalues:    19.7103    21.7642    29.5580
     75  C    Isotropic =   162.7924   Anisotropy =    41.6234
   XX=   172.3935   YX=   -17.4201   ZX=    -2.6170
   XY=   -15.5990   YY=   167.4089   ZY=     9.8313
   XZ=    -7.9055   YZ=    16.8237   ZZ=   148.5748
   Eigenvalues:   141.2902   156.5457   190.5413
     76  H    Isotropic =    28.6915   Anisotropy =     9.2782
   XX=    28.3215   YX=    -2.3643   ZX=    -3.4186
   XY=    -1.1729   YY=    25.7851   ZY=     1.1692
   XZ=    -3.6832   YZ=     2.7424   ZZ=    31.9680
   Eigenvalues:    24.8728    26.3248    34.8770
     77  H    Isotropic =    29.1894   Anisotropy =     8.3419
   XX=    33.3916   YX=    -1.6736   ZX=     2.8231
   XY=    -3.4671   YY=    28.0909   ZY=     1.4592
   XZ=     1.9887   YZ=     2.0109   ZZ=    26.0858
   Eigenvalues:    23.8674    28.9501    34.7507
     78  H    Isotropic =    28.8836   Anisotropy =     8.4611
   XX=    28.4413   YX=    -1.4325   ZX=    -0.8138
   XY=     0.2492   YY=    34.3502   ZY=     1.4933
   XZ=     0.2300   YZ=     0.6790   ZZ=    23.8593
   Eigenvalues:    23.7367    28.3898    34.5243
     79  H    Isotropic =    24.0826   Anisotropy =     8.1664
   XX=    24.3318   YX=    -3.3364   ZX=    -1.2314
   XY=    -1.6259   YY=    26.2579   ZY=     3.2015
   XZ=    -0.5111   YZ=     3.9897   ZZ=    21.6579
   Eigenvalues:    19.6429    23.0779    29.5269
     80  H    Isotropic =    23.7749   Anisotropy =    14.0694
   XX=    29.4095   YX=    -6.7774   ZX=    -0.8145
   XY=    -4.0898   YY=    23.8745   ZY=     1.3098
   XZ=    -1.2189   YZ=     4.8448   ZZ=    18.0408
   Eigenvalues:    16.5626    21.6077    33.1546
     81  Cl   Isotropic =   854.9528   Anisotropy =   449.4665
   XX=   692.1602   YX=   -18.3670   ZX=  -131.2470
   XY=   -54.7755   YY=  1150.8613   ZY=   -26.1332
   XZ=  -103.4274   YZ=    44.4507   ZZ=   721.8370
   Eigenvalues:   587.9091   822.3522  1154.5971
     82  H    Isotropic =    24.5826   Anisotropy =    14.0147
   XX=    21.3178   YX=    -1.4133   ZX=    -2.8570
   XY=     1.8667   YY=    23.7439   ZY=    -7.8733
   XZ=    -4.9433   YZ=    -4.8001   ZZ=    28.6862
   Eigenvalues:    17.8993    21.9228    33.9258
     83  H    Isotropic =    24.4606   Anisotropy =     5.4478
   XX=    24.1875   YX=    -1.9164   ZX=    -2.2934
   XY=    -0.3281   YY=    22.9920   ZY=    -2.4061
   XZ=    -1.9790   YZ=    -2.5351   ZZ=    26.2025
   Eigenvalues:    20.4845    24.8049    28.0925
     84  H    Isotropic =    24.5539   Anisotropy =     4.0490
   XX=    23.6226   YX=    -2.9653   ZX=     0.7230
   XY=    -1.8776   YY=    25.4818   ZY=     0.0563
   XZ=     0.3069   YZ=    -0.6508   ZZ=    24.5575
   Eigenvalues:    21.9329    24.4757    27.2533
     85  C    Isotropic =   152.6335   Anisotropy =    28.9616
   XX=   146.5415   YX=   -14.1277   ZX=   -10.9531
   XY=   -15.5030   YY=   161.6709   ZY=    -3.8207
   XZ=   -13.0404   YZ=     0.2209   ZZ=   149.6881
   Eigenvalues:   130.6997   155.2595   171.9412
     86  H    Isotropic =    29.3635   Anisotropy =     7.7205
   XX=    28.8596   YX=     4.3646   ZX=    -2.5363
   XY=     2.7381   YY=    28.9206   ZY=    -1.4914
   XZ=    -2.2281   YZ=    -2.0662   ZZ=    30.3104
   Eigenvalues:    25.2880    28.2921    34.5105
     87  C    Isotropic =   143.3996   Anisotropy =    42.4771
   XX=   146.0298   YX=     1.8761   ZX=   -19.1510
   XY=     3.5843   YY=   133.2392   ZY=   -10.3904
   XZ=   -14.4834   YZ=   -24.6823   ZZ=   150.9298
   Eigenvalues:   120.3081   138.1730   171.7177
     88  H    Isotropic =    29.5402   Anisotropy =     7.3745
   XX=    27.4231   YX=     0.6588   ZX=    -4.9702
   XY=    -1.4080   YY=    30.8615   ZY=     2.5953
   XZ=    -2.9243   YZ=     2.2041   ZZ=    30.3360
   Eigenvalues:    24.4778    29.6863    34.4566
     89  H    Isotropic =    29.1887   Anisotropy =     6.6566
   XX=    31.5591   YX=     4.9314   ZX=     1.0967
   XY=     1.4109   YY=    25.9080   ZY=     0.0253
   XZ=     1.6012   YZ=     1.3335   ZZ=    30.0989
   Eigenvalues:    24.4854    29.4543    33.6264
     90  H    Isotropic =    28.7193   Anisotropy =    11.2087
   XX=    23.1567   YX=     1.4531   ZX=     2.4533
   XY=    -0.6426   YY=    27.0405   ZY=     0.7845
   XZ=     0.7072   YZ=     0.3188   ZZ=    35.9607
   Eigenvalues:    22.9369    27.0292    36.1918
     91  H    Isotropic =    28.8618   Anisotropy =    11.3289
   XX=    24.2110   YX=    -1.5248   ZX=    -4.0992
   XY=    -1.6404   YY=    30.9696   ZY=     3.9793
   XZ=    -1.6735   YZ=     4.7950   ZZ=    31.4048
   Eigenvalues:    23.1958    26.9752    36.4144
     92  Cl   Isotropic =   870.4859   Anisotropy =   322.9886
   XX=   719.3975   YX=   -12.1610   ZX=    94.9750
   XY=    -5.0344   YY=  1071.0184   ZY=    62.5078
   XZ=   137.6959   YZ=    58.2672   ZZ=   821.0416
   Eigenvalues:   639.4395   886.2066  1085.8116
 End of Minotr F.D. properties file   721 does not exist.
 End of Minotr F.D. properties file   722 does not exist.
 End of Minotr F.D. properties file   788 does not exist.

 **********************************************************************

            Population analysis using the SCF Density.

 **********************************************************************

 Orbital symmetries:
       Occupied  (A) (A) (A) (A) (A) (A) (A) (A) (A) (A) (A) (A)
                 (A) (A) (A) (A) (A) (A) (A) (A) (A) (A) (A) (A)
                 (A) (A) (A) (A) (A) (A) (A) (A) (A) (A) (A) (A)
                 (A) (A) (A) (A) (A) (A) (A) (A) (A) (A) (A) (A)
                 (A) (A) (A) (A) (A) (A) (A) (A) (A) (A) (A) (A)
                 (A) (A) (A) (A) (A) (A) (A) (A) (A) (A) (A) (A)
                 (A) (A) (A) (A) (A) (A) (A) (A) (A) (A) (A) (A)
                 (A) (A) (A) (A) (A) (A) (A) (A) (A) (A) (A) (A)
                 (A) (A) (A) (A) (A) (A) (A) (A) (A) (A) (A) (A)
                 (A) (A) (A) (A) (A) (A) (A) (A) (A) (A) (A) (A)
                 (A) (A) (A) (A) (A) (A) (A) (A) (A) (A) (A) (A)
                 (A) (A) (A) (A) (A) (A) (A) (A) (A) (A) (A) (A)
                 (A) (A) (A) (A) (A) (A) (A) (A) (A) (A) (A) (A)
                 (A) (A) (A) (A) (A) (A) (A) (A) (A) (A) (A) (A)
                 (A) (A) (A) (A) (A) (A) (A) (A) (A) (A) (A) (A)
                 (A) (A) (A) (A) (A) (A) (A) (A) (A) (A) (A) (A)
                 (A) (A) (A) (A) (A)
       Virtual   (A) (A) (A) (A) (A) (A) (A) (A) (A) (A) (A) (A)
                 (A) (A) (A) (A) (A) (A) (A) (A) (A) (A) (A) (A)
                 (A) (A) (A) (A) (A) (A) (A) (A) (A) (A) (A) (A)
                 (A) (A) (A) (A) (A) (A) (A) (A) (A) (A) (A) (A)
                 (A) (A) (A) (A) (A) (A) (A) (A) (A) (A) (A) (A)
                 (A) (A) (A) (A) (A) (A) (A) (A) (A) (A) (A) (A)
                 (A) (A) (A) (A) (A) (A) (A) (A) (A) (A) (A) (A)
                 (A) (A) (A) (A) (A) (A) (A) (A) (A) (A) (A) (A)
                 (A) (A) (A) (A) (A) (A) (A) (A) (A) (A) (A) (A)
                 (A) (A) (A) (A) (A) (A) (A) (A) (A) (A) (A) (A)
                 (A) (A) (A) (A) (A) (A) (A) (A) (A) (A) (A) (A)
                 (A) (A) (A) (A) (A) (A) (A) (A) (A) (A) (A) (A)
                 (A) (A) (A) (A) (A) (A) (A) (A) (A) (A) (A) (A)
                 (A) (A) (A) (A) (A) (A) (A) (A) (A) (A) (A) (A)
                 (A) (A) (A) (A) (A) (A) (A) (A) (A) (A) (A) (A)
                 (A) (A) (A) (A) (A) (A) (A) (A) (A) (A) (A) (A)
                 (A) (A) (A) (A) (A) (A) (A) (A) (A) (A) (A) (A)
                 (A) (A) (A) (A) (A) (A) (A) (A) (A) (A) (A) (A)
                 (A) (A) (A) (A) (A) (A) (A) (A) (A) (A) (A) (A)
                 (A) (A) (A) (A) (A) (A) (A) (A) (A) (A) (A) (A)
                 (A) (A) (A) (A) (A) (A) (A) (A) (A) (A) (A) (A)
                 (A) (A) (A) (A) (A) (A) (A) (A) (A) (A) (A) (A)
                 (A) (A) (A) (A) (A) (A) (A) (A) (A) (A) (A) (A)
                 (A) (A) (A) (A) (A) (A) (A) (A) (A) (A) (A) (A)
                 (A) (A) (A) (A) (A) (A) (A) (A) (A) (A) (A) (A)
                 (A) (A) (A) (A) (A) (A) (A) (A) (A) (A) (A) (A)
                 (A) (A) (A) (A) (A) (A) (A) (A) (A) (A) (A) (A)
                 (A) (A) (A) (A) (A) (A) (A) (A) (A) (A) (A) (A)
                 (A) (A) (A) (A) (A) (A) (A) (A) (A) (A) (A) (A)
                 (A) (A) (A) (A) (A) (A) (A) (A) (A) (A) (A) (A)
                 (A) (A) (A) (A) (A) (A) (A) (A) (A) (A) (A) (A)
                 (A) (A) (A) (A) (A) (A) (A) (A) (A) (A) (A) (A)
                 (A) (A) (A) (A) (A) (A) (A) (A) (A) (A) (A) (A)
                 (A) (A) (A) (A) (A) (A) (A) (A) (A) (A) (A) (A)
                 (A) (A) (A) (A) (A) (A) (A) (A) (A) (A) (A) (A)
                 (A) (A) (A) (A) (A) (A) (A) (A) (A) (A) (A) (A)
                 (A) (A) (A) (A) (A) (A) (A) (A) (A) (A) (A) (A)
                 (A) (A) (A) (A) (A) (A) (A) (A) (A) (A) (A) (A)
                 (A) (A) (A) (A) (A) (A) (A) (A) (A) (A) (A) (A)
                 (A) (A) (A) (A) (A) (A) (A) (A) (A) (A) (A) (A)
                 (A) (A) (A) (A) (A) (A) (A) (A) (A) (A) (A) (A)
                 (A) (A) (A) (A) (A) (A) (A) (A) (A) (A) (A) (A)
                 (A) (A) (A) (A) (A) (A) (A) (A) (A) (A) (A) (A)
                 (A) (A) (A) (A) (A) (A) (A) (A) (A) (A) (A) (A)
                 (A) (A) (A) (A) (A) (A) (A) (A) (A) (A) (A) (A)
                 (A) (A) (A) (A) (A) (A) (A) (A) (A) (A) (A) (A)
                 (A) (A) (A) (A) (A) (A) (A) (A) (A) (A) (A) (A)
                 (A) (A) (A) (A) (A) (A) (A) (A) (A) (A) (A) (A)
                 (A) (A) (A) (A) (A) (A) (A) (A) (A) (A) (A) (A)
                 (A) (A) (A) (A) (A) (A) (A) (A) (A) (A) (A) (A)
                 (A) (A) (A) (A) (A) (A) (A) (A) (A) (A) (A) (A)
                 (A) (A) (A) (A) (A) (A) (A) (A) (A) (A) (A) (A)
                 (A) (A) (A) (A) (A) (A) (A) (A) (A) (A) (A) (A)
                 (A) (A) (A) (A) (A) (A) (A) (A) (A) (A) (A) (A)
                 (A) (A) (A) (A) (A) (A) (A) (A) (A) (A) (A) (A)
                 (A) (A) (A) (A) (A) (A) (A) (A) (A) (A) (A) (A)
                 (A) (A) (A) (A) (A) (A) (A) (A) (A) (A) (A) (A)
                 (A) (A) (A) (A) (A) (A) (A) (A) (A) (A) (A) (A)
                 (A) (A) (A) (A) (A) (A) (A) (A) (A) (A) (A) (A)
                 (A) (A) (A) (A) (A) (A) (A) (A) (A) (A) (A) (A)
                 (A) (A) (A) (A) (A) (A) (A) (A) (A) (A) (A) (A)
                 (A) (A) (A) (A) (A) (A) (A) (A) (A) (A) (A) (A)
                 (A) (A) (A) (A) (A) (A) (A) (A) (A) (A) (A) (A)
                 (A) (A) (A) (A) (A) (A) (A) (A) (A) (A) (A) (A)
                 (A) (A) (A) (A) (A) (A) (A) (A) (A) (A) (A) (A)
                 (A) (A) (A) (A) (A) (A) (A) (A) (A) (A) (A) (A)
                 (A) (A) (A) (A) (A) (A) (A) (A) (A) (A) (A) (A)
                 (A) (A) (A) (A) (A) (A) (A) (A) (A) (A) (A) (A)
                 (A) (A) (A) (A) (A) (A) (A) (A) (A) (A) (A) (A)
                 (A) (A) (A) (A) (A) (A) (A) (A) (A) (A) (A) (A)
                 (A) (A) (A) (A) (A) (A) (A) (A) (A) (A) (A) (A)
                 (A) (A) (A) (A) (A) (A) (A) (A) (A) (A) (A) (A)
                 (A) (A) (A) (A) (A) (A) (A) (A) (A) (A) (A) (A)
                 (A) (A) (A) (A) (A) (A) (A) (A) (A) (A) (A) (A)
                 (A) (A) (A) (A) (A) (A) (A) (A) (A) (A) (A) (A)
                 (A) (A) (A) (A) (A) (A) (A) (A) (A) (A) (A) (A)
                 (A) (A) (A) (A) (A) (A) (A) (A) (A) (A) (A) (A)
                 (A) (A) (A) (A) (A) (A) (A) (A) (A) (A) (A) (A)
                 (A) (A) (A) (A) (A) (A) (A) (A) (A) (A) (A) (A)
                 (A) (A) (A) (A) (A) (A) (A) (A) (A) (A) (A) (A)
                 (A) (A) (A) (A) (A) (A) (A) (A) (A) (A) (A) (A)
                 (A) (A) (A) (A) (A) (A) (A) (A) (A) (A) (A) (A)
                 (A) (A) (A) (A) (A) (A) (A) (A) (A) (A) (A) (A)
                 (A) (A) (A) (A) (A) (A) (A) (A) (A) (A) (A) (A)
                 (A) (A) (A) (A) (A) (A) (A) (A) (A) (A) (A) (A)
                 (A) (A) (A) (A) (A) (A) (A) (A) (A) (A) (A) (A)
                 (A) (A) (A) (A) (A) (A) (A) (A) (A) (A) (A) (A)
                 (A) (A) (A) (A) (A) (A) (A) (A) (A) (A) (A) (A)
                 (A) (A) (A) (A) (A) (A) (A) (A) (A) (A) (A) (A)
                 (A) (A) (A) (A) (A) (A) (A) (A) (A) (A) (A) (A)
                 (A) (A) (A) (A) (A) (A) (A) (A) (A) (A) (A) (A)
                 (A) (A) (A) (A) (A) (A) (A) (A) (A) (A) (A) (A)
                 (A) (A) (A) (A) (A) (A) (A) (A) (A) (A) (A) (A)
                 (A) (A) (A) (A) (A) (A) (A) (A) (A) (A) (A) (A)
                 (A) (A) (A) (A) (A) (A) (A) (A) (A) (A) (A) (A)
                 (A) (A) (A) (A) (A) (A) (A) (A) (A) (A) (A) (A)
                 (A) (A) (A) (A) (A) (A) (A) (A) (A) (A) (A) (A)
                 (A) (A) (A) (A) (A) (A) (A) (A) (A) (A) (A) (A)
                 (A) (A) (A) (A) (A) (A) (A) (A) (A) (A) (A) (A)
                 (A) (A) (A) (A) (A) (A) (A) (A) (A) (A) (A) (A)
                 (A) (A) (A) (A) (A) (A) (A) (A) (A) (A) (A) (A)
                 (A) (A) (A) (A) (A) (A) (A) (A) (A) (A) (A) (A)
                 (A) (A) (A) (A) (A) (A) (A) (A) (A) (A) (A) (A)
                 (A) (A) (A) (A) (A) (A) (A) (A) (A) (A) (A) (A)
                 (A) (A) (A) (A) (A) (A) (A) (A) (A) (A) (A) (A)
                 (A) (A) (A) (A) (A) (A) (A) (A) (A) (A) (A) (A)
                 (A) (A) (A) (A) (A) (A) (A) (A) (A) (A) (A) (A)
                 (A) (A) (A) (A) (A) (A) (A) (A) (A) (A) (A) (A)
                 (A) (A) (A) (A) (A) (A) (A) (A) (A) (A) (A) (A)
                 (A) (A) (A) (A) (A) (A) (A) (A) (A) (A) (A) (A)
                 (A) (A) (A) (A) (A) (A) (A) (A) (A) (A) (A) (A)
                 (A) (A) (A) (A) (A) (A) (A) (A) (A) (A) (A) (A)
                 (A) (A) (A) (A) (A) (A) (A) (A) (A) (A) (A) (A)
                 (A) (A) (A) (A) (A) (A) (A) (A) (A) (A) (A) (A)
                 (A) (A) (A) (A) (A) (A) (A) (A) (A) (A) (A) (A)
                 (A) (A) (A) (A) (A) (A) (A) (A) (A) (A) (A) (A)
                 (A) (A) (A) (A) (A) (A) (A) (A) (A) (A) (A) (A)
                 (A) (A) (A) (A) (A) (A) (A) (A) (A) (A) (A) (A)
                 (A) (A) (A) (A) (A) (A) (A) (A) (A) (A) (A) (A)
                 (A) (A) (A) (A) (A) (A) (A) (A) (A) (A) (A) (A)
                 (A) (A) (A) (A) (A) (A) (A) (A) (A) (A) (A) (A)
                 (A) (A) (A) (A) (A) (A) (A) (A) (A) (A) (A) (A)
                 (A) (A) (A) (A) (A) (A) (A) (A) (A) (A) (A) (A)
                 (A) (A) (A) (A) (A) (A) (A) (A) (A) (A) (A) (A)
                 (A) (A) (A) (A) (A) (A) (A) (A) (A) (A) (A) (A)
                 (A) (A) (A) (A) (A) (A) (A) (A) (A) (A) (A) (A)
                 (A) (A) (A) (A) (A) (A) (A) (A) (A) (A) (A) (A)
                 (A) (A) (A) (A) (A) (A) (A) (A) (A) (A) (A) (A)
                 (A) (A) (A) (A) (A) (A) (A) (A) (A) (A) (A) (A)
                 (A) (A) (A) (A) (A) (A) (A) (A) (A) (A) (A) (A)
                 (A) (A) (A) (A) (A) (A) (A) (A) (A) (A) (A) (A)
                 (A) (A) (A) (A) (A) (A) (A) (A) (A) (A) (A) (A)
                 (A) (A) (A) (A) (A) (A) (A) (A) (A) (A) (A) (A)
                 (A) (A) (A) (A) (A) (A) (A) (A) (A) (A) (A) (A)
                 (A) (A) (A) (A) (A) (A) (A) (A) (A) (A) (A) (A)
                 (A) (A) (A) (A) (A) (A) (A) (A) (A) (A) (A) (A)
                 (A) (A)
 The electronic state is 1-A.
 Alpha  occ. eigenvalues -- -101.60572-101.60311 -77.26093 -77.25945 -10.26388
 Alpha  occ. eigenvalues --  -10.26044 -10.25940 -10.25737 -10.25644 -10.25470
 Alpha  occ. eigenvalues --  -10.25234 -10.25226 -10.24854 -10.24824 -10.24712
 Alpha  occ. eigenvalues --  -10.24615 -10.24583 -10.24570 -10.24496 -10.24481
 Alpha  occ. eigenvalues --  -10.24453 -10.24358 -10.24305 -10.24191 -10.24089
 Alpha  occ. eigenvalues --  -10.24027 -10.23963 -10.23919 -10.23870 -10.23833
 Alpha  occ. eigenvalues --  -10.23809 -10.23792 -10.23703 -10.23584 -10.23570
 Alpha  occ. eigenvalues --  -10.23551 -10.23538 -10.23497 -10.23467 -10.23269
 Alpha  occ. eigenvalues --  -10.23234 -10.23139 -10.23106 -10.23083 -10.23058
 Alpha  occ. eigenvalues --  -10.22932 -10.22753 -10.22464 -10.22436  -9.43077
 Alpha  occ. eigenvalues --   -9.42828  -7.16287  -7.16028  -7.15809  -7.15733
 Alpha  occ. eigenvalues --   -7.15548  -7.15502  -6.65288  -6.65079  -4.78878
 Alpha  occ. eigenvalues --   -4.78858  -4.78678  -4.78638  -4.78631  -4.78436
 Alpha  occ. eigenvalues --   -3.51153  -2.18922  -2.18730  -2.15434  -0.92431
 Alpha  occ. eigenvalues --   -0.89749  -0.89670  -0.89160  -0.88447  -0.88376
 Alpha  occ. eigenvalues --   -0.85772  -0.83081  -0.82238  -0.81494  -0.80068
 Alpha  occ. eigenvalues --   -0.79887  -0.79360  -0.78140  -0.78026  -0.77484
 Alpha  occ. eigenvalues --   -0.76866  -0.76851  -0.74927  -0.74653  -0.74053
 Alpha  occ. eigenvalues --   -0.73301  -0.73068  -0.72509  -0.71972  -0.70802
 Alpha  occ. eigenvalues --   -0.70692  -0.66689  -0.66326  -0.65290  -0.63962
 Alpha  occ. eigenvalues --   -0.63562  -0.63111  -0.62719  -0.62503  -0.62320
 Alpha  occ. eigenvalues --   -0.60642  -0.60500  -0.60221  -0.60066  -0.58906
 Alpha  occ. eigenvalues --   -0.58148  -0.56919  -0.53882  -0.52300  -0.52038
 Alpha  occ. eigenvalues --   -0.50896  -0.50885  -0.50215  -0.49572  -0.49321
 Alpha  occ. eigenvalues --   -0.49120  -0.48879  -0.48599  -0.48121  -0.48109
 Alpha  occ. eigenvalues --   -0.47581  -0.47327  -0.46887  -0.46535  -0.46391
 Alpha  occ. eigenvalues --   -0.45308  -0.44706  -0.44452  -0.44347  -0.44030
 Alpha  occ. eigenvalues --   -0.43956  -0.43835  -0.43633  -0.43318  -0.43270
 Alpha  occ. eigenvalues --   -0.43253  -0.43171  -0.42745  -0.42322  -0.41665
 Alpha  occ. eigenvalues --   -0.41253  -0.41085  -0.40763  -0.40621  -0.40349
 Alpha  occ. eigenvalues --   -0.39965  -0.39911  -0.39392  -0.39137  -0.38850
 Alpha  occ. eigenvalues --   -0.38308  -0.38093  -0.37740  -0.37428  -0.37398
 Alpha  occ. eigenvalues --   -0.36960  -0.36683  -0.36516  -0.36261  -0.36180
 Alpha  occ. eigenvalues --   -0.35879  -0.35653  -0.35555  -0.35234  -0.35122
 Alpha  occ. eigenvalues --   -0.34922  -0.34512  -0.34229  -0.33955  -0.33754
 Alpha  occ. eigenvalues --   -0.32475  -0.30758  -0.30365  -0.29669  -0.29272
 Alpha  occ. eigenvalues --   -0.28504  -0.27779  -0.27402  -0.27237  -0.26964
 Alpha  occ. eigenvalues --   -0.26774  -0.26707  -0.26231  -0.25976  -0.25619
 Alpha  occ. eigenvalues --   -0.25128  -0.24876  -0.23871  -0.23756  -0.23117
 Alpha  occ. eigenvalues --   -0.22851  -0.22231
 Alpha virt. eigenvalues --   -0.07080  -0.04648  -0.04121  -0.03564  -0.03455
 Alpha virt. eigenvalues --   -0.02634  -0.02180  -0.02035  -0.01789  -0.01541
 Alpha virt. eigenvalues --   -0.01070  -0.00613  -0.00473   0.01319   0.02082
 Alpha virt. eigenvalues --    0.03129   0.03422   0.04178   0.04487   0.04987
 Alpha virt. eigenvalues --    0.05073   0.05405   0.05585   0.05799   0.06316
 Alpha virt. eigenvalues --    0.06934   0.07119   0.07148   0.07259   0.07863
 Alpha virt. eigenvalues --    0.08056   0.08376   0.08473   0.08543   0.08933
 Alpha virt. eigenvalues --    0.09279   0.09303   0.09788   0.10086   0.10096
 Alpha virt. eigenvalues --    0.10178   0.10731   0.10897   0.11002   0.11354
 Alpha virt. eigenvalues --    0.11482   0.11545   0.11656   0.11778   0.11971
 Alpha virt. eigenvalues --    0.12458   0.12752   0.12815   0.13036   0.13218
 Alpha virt. eigenvalues --    0.13403   0.13481   0.13587   0.13949   0.13971
 Alpha virt. eigenvalues --    0.14254   0.14564   0.14832   0.14994   0.15134
 Alpha virt. eigenvalues --    0.15148   0.15335   0.15526   0.15989   0.16066
 Alpha virt. eigenvalues --    0.16188   0.16653   0.16824   0.17026   0.17230
 Alpha virt. eigenvalues --    0.17502   0.17809   0.18191   0.18350   0.18583
 Alpha virt. eigenvalues --    0.18838   0.18962   0.19424   0.19558   0.19827
 Alpha virt. eigenvalues --    0.19984   0.20211   0.20304   0.20665   0.20911
 Alpha virt. eigenvalues --    0.21160   0.21271   0.21533   0.21752   0.21941
 Alpha virt. eigenvalues --    0.21985   0.22230   0.22426   0.22629   0.23070
 Alpha virt. eigenvalues --    0.23273   0.23378   0.23823   0.23851   0.23979
 Alpha virt. eigenvalues --    0.24216   0.24549   0.24730   0.25040   0.25439
 Alpha virt. eigenvalues --    0.25625   0.25799   0.25867   0.25994   0.26258
 Alpha virt. eigenvalues --    0.26443   0.26511   0.26817   0.26832   0.26950
 Alpha virt. eigenvalues --    0.27201   0.27480   0.27886   0.28031   0.28273
 Alpha virt. eigenvalues --    0.28506   0.28679   0.28822   0.28992   0.29145
 Alpha virt. eigenvalues --    0.29375   0.29700   0.29878   0.29895   0.30372
 Alpha virt. eigenvalues --    0.30542   0.30764   0.30881   0.31075   0.31163
 Alpha virt. eigenvalues --    0.31225   0.31480   0.31529   0.31745   0.31812
 Alpha virt. eigenvalues --    0.32130   0.32562   0.32732   0.32883   0.33226
 Alpha virt. eigenvalues --    0.33450   0.33775   0.33986   0.34198   0.34233
 Alpha virt. eigenvalues --    0.34421   0.34751   0.35098   0.35361   0.35547
 Alpha virt. eigenvalues --    0.35680   0.35809   0.36090   0.36265   0.36517
 Alpha virt. eigenvalues --    0.36609   0.36788   0.37001   0.37081   0.37184
 Alpha virt. eigenvalues --    0.37436   0.37559   0.37937   0.38410   0.38477
 Alpha virt. eigenvalues --    0.38661   0.38749   0.39020   0.39050   0.39301
 Alpha virt. eigenvalues --    0.39427   0.39807   0.39909   0.40222   0.40455
 Alpha virt. eigenvalues --    0.40541   0.40671   0.40763   0.41093   0.41396
 Alpha virt. eigenvalues --    0.41521   0.41880   0.41904   0.42065   0.42217
 Alpha virt. eigenvalues --    0.42331   0.42518   0.42900   0.42952   0.43279
 Alpha virt. eigenvalues --    0.43343   0.43490   0.43536   0.43739   0.43830
 Alpha virt. eigenvalues --    0.44096   0.44330   0.44394   0.44530   0.44674
 Alpha virt. eigenvalues --    0.44784   0.44951   0.45119   0.45216   0.45505
 Alpha virt. eigenvalues --    0.45825   0.45975   0.46184   0.46275   0.46511
 Alpha virt. eigenvalues --    0.46752   0.46828   0.47000   0.47181   0.47268
 Alpha virt. eigenvalues --    0.47520   0.47732   0.47946   0.48066   0.48092
 Alpha virt. eigenvalues --    0.48425   0.48496   0.48671   0.48830   0.49048
 Alpha virt. eigenvalues --    0.49146   0.49405   0.49519   0.49690   0.49817
 Alpha virt. eigenvalues --    0.49951   0.50076   0.50290   0.50414   0.50835
 Alpha virt. eigenvalues --    0.50917   0.50972   0.51346   0.51519   0.51708
 Alpha virt. eigenvalues --    0.51903   0.52087   0.52410   0.52587   0.52692
 Alpha virt. eigenvalues --    0.53102   0.53161   0.53448   0.53540   0.53729
 Alpha virt. eigenvalues --    0.54036   0.54380   0.54539   0.54788   0.54962
 Alpha virt. eigenvalues --    0.55139   0.55482   0.55622   0.55835   0.56032
 Alpha virt. eigenvalues --    0.56307   0.56546   0.56726   0.56998   0.57041
 Alpha virt. eigenvalues --    0.57189   0.57631   0.57878   0.58155   0.58752
 Alpha virt. eigenvalues --    0.58896   0.59065   0.59193   0.59651   0.59770
 Alpha virt. eigenvalues --    0.59944   0.60184   0.60727   0.61099   0.61332
 Alpha virt. eigenvalues --    0.61466   0.61612   0.62019   0.62455   0.62589
 Alpha virt. eigenvalues --    0.62793   0.63010   0.63157   0.63718   0.63805
 Alpha virt. eigenvalues --    0.63901   0.64240   0.64638   0.64753   0.65188
 Alpha virt. eigenvalues --    0.65443   0.65848   0.66103   0.66270   0.66503
 Alpha virt. eigenvalues --    0.66778   0.66887   0.67069   0.67319   0.67580
 Alpha virt. eigenvalues --    0.67837   0.68096   0.68445   0.68742   0.68840
 Alpha virt. eigenvalues --    0.69139   0.69356   0.69739   0.69969   0.70031
 Alpha virt. eigenvalues --    0.70523   0.70705   0.70877   0.71197   0.71278
 Alpha virt. eigenvalues --    0.71706   0.71745   0.72015   0.72093   0.72484
 Alpha virt. eigenvalues --    0.72686   0.72860   0.73177   0.73452   0.73589
 Alpha virt. eigenvalues --    0.73885   0.73954   0.74103   0.74895   0.75045
 Alpha virt. eigenvalues --    0.75356   0.75647   0.75847   0.76000   0.76236
 Alpha virt. eigenvalues --    0.76649   0.76779   0.77028   0.77269   0.77562
 Alpha virt. eigenvalues --    0.77681   0.77774   0.78170   0.78294   0.78667
 Alpha virt. eigenvalues --    0.78833   0.79215   0.79470   0.79909   0.80102
 Alpha virt. eigenvalues --    0.80272   0.80388   0.80850   0.80916   0.81011
 Alpha virt. eigenvalues --    0.81330   0.81763   0.82186   0.82327   0.82525
 Alpha virt. eigenvalues --    0.82990   0.83200   0.83490   0.83933   0.84115
 Alpha virt. eigenvalues --    0.84325   0.84457   0.84799   0.84972   0.85390
 Alpha virt. eigenvalues --    0.85667   0.85941   0.86178   0.86567   0.86776
 Alpha virt. eigenvalues --    0.87021   0.87162   0.87788   0.88065   0.88157
 Alpha virt. eigenvalues --    0.88567   0.88743   0.89043   0.89222   0.89378
 Alpha virt. eigenvalues --    0.89489   0.89849   0.90276   0.90544   0.90672
 Alpha virt. eigenvalues --    0.91237   0.91466   0.91612   0.92113   0.92436
 Alpha virt. eigenvalues --    0.92700   0.92929   0.93178   0.93425   0.93445
 Alpha virt. eigenvalues --    0.94051   0.94333   0.94663   0.95059   0.95355
 Alpha virt. eigenvalues --    0.95726   0.95879   0.96350   0.96760   0.97000
 Alpha virt. eigenvalues --    0.97317   0.97517   0.97800   0.98153   0.98554
 Alpha virt. eigenvalues --    0.99001   0.99141   0.99260   0.99623   0.99661
 Alpha virt. eigenvalues --    1.00429   1.00656   1.00962   1.01015   1.01589
 Alpha virt. eigenvalues --    1.02010   1.02354   1.02531   1.02816   1.02896
 Alpha virt. eigenvalues --    1.03306   1.03790   1.03931   1.04230   1.04387
 Alpha virt. eigenvalues --    1.04859   1.05172   1.05339   1.05810   1.06422
 Alpha virt. eigenvalues --    1.07045   1.07346   1.07393   1.08146   1.08557
 Alpha virt. eigenvalues --    1.08684   1.08743   1.09342   1.09489   1.10174
[...]
                                                    1113(g),598(r),1690(v)
                                                    1105(g),1080(v),1580(v)
                                                    1510(r),1263(r),473(r)
                                                    1139(v),1561(r),280(r)
                                                    1349(v),1117(g),692(r)
                                                    688(r),1109(g),250(r)
                                                    1505(r),1086(v),1403(r)
                                                    236(v),1087(v),1142(v)
                                                    234(v),1687(v),1351(v)
                                                    1751(r),1686(v),254(r)
                                                    917(r),1107(g),469(r)
                                                    1089(v),1570(v),1797(r)
                                                    1823(r),602(r),954(r),383(r)
                                                    713(r),1689(v),1162(r)
                                                    1379(r),949(r),192(g),689(r)
                                                    1708(v),1355(v),1163(r)
                                                    821(r),1293(r),225(v)
                                                    1173(r),1569(v),1083(v)
                                                    220(g),503(r),1796(r)
                                                    1092(v),245(v),696(r)
                                                    1143(v),1265(r),952(r)
                                                    693(r),255(r),1820(r),953(r)
                                                    957(r),221(g),286(r),1377(r)
                                                    1159(r),1482(r),601(r)
                                                    1635(r),496(r),1082(v)
                                                    814(r),1094(v),977(r),605(r)
                                                    710(r),674(r),284(r),1288(r)
                                                    959(r),1491(r),1700(v)
                                                    610(r),1812(v),1749(r)
                                                    278(r),827(r),389(r),235(v)
                                                    764(r),691(r),497(r),1085(v)
                                                    1704(v),1264(r),720(r)
                                                    1138(v),817(r),1385(r)
                                                    1062(r),925(r),385(r)
  1716. BD*(   1)Pd   1 -Cl  81          0.18761     0.21467  1717(g),1718(v),1715(g)
                                                    1792(v),211(g),214(g)
                                                    1791(v),217(g),1104(v)
                                                    215(g),208(g),229(v),1720(v)
                                                    218(g),206(g),223(v),204(g)
                                                    1078(r),205(g),1133(r)
                                                    222(v),1161(r),1719(v)
                                                    212(g),1111(v),213(g),210(g)
                                                    209(g),468(r),1568(g)
                                                    1572(g),1115(v),1797(r)
                                                    231(v),1344(r),192(g),199(g)
                                                    951(r),221(g),202(g),1116(v)
                                                    251(r),1112(v),467(r)
                                                    1350(r),1106(v),216(g)
                                                    1692(v),227(v),950(r)
                                                    1132(r),232(v),1081(r)
                                                    1118(v),1688(v),1687(v)
                                                    1110(v),479(r),1105(v)
                                                    600(r),471(r)
  1717. BD*(   1)Pd   1 -Cl  92          0.18188     0.18329  1716(g),1714(g),192(g)
                                                    214(g),209(g),215(g),216(g)
                                                    208(g),217(g),222(v),205(g)
                                                    1104(v),223(v),229(v),212(g)
                                                    206(g),218(g),468(r),1133(r)
                                                    211(g),204(g),1718(v),231(v)
                                                    1111(v),467(r),1688(g)
                                                    213(g),224(v),1572(v)
                                                    1078(r),232(v),684(r)
                                                    1161(r),1567(v),210(g)
                                                    220(g),1105(v),203(g),199(g)
                                                    221(g),471(r),226(v),479(r)
                                                    1116(v),1350(r),951(r)
                                                    1568(v),200(g)
  1718. BD*(   1) P   2 - C   3          0.07069     0.21294   
  1719. BD*(   1) P   2 - C  17          0.07807     0.21285   
  1720. BD*(   1) P   2 - C  31          0.06797     0.20682   
  1721. BD*(   1) C   3 - C   4          0.02629     0.52436   
  1722. BD*(   2) C   3 - C   4          0.38294     0.02114  1727(v),1732(v),1740(r)
                                                    1742(r),1719(v),278(g)
                                                    1756(r),1766(r),253(g)
  1723. BD*(   1) C   3 - C   8          0.02357     0.52587   
  1724. BD*(   1) C   4 - C   5          0.01455     0.54549   
  1725. BD*(   1) C   4 - H  16          0.01578     0.40879   
  1726. BD*(   1) C   5 - C   6          0.02267     0.53404   
  1727. BD*(   2) C   5 - C   6          0.33567     0.03386  1732(v),1722(v),304(g)
                                                    1735(v),1737(v)
  1728. BD*(   1) C   5 - H  15          0.01458     0.39745   
  1729. BD*(   1) C   6 - C   7          0.02320     0.52936   
  1730. BD*(   1) C   6 - C  11          0.01329     0.38936   
  1731. BD*(   1) C   7 - C   8          0.01377     0.55737   
  1732. BD*(   2) C   7 - C   8          0.28625     0.03941  1727(v),1722(v),356(g)
                                                    382(g)
  1733. BD*(   1) C   7 - H  10          0.01422     0.40185   
  1734. BD*(   1) C   8 - H   9          0.01454     0.42605   
  1735. BD*(   1) C  11 - H  12          0.01031     0.35965   
  1736. BD*(   1) C  11 - H  13          0.00502     0.36574   
  1737. BD*(   1) C  11 - H  14          0.00718     0.36286   
  1738. BD*(   1) C  17 - C  18          0.02828     0.51397   
  1739. BD*(   1) C  17 - C  22          0.02463     0.51943   
  1740. BD*(   2) C  17 - C  22          0.37404     0.01715  1742(v),1747(v),1779(r)
                                                    1722(r),1720(v),1786(r)
                                                    599(g),1718(v),598(g),470(g)
  1741. BD*(   1) C  18 - C  19          0.01435     0.53982   
  1742. BD*(   2) C  18 - C  19          0.31330     0.02160  1740(v),1747(v),1722(r)
                                                    521(g),1779(r),498(g)
  1743. BD*(   1) C  18 - H  30          0.01603     0.40241   
  1744. BD*(   1) C  19 - C  20          0.02340     0.52008   
  1745. BD*(   1) C  19 - H  29          0.01495     0.38590   
  1746. BD*(   1) C  20 - C  21          0.02349     0.52232   
  1747. BD*(   2) C  20 - C  21          0.33264     0.02619  1742(v),1740(v),1786(r)
                                                    573(g),1754(v),1752(v)
  1748. BD*(   1) C  20 - C  25          0.01352     0.37919   
  1749. BD*(   1) C  21 - C  22          0.01532     0.54663   
  1750. BD*(   1) C  21 - H  24          0.01481     0.39221   
  1751. BD*(   1) C  22 - H  23          0.01651     0.42061   
  1752. BD*(   1) C  25 - H  26          0.00673     0.35435   
  1753. BD*(   1) C  25 - H  27          0.00526     0.35606   
  1754. BD*(   1) C  25 - H  28          0.01081     0.34500   
  1755. BD*(   1) C  31 - C  32          0.03481     0.53080   
  1756. BD*(   2) C  31 - C  32          0.39417     0.02462  1766(v),1761(v),1776(v)
                                                    1794(r),1779(r),1722(r)
                                                    712(g),1775(v),1718(v)
                                                    686(g),1719(v)
  1757. BD*(   1) C  31 - C  36          0.02058     0.49653   
  1758. BD*(   1) C  32 - C  33          0.03091     0.51506   
  1759. BD*(   1) C  32 - C  45          0.03910     0.37972   
  1760. BD*(   1) C  33 - C  34          0.02158     0.54780   
  1761. BD*(   2) C  33 - C  34          0.32354     0.03587  1766(v),1756(v),764(g)
                                                    1771(v),1769(v),1799(r)
  1762. BD*(   1) C  33 - C  40          0.02053     0.38677   
  1763. BD*(   1) C  34 - C  35          0.01337     0.53653   
  1764. BD*(   1) C  34 - H  39          0.01493     0.39750   
  1765. BD*(   1) C  35 - C  36          0.01631     0.54644   
  1766. BD*(   2) C  35 - C  36          0.30797     0.02757  1756(v),1761(v),790(g)
                                                    1722(r),1794(r)
  1767. BD*(   1) C  35 - H  38          0.01349     0.40387   
  1768. BD*(   1) C  36 - H  37          0.01451     0.42171   
  1769. BD*(   1) C  40 - H  41          0.01379     0.36667   
  1770. BD*(   1) C  40 - C  42          0.00821     0.34291   
  1771. BD*(   1) C  40 - H  91          0.01858     0.35733   
  1772. BD*(   1) C  42 - H  43          0.01155     0.37257   
  1773. BD*(   1) C  42 - H  44          0.01561     0.39312   
  1774. BD*(   1) C  42 - C  45          0.03110     0.30718   
  1775. BD*(   1) C  45 - C  46          0.04036     0.36475   
  1776. BD*(   1) C  45 - C  87          0.03069     0.31250   
  1777. BD*(   1) C  46 - C  47          0.03099     0.50941   
  1778. BD*(   1) C  46 - C  51          0.03344     0.51460   
  1779. BD*(   2) C  46 - C  51          0.39982     0.02102  1786(v),1781(v),1740(r)
                                                    1774(v),1756(r),1804(r)
                                                    1791(v),950(g),1794(r)
                                                    1742(r),1759(v),1053(v)
  1780. BD*(   1) C  47 - C  48          0.02260     0.54339   
  1781. BD*(   2) C  47 - C  48          0.33140     0.03146  1786(v),1779(v),1829(v)
                                                    1002(g),1827(v)
  1782. BD*(   1) C  47 - C  85          0.02114     0.38207   
  1783. BD*(   1) C  48 - C  49          0.01381     0.53810   
  1784. BD*(   1) C  48 - H  84          0.01568     0.38818   
  1785. BD*(   1) C  49 - C  50          0.01667     0.54096   
  1786. BD*(   2) C  49 - C  50          0.32615     0.02300  1779(v),1781(v),1028(g)
                                                    1747(r),1740(r),1821(r)
  1787. BD*(   1) C  49 - H  83          0.01388     0.39837   
  1788. BD*(   1) C  50 - C  51          0.02158     0.50574   
  1789. BD*(   1) C  50 - H  82          0.01621     0.42263   
  1790. BD*(   1) C  51 - P  52          0.09224     0.19964   
  1791. BD*(   1) P  52 - C  53          0.06775     0.21948   
  1792. BD*(   1) P  52 - C  67          0.06500     0.21810   
  1793. BD*(   1) C  53 - C  54          0.02455     0.52804   
  1794. BD*(   2) C  53 - C  54          0.35915     0.02805  1799(v),1804(v),1160(g)
                                                    1756(r),1792(v),1790(v)
                                                    1779(r),1766(r)
  1795. BD*(   1) C  53 - C  58          0.02765     0.51570   
  1796. BD*(   1) C  54 - C  55          0.01470     0.55673   
  1797. BD*(   1) C  54 - H  66          0.01551     0.45090   
  1798. BD*(   1) C  55 - C  56          0.02340     0.52752   
  1799. BD*(   2) C  55 - C  56          0.33450     0.03063  1794(v),1804(v),1186(g)
                                                    1809(v),1807(v),1761(r)
  1800. BD*(   1) C  55 - H  65          0.01476     0.39694   
  1801. BD*(   1) C  56 - C  57          0.02332     0.52500   
  1802. BD*(   1) C  56 - C  61          0.01352     0.38271   
  1803. BD*(   1) C  57 - C  58          0.01483     0.53904   
  1804. BD*(   2) C  57 - C  58          0.33589     0.02042  1794(v),1799(v),1238(g)
                                                    1779(r)
  1805. BD*(   1) C  57 - H  60          0.01507     0.38888   
  1806. BD*(   1) C  58 - H  59          0.01568     0.40191   
  1807. BD*(   1) C  61 - H  62          0.00684     0.35635   
  1808. BD*(   1) C  61 - H  63          0.00512     0.35895   
  1809. BD*(   1) C  61 - H  64          0.01035     0.35332   
  1810. BD*(   1) C  67 - C  68          0.02774     0.53421   
  1811. BD*(   2) C  67 - C  68          0.37305     0.02676  1816(v),1821(v),1790(v)
                                                    1377(g),1352(g),1786(r)
  1812. BD*(   1) C  67 - C  72          0.02379     0.52277   
  1813. BD*(   1) C  68 - C  69          0.01395     0.54606   
  1814. BD*(   1) C  68 - H  80          0.01660     0.41121   
  1815. BD*(   1) C  69 - C  70          0.02257     0.53385   
  1816. BD*(   2) C  69 - C  70          0.33321     0.03427  1821(v),1811(v),1403(g)
                                                    1824(v),1826(v)
  1817. BD*(   1) C  69 - H  79          0.01432     0.39982   
  1818. BD*(   1) C  70 - C  71          0.02321     0.52941   
  1819. BD*(   1) C  70 - C  75          0.01332     0.38969   
  1820. BD*(   1) C  71 - C  72          0.01500     0.56023   
  1821. BD*(   2) C  71 - C  72          0.29843     0.03538  1816(v),1811(v),1455(g)
                                                    1786(r)
  1822. BD*(   1) C  71 - H  74          0.01455     0.39800   
  1823. BD*(   1) C  72 - H  73          0.01530     0.43016   
  1824. BD*(   1) C  75 - H  76          0.01046     0.36043   
  1825. BD*(   1) C  75 - H  77          0.00509     0.36597   
  1826. BD*(   1) C  75 - H  78          0.00685     0.36304   
  1827. BD*(   1) C  85 - H  86          0.01457     0.36266   
  1828. BD*(   1) C  85 - C  87          0.00839     0.33916   
  1829. BD*(   1) C  85 - H  90          0.01829     0.35578   
  1830. BD*(   1) C  87 - H  88          0.01171     0.37252   
  1831. BD*(   1) C  87 - H  89          0.01576     0.38093   
       -------------------------------
              Total Lewis  412.29851  ( 97.7011%)
        Valence non-Lewis    8.98780  (  2.1298%)
        Rydberg non-Lewis    0.71369  (  0.1691%)
       -------------------------------
            Total unit  1  422.00000  (100.0000%)
           Charge unit  1    0.00000
 1\1\GINC-NOTCH057\SP\RPBE1PBE\Gen\C45H42Cl2P2Pd1\U1010977\02-Nov-2021\
 0\\# PBE1PBE gen pseudo=read int=(grid=ultrafine) empiricaldispersion=
 GD3BJ pop=nbo guess=read geom=check\\title\\0,1\Pd,0,-0.7948159768,2.7
 905277357,-0.1630275356\P,0,0.7105750902,1.078592882,-0.3038341716\C,0
 ,1.533052937,0.6156795299,-1.879802598\C,0,1.611894868,-0.7211420967,-
 2.3100030199\C,0,2.3937602753,-1.0573192854,-3.4237956636\C,0,3.112567
 9628,-0.078082912,-4.1300500651\C,0,3.0339160196,1.2557630255,-3.68153
 56377\C,0,2.2564482987,1.6049205568,-2.5754103929\H,0,2.191220795,2.64
 86023274,-2.2577746738\H,0,3.5840589976,2.0373396823,-4.2179683081\C,0
 ,3.9296816251,-0.4356446167,-5.3483103479\H,0,3.409185137,-0.135877189
 8,-6.2767773498\H,0,4.1151841312,-1.5207923607,-5.4083848109\H,0,4.905
 2933409,0.0806682194,-5.3460589853\H,0,2.4431274764,-2.1027755598,-3.7
 499070625\H,0,1.0591488481,-1.5038851368,-1.7816105308\C,0,2.199879832
 3,1.1261243205,0.7696850668\C,0,3.1589604091,0.0945342784,0.7559246656
 \C,0,4.3299348816,0.2131733401,1.5108128438\C,0,4.5928018396,1.3718221
 089,2.2673539647\C,0,3.6614099469,2.424953123,2.215731174\C,0,2.480524
 8917,2.3079632718,1.4771878691\H,0,1.7622179837,3.1335368678,1.4415738
 684\H,0,3.8581878421,3.3474718089,2.7730206987\C,0,5.8309180485,1.4789
 929161,3.1231674911\H,0,6.2563391167,2.4965772848,3.0966658922\H,0,6.6
 119034318,0.7700664896,2.8023841621\H,0,5.5946030203,1.2553456155,4.18
 10355569\H,0,5.0645650305,-0.6004534149,1.4992584745\H,0,3.0039338123,
 -0.7892806998,0.1288394273\C,0,-0.494328636,-0.2877214365,-0.002392618
 \C,0,-0.8493463616,-0.899085673,1.2179226552\C,0,-1.961826449,-1.77387
 04232,1.257764215\C,0,-2.7437013219,-2.0174932195,0.1277297129\C,0,-2.
 4216436224,-1.3711660771,-1.07431482\C,0,-1.319780978,-0.5144359095,-1
 .1361305639\H,0,-1.1092539047,0.02178325,-2.067512233\H,0,-3.038320758
 9,-1.5180178612,-1.9665646937\H,0,-3.6099581862,-2.6853765404,0.188814
 5511\C,0,-2.1488975834,-2.3689993654,2.6341764468\H,0,-3.2055417965,-2
 .357583164,2.9544718923\C,0,-1.2597915375,-1.4852906889,3.5279682169\H
 ,0,-0.7977088498,-2.0315203141,4.3669974617\H,0,-1.8617478925,-0.67060
 89639,3.9524794131\C,0,-0.1643979201,-0.8830614608,2.5788471929\C,0,0.
 3970532277,0.3885599895,3.2308744568\C,0,1.505575842,0.0114392406,4.02
 70689222\C,0,2.1240820188,0.9049169897,4.9050052743\C,0,1.6309581567,2
 .2098766394,4.9965984153\C,0,0.5686140162,2.6141028915,4.180961505\C,0
 ,-0.0689726339,1.7320534952,3.2744153082\P,0,-1.2925932247,2.515014332
 6,2.0972803299\C,0,-2.8547309614,1.5958387388,2.3511155523\C,0,-3.6677
 744788,1.2799634635,1.2474047151\C,0,-4.8588106583,0.5729331356,1.4355
 009624\C,0,-5.2819192461,0.1788966588,2.7195502463\C,0,-4.4671349806,0
 .5085784949,3.819333396\C,0,-3.2641343576,1.2034394145,3.6410564906\H,
 0,-2.6299622521,1.4237204969,4.5072918892\H,0,-4.77367459,0.2076907092
 ,4.8279341896\C,0,-6.5826985087,-0.5641090671,2.9100643097\H,0,-6.7335
 632624,-1.3207307517,2.1209165918\H,0,-6.6214194988,-1.0730350486,3.88
 74177347\H,0,-7.4447726685,0.1267518932,2.8620934407\H,0,-5.4730090609
 ,0.3197361523,0.564029396\H,0,-3.359581771,1.594130765,0.2462515023\C,
 0,-1.5347558274,4.1841429115,2.831192974\C,0,-2.4618623601,4.448462151
 9,3.8515716879\C,0,-2.546948235,5.7308529784,4.4099054012\C,0,-1.71296
 04,6.7745302174,3.9733369333\C,0,-0.7869704328,6.4985501221,2.94728154
 26\C,0,-0.7047462451,5.2280827843,2.3747033453\H,0,-0.0160104143,5.041
 9796621,1.5429096809\H,0,-0.1377183918,7.2998155206,2.5760416259\C,0,-
 1.8297806101,8.1627546769,4.5554255869\H,0,-2.404640995,8.8258743463,3
 .8826398185\H,0,-2.3467493833,8.1522678547,5.5292099206\H,0,-0.8387717
 258,8.6277224811,4.6962725732\H,0,-3.2843877125,5.9257700897,5.1972329
 138\H,0,-3.1374336891,3.6635488232,4.2018662898\Cl,0,-2.6784533716,4.2
 58694135,-0.1492028518\H,0,0.2353584617,3.6518076062,4.2393556688\H,0,
 2.086671646,2.930328776,5.6835994423\H,0,2.9810198323,0.5829347128,5.5
 078135752\C,0,1.8894433071,-1.4361306922,3.8132019558\H,0,2.9762194548
 ,-1.5532667545,3.6546872209\C,0,1.0669997395,-1.8425859039,2.576907594
 8\H,0,0.7468261204,-2.8979901136,2.5852483252\H,0,1.6552913022,-1.6791
 969511,1.6615715596\H,0,1.6265487015,-2.0464456058,4.6988629373\H,0,-1
 .8195187025,-3.4265978877,2.6454580072\Cl,0,-0.5666352915,3.160471161,
 -2.4929051886\\Version=ES64L-G16RevB.01\State=1-A\HF=-3469.4019846\RMS
 D=1.723e-09\Dipole=1.7540613,-2.7891163,3.1843261\Quadrupole=10.055990
 1,-1.4154401,-8.6405501,11.9333952,-10.7247999,18.6944465\PG=C01 [X(C4
 5H42Cl2P2Pd1)]\\@


 LAWS OF PROGRAMMING DEFINITION:  A WORKING PROGRAM
                                  IS ONE THAT HAS
                                  ONLY UNOBSERVED
                                  BUGS.
 Job cpu time:       0 days  2 hours 29 minutes  5.5 seconds.
 Elapsed time:       0 days  0 hours  4 minutes 41.2 seconds.
 File lengths (MBytes):  RWF=   1710 Int=      0 D2E=      0 Chk=    258 Scr=      1
 Normal termination of Gaussian 16 at Tue Nov  2 12:20:02 2021.
