 Entering Gaussian System, Link 0=/uufs/chpc.utah.edu/sys/installdir/gaussian16/B01/E6B/g16/g16
 Input=R-pTol-SDP_2_SPE_NoPd.com
 Output=R-pTol-SDP_2_SPE_NoPd.log
 Initial command:
 /uufs/chpc.utah.edu/sys/installdir/gaussian16/B01/E6B/g16/l1.exe "/scratch/general/lustre/u1010977/3356282/notchpeak.peaks/Gau-125320.inp" -scrdir="/scratch/general/lustre/u1010977/3356282/notchpeak.peaks/"
 Entering Link 1 = /uufs/chpc.utah.edu/sys/installdir/gaussian16/B01/E6B/g16/l1.exe PID=    125322.
  
 Copyright (c) 1988-2017, Gaussian, Inc.  All Rights Reserved.
  
 This is part of the Gaussian(R) 16 program.  It is based on
 the Gaussian(R) 09 system (copyright 2009, Gaussian, Inc.),
 the Gaussian(R) 03 system (copyright 2003, Gaussian, Inc.),
 the Gaussian(R) 98 system (copyright 1998, Gaussian, Inc.),
 the Gaussian(R) 94 system (copyright 1995, Gaussian, Inc.),
 the Gaussian 92(TM) system (copyright 1992, Gaussian, Inc.),
 the Gaussian 90(TM) system (copyright 1990, Gaussian, Inc.),
 the Gaussian 88(TM) system (copyright 1988, Gaussian, Inc.),
 the Gaussian 86(TM) system (copyright 1986, Carnegie Mellon
 University), and the Gaussian 82(TM) system (copyright 1983,
 Carnegie Mellon University). Gaussian is a federally registered
 trademark of Gaussian, Inc.
  
 This software contains proprietary and confidential information,
 including trade secrets, belonging to Gaussian, Inc.
  
 This software is provided under written license and may be
 used, copied, transmitted, or stored only in accord with that
 written license.
  
 The following legend is applicable only to US Government
 contracts under FAR:
  
                    RESTRICTED RIGHTS LEGEND
  
 Use, reproduction and disclosure by the US Government is
 subject to restrictions as set forth in subparagraphs (a)
 and (c) of the Commercial Computer Software - Restricted
 Rights clause in FAR 52.227-19.
  
 Gaussian, Inc.
 340 Quinnipiac St., Bldg. 40, Wallingford CT 06492
  
  
 ---------------------------------------------------------------
 Warning -- This program may not be used in any manner that
 competes with the business of Gaussian, Inc. or will provide
 assistance to any competitor of Gaussian, Inc.  The licensee
 of this program is prohibited from giving any competitor of
 Gaussian, Inc. access to this program.  By using this program,
 the user acknowledges that Gaussian, Inc. is engaged in the
 business of creating and licensing software in the field of
 computational chemistry and represents and warrants to the
 licensee that it is not a competitor of Gaussian, Inc. and that
 it will not use this program in any manner prohibited above.
 ---------------------------------------------------------------
  

 Cite this work as:
 Gaussian 16, Revision B.01,
 M. J. Frisch, G. W. Trucks, H. B. Schlegel, G. E. Scuseria, 
 M. A. Robb, J. R. Cheeseman, G. Scalmani, V. Barone, 
 G. A. Petersson, H. Nakatsuji, X. Li, M. Caricato, A. V. Marenich, 
 J. Bloino, B. G. Janesko, R. Gomperts, B. Mennucci, H. P. Hratchian, 
 J. V. Ortiz, A. F. Izmaylov, J. L. Sonnenberg, D. Williams-Young, 
 F. Ding, F. Lipparini, F. Egidi, J. Goings, B. Peng, A. Petrone, 
 T. Henderson, D. Ranasinghe, V. G. Zakrzewski, J. Gao, N. Rega, 
 G. Zheng, W. Liang, M. Hada, M. Ehara, K. Toyota, R. Fukuda, 
 J. Hasegawa, M. Ishida, T. Nakajima, Y. Honda, O. Kitao, H. Nakai, 
 T. Vreven, K. Throssell, J. A. Montgomery, Jr., J. E. Peralta, 
 F. Ogliaro, M. J. Bearpark, J. J. Heyd, E. N. Brothers, K. N. Kudin, 
 V. N. Staroverov, T. A. Keith, R. Kobayashi, J. Normand, 
 K. Raghavachari, A. P. Rendell, J. C. Burant, S. S. Iyengar, 
 J. Tomasi, M. Cossi, J. M. Millam, M. Klene, C. Adamo, R. Cammi, 
 J. W. Ochterski, R. L. Martin, K. Morokuma, O. Farkas, 
 J. B. Foresman, and D. J. Fox, Gaussian, Inc., Wallingford CT, 2016.
 
 ******************************************
 Gaussian 16:  ES64L-G16RevB.01 20-Dec-2017
                 2-Nov-2021 
 ******************************************
 %NProcShared=52
 Will use up to   52 processors via shared memory.
 %mem=18GB
 %chk=R-pTol-SDP_2_SPE_NoPd.chk
 ----------------------------------------------------------------------
 # PBE1PBE/def2TZVP int=(grid=ultrafine) empiricaldispersion=GD3BJ nmr=
 giao
 ----------------------------------------------------------------------
 1/38=1,172=1/1;
 2/12=2,17=6,18=5,40=1/2;
 3/5=44,7=101,11=2,25=1,30=1,74=-13,75=-5,124=41/1,2,3,8;
 4//1;
 5/5=2,38=5/2;
 8/6=1,10=90,11=11/1;
 10/13=100,45=16/2;
 6/7=2,8=2,9=2,10=2,28=1/1;
 99/9=1/99;
 -----
 title
 -----
 Symbolic Z-matrix:
 Charge =  0 Multiplicity = 1
 P                     0.7072    1.02293  -0.24943 
 C                     1.36602   0.39638  -1.86057 
 C                     1.27982  -0.95805  -2.23565 
 C                     1.97219  -1.42774  -3.35993 
 C                     2.77288  -0.57098  -4.13363 
 C                     2.87534   0.77516  -3.73261 
 C                     2.18916   1.25712  -2.61545 
 H                     2.28302   2.30765  -2.33214 
 H                     3.50269   1.46379  -4.31007 
 C                     3.49287  -1.07038  -5.36295 
 H                     2.95356  -0.78015  -6.28384 
 H                     3.58028  -2.16957  -5.36398 
 H                     4.50798  -0.64377  -5.43729 
 H                     1.88824  -2.48523  -3.63677 
 H                     0.67699  -1.65845  -1.65113 
 C                     2.30472   0.93582   0.66512 
 C                     3.07798  -0.2422    0.67689 
 C                     4.35177  -0.24295   1.25129 
 C                     4.9061    0.9356    1.79048 
 C                     4.15258   2.11936   1.71108 
 C                     2.86618   2.12522   1.15996 
 H                     2.29108   3.05689   1.09975 
 H                     4.57447   3.05469   2.09565 
 C                     6.26668   0.92536   2.44391 
 H                     6.17795   0.77372   3.53677 
 H                     6.79625   1.88085   2.29215 
 H                     6.90131   0.11316   2.05184 
 H                     4.94025  -1.16802   1.25918 
 H                     2.69856  -1.15082   0.19821 
 C                    -0.51844  -0.25838   0.25651 
 C                    -0.82085  -0.72618   1.5563 
 C                    -1.95975  -1.5466    1.75141 
 C                    -2.79181  -1.91478   0.69359 
 C                    -2.51099  -1.43017  -0.59078 
 C                    -1.4093   -0.59712  -0.79601 
 H                    -1.23788  -0.18217  -1.7942 
 H                    -3.16714  -1.67431  -1.43222 
 H                    -3.66729  -2.54855   0.87369 
 C                    -2.1226   -1.93704   3.20273 
 H                    -3.16722  -1.83052   3.54441 
 C                    -1.16476  -0.97974   3.93502 
 H                    -0.71325  -1.41432   4.84244 
 H                    -1.70378  -0.06927   4.23392 
 C                    -0.06822  -0.60839   2.88215 
 C                     0.65617   0.6659    3.31762 
 C                     1.82398   0.30284   4.03363 
 C                     2.64177   1.25662   4.64058 
 C                     2.316     2.61291   4.50768 
 C                     1.18476   2.99012   3.78118 
 C                     0.309     2.03214   3.20541 
 P                    -0.96689   2.81058   2.12559 
 C                    -2.53898   1.85561   2.01336 
 C                    -3.27526   1.51985   3.167 
 C                    -4.53451   0.92544   3.05071 
 C                    -5.11178   0.68816   1.78685 
 C                    -4.39696   1.09013   0.64539 
 C                    -3.12477   1.66371   0.75048 
 H                    -2.58004   1.97732  -0.14802 
 H                    -4.83808   0.94424  -0.34701 
 C                    -6.45561   0.01242   1.6614 
 H                    -7.02083   0.39246   0.79387 
 H                    -6.33631  -1.07862   1.51787 
 H                    -7.07118   0.15791   2.56473 
 H                    -5.094     0.6636    3.95653 
 H                    -2.87959   1.76216   4.15868 
 C                    -1.64398   4.18753   3.15899 
 C                    -1.52519   4.20703   4.56188 
 C                    -2.22915   5.15249   5.31985 
 C                    -3.07371   6.09433   4.70878 
 C                    -3.20788   6.04715   3.30764 
 C                    -2.51066   5.11151   2.53977 
 H                    -2.62995   5.10291   1.45424 
 H                    -3.86946   6.76173   2.80473 
 C                    -3.80679   7.1329    5.523 
 H                    -4.83568   7.28318   5.15317 
 H                    -3.86123   6.85032   6.58746 
 H                    -3.29795   8.11319   5.46618 
 H                    -2.1194    5.15275   6.4107 
 H                    -0.8876    3.48186   5.07493 
 H                     0.97721   4.05543   3.63974 
 H                     2.95932   3.38386   4.94351 
 H                     3.54029   0.94763   5.18624 
 C                     2.03291  -1.19438   4.03556 
 H                     3.08155  -1.46537   3.8205 
 C                     1.06373  -1.68706   2.94559 
 H                     0.64728  -2.68874   3.14391 
 H                     1.58148  -1.72698   1.97648 
 H                     1.78536  -1.62256   5.0265 
 H                    -1.83872  -2.99637   3.35701 
 
 Stoichiometry    C45H42P2
 Framework group  C1[X(C45H42P2)]
 Deg. of freedom   261
 Full point group                 C1      NOp   1
 Largest Abelian subgroup         C1      NOp   1
 Largest concise Abelian subgroup C1      NOp   1
                         Standard orientation:                         
 ---------------------------------------------------------------------
 Center     Atomic      Atomic             Coordinates (Angstroms)
 Number     Number       Type             X           Y           Z
 ---------------------------------------------------------------------
      1         15           0       -1.650424    0.430881   -1.003709
      2          6           0       -3.307494    1.103336   -1.477331
      3          6           0       -4.044070    1.957852   -0.634799
      4          6           0       -5.375934    2.273984   -0.935075
      5          6           0       -6.012741    1.745164   -2.070232
      6          6           0       -5.276020    0.868502   -2.890059
      7          6           0       -3.947316    0.546434   -2.603733
      8          1           0       -3.399174   -0.131630   -3.261336
      9          1           0       -5.750927    0.431032   -3.775679
     10          6           0       -7.437226    2.111320   -2.410507
     11          1           0       -7.470471    2.872060   -3.212558
     12          1           0       -7.969018    2.527190   -1.538657
     13          1           0       -8.002950    1.236284   -2.774166
     14          1           0       -5.930211    2.944447   -0.267814
     15          1           0       -3.587155    2.378983    0.264926
     16          6           0       -2.269205   -1.175530   -0.345971
     17          6           0       -3.303890   -1.225361    0.609404
     18          6           0       -3.857343   -2.452188    0.984991
     19          6           0       -3.426480   -3.655702    0.390948
     20          6           0       -2.442131   -3.585896   -0.609834
     21          6           0       -1.864278   -2.364842   -0.975521
     22          1           0       -1.100708   -2.324044   -1.761444
     23          1           0       -2.112702   -4.504564   -1.108076
     24          6           0       -3.998623   -4.983635    0.823947
     25          1           0       -3.370280   -5.446419    1.608951
     26          1           0       -4.045345   -5.697707   -0.015315
     27          1           0       -5.013810   -4.873989    1.240507
     28          1           0       -4.657616   -2.477109    1.734033
     29          1           0       -3.705789   -0.297806    1.029900
     30          6           0       -1.054801    1.595055    0.296228
     31          6           0       -0.293710    1.311231    1.453780
     32          6           0        0.259265    2.381089    2.200693
     33          6           0        0.068501    3.712942    1.831050
     34          6           0       -0.661485    3.996608    0.669173
     35          6           0       -1.189054    2.953500   -0.094643
     36          1           0       -1.707441    3.190963   -1.028904
     37          1           0       -0.796342    5.030730    0.336643
     38          1           0        0.509657    4.520369    2.426038
     39          6           0        1.044075    1.881120    3.392084
     40          1           0        2.012988    2.400514    3.495897
     41          6           0        1.211460    0.379077    3.098911
     42          1           0        1.236147   -0.248459    4.005397
     43          1           0        2.148418    0.208463    2.549517
     44          6           0       -0.000014    0.000086    2.183736
     45          6           0        0.293711   -1.311104    1.453870
     46          6           0       -0.259318   -2.380911    2.200816
     47          6           0       -0.068569   -3.712788    1.831257
     48          6           0        0.661477   -3.996537    0.669441
     49          6           0        1.189110   -2.953485   -0.094408
     50          6           0        1.054851   -1.595014    0.296368
     51         15           0        1.650518   -0.430948   -1.003635
     52          6           0        2.269293    1.175491   -0.345971
     53          6           0        3.303902    1.225376    0.609439
     54          6           0        3.857281    2.452271    0.985031
     55          6           0        3.426418    3.655722    0.390946
     56          6           0        2.442092    3.585860   -0.609903
     57          6           0        1.864341    2.364794   -0.975584
     58          1           0        1.100796    2.323922   -1.761526
     59          1           0        2.112629    4.504502   -1.108178
     60          6           0        3.998459    4.983766    0.823751
     61          1           0        4.052491    5.695132   -0.017403
     62          1           0        3.365644    5.450425    1.602838
     63          1           0        5.010515    4.873243    1.247577
     64          1           0        4.657474    2.477268    1.734150
     65          1           0        3.705803    0.297857    1.030011
     66          6           0        3.307568   -1.103454   -1.477229
     67          6           0        4.044142   -1.957953   -0.634680
     68          6           0        5.375994   -2.274120   -0.934967
     69          6           0        6.012788   -1.745356   -2.070161
     70          6           0        5.276068   -0.868712   -2.890006
     71          6           0        3.947372   -0.546612   -2.603670
     72          1           0        3.399233    0.131438   -3.261289
     73          1           0        5.750970   -0.431284   -3.775649
     74          6           0        7.437247   -2.111589   -2.410462
     75          1           0        8.002755   -1.236784   -2.775001
     76          1           0        7.969304   -2.526650   -1.538386
     77          1           0        7.470409   -2.873019   -3.211863
     78          1           0        5.930273   -2.944561   -0.267686
     79          1           0        3.587236   -2.379031    0.265076
     80          1           0        1.707534   -3.191012   -1.028632
     81          1           0        0.796318   -5.030681    0.336973
     82          1           0       -0.509795   -4.520172    2.426249
     83          6           0       -1.044193   -1.880863    3.392130
     84          1           0       -2.013117   -2.400244    3.495919
     85          6           0       -1.211554   -0.378840    3.098850
     86          1           0       -1.236296    0.248755    4.005294
     87          1           0       -2.148475   -0.208249    2.549385
     88          1           0       -0.482763   -2.053903    4.330969
     89          1           0        0.482588    2.054215    4.330879
 ---------------------------------------------------------------------
 Rotational constants (GHZ):           0.0899455           0.0549262           0.0458677
 Standard basis: def2TZVP (5D, 7F)
 There are  1956 symmetry adapted cartesian basis functions of A   symmetry.
 There are  1721 symmetry adapted basis functions of A   symmetry.
  1721 basis functions,  2769 primitive gaussians,  1956 cartesian basis functions
   171 alpha electrons      171 beta electrons
       nuclear repulsion energy      6479.5909600331 Hartrees.
 NAtoms=   89 NActive=   89 NUniq=   89 SFac= 1.00D+00 NAtFMM=   60 NAOKFM=T Big=T
 Integral buffers will be    131072 words long.
 Raffenetti 2 integral format.
 Two-electron integral symmetry is turned on.
 Nuclear repulsion after empirical dispersion term =     6479.4388602939 Hartrees.
 One-electron integrals computed using PRISM.
   1 Symmetry operations used in ECPInt.
 ECPInt:  NShTT=  237705 NPrTT=  729009 LenC2=  181713 LenP2D=  367823.
 LDataN:  DoStor=T MaxTD1= 6 Len=  172
 Number of processors reduced to  22 by ecpmxn.
 NBasis=  1721 RedAO= T EigKep=  3.10D-06  NBF=  1721
 NBsUse=  1721 1.00D-06 EigRej= -1.00D+00 NBFU=  1721
 ExpMin= 9.04D-02 ExpMax= 5.24D+04 ExpMxC= 1.79D+03 IAcc=3 IRadAn=         5 AccDes= 0.00D+00
 Harris functional with IExCor= 1009 and IRadAn=       5 diagonalized for initial guess.
 HarFok:  IExCor= 1009 AccDes= 0.00D+00 IRadAn=         5 IDoV= 1 UseB2=F ITyADJ=14
 ICtDFT=  3500011 ScaDFX=  1.000000  1.000000  1.000000  1.000000
 FoFCou: FMM=F IPFlag=           0 FMFlag=      100000 FMFlg1=        2001
         NFxFlg=           0 DoJE=T BraDBF=F KetDBF=T FulRan=T
         wScrn=  0.000000 ICntrl=       500 IOpCl=  0 I1Cent=   200000004 NGrid=           0
         NMat0=    1 NMatS0=      1 NMatT0=    0 NMatD0=    1 NMtDS0=    0 NMtDT0=    0
 Petite list used in FoFCou.
 Requested convergence on RMS density matrix=1.00D-08 within 128 cycles.
 Requested convergence on MAX density matrix=1.00D-06.
 Requested convergence on             energy=1.00D-06.
 No special actions if energy rises.
 Integral accuracy reduced to 1.0D-05 until final iterations.
 Problem detected with inexpensive integrals.
 Switching to full accuracy and repeating last cycle.
 SCF Done:  E(RPBE1PBE) =  -2421.20862992     A.U. after   15 cycles
            NFock= 15  Conv=0.61D-08     -V/T= 2.0050
 DoSCS=F DFT=T ScalE2(SS,OS)=  1.000000  1.000000
 Range of M.O.s used for correlation:     1  1721
 NBasis=  1721 NAE=   171 NBE=   171 NFC=     0 NFV=     0
 NROrb=   1721 NOA=   171 NOB=   171 NVA=  1550 NVB=  1550

 **** Warning!!: The largest alpha MO coefficient is  0.48299038D+02

          Differentiating once with respect to magnetic field using GIAOs.
          Electric field/nuclear overlap derivatives assumed to be zero.
 FoFCou: FMM=F IPFlag=           0 FMFlag=      100000 FMFlg1=        2001
         NFxFlg=           0 DoJE=F BraDBF=F KetDBF=T FulRan=T
         wScrn=  0.000000 ICntrl=      6100 IOpCl=  0 I1Cent=           7 NGrid=          89
         NMat0=    1 NMatS0=      1 NMatT0=    0 NMatD0=    1 NMtDS0=    0 NMtDT0=    0
 Symmetry not used in FoFCou.
   1 Symmetry operations used in ECPInt.
 ECPInt:  NShTT=  237705 NPrTT=  729009 LenC2=  237706 LenP2D=  729009.
 LDataN:  DoStor=T MaxTD1= 7 Len=  274
 Number of processors reduced to  14 by ecpmxn.
 FoFJK:  IHMeth= 1 ICntrl=    6127 DoSepK=F KAlg= 0 I1Cent=           0 FoldK=F
 IRaf=         1 NMat=       1 IRICut=       1 DoRegI=T DoRafI=F ISym2E= 0 IDoP0=0 IntGTp=1.
          There are     3 degrees of freedom in the 1st order CPHF.  IDoFFX=0 NUNeed=     3.
      3 vectors produced by pass  0 Test12= 8.83D-12 3.33D-08 XBig12= 1.92D+02 1.67D+00.
 AX will form     3 AO Fock derivatives at one time.
      3 vectors produced by pass  1 Test12= 8.83D-12 3.33D-08 XBig12= 7.63D-01 1.56D-01.
      3 vectors produced by pass  2 Test12= 8.83D-12 3.33D-08 XBig12= 3.91D-03 8.35D-03.
      3 vectors produced by pass  3 Test12= 8.83D-12 3.33D-08 XBig12= 1.21D-05 5.96D-04.
      3 vectors produced by pass  4 Test12= 8.83D-12 3.33D-08 XBig12= 6.75D-08 7.78D-05.
      3 vectors produced by pass  5 Test12= 8.83D-12 3.33D-08 XBig12= 3.89D-10 6.55D-06.
      3 vectors produced by pass  6 Test12= 8.83D-12 3.33D-08 XBig12= 2.23D-12 4.91D-07.
      1 vectors produced by pass  7 Test12= 8.83D-12 3.33D-08 XBig12= 1.62D-13 3.82D-08.
 InvSVY:  IOpt=1 It=  1 EMax= 1.78D-15
 Solved reduced A of dimension    22 with     3 vectors.
 Calculating GIAO nuclear magnetic shielding tensors.
 SCF GIAO Magnetic shielding tensor (ppm):
      1  P    Isotropic =   289.7214   Anisotropy =    81.2175
   XX=   260.4456   YX=   -22.2462   ZX=   -11.5804
   XY=    12.6018   YY=   272.7102   ZY=     4.1379
   XZ=    -1.5404   YZ=    40.7280   ZZ=   336.0083
   Eigenvalues:   258.7462   266.5515   343.8664
      2  C    Isotropic =    34.4801   Anisotropy =   209.0339
   XX=   -23.3231   YX=    62.0832   ZX=   -40.3182
   XY=    52.0062   YY=   105.5777   ZY=   -64.8879
   XZ=   -40.7869   YZ=   -84.4866   ZZ=    21.1858
   Eigenvalues:   -49.2743   -21.1213   173.8361
      3  C    Isotropic =    47.0179   Anisotropy =   189.6292
   XX=    38.1522   YX=    20.4119   ZX=   -51.2164
   XY=    35.8648   YY=    99.7826   ZY=   -79.1964
   XZ=   -69.9237   YZ=   -92.6786   ZZ=     3.1190
   Eigenvalues:   -63.6708    31.2872   173.4374
      4  C    Isotropic =    51.1902   Anisotropy =   160.7630
   XX=    35.4190   YX=    58.7038   ZX=    18.5872
   XY=    63.8752   YY=    82.1332   ZY=   -75.9918
   XZ=    11.9152   YZ=   -87.5688   ZZ=    36.0184
   Eigenvalues:   -55.1260    50.3310   158.3655
      5  C    Isotropic =    42.0480   Anisotropy =   198.0289
   XX=   -39.6004   YX=    56.8008   ZX=   -41.8438
   XY=    46.5603   YY=   108.0102   ZY=   -67.6124
   XZ=   -34.1024   YZ=   -67.2370   ZZ=    57.7341
   Eigenvalues:   -58.8742    10.9508   174.0672
      6  C    Isotropic =    50.9709   Anisotropy =   168.3028
   XX=    39.2150   YX=    11.0527   ZX=   -52.3867
   XY=    13.5995   YY=    97.2025   ZY=   -84.7934
   XZ=   -60.5298   YZ=   -80.9721   ZZ=    16.4954
   Eigenvalues:   -55.1214    44.8614   163.1728
      7  C    Isotropic =    45.5645   Anisotropy =   183.1031
   XX=    28.0136   YX=    57.2560   ZX=     8.9376
   XY=    77.9876   YY=    72.2504   ZY=   -88.3319
   XZ=    -1.7388   YZ=   -96.3914   ZZ=    36.4297
   Eigenvalues:   -65.3955    34.4558   167.6333
      8  H    Isotropic =    24.0821   Anisotropy =    11.3197
   XX=    25.8246   YX=    -1.8480   ZX=     6.5563
   XY=    -0.5289   YY=    20.1535   ZY=    -1.1204
   XZ=     4.1095   YZ=    -1.2434   ZZ=    26.2680
   Eigenvalues:    19.9070    20.7107    31.6285
      9  H    Isotropic =    24.2935   Anisotropy =     7.5624
   XX=    27.5884   YX=    -3.8973   ZX=     0.5544
   XY=    -2.8791   YY=    22.7319   ZY=     1.3182
   XZ=     0.6279   YZ=     0.0777   ZZ=    22.5602
   Eigenvalues:    20.5881    22.9573    29.3351
     10  C    Isotropic =   163.1691   Anisotropy =    41.0673
   XX=   185.6347   YX=    -9.7629   ZX=     5.0490
   XY=   -14.4488   YY=   150.0421   ZY=     5.5923
   XZ=    11.6338   YZ=     4.4872   ZZ=   153.8306
   Eigenvalues:   141.6398   157.3203   190.5473
     11  H    Isotropic =    28.9401   Anisotropy =     9.5929
   XX=    28.2941   YX=    -2.6662   ZX=     2.4727
   XY=    -3.8117   YY=    28.8726   ZY=    -3.6864
   XZ=     2.8703   YZ=    -3.4922   ZZ=    29.6537
   Eigenvalues:    25.1936    26.2913    35.3354
     12  H    Isotropic =    29.3730   Anisotropy =     7.5124
   XX=    32.2983   YX=    -3.5120   ZX=    -2.2310
   XY=    -1.7928   YY=    26.1551   ZY=     3.0314
   XZ=    -0.5003   YZ=     2.0983   ZZ=    29.6656
   Eigenvalues:    24.3858    29.3520    34.3813
     13  H    Isotropic =    29.1659   Anisotropy =     8.1856
   XX=    32.6073   YX=     2.0566   ZX=     3.3293
   XY=     1.6894   YY=    28.7494   ZY=     2.7269
   XZ=     1.4636   YZ=     2.4694   ZZ=    26.1409
   Eigenvalues:    24.3757    28.4990    34.6230
     14  H    Isotropic =    24.1711   Anisotropy =     8.4153
   XX=    27.9831   YX=    -0.9474   ZX=     4.0329
   XY=    -0.9545   YY=    21.5984   ZY=     0.5728
   XZ=     2.8595   YZ=     0.3288   ZZ=    22.9317
   Eigenvalues:    20.5168    22.2151    29.7813
     15  H    Isotropic =    23.0281   Anisotropy =    14.0574
   XX=    31.5080   YX=    -2.8131   ZX=     2.2869
   XY=    -3.2533   YY=    21.8424   ZY=     1.0736
   XZ=    -1.1610   YZ=    -1.1944   ZZ=    15.7339
   Eigenvalues:    15.7134    20.9712    32.3997
     16  C    Isotropic =    39.3046   Anisotropy =   208.5997
   XX=    85.3017   YX=   -28.7379   ZX=    91.6434
   XY=   -28.9881   YY=   -37.2619   ZY=     0.2940
   XZ=   103.5993   YZ=   -10.7657   ZZ=    69.8741
   Eigenvalues:   -48.7252   -11.7320   178.3711
     17  C    Isotropic =    41.4630   Anisotropy =   194.3359
   XX=    75.3194   YX=    21.4920   ZX=    90.9675
   XY=    17.9770   YY=   -41.9956   ZY=   -29.9487
   XZ=    82.7169   YZ=   -36.8887   ZZ=    91.0651
   Eigenvalues:   -65.0889    18.4577   171.0202
     18  C    Isotropic =    54.3851   Anisotropy =   162.4606
   XX=    52.5922   YX=    -4.4109   ZX=   105.4396
   XY=    -5.6254   YY=    51.0821   ZY=    -7.8113
   XZ=   107.0533   YZ=     0.0474   ZZ=    59.4810
   Eigenvalues:   -50.2738    50.7369   162.6922
     19  C    Isotropic =    42.6525   Anisotropy =   201.3459
   XX=    84.1938   YX=   -38.5920   ZX=    90.0583
   XY=   -32.9982   YY=   -41.8178   ZY=     3.5738
   XZ=    88.3765   YZ=    -1.3488   ZZ=    85.5814
   Eigenvalues:   -57.3381     8.4125   176.8831
     20  C    Isotropic =    49.5765   Anisotropy =   175.1717
   XX=   100.5919   YX=    22.1839   ZX=    71.8871
   XY=     9.8302   YY=   -27.9875   ZY=   -42.2979
   XZ=    79.8052   YZ=   -40.4835   ZZ=    76.1250
   Eigenvalues:   -55.2411    37.6129   166.3576
     21  C    Isotropic =    44.4378   Anisotropy =   188.0643
   XX=    55.1374   YX=    -8.6929   ZX=   118.4214
   XY=   -16.5072   YY=    32.5168   ZY=   -11.6655
   XZ=   115.7350   YZ=   -12.7481   ZZ=    45.6592
   Eigenvalues:   -66.7759    30.2753   169.8140
     22  H    Isotropic =    23.8455   Anisotropy =     5.0042
   XX=    22.5520   YX=     0.0790   ZX=     4.5591
   XY=     0.3213   YY=    26.4084   ZY=     1.2395
   XZ=     2.9612   YZ=     0.6137   ZZ=    22.5762
   Eigenvalues:    18.7692    25.5857    27.1817
     23  H    Isotropic =    24.6567   Anisotropy =     6.9211
   XX=    25.3734   YX=     4.8653   ZX=    -0.2806
   XY=     3.3121   YY=    24.5655   ZY=    -1.4521
   XZ=    -0.9916   YZ=    -0.1365   ZZ=    24.0314
   Eigenvalues:    20.8523    23.8471    29.2708
     24  C    Isotropic =   162.9086   Anisotropy =    41.0582
   XX=   155.9578   YX=    10.6659   ZX=    -9.1193
   XY=    16.5419   YY=   181.3677   ZY=    -4.6294
   XZ=   -12.8691   YZ=    -8.9717   ZZ=   151.4003
   Eigenvalues:   142.0806   156.3645   190.2807
     25  H    Isotropic =    29.0316   Anisotropy =     7.2279
   XX=    27.5580   YX=     0.1088   ZX=     0.9379
   XY=    -0.0659   YY=    31.0278   ZY=    -3.4214
   XZ=     1.2750   YZ=    -4.2087   ZZ=    28.5092
   Eigenvalues:    25.3656    27.8790    33.8503
     26  H    Isotropic =    29.2699   Anisotropy =     8.8086
   XX=    27.0417   YX=     4.4729   ZX=    -0.6889
   XY=     1.8496   YY=    32.2802   ZY=     3.9784
   XZ=    -0.4804   YZ=     3.0406   ZZ=    28.4876
   Eigenvalues:    24.3069    28.3604    35.1422
     27  H    Isotropic =    29.4133   Anisotropy =     8.7917
   XX=    33.0238   YX=     1.8439   ZX=    -4.0664
   XY=     2.6361   YY=    29.5352   ZY=    -0.9896
   XZ=    -3.0331   YZ=     0.5667   ZZ=    25.6808
   Eigenvalues:    24.1612    28.8042    35.2744
     28  H    Isotropic =    24.7343   Anisotropy =     6.8736
   XX=    24.5317   YX=     2.0323   ZX=    -1.2916
   XY=     0.7828   YY=    28.8394   ZY=    -0.2149
   XZ=     0.3436   YZ=    -0.9681   ZZ=    20.8320
   Eigenvalues:    20.7498    24.1365    29.3167
     29  H    Isotropic =    24.2757   Anisotropy =     8.9094
   XX=    26.0591   YX=     2.6885   ZX=    -2.2536
   XY=     1.6468   YY=    23.8664   ZY=    -6.5245
   XZ=     0.7517   YZ=    -4.9326   ZZ=    22.9016
   Eigenvalues:    17.5325    25.0793    30.2153
     30  C    Isotropic =    43.8559   Anisotropy =   179.4205
   XX=   108.4277   YX=   -12.8221   ZX=   -86.6884
   XY=   -22.6643   YY=   -12.3533   ZY=   -16.5136
   XZ=   -80.3684   YZ=    -8.5457   ZZ=    35.4932
   Eigenvalues:   -36.3885     4.4866   163.4696
     31  C    Isotropic =    25.4169   Anisotropy =   186.7290
   XX=   106.5376   YX=    10.4880   ZX=   -68.1120
   XY=     7.3471   YY=   -60.8946   ZY=    22.4832
   XZ=   -75.7382   YZ=     8.1027   ZZ=    30.6078
   Eigenvalues:   -66.7032    -6.9491   149.9029
     32  C    Isotropic =    32.9082   Anisotropy =   175.9105
   XX=    79.3028   YX=   -12.2169   ZX=  -102.1869
   XY=    -1.2505   YY=    12.7295   ZY=     8.7914
   XZ=   -94.9573   YZ=    31.6809   ZZ=     6.6924
   Eigenvalues:   -64.1984    12.7413   150.1819
     33  C    Isotropic =    56.5915   Anisotropy =   173.5576
   XX=   119.7181   YX=   -34.5029   ZX=   -76.6522
   XY=   -34.0771   YY=    -2.1538   ZY=   -35.7795
   XZ=   -80.2112   YZ=   -23.1707   ZZ=    52.2102
   Eigenvalues:   -44.6541    42.1320   172.2966
     34  C    Isotropic =    53.5928   Anisotropy =   184.3587
   XX=   139.5765   YX=     2.0757   ZX=   -60.0106
   XY=     6.3145   YY=   -43.1874   ZY=    31.7486
   XZ=   -67.0493   YZ=    32.2074   ZZ=    64.3892
   Eigenvalues:   -54.6036    38.8833   176.4986
     35  C    Isotropic =    47.5870   Anisotropy =   186.5454
   XX=   119.0709   YX=     0.9878   ZX=   -94.8139
   XY=    10.0653   YY=    27.4246   ZY=    27.7740
   XZ=   -97.6686   YZ=     9.7386   ZZ=    -3.7347
   Eigenvalues:   -60.6403    31.4506   171.9505
     36  H    Isotropic =    23.4892   Anisotropy =    10.1491
   XX=    24.3415   YX=     2.4286   ZX=     2.2457
   XY=     3.6587   YY=    28.3867   ZY=     2.0885
   XZ=    -0.6058   YZ=     0.9385   ZZ=    17.7393
   Eigenvalues:    17.5025    22.7097    30.2552
     37  H    Isotropic =    24.2850   Anisotropy =     3.5528
   XX=    24.5737   YX=    -0.4038   ZX=     2.9943
   XY=     0.3936   YY=    25.1004   ZY=     1.4637
   XZ=     1.1695   YZ=     1.4837   ZZ=    23.1809
   Eigenvalues:    21.2890    24.9124    26.6535
     38  H    Isotropic =    24.7552   Anisotropy =     4.0079
   XX=    23.2368   YX=    -2.6293   ZX=     0.1171
   XY=    -1.3385   YY=    26.3990   ZY=    -0.8914
   XZ=    -0.0063   YZ=    -0.0529   ZZ=    24.6297
   Eigenvalues:    22.2707    24.5678    27.4271
     39  C    Isotropic =   152.9354   Anisotropy =    28.8336
   XX=   142.4247   YX=    -7.3618   ZX=    12.4161
   XY=    -6.0986   YY=   163.2367   ZY=    -5.2005
   XZ=    16.9948   YZ=    -6.7808   ZZ=   153.1447
   Eigenvalues:   131.9829   154.6654   172.1578
     40  H    Isotropic =    29.3877   Anisotropy =     7.6023
   XX=    30.0897   YX=     5.0576   ZX=     0.8248
   XY=     3.1676   YY=    29.3660   ZY=     1.3338
   XZ=     1.1643   YZ=     1.9756   ZZ=    28.7075
   Eigenvalues:    25.4921    28.2151    34.4559
     41  C    Isotropic =   143.9126   Anisotropy =    42.7583
   XX=   145.8854   YX=     7.0197   ZX=    21.0870
   XY=     7.2757   YY=   147.8293   ZY=     9.3169
   XZ=    16.8201   YZ=    23.9525   ZZ=   138.0231
   Eigenvalues:   119.4336   139.8861   172.4181
     42  H    Isotropic =    29.5751   Anisotropy =     6.5534
   XX=    27.2985   YX=     3.2196   ZX=     4.0312
   XY=     0.5707   YY=    29.4288   ZY=    -2.5379
   XZ=     2.3047   YZ=    -1.9013   ZZ=    31.9980
   Eigenvalues:    24.2640    30.5173    33.9440
     43  H    Isotropic =    29.2358   Anisotropy =     7.2318
   XX=    32.7095   YX=     3.5208   ZX=    -2.6293
   XY=    -0.2741   YY=    26.0844   ZY=     1.7826
   XZ=    -2.3852   YZ=     0.8656   ZZ=    28.9135
   Eigenvalues:    24.7533    28.8971    34.0570
     44  C    Isotropic =   116.6326   Anisotropy =    38.5814
   XX=   101.8683   YX=    20.2115   ZX=    -0.0014
   XY=    -3.4733   YY=   140.6235   ZY=     0.0002
   XZ=     0.0002   YZ=    -0.0002   ZZ=   107.4060
   Eigenvalues:   100.1382   107.4060   142.3535
     45  C    Isotropic =    25.4190   Anisotropy =   186.7282
   XX=   106.5326   YX=    10.4940   ZX=    68.1146
   XY=     7.3513   YY=   -60.8968   ZY=   -22.4797
   XZ=    75.7392   YZ=    -8.0954   ZZ=    30.6211
   Eigenvalues:   -66.7033    -6.9443   149.9044
     46  C    Isotropic =    32.9073   Anisotropy =   175.9110
   XX=    79.2889   YX=   -12.2109   ZX=   102.1940
   XY=    -1.2452   YY=    12.7292   ZY=    -8.7974
   XZ=    94.9616   YZ=   -31.6840   ZZ=     6.7039
   Eigenvalues:   -64.2025    12.7432   150.1813
     47  C    Isotropic =    56.5914   Anisotropy =   173.5582
   XX=   119.7045   YX=   -34.5023   ZX=    76.6622
   XY=   -34.0796   YY=    -2.1459   ZY=    35.7790
   XZ=    80.2192   YZ=    23.1668   ZZ=    52.2155
   Eigenvalues:   -44.6537    42.1310   172.2968
     48  C    Isotropic =    53.5887   Anisotropy =   184.3657
   XX=   139.5705   YX=     2.0735   ZX=    60.0128
   XY=     6.3145   YY=   -43.1934   ZY=   -31.7431
   XZ=    67.0593   YZ=   -32.2025   ZZ=    64.3890
   Eigenvalues:   -54.6061    38.8730   176.4991
     49  C    Isotropic =    47.5870   Anisotropy =   186.5443
   XX=   119.0620   YX=     0.9936   ZX=    94.8178
   XY=    10.0714   YY=    27.4230   ZY=   -27.7771
   XZ=    97.6738   YZ=    -9.7421   ZZ=    -3.7241
   Eigenvalues:   -60.6405    31.4516   171.9498
     50  C    Isotropic =    43.8570   Anisotropy =   179.4207
   XX=   108.4205   YX=   -12.8173   ZX=    86.6944
   XY=   -22.6593   YY=   -12.3505   ZY=    16.5167
   XZ=    80.3724   YZ=     8.5487   ZZ=    35.5010
   Eigenvalues:   -36.3881     4.4883   163.4708
     51  P    Isotropic =   289.7254   Anisotropy =    81.2138
   XX=   260.4487   YX=   -22.2353   ZX=    11.5827
   XY=    12.6004   YY=   272.7182   ZY=    -4.1372
   XZ=     1.5395   YZ=   -40.7285   ZZ=   336.0094
   Eigenvalues:   258.7532   266.5551   343.8679
     52  C    Isotropic =    39.3050   Anisotropy =   208.5993
   XX=    85.3302   YX=   -28.7284   ZX=   -91.6222
   XY=   -28.9654   YY=   -37.2976   ZY=    -0.2604
   XZ=  -103.5843   YZ=    10.7568   ZZ=    69.8824
   Eigenvalues:   -48.7256   -11.7307   178.3711
     53  C    Isotropic =    41.4601   Anisotropy =   194.3313
   XX=    75.3317   YX=    21.4809   ZX=   -90.9621
   XY=    17.9583   YY=   -42.0041   ZY=    29.9370
   XZ=   -82.7120   YZ=    36.8910   ZZ=    91.0526
   Eigenvalues:   -65.0819    18.4478   171.0142
     54  C    Isotropic =    54.3801   Anisotropy =   162.3369
   XX=    52.5664   YX=    -4.4010   ZX=  -105.3976
   XY=    -5.6349   YY=    51.1539   ZY=     7.7895
   XZ=  -107.0047   YZ=     0.0065   ZZ=    59.4199
   Eigenvalues:   -50.2711    50.8067   162.6046
     55  C    Isotropic =    42.6533   Anisotropy =   201.3472
   XX=    84.2059   YX=   -38.5774   ZX=   -90.0560
   XY=   -33.0050   YY=   -41.8181   ZY=    -3.5784
   XZ=   -88.3830   YZ=     1.3355   ZZ=    85.5720
   Eigenvalues:   -57.3388     8.4139   176.8847
     56  C    Isotropic =    49.5750   Anisotropy =   175.2964
   XX=   100.6013   YX=    22.1549   ZX=   -71.9620
   XY=     9.7712   YY=   -28.0280   ZY=    42.2545
   XZ=   -79.8535   YZ=    40.5085   ZZ=    76.1518
   Eigenvalues:   -55.2511    37.5369   166.4393
     57  C    Isotropic =    44.4400   Anisotropy =   188.0719
   XX=    55.1500   YX=    -8.6827   ZX=  -118.4288
   XY=   -16.5017   YY=    32.5223   ZY=    11.6664
   XZ=  -115.7405   YZ=    12.7619   ZZ=    45.6477
   Eigenvalues:   -66.7823    30.2810   169.8213
     58  H    Isotropic =    23.8453   Anisotropy =     5.0033
   XX=    22.5519   YX=     0.0782   ZX=    -4.5589
   XY=     0.3206   YY=    26.4080   ZY=    -1.2399
   XZ=    -2.9612   YZ=    -0.6132   ZZ=    22.5759
   Eigenvalues:    18.7691    25.5860    27.1808
     59  H    Isotropic =    24.6560   Anisotropy =     6.9249
   XX=    25.3736   YX=     4.8655   ZX=     0.2832
   XY=     3.3151   YY=    24.5633   ZY=     1.4555
   XZ=     0.9923   YZ=     0.1377   ZZ=    24.0309
   Eigenvalues:    20.8495    23.8458    29.2726
     60  C    Isotropic =   162.9104   Anisotropy =    41.0631
   XX=   155.9910   YX=    10.6632   ZX=     9.1632
   XY=    16.5856   YY=   181.3076   ZY=     4.7192
   XZ=    12.8962   YZ=     8.9572   ZZ=   151.4326
   Eigenvalues:   142.0802   156.3652   190.2858
     61  H    Isotropic =    29.2647   Anisotropy =     8.8283
   XX=    27.0464   YX=     4.5052   ZX=     0.6550
   XY=     1.8845   YY=    32.2504   ZY=    -3.9725
   XZ=     0.4477   YZ=    -3.0504   ZZ=    28.4972
   Eigenvalues:    24.3036    28.3403    35.1502
     62  H    Isotropic =    29.0313   Anisotropy =     7.2234
   XX=    27.5895   YX=     0.0908   ZX=    -0.9331
   XY=    -0.0947   YY=    31.0483   ZY=     3.4120
   XZ=    -1.2814   YZ=     4.2132   ZZ=    28.4561
   Eigenvalues:    25.3554    27.8917    33.8469
     63  H    Isotropic =    29.4188   Anisotropy =     8.7755
   XX=    32.9885   YX=     1.8300   ZX=     4.0970
   XY=     2.6325   YY=    29.5424   ZY=     0.9972
   XZ=     3.0718   YZ=    -0.5659   ZZ=    25.7255
   Eigenvalues:    24.1693    28.8179    35.2691
     64  H    Isotropic =    24.7352   Anisotropy =     6.8693
   XX=    24.5333   YX=     2.0319   ZX=     1.2916
   XY=     0.7841   YY=    28.8367   ZY=     0.2163
   XZ=    -0.3418   YZ=     0.9661   ZZ=    20.8355
   Eigenvalues:    20.7532    24.1377    29.3147
     65  H    Isotropic =    24.2761   Anisotropy =     8.9105
   XX=    26.0594   YX=     2.6886   ZX=     2.2538
   XY=     1.6468   YY=    23.8674   ZY=     6.5248
   XZ=    -0.7510   YZ=     4.9333   ZZ=    22.9015
   Eigenvalues:    17.5326    25.0793    30.2164
     66  C    Isotropic =    34.4805   Anisotropy =   209.0333
   XX=   -23.3200   YX=    62.0900   ZX=    40.3165
   XY=    52.0093   YY=   105.5792   ZY=    64.8879
   XZ=    40.7842   YZ=    84.4803   ZZ=    21.1822
   Eigenvalues:   -49.2726   -21.1220   173.8360
     67  C    Isotropic =    47.0197   Anisotropy =   189.6300
   XX=    38.1593   YX=    20.4169   ZX=    51.2172
   XY=    35.8731   YY=    99.7889   ZY=    79.1911
   XZ=    69.9233   YZ=    92.6732   ZZ=     3.1108
   Eigenvalues:   -63.6694    31.2887   173.4397
     68  C    Isotropic =    51.1904   Anisotropy =   160.7764
   XX=    35.4189   YX=    58.7077   ZX=   -18.5826
   XY=    63.8905   YY=    82.1429   ZY=    75.9859
   XZ=   -11.9091   YZ=    87.5699   ZZ=    36.0094
   Eigenvalues:   -55.1267    50.3233   158.3747
     69  C    Isotropic =    42.0478   Anisotropy =   198.0292
   XX=   -39.5983   YX=    56.8083   ZX=    41.8469
   XY=    46.5615   YY=   108.0145   ZY=    67.6088
   XZ=    34.1012   YZ=    67.2337   ZZ=    57.7272
   Eigenvalues:   -58.8747    10.9509   174.0673
     70  C    Isotropic =    50.9705   Anisotropy =   168.2913
   XX=    39.2273   YX=    11.0510   ZX=    52.3889
   XY=    13.6101   YY=    97.2001   ZY=    84.7847
   XZ=    60.5323   YZ=    80.9629   ZZ=    16.4841
   Eigenvalues:   -55.1210    44.8678   163.1647
     71  C    Isotropic =    45.5645   Anisotropy =   183.1010
   XX=    28.0167   YX=    57.2575   ZX=    -8.9386
   XY=    77.9912   YY=    72.2563   ZY=    88.3254
   XZ=     1.7378   YZ=    96.3887   ZZ=    36.4205
   Eigenvalues:   -65.3942    34.4559   167.6318
     72  H    Isotropic =    24.0820   Anisotropy =    11.3198
   XX=    25.8245   YX=    -1.8485   ZX=    -6.5561
   XY=    -0.5293   YY=    20.1535   ZY=     1.1207
   XZ=    -4.1097   YZ=     1.2436   ZZ=    26.2679
   Eigenvalues:    19.9068    20.7106    31.6285
     73  H    Isotropic =    24.2935   Anisotropy =     7.5621
   XX=    27.5882   YX=    -3.8970   ZX=    -0.5547
   XY=    -2.8791   YY=    22.7323   ZY=    -1.3186
   XZ=    -0.6279   YZ=    -0.0776   ZZ=    22.5600
   Eigenvalues:    20.5883    22.9574    29.3349
     74  C    Isotropic =   163.1689   Anisotropy =    41.0668
   XX=   185.6332   YX=    -9.7516   ZX=    -5.0543
   XY=   -14.4556   YY=   150.0397   ZY=    -5.5887
   XZ=   -11.6393   YZ=    -4.4883   ZZ=   153.8338
   Eigenvalues:   141.6394   157.3205   190.5468
     75  H    Isotropic =    29.1664   Anisotropy =     8.1847
   XX=    32.6054   YX=     2.0546   ZX=    -3.3326
   XY=     1.6858   YY=    28.7480   ZY=    -2.7294
   XZ=    -1.4663   YZ=    -2.4732   ZZ=    26.1457
   Eigenvalues:    24.3753    28.5009    34.6229
     76  H    Isotropic =    29.3725   Anisotropy =     7.5129
   XX=    32.3002   YX=    -3.5094   ZX=     2.2331
   XY=    -1.7902   YY=    26.1501   ZY=    -3.0282
   XZ=     0.5032   YZ=    -2.0959   ZZ=    29.6672
   Eigenvalues:    24.3856    29.3509    34.3812
     77  H    Isotropic =    28.9401   Anisotropy =     9.5932
   XX=    28.2934   YX=    -2.6665   ZX=    -2.4716
   XY=    -3.8118   YY=    28.8790   ZY=     3.6861
   XZ=    -2.8706   YZ=     3.4936   ZZ=    29.6479
   Eigenvalues:    25.1962    26.2885    35.3356
     78  H    Isotropic =    24.1709   Anisotropy =     8.4156
   XX=    27.9828   YX=    -0.9476   ZX=    -4.0331
   XY=    -0.9548   YY=    21.5977   ZY=    -0.5723
   XZ=    -2.8596   YZ=    -0.3289   ZZ=    22.9322
   Eigenvalues:    20.5167    22.2147    29.7813
     79  H    Isotropic =    23.0280   Anisotropy =    14.0568
   XX=    31.5074   YX=    -2.8134   ZX=    -2.2866
   XY=    -3.2533   YY=    21.8423   ZY=    -1.0739
   XZ=     1.1611   YZ=     1.1939   ZZ=    15.7342
   Eigenvalues:    15.7137    20.9710    32.3992
     80  H    Isotropic =    23.4890   Anisotropy =    10.1492
   XX=    24.3418   YX=     2.4289   ZX=    -2.2458
   XY=     3.6588   YY=    28.3860   ZY=    -2.0893
   XZ=     0.6057   YZ=    -0.9390   ZZ=    17.7391
   Eigenvalues:    17.5021    22.7097    30.2551
     81  H    Isotropic =    24.2853   Anisotropy =     3.5526
   XX=    24.5740   YX=    -0.4038   ZX=    -2.9941
   XY=     0.3932   YY=    25.1001   ZY=    -1.4636
   XZ=    -1.1695   YZ=    -1.4839   ZZ=    23.1816
   Eigenvalues:    21.2895    24.9126    26.6537
     82  H    Isotropic =    24.7554   Anisotropy =     4.0077
   XX=    23.2373   YX=    -2.6288   ZX=    -0.1168
   XY=    -1.3394   YY=    26.3988   ZY=     0.8907
   XZ=     0.0054   YZ=     0.0529   ZZ=    24.6299
   Eigenvalues:    22.2710    24.5680    27.4272
     83  C    Isotropic =   152.9358   Anisotropy =    28.8356
   XX=   142.4273   YX=    -7.3632   ZX=   -12.4171
   XY=    -6.1003   YY=   163.2385   ZY=     5.2003
   XZ=   -16.9961   YZ=     6.7806   ZZ=   153.1417
   Eigenvalues:   131.9825   154.6654   172.1595
     84  H    Isotropic =    29.3878   Anisotropy =     7.6029
   XX=    30.0898   YX=     5.0577   ZX=    -0.8256
   XY=     3.1676   YY=    29.3660   ZY=    -1.3340
   XZ=    -1.1646   YZ=    -1.9758   ZZ=    28.7074
   Eigenvalues:    25.4922    28.2147    34.4564
     85  C    Isotropic =   143.9115   Anisotropy =    42.7592
   XX=   145.8872   YX=     7.0207   ZX=   -21.0876
   XY=     7.2751   YY=   147.8260   ZY=    -9.3162
   XZ=   -16.8201   YZ=   -23.9541   ZZ=   138.0212
   Eigenvalues:   119.4320   139.8848   172.4176
     86  H    Isotropic =    29.5751   Anisotropy =     6.5532
   XX=    27.2989   YX=     3.2193   ZX=    -4.0317
   XY=     0.5704   YY=    29.4291   ZY=     2.5381
   XZ=    -2.3051   YZ=     1.9015   ZZ=    31.9972
   Eigenvalues:    24.2640    30.5174    33.9439
     87  H    Isotropic =    29.2356   Anisotropy =     7.2319
   XX=    32.7092   YX=     3.5211   ZX=     2.6292
   XY=    -0.2739   YY=    26.0841   ZY=    -1.7825
   XZ=     2.3856   YZ=    -0.8653   ZZ=    28.9137
   Eigenvalues:    24.7530    28.8970    34.0569
     88  H    Isotropic =    28.7277   Anisotropy =    10.5994
   XX=    23.7365   YX=     0.8682   ZX=     3.5631
   XY=    -0.4776   YY=    28.1656   ZY=    -2.7705
   XZ=     1.2458   YZ=    -2.9221   ZZ=    34.2809
   Eigenvalues:    23.0721    27.3170    35.7940
     89  H    Isotropic =    28.7279   Anisotropy =    10.5995
   XX=    23.7369   YX=     0.8676   ZX=    -3.5638
   XY=    -0.4780   YY=    28.1661   ZY=     2.7707
   XZ=    -1.2466   YZ=     2.9223   ZZ=    34.2806
   Eigenvalues:    23.0722    27.3171    35.7942
 End of Minotr F.D. properties file   721 does not exist.
 End of Minotr F.D. properties file   722 does not exist.
 End of Minotr F.D. properties file   788 does not exist.

 **********************************************************************

            Population analysis using the SCF Density.

 **********************************************************************

 Orbital symmetries:
       Occupied  (A) (A) (A) (A) (A) (A) (A) (A) (A) (A) (A) (A)
                 (A) (A) (A) (A) (A) (A) (A) (A) (A) (A) (A) (A)
                 (A) (A) (A) (A) (A) (A) (A) (A) (A) (A) (A) (A)
                 (A) (A) (A) (A) (A) (A) (A) (A) (A) (A) (A) (A)
                 (A) (A) (A) (A) (A) (A) (A) (A) (A) (A) (A) (A)
                 (A) (A) (A) (A) (A) (A) (A) (A) (A) (A) (A) (A)
                 (A) (A) (A) (A) (A) (A) (A) (A) (A) (A) (A) (A)
                 (A) (A) (A) (A) (A) (A) (A) (A) (A) (A) (A) (A)
                 (A) (A) (A) (A) (A) (A) (A) (A) (A) (A) (A) (A)
                 (A) (A) (A) (A) (A) (A) (A) (A) (A) (A) (A) (A)
                 (A) (A) (A) (A) (A) (A) (A) (A) (A) (A) (A) (A)
                 (A) (A) (A) (A) (A) (A) (A) (A) (A) (A) (A) (A)
                 (A) (A) (A) (A) (A) (A) (A) (A) (A) (A) (A) (A)
                 (A) (A) (A) (A) (A) (A) (A) (A) (A) (A) (A) (A)
                 (A) (A) (A)
       Virtual   (A) (A) (A) (A) (A) (A) (A) (A) (A) (A) (A) (A)
                 (A) (A) (A) (A) (A) (A) (A) (A) (A) (A) (A) (A)
                 (A) (A) (A) (A) (A) (A) (A) (A) (A) (A) (A) (A)
                 (A) (A) (A) (A) (A) (A) (A) (A) (A) (A) (A) (A)
                 (A) (A) (A) (A) (A) (A) (A) (A) (A) (A) (A) (A)
                 (A) (A) (A) (A) (A) (A) (A) (A) (A) (A) (A) (A)
                 (A) (A) (A) (A) (A) (A) (A) (A) (A) (A) (A) (A)
                 (A) (A) (A) (A) (A) (A) (A) (A) (A) (A) (A) (A)
                 (A) (A) (A) (A) (A) (A) (A) (A) (A) (A) (A) (A)
                 (A) (A) (A) (A) (A) (A) (A) (A) (A) (A) (A) (A)
                 (A) (A) (A) (A) (A) (A) (A) (A) (A) (A) (A) (A)
                 (A) (A) (A) (A) (A) (A) (A) (A) (A) (A) (A) (A)
                 (A) (A) (A) (A) (A) (A) (A) (A) (A) (A) (A) (A)
                 (A) (A) (A) (A) (A) (A) (A) (A) (A) (A) (A) (A)
                 (A) (A) (A) (A) (A) (A) (A) (A) (A) (A) (A) (A)
                 (A) (A) (A) (A) (A) (A) (A) (A) (A) (A) (A) (A)
                 (A) (A) (A) (A) (A) (A) (A) (A) (A) (A) (A) (A)
                 (A) (A) (A) (A) (A) (A) (A) (A) (A) (A) (A) (A)
                 (A) (A) (A) (A) (A) (A) (A) (A) (A) (A) (A) (A)
                 (A) (A) (A) (A) (A) (A) (A) (A) (A) (A) (A) (A)
                 (A) (A) (A) (A) (A) (A) (A) (A) (A) (A) (A) (A)
                 (A) (A) (A) (A) (A) (A) (A) (A) (A) (A) (A) (A)
                 (A) (A) (A) (A) (A) (A) (A) (A) (A) (A) (A) (A)
                 (A) (A) (A) (A) (A) (A) (A) (A) (A) (A) (A) (A)
                 (A) (A) (A) (A) (A) (A) (A) (A) (A) (A) (A) (A)
                 (A) (A) (A) (A) (A) (A) (A) (A) (A) (A) (A) (A)
                 (A) (A) (A) (A) (A) (A) (A) (A) (A) (A) (A) (A)
                 (A) (A) (A) (A) (A) (A) (A) (A) (A) (A) (A) (A)
                 (A) (A) (A) (A) (A) (A) (A) (A) (A) (A) (A) (A)
                 (A) (A) (A) (A) (A) (A) (A) (A) (A) (A) (A) (A)
                 (A) (A) (A) (A) (A) (A) (A) (A) (A) (A) (A) (A)
                 (A) (A) (A) (A) (A) (A) (A) (A) (A) (A) (A) (A)
                 (A) (A) (A) (A) (A) (A) (A) (A) (A) (A) (A) (A)
                 (A) (A) (A) (A) (A) (A) (A) (A) (A) (A) (A) (A)
                 (A) (A) (A) (A) (A) (A) (A) (A) (A) (A) (A) (A)
                 (A) (A) (A) (A) (A) (A) (A) (A) (A) (A) (A) (A)
                 (A) (A) (A) (A) (A) (A) (A) (A) (A) (A) (A) (A)
                 (A) (A) (A) (A) (A) (A) (A) (A) (A) (A) (A) (A)
                 (A) (A) (A) (A) (A) (A) (A) (A) (A) (A) (A) (A)
                 (A) (A) (A) (A) (A) (A) (A) (A) (A) (A) (A) (A)
                 (A) (A) (A) (A) (A) (A) (A) (A) (A) (A) (A) (A)
                 (A) (A) (A) (A) (A) (A) (A) (A) (A) (A) (A) (A)
                 (A) (A) (A) (A) (A) (A) (A) (A) (A) (A) (A) (A)
                 (A) (A) (A) (A) (A) (A) (A) (A) (A) (A) (A) (A)
                 (A) (A) (A) (A) (A) (A) (A) (A) (A) (A) (A) (A)
                 (A) (A) (A) (A) (A) (A) (A) (A) (A) (A) (A) (A)
                 (A) (A) (A) (A) (A) (A) (A) (A) (A) (A) (A) (A)
                 (A) (A) (A) (A) (A) (A) (A) (A) (A) (A) (A) (A)
                 (A) (A) (A) (A) (A) (A) (A) (A) (A) (A) (A) (A)
                 (A) (A) (A) (A) (A) (A) (A) (A) (A) (A) (A) (A)
                 (A) (A) (A) (A) (A) (A) (A) (A) (A) (A) (A) (A)
                 (A) (A) (A) (A) (A) (A) (A) (A) (A) (A) (A) (A)
                 (A) (A) (A) (A) (A) (A) (A) (A) (A) (A) (A) (A)
                 (A) (A) (A) (A) (A) (A) (A) (A) (A) (A) (A) (A)
                 (A) (A) (A) (A) (A) (A) (A) (A) (A) (A) (A) (A)
                 (A) (A) (A) (A) (A) (A) (A) (A) (A) (A) (A) (A)
                 (A) (A) (A) (A) (A) (A) (A) (A) (A) (A) (A) (A)
                 (A) (A) (A) (A) (A) (A) (A) (A) (A) (A) (A) (A)
                 (A) (A) (A) (A) (A) (A) (A) (A) (A) (A) (A) (A)
                 (A) (A) (A) (A) (A) (A) (A) (A) (A) (A) (A) (A)
                 (A) (A) (A) (A) (A) (A) (A) (A) (A) (A) (A) (A)
                 (A) (A) (A) (A) (A) (A) (A) (A) (A) (A) (A) (A)
                 (A) (A) (A) (A) (A) (A) (A) (A) (A) (A) (A) (A)
                 (A) (A) (A) (A) (A) (A) (A) (A) (A) (A) (A) (A)
                 (A) (A) (A) (A) (A) (A) (A) (A) (A) (A) (A) (A)
                 (A) (A) (A) (A) (A) (A) (A) (A) (A) (A) (A) (A)
                 (A) (A) (A) (A) (A) (A) (A) (A) (A) (A) (A) (A)
                 (A) (A) (A) (A) (A) (A) (A) (A) (A) (A) (A) (A)
                 (A) (A) (A) (A) (A) (A) (A) (A) (A) (A) (A) (A)
                 (A) (A) (A) (A) (A) (A) (A) (A) (A) (A) (A) (A)
                 (A) (A) (A) (A) (A) (A) (A) (A) (A) (A) (A) (A)
                 (A) (A) (A) (A) (A) (A) (A) (A) (A) (A) (A) (A)
                 (A) (A) (A) (A) (A) (A) (A) (A) (A) (A) (A) (A)
                 (A) (A) (A) (A) (A) (A) (A) (A) (A) (A) (A) (A)
                 (A) (A) (A) (A) (A) (A) (A) (A) (A) (A) (A) (A)
                 (A) (A) (A) (A) (A) (A) (A) (A) (A) (A) (A) (A)
                 (A) (A) (A) (A) (A) (A) (A) (A) (A) (A) (A) (A)
                 (A) (A) (A) (A) (A) (A) (A) (A) (A) (A) (A) (A)
                 (A) (A) (A) (A) (A) (A) (A) (A) (A) (A) (A) (A)
                 (A) (A) (A) (A) (A) (A) (A) (A) (A) (A) (A) (A)
                 (A) (A) (A) (A) (A) (A) (A) (A) (A) (A) (A) (A)
                 (A) (A) (A) (A) (A) (A) (A) (A) (A) (A) (A) (A)
                 (A) (A) (A) (A) (A) (A) (A) (A) (A) (A) (A) (A)
                 (A) (A) (A) (A) (A) (A) (A) (A) (A) (A) (A) (A)
                 (A) (A) (A) (A) (A) (A) (A) (A) (A) (A) (A) (A)
                 (A) (A) (A) (A) (A) (A) (A) (A) (A) (A) (A) (A)
                 (A) (A) (A) (A) (A) (A) (A) (A) (A) (A) (A) (A)
                 (A) (A) (A) (A) (A) (A) (A) (A) (A) (A) (A) (A)
                 (A) (A) (A) (A) (A) (A) (A) (A) (A) (A) (A) (A)
                 (A) (A) (A) (A) (A) (A) (A) (A) (A) (A) (A) (A)
                 (A) (A) (A) (A) (A) (A) (A) (A) (A) (A) (A) (A)
                 (A) (A) (A) (A) (A) (A) (A) (A) (A) (A) (A) (A)
                 (A) (A) (A) (A) (A) (A) (A) (A) (A) (A) (A) (A)
                 (A) (A) (A) (A) (A) (A) (A) (A) (A) (A) (A) (A)
                 (A) (A) (A) (A) (A) (A) (A) (A) (A) (A) (A) (A)
                 (A) (A) (A) (A) (A) (A) (A) (A) (A) (A) (A) (A)
                 (A) (A) (A) (A) (A) (A) (A) (A) (A) (A) (A) (A)
                 (A) (A) (A) (A) (A) (A) (A) (A) (A) (A) (A) (A)
                 (A) (A) (A) (A) (A) (A) (A) (A) (A) (A) (A) (A)
                 (A) (A) (A) (A) (A) (A) (A) (A) (A) (A) (A) (A)
                 (A) (A) (A) (A) (A) (A) (A) (A) (A) (A) (A) (A)
                 (A) (A) (A) (A) (A) (A) (A) (A) (A) (A) (A) (A)
                 (A) (A) (A) (A) (A) (A) (A) (A) (A) (A) (A) (A)
                 (A) (A) (A) (A) (A) (A) (A) (A) (A) (A) (A) (A)
                 (A) (A) (A) (A) (A) (A) (A) (A) (A) (A) (A) (A)
                 (A) (A) (A) (A) (A) (A) (A) (A) (A) (A) (A) (A)
                 (A) (A) (A) (A) (A) (A) (A) (A) (A) (A) (A) (A)
                 (A) (A) (A) (A) (A) (A) (A) (A) (A) (A) (A) (A)
                 (A) (A) (A) (A) (A) (A) (A) (A) (A) (A) (A) (A)
                 (A) (A) (A) (A) (A) (A) (A) (A) (A) (A) (A) (A)
                 (A) (A) (A) (A) (A) (A) (A) (A) (A) (A) (A) (A)
                 (A) (A) (A) (A) (A) (A) (A) (A) (A) (A) (A) (A)
                 (A) (A) (A) (A) (A) (A) (A) (A) (A) (A) (A) (A)
                 (A) (A) (A) (A) (A) (A) (A) (A) (A) (A) (A) (A)
                 (A) (A) (A) (A) (A) (A) (A) (A) (A) (A) (A) (A)
                 (A) (A) (A) (A) (A) (A) (A) (A) (A) (A) (A) (A)
                 (A) (A) (A) (A) (A) (A) (A) (A) (A) (A) (A) (A)
                 (A) (A) (A) (A) (A) (A) (A) (A) (A) (A) (A) (A)
                 (A) (A) (A) (A) (A) (A) (A) (A) (A) (A) (A) (A)
                 (A) (A) (A) (A) (A) (A) (A) (A) (A) (A) (A) (A)
                 (A) (A) (A) (A) (A) (A) (A) (A) (A) (A) (A) (A)
                 (A) (A) (A) (A) (A) (A) (A) (A) (A) (A) (A) (A)
                 (A) (A) (A) (A) (A) (A) (A) (A) (A) (A) (A) (A)
                 (A) (A) (A) (A) (A) (A) (A) (A) (A) (A) (A) (A)
                 (A) (A) (A) (A) (A) (A) (A) (A) (A) (A) (A) (A)
                 (A) (A) (A) (A) (A) (A) (A) (A) (A) (A) (A) (A)
                 (A) (A) (A) (A) (A) (A) (A) (A) (A) (A) (A) (A)
                 (A) (A) (A) (A) (A) (A) (A) (A) (A) (A) (A) (A)
                 (A) (A) (A) (A) (A) (A) (A) (A) (A) (A) (A) (A)
                 (A) (A)
 The electronic state is 1-A.
 Alpha  occ. eigenvalues --  -77.19537 -77.19537 -10.24609 -10.23912 -10.23912
 Alpha  occ. eigenvalues --  -10.23693 -10.23693 -10.23519 -10.23519 -10.23447
 Alpha  occ. eigenvalues --  -10.23447 -10.23080 -10.23080 -10.22990 -10.22990
 Alpha  occ. eigenvalues --  -10.22856 -10.22855 -10.22512 -10.22512 -10.22483
 Alpha  occ. eigenvalues --  -10.22482 -10.22456 -10.22456 -10.22426 -10.22426
 Alpha  occ. eigenvalues --  -10.22365 -10.22365 -10.22279 -10.22279 -10.22231
 Alpha  occ. eigenvalues --  -10.22231 -10.22229 -10.22228 -10.22219 -10.22219
 Alpha  occ. eigenvalues --  -10.22193 -10.22193 -10.22185 -10.22185 -10.22158
 Alpha  occ. eigenvalues --  -10.22158 -10.22108 -10.22108 -10.21974 -10.21974
 Alpha  occ. eigenvalues --  -10.21773 -10.21772  -6.59092  -6.59092  -4.72687
 Alpha  occ. eigenvalues --   -4.72687  -4.72671  -4.72671  -4.72234  -4.72233
 Alpha  occ. eigenvalues --   -0.90666  -0.88022  -0.87770  -0.87743  -0.87240
 Alpha  occ. eigenvalues --   -0.87148  -0.84135  -0.81415  -0.80353  -0.79857
 Alpha  occ. eigenvalues --   -0.78564  -0.78554  -0.77805  -0.76450  -0.76079
 Alpha  occ. eigenvalues --   -0.76009  -0.75905  -0.75903  -0.73241  -0.73156
 Alpha  occ. eigenvalues --   -0.72052  -0.71435  -0.70406  -0.69542  -0.69517
 Alpha  occ. eigenvalues --   -0.64608  -0.64105  -0.63770  -0.62113  -0.62008
 Alpha  occ. eigenvalues --   -0.61682  -0.61603  -0.60905  -0.60776  -0.59133
 Alpha  occ. eigenvalues --   -0.59067  -0.58617  -0.58518  -0.57529  -0.56451
 Alpha  occ. eigenvalues --   -0.54855  -0.52110  -0.50687  -0.50271  -0.49451
 Alpha  occ. eigenvalues --   -0.49108  -0.48533  -0.47742  -0.47616  -0.47459
 Alpha  occ. eigenvalues --   -0.47401  -0.47141  -0.46969  -0.46799  -0.45871
 Alpha  occ. eigenvalues --   -0.45655  -0.45597  -0.45305  -0.45263  -0.43647
 Alpha  occ. eigenvalues --   -0.43143  -0.42957  -0.42945  -0.42876  -0.42798
 Alpha  occ. eigenvalues --   -0.42646  -0.42493  -0.42485  -0.42332  -0.41987
 Alpha  occ. eigenvalues --   -0.41474  -0.40789  -0.40555  -0.39545  -0.39498
 Alpha  occ. eigenvalues --   -0.39430  -0.39331  -0.39160  -0.39101  -0.39061
 Alpha  occ. eigenvalues --   -0.38727  -0.37676  -0.37273  -0.36870  -0.36833
 Alpha  occ. eigenvalues --   -0.36709  -0.36500  -0.35563  -0.35417  -0.35308
 Alpha  occ. eigenvalues --   -0.34746  -0.34678  -0.34466  -0.34434  -0.34307
 Alpha  occ. eigenvalues --   -0.34209  -0.33461  -0.32449  -0.32429  -0.32419
 Alpha  occ. eigenvalues --   -0.32242  -0.31649  -0.28805  -0.27459  -0.26579
 Alpha  occ. eigenvalues --   -0.26177  -0.26033  -0.25957  -0.25646  -0.25522
 Alpha  occ. eigenvalues --   -0.25158  -0.24349  -0.23805  -0.22684  -0.21483
 Alpha  occ. eigenvalues --   -0.18883
 Alpha virt. eigenvalues --   -0.02704  -0.02543  -0.02440  -0.01794  -0.01270
 Alpha virt. eigenvalues --   -0.00908  -0.00843  -0.00463   0.00252   0.00326
 Alpha virt. eigenvalues --    0.00768   0.00855   0.03870   0.04271   0.05045
 Alpha virt. eigenvalues --    0.05567   0.05633   0.05961   0.06216   0.06418
 Alpha virt. eigenvalues --    0.06462   0.06986   0.07308   0.08182   0.08298
 Alpha virt. eigenvalues --    0.08353   0.08523   0.08802   0.08930   0.09378
 Alpha virt. eigenvalues --    0.09711   0.09816   0.10113   0.10155   0.10686
 Alpha virt. eigenvalues --    0.10694   0.11054   0.11327   0.11859   0.11880
 Alpha virt. eigenvalues --    0.12299   0.12535   0.12536   0.12699   0.12922
 Alpha virt. eigenvalues --    0.13139   0.13445   0.13459   0.13659   0.13881
 Alpha virt. eigenvalues --    0.13994   0.14082   0.14520   0.14853   0.15125
 Alpha virt. eigenvalues --    0.15162   0.15287   0.15409   0.15756   0.15841
 Alpha virt. eigenvalues --    0.15845   0.15976   0.16249   0.16553   0.16694
 Alpha virt. eigenvalues --    0.16908   0.17086   0.17746   0.18119   0.18286
 Alpha virt. eigenvalues --    0.18493   0.18536   0.18882   0.19050   0.19482
 Alpha virt. eigenvalues --    0.19893   0.19907   0.20214   0.20344   0.20765
 Alpha virt. eigenvalues --    0.20899   0.21121   0.21314   0.21351   0.21555
 Alpha virt. eigenvalues --    0.22153   0.22352   0.22361   0.22874   0.22892
 Alpha virt. eigenvalues --    0.23384   0.23549   0.23574   0.24083   0.24139
 Alpha virt. eigenvalues --    0.24551   0.24904   0.24935   0.25071   0.25249
 Alpha virt. eigenvalues --    0.25271   0.25603   0.26090   0.26190   0.26277
 Alpha virt. eigenvalues --    0.26471   0.26882   0.27085   0.27138   0.27365
 Alpha virt. eigenvalues --    0.27747   0.27986   0.28141   0.28613   0.28617
 Alpha virt. eigenvalues --    0.28863   0.29392   0.29514   0.29637   0.29909
 Alpha virt. eigenvalues --    0.30056   0.30247   0.30640   0.30691   0.30703
 Alpha virt. eigenvalues --    0.31203   0.31569   0.31641   0.31749   0.31996
 Alpha virt. eigenvalues --    0.32057   0.32224   0.32471   0.32573   0.32781
 Alpha virt. eigenvalues --    0.32974   0.33316   0.33417   0.33817   0.34139
 Alpha virt. eigenvalues --    0.34460   0.34500   0.34736   0.35045   0.35289
 Alpha virt. eigenvalues --    0.35421   0.35890   0.35903   0.36008   0.36127
 Alpha virt. eigenvalues --    0.36442   0.36483   0.36904   0.37309   0.37350
 Alpha virt. eigenvalues --    0.37607   0.37844   0.37935   0.37940   0.38029
 Alpha virt. eigenvalues --    0.38261   0.38992   0.39000   0.39394   0.39473
 Alpha virt. eigenvalues --    0.39920   0.39956   0.40319   0.40434   0.40645
 Alpha virt. eigenvalues --    0.40710   0.41314   0.41496   0.41528   0.41613
 Alpha virt. eigenvalues --    0.41759   0.41954   0.42421   0.42498   0.42596
 Alpha virt. eigenvalues --    0.42635   0.43162   0.43327   0.43362   0.43788
 Alpha virt. eigenvalues --    0.43789   0.43961   0.44051   0.44308   0.44427
 Alpha virt. eigenvalues --    0.44528   0.44777   0.44892   0.45152   0.45397
 Alpha virt. eigenvalues --    0.45441   0.45562   0.45758   0.45936   0.46120
 Alpha virt. eigenvalues --    0.46238   0.46466   0.46660   0.46944   0.46958
 Alpha virt. eigenvalues --    0.47304   0.47359   0.47514   0.47727   0.48002
 Alpha virt. eigenvalues --    0.48211   0.48262   0.48466   0.48707   0.48912
 Alpha virt. eigenvalues --    0.49097   0.49234   0.49486   0.49736   0.49786
 Alpha virt. eigenvalues --    0.49820   0.50395   0.50540   0.50665   0.50956
 Alpha virt. eigenvalues --    0.50976   0.51114   0.51117   0.51533   0.51648
 Alpha virt. eigenvalues --    0.51883   0.51958   0.52203   0.52523   0.52573
 Alpha virt. eigenvalues --    0.52907   0.53061   0.53112   0.53729   0.53826
 Alpha virt. eigenvalues --    0.54079   0.54108   0.54695   0.54845   0.54878
 Alpha virt. eigenvalues --    0.54907   0.55512   0.55537   0.56144   0.56170
 Alpha virt. eigenvalues --    0.56330   0.56910   0.56918   0.57131   0.57335
 Alpha virt. eigenvalues --    0.57504   0.57869   0.58089   0.58103   0.58737
 Alpha virt. eigenvalues --    0.58790   0.58811   0.58910   0.59614   0.60275
 Alpha virt. eigenvalues --    0.60289   0.60919   0.60959   0.60997   0.61200
 Alpha virt. eigenvalues --    0.61352   0.61799   0.62247   0.62464   0.62639
 Alpha virt. eigenvalues --    0.62832   0.63376   0.63546   0.63810   0.63935
 Alpha virt. eigenvalues --    0.64065   0.64496   0.65325   0.65421   0.65674
 Alpha virt. eigenvalues --    0.66033   0.66530   0.67056   0.67252   0.67277
 Alpha virt. eigenvalues --    0.67605   0.67893   0.67948   0.68148   0.68542
 Alpha virt. eigenvalues --    0.68905   0.69038   0.69628   0.69678   0.69798
 Alpha virt. eigenvalues --    0.70268   0.70532   0.70592   0.70697   0.71469
 Alpha virt. eigenvalues --    0.71539   0.72151   0.72259   0.72410   0.72522
 Alpha virt. eigenvalues --    0.72969   0.73340   0.73416   0.73694   0.74231
 Alpha virt. eigenvalues --    0.74518   0.74588   0.74738   0.75086   0.75540
 Alpha virt. eigenvalues --    0.75589   0.75735   0.76139   0.76509   0.76877
 Alpha virt. eigenvalues --    0.77047   0.77742   0.77997   0.78023   0.78333
 Alpha virt. eigenvalues --    0.78622   0.78825   0.78989   0.79339   0.79451
 Alpha virt. eigenvalues --    0.80018   0.80065   0.80261   0.80416   0.81211
 Alpha virt. eigenvalues --    0.81384   0.81388   0.81501   0.81559   0.82529
 Alpha virt. eigenvalues --    0.82577   0.83272   0.83379   0.83816   0.83913
 Alpha virt. eigenvalues --    0.84101   0.84752   0.84900   0.85066   0.85716
 Alpha virt. eigenvalues --    0.85726   0.86194   0.86349   0.86837   0.86871
 Alpha virt. eigenvalues --    0.87117   0.87500   0.87928   0.88360   0.88371
 Alpha virt. eigenvalues --    0.88943   0.89088   0.89282   0.89633   0.90148
 Alpha virt. eigenvalues --    0.90286   0.90702   0.90750   0.91091   0.91594
 Alpha virt. eigenvalues --    0.91935   0.92050   0.92338   0.92440   0.92884
 Alpha virt. eigenvalues --    0.93025   0.93464   0.93940   0.94411   0.94670
 Alpha virt. eigenvalues --    0.94905   0.95489   0.95724   0.96125   0.96217
 Alpha virt. eigenvalues --    0.96272   0.96581   0.97023   0.97303   0.97580
 Alpha virt. eigenvalues --    0.97716   0.98138   0.98208   0.99004   0.99293
 Alpha virt. eigenvalues --    0.99406   1.00063   1.00194   1.00551   1.01009
 Alpha virt. eigenvalues --    1.01112   1.01888   1.02484   1.02727   1.02993
 Alpha virt. eigenvalues --    1.03350   1.03408   1.04052   1.04158   1.04554
 Alpha virt. eigenvalues --    1.04566   1.05090   1.05465   1.05674   1.06474
 Alpha virt. eigenvalues --    1.06557   1.06902   1.07061   1.07390   1.08129
 Alpha virt. eigenvalues --    1.08445   1.08497   1.08694   1.08712   1.09739
 Alpha virt. eigenvalues --    1.10270   1.10755   1.10992   1.11453   1.12041
 Alpha virt. eigenvalues --    1.12048   1.12251   1.12532   1.12746   1.12846
 Alpha virt. eigenvalues --    1.13826   1.13832   1.14503   1.14774   1.15043
 Alpha virt. eigenvalues --    1.15167   1.15394   1.15514   1.15989   1.16354
 Alpha virt. eigenvalues --    1.16671   1.16693   1.17012   1.18411   1.18628
 Alpha virt. eigenvalues --    1.19017   1.20031   1.20166   1.20444   1.20750
 Alpha virt. eigenvalues --    1.21034   1.21559   1.21753   1.22104   1.22240
 Alpha virt. eigenvalues --    1.22379   1.22723   1.22903   1.23155   1.23783
 Alpha virt. eigenvalues --    1.24200   1.24546   1.24708   1.25093   1.25351
 Alpha virt. eigenvalues --    1.25485   1.25878   1.26170   1.26327   1.26430
 Alpha virt. eigenvalues --    1.26673   1.27310   1.27322   1.27485   1.27504
 Alpha virt. eigenvalues --    1.28300   1.28569   1.28612   1.29062   1.29143
 Alpha virt. eigenvalues --    1.29629   1.29734   1.30074   1.30951   1.31357
 Alpha virt. eigenvalues --    1.31479   1.31719   1.31784   1.32386   1.32431
 Alpha virt. eigenvalues --    1.32475   1.32721   1.33242   1.33314   1.33343
 Alpha virt. eigenvalues --    1.34310   1.34433   1.34719   1.34728   1.35403
 Alpha virt. eigenvalues --    1.35475   1.36168   1.36269   1.36993   1.37215
 Alpha virt. eigenvalues --    1.37347   1.37979   1.38079   1.38730   1.38966
 Alpha virt. eigenvalues --    1.39338   1.39446   1.40091   1.40130   1.40334
 Alpha virt. eigenvalues --    1.41003   1.41282   1.42294   1.42466   1.43114
 Alpha virt. eigenvalues --    1.43393   1.43833   1.44930   1.45026   1.45668
 Alpha virt. eigenvalues --    1.45912   1.46231   1.46258   1.46377   1.46675
 Alpha virt. eigenvalues --    1.47367   1.47488   1.47574   1.48381   1.48802
 Alpha virt. eigenvalues --    1.48830   1.49314   1.49444   1.49699   1.49896
 Alpha virt. eigenvalues --    1.50448   1.50631   1.50820   1.51748   1.51920
 Alpha virt. eigenvalues --    1.52548   1.53095   1.53276   1.53632   1.53979
 Alpha virt. eigenvalues --    1.54285   1.54491   1.54494   1.54915   1.55127
 Alpha virt. eigenvalues --    1.55426   1.55567   1.55903   1.56208   1.56317
 Alpha virt. eigenvalues --    1.56331   1.56820   1.56914   1.57310   1.57750
 Alpha virt. eigenvalues --    1.58260   1.58442   1.58605   1.58872   1.59482
 Alpha virt. eigenvalues --    1.59663   1.59758   1.60062   1.60196   1.61042
 Alpha virt. eigenvalues --    1.61381   1.61640   1.61663   1.62031   1.62173
 Alpha virt. eigenvalues --    1.62518   1.63033   1.63243   1.63325   1.63598
 Alpha virt. eigenvalues --    1.63643   1.64129   1.64158   1.64442   1.64889
 Alpha virt. eigenvalues --    1.64968   1.65058   1.65508   1.65512   1.65847
 Alpha virt. eigenvalues --    1.66008   1.66243   1.66503   1.66537   1.67251
 Alpha virt. eigenvalues --    1.68214   1.68395   1.68568   1.68977   1.68998
 Alpha virt. eigenvalues --    1.69098   1.69336   1.70005   1.70182   1.70909
 Alpha virt. eigenvalues --    1.70917   1.71171   1.71443   1.71489   1.71881
 Alpha virt. eigenvalues --    1.71897   1.72192   1.72340   1.73027   1.73088
 Alpha virt. eigenvalues --    1.74020   1.74080   1.74467   1.74826   1.75417
 Alpha virt. eigenvalues --    1.75553   1.75959   1.76293   1.76376   1.76460
 Alpha virt. eigenvalues --    1.76584   1.76955   1.77715   1.78036   1.78710
 Alpha virt. eigenvalues --    1.79453   1.79688   1.79829   1.80070   1.80544
 Alpha virt. eigenvalues --    1.80638   1.81152   1.81320   1.81718   1.81782
 Alpha virt. eigenvalues --    1.82427   1.82684   1.82839   1.83329   1.83672
 Alpha virt. eigenvalues --    1.84178   1.84614   1.85321   1.85805   1.85870
 Alpha virt. eigenvalues --    1.86237   1.86593   1.86866   1.87349   1.87791
 Alpha virt. eigenvalues --    1.87873   1.88586   1.88678   1.89443   1.89576
 Alpha virt. eigenvalues --    1.90043   1.90451   1.90574   1.91008   1.91404
 Alpha virt. eigenvalues --    1.92019   1.92231   1.92610   1.92735   1.93257
 Alpha virt. eigenvalues --    1.93305   1.94537   1.95186   1.95229   1.95530
 Alpha virt. eigenvalues --    1.95948   1.96654   1.97373   1.97592   1.97620
 Alpha virt. eigenvalues --    1.98408   1.98547   1.98766   1.99484   1.99923
 Alpha virt. eigenvalues --    1.99986   2.00348   2.00943   2.01159   2.01219
 Alpha virt. eigenvalues --    2.02147   2.02285   2.02635   2.02730   2.03273
 Alpha virt. eigenvalues --    2.03430   2.03680   2.04103   2.04482   2.04718
 Alpha virt. eigenvalues --    2.05354   2.05447   2.06093   2.06128   2.06776
 Alpha virt. eigenvalues --    2.07136   2.07651   2.08372   2.08486   2.08866
 Alpha virt. eigenvalues --    2.08873   2.09044   2.09944   2.10196   2.10386
 Alpha virt. eigenvalues --    2.10485   2.10794   2.11274   2.12132   2.12261
 Alpha virt. eigenvalues --    2.12441   2.13337   2.13608   2.14121   2.14358
 Alpha virt. eigenvalues --    2.15010   2.15260   2.15555   2.16130   2.16230
 Alpha virt. eigenvalues --    2.16512   2.18081   2.18130   2.18845   2.18969
 Alpha virt. eigenvalues --    2.19030   2.19894   2.20016   2.20791   2.20904
 Alpha virt. eigenvalues --    2.21245   2.21305   2.21690   2.22148   2.22290
 Alpha virt. eigenvalues --    2.22551   2.23087   2.23103   2.23436   2.23541
 Alpha virt. eigenvalues --    2.23755   2.23785   2.24031   2.24300   2.24649
 Alpha virt. eigenvalues --    2.25117   2.25495   2.25506   2.25852   2.26636
 Alpha virt. eigenvalues --    2.26809   2.27035   2.27463   2.27999   2.28122
 Alpha virt. eigenvalues --    2.28746   2.29168   2.29929   2.29975   2.30395
 Alpha virt. eigenvalues --    2.30528   2.31228   2.31891   2.32203   2.32869
 Alpha virt. eigenvalues --    2.33259   2.33945   2.34633   2.35554   2.35753
 Alpha virt. eigenvalues --    2.35976   2.36374   2.36788   2.36903   2.37486
 Alpha virt. eigenvalues --    2.37690   2.38135   2.38279   2.39144   2.39271
 Alpha virt. eigenvalues --    2.40563   2.40845   2.41218   2.41234   2.41427
 Alpha virt. eigenvalues --    2.41604   2.42475   2.42655   2.42696   2.43178
 Alpha virt. eigenvalues --    2.44000   2.44012   2.44223   2.44695   2.46206
 Alpha virt. eigenvalues --    2.46416   2.46654   2.47107   2.47461   2.47482
 Alpha virt. eigenvalues --    2.47764   2.48335   2.48888   2.50223   2.50262
 Alpha virt. eigenvalues --    2.50400   2.50755   2.51170   2.51245   2.52241
 Alpha virt. eigenvalues --    2.52704   2.53011   2.53279   2.53548   2.53677
 Alpha virt. eigenvalues --    2.53789   2.54448   2.54735   2.55230   2.55324
 Alpha virt. eigenvalues --    2.55453   2.55702   2.56071   2.57011   2.57586
 Alpha virt. eigenvalues --    2.57638   2.57973   2.58329   2.58696   2.59079
 Alpha virt. eigenvalues --    2.59165   2.60085   2.60140   2.60502   2.60627
 Alpha virt. eigenvalues --    2.60690   2.60726   2.61514   2.61575   2.62201
 Alpha virt. eigenvalues --    2.62564   2.62913   2.63053   2.63103   2.63419
 Alpha virt. eigenvalues --    2.63552   2.63602   2.63973   2.64152   2.64593
 Alpha virt. eigenvalues --    2.64769   2.64898   2.65584   2.66010   2.66301
 Alpha virt. eigenvalues --    2.66514   2.67431   2.67972   2.68007   2.68300
 Alpha virt. eigenvalues --    2.68590   2.68675   2.68703   2.69176   2.69273
 Alpha virt. eigenvalues --    2.70142   2.70361   2.70444   2.71481   2.71883
 Alpha virt. eigenvalues --    2.71910   2.72458   2.72965   2.73308   2.73369
 Alpha virt. eigenvalues --    2.73768   2.73868   2.74164   2.74609   2.74783
 Alpha virt. eigenvalues --    2.75057   2.75116   2.75550   2.75657   2.76033
 Alpha virt. eigenvalues --    2.76237   2.76259   2.77014   2.77158   2.77817
 Alpha virt. eigenvalues --    2.77904   2.78502   2.78806   2.79238   2.79406
 Alpha virt. eigenvalues --    2.79721   2.79983   2.80190   2.80389   2.80429
 Alpha virt. eigenvalues --    2.80710   2.80837   2.81428   2.81743   2.82050
 Alpha virt. eigenvalues --    2.82351   2.82431   2.82818   2.83087   2.83289
 Alpha virt. eigenvalues --    2.83770   2.83919   2.83950   2.84158   2.84661
 Alpha virt. eigenvalues --    2.85309   2.85540   2.85607   2.85821   2.86015
 Alpha virt. eigenvalues --    2.86574   2.86979   2.87056   2.87215   2.87891
 Alpha virt. eigenvalues --    2.87932   2.88004   2.88282   2.88441   2.88712
 Alpha virt. eigenvalues --    2.89366   2.90092   2.90283   2.90784   2.90940
 Alpha virt. eigenvalues --    2.90981   2.91882   2.92435   2.92828   2.93269
 Alpha virt. eigenvalues --    2.93462   2.93790   2.93872   2.93970   2.94560
 Alpha virt. eigenvalues --    2.94787   2.95172   2.95237   2.95426   2.95881
 Alpha virt. eigenvalues --    2.96153   2.96553   2.97250   2.97364   2.97991
 Alpha virt. eigenvalues --    2.98135   2.98326   2.98591   2.98971   2.99402
 Alpha virt. eigenvalues --    2.99888   3.00078   3.00322   3.00341   3.00732
 Alpha virt. eigenvalues --    3.01593   3.02067   3.02597   3.02603   3.02936
 Alpha virt. eigenvalues --    3.02957   3.03279   3.04120   3.04121   3.04334
 Alpha virt. eigenvalues --    3.04695   3.05458   3.05646   3.05980   3.06497
 Alpha virt. eigenvalues --    3.06617   3.06924   3.07295   3.07774   3.07777
 Alpha virt. eigenvalues --    3.08440   3.09099   3.09114   3.09406   3.09601
 Alpha virt. eigenvalues --    3.09955   3.10120   3.10377   3.10827   3.10918
 Alpha virt. eigenvalues --    3.11546   3.12311   3.12392   3.12563   3.13104
 Alpha virt. eigenvalues --    3.13259   3.13818   3.13994   3.14300   3.14516
 Alpha virt. eigenvalues --    3.14822   3.14861   3.15395   3.15436   3.15772
 Alpha virt. eigenvalues --    3.16077   3.16770   3.17294   3.17367   3.17647
 Alpha virt. eigenvalues --    3.18163   3.18302   3.18338   3.18823   3.18862
 Alpha virt. eigenvalues --    3.19323   3.19812   3.19838   3.20635   3.20731
 Alpha virt. eigenvalues --    3.20872   3.21734   3.21771   3.21993   3.22224
 Alpha virt. eigenvalues --    3.22375   3.22603   3.22765   3.23264   3.23270
 Alpha virt. eigenvalues --    3.23646   3.23905   3.24242   3.24579   3.24939
 Alpha virt. eigenvalues --    3.25067   3.25336   3.25840   3.26094   3.27060
 Alpha virt. eigenvalues --    3.27172   3.27331   3.27373   3.27566   3.27691
 Alpha virt. eigenvalues --    3.27703   3.28012   3.28599   3.28615   3.28836
 Alpha virt. eigenvalues --    3.29240   3.29460   3.29732   3.29865   3.30397
 Alpha virt. eigenvalues --    3.30654   3.30853   3.31192   3.31405   3.32316
 Alpha virt. eigenvalues --    3.32423   3.32652   3.32843   3.33300   3.33428
 Alpha virt. eigenvalues --    3.33456   3.33498   3.33773   3.34010   3.34342
 Alpha virt. eigenvalues --    3.34840   3.34995   3.35524   3.36081   3.36128
 Alpha virt. eigenvalues --    3.36336   3.36491   3.36699   3.37027   3.37430
 Alpha virt. eigenvalues --    3.37670   3.37897   3.38198   3.38201   3.38631
 Alpha virt. eigenvalues --    3.38898   3.38934   3.39311   3.39346   3.39859
 Alpha virt. eigenvalues --    3.40233   3.40338   3.41268   3.41480   3.41696
 Alpha virt. eigenvalues --    3.41714   3.41964   3.42215   3.42646   3.42805
 Alpha virt. eigenvalues --    3.43054   3.43300   3.43517   3.43587   3.43720
 Alpha virt. eigenvalues --    3.44237   3.44271   3.44744   3.44753   3.44886
 Alpha virt. eigenvalues --    3.45152   3.45539   3.45556   3.45975   3.46281
 Alpha virt. eigenvalues --    3.46738   3.46867   3.47431   3.47458   3.47835
 Alpha virt. eigenvalues --    3.47857   3.48175   3.48500   3.48670   3.48879
 Alpha virt. eigenvalues --    3.49252   3.49418   3.49961   3.50032   3.50498
 Alpha virt. eigenvalues --    3.50708   3.50842   3.50891   3.51370   3.51608
 Alpha virt. eigenvalues --    3.52012   3.52211   3.52304   3.52528   3.52709
 Alpha virt. eigenvalues --    3.53100   3.53991   3.54015   3.54049   3.54220
 Alpha virt. eigenvalues --    3.54377   3.54709   3.55046   3.55535   3.55853
 Alpha virt. eigenvalues --    3.56126   3.56340   3.56764   3.57000   3.57572
 Alpha virt. eigenvalues --    3.57715   3.57762   3.58526   3.58628   3.59292
 Alpha virt. eigenvalues --    3.59964   3.59982   3.60800   3.61221   3.61310
 Alpha virt. eigenvalues --    3.61648   3.61807   3.61926   3.63144   3.63301
 Alpha virt. eigenvalues --    3.63521   3.64168   3.64633   3.64912   3.65738
 Alpha virt. eigenvalues --    3.65831   3.66290   3.66431   3.66479   3.67189
 Alpha virt. eigenvalues --    3.67636   3.68141   3.68295   3.68377   3.68699
 Alpha virt. eigenvalues --    3.69284   3.70128   3.70245   3.70982   3.71017
 Alpha virt. eigenvalues --    3.71163   3.71584   3.72171   3.72536   3.72583
 Alpha virt. eigenvalues --    3.72723   3.74452   3.74672   3.75438   3.75627
 Alpha virt. eigenvalues --    3.75686   3.75945   3.76483   3.76559   3.77264
 Alpha virt. eigenvalues --    3.77274   3.78031   3.78206   3.78989   3.79252
 Alpha virt. eigenvalues --    3.79260   3.81159   3.81488   3.81795   3.81934
 Alpha virt. eigenvalues --    3.83334   3.83771   3.84115   3.84729   3.85665
 Alpha virt. eigenvalues --    3.86228   3.87420   3.87605   3.87733   3.88638
 Alpha virt. eigenvalues --    3.88948   3.89036   3.89873   3.90190   3.90467
 Alpha virt. eigenvalues --    3.90748   3.90792   3.91423   3.92548   3.92564
 Alpha virt. eigenvalues --    3.93771   3.93889   3.94214   3.95327   3.95458
 Alpha virt. eigenvalues --    3.95951   3.96718   3.97238   3.97672   3.98360
 Alpha virt. eigenvalues --    3.99026   3.99378   3.99532   4.00083   4.00427
 Alpha virt. eigenvalues --    4.01561   4.01867   4.03684   4.04184   4.04334
 Alpha virt. eigenvalues --    4.04956   4.04966   4.05450   4.06005   4.06741
 Alpha virt. eigenvalues --    4.06844   4.06959   4.07607   4.07987   4.08714
 Alpha virt. eigenvalues --    4.09893   4.10453   4.10633   4.11191   4.11565
 Alpha virt. eigenvalues --    4.11857   4.11965   4.12221   4.12488   4.13476
 Alpha virt. eigenvalues --    4.13795   4.14334   4.14620   4.14691   4.15687
 Alpha virt. eigenvalues --    4.15834   4.16149   4.16522   4.16727   4.18185
 Alpha virt. eigenvalues --    4.18410   4.18902   4.19132   4.19143   4.19326
 Alpha virt. eigenvalues --    4.19594   4.20108   4.20339   4.20678   4.21065
 Alpha virt. eigenvalues --    4.21079   4.23083   4.23274   4.23395   4.23804
 Alpha virt. eigenvalues --    4.23967   4.24485   4.24506   4.25742   4.25856
 Alpha virt. eigenvalues --    4.26338   4.26735   4.26758   4.27175   4.27347
 Alpha virt. eigenvalues --    4.27455   4.27804   4.28162   4.28182   4.28758
 Alpha virt. eigenvalues --    4.28886   4.29831   4.30286   4.31160   4.31440
 Alpha virt. eigenvalues --    4.31986   4.32413   4.32490   4.32827   4.33038
 Alpha virt. eigenvalues --    4.33786   4.34011   4.34821   4.34846   4.35274
 Alpha virt. eigenvalues --    4.36052   4.36089   4.36594   4.37297   4.37474
 Alpha virt. eigenvalues --    4.38263   4.38349   4.38804   4.39481   4.41191
 Alpha virt. eigenvalues --    4.41627   4.41897   4.42219   4.42875   4.43308
 Alpha virt. eigenvalues --    4.44661   4.44984   4.45233   4.46230   4.46651
 Alpha virt. eigenvalues --    4.47049   4.47272   4.47850   4.48173   4.48462
 Alpha virt. eigenvalues --    4.49378   4.51766   4.52299   4.53152   4.53205
 Alpha virt. eigenvalues --    4.56237   4.57025   4.57657   4.57961   4.58466
 Alpha virt. eigenvalues --    4.59322   4.59668   4.59893   4.61032   4.61370
 Alpha virt. eigenvalues --    4.62301   4.62509   4.63891   4.65721   4.67099
 Alpha virt. eigenvalues --    4.67148   4.67574   4.67714   4.68436   4.68817
 Alpha virt. eigenvalues --    4.69002   4.69277   4.69404   4.69926   4.70776
 Alpha virt. eigenvalues --    4.71213   4.71291   4.72212   4.72901   4.72998
 Alpha virt. eigenvalues --    4.76021   4.77228   4.77910   4.79019   4.79997
 Alpha virt. eigenvalues --    4.80392   4.81715   4.82270   4.85447   4.87842
 Alpha virt. eigenvalues --    4.88833   4.90571   4.90951   4.91347   4.91781
 Alpha virt. eigenvalues --    4.92575   4.93020   4.94272   4.94486   4.94878
 Alpha virt. eigenvalues --    4.96353   4.98261   4.99459   5.00708   5.00901
 Alpha virt. eigenvalues --    5.02163   5.02242   5.03201   5.03274   5.05165
[...]
  1534. RY*(   4) C  83                  0.00052     1.85751   
  1535. RY*(   5) C  83                  0.00030     1.55479   
  1536. RY*(   6) C  83                  0.00025     1.74623   
  1537. RY*(   7) C  83                  0.00015     2.20900   
  1538. RY*(   8) C  83                  0.00014     1.51858   
  1539. RY*(   9) C  83                  0.00009     2.61856   
  1540. RY*(  10) C  83                  0.00010     1.84370   
  1541. RY*(  11) C  83                  0.00005     2.54285   
  1542. RY*(  12) C  83                  0.00005     2.11086   
  1543. RY*(  13) C  83                  0.00003     2.77893   
  1544. RY*(  14) C  83                  0.00001     1.90142   
  1545. RY*(  15) C  83                  0.00001     2.84623   
  1546. RY*(  16) C  83                  0.00002     3.43399   
  1547. RY*(  17) C  83                  0.00000     3.49335   
  1548. RY*(  18) C  83                  0.00001     2.98291   
  1549. RY*(  19) C  83                  0.00000    21.35869   
  1550. RY*(  20) C  83                  0.00000     3.48249   
  1551. RY*(  21) C  83                  0.00000     3.65794   
  1552. RY*(  22) C  83                  0.00000     2.86821   
  1553. RY*(  23) C  83                  0.00000     3.65686   
  1554. RY*(  24) C  83                  0.00000     3.17637   
  1555. RY*(  25) C  83                  0.00000     3.51611   
  1556. RY*(  26) C  83                  0.00000     3.59919   
  1557. RY*(   1) H  84                  0.00107     0.61236   
  1558. RY*(   2) H  84                  0.00017     2.30249   
  1559. RY*(   3) H  84                  0.00013     2.58092   
  1560. RY*(   4) H  84                  0.00009     2.46225   
  1561. RY*(   5) H  84                  0.00001     3.10811   
  1562. RY*(   1) C  85                  0.00221     1.13518   
  1563. RY*(   2) C  85                  0.00133     1.30557   
  1564. RY*(   3) C  85                  0.00065     1.76539   
  1565. RY*(   4) C  85                  0.00055     1.63001   
  1566. RY*(   5) C  85                  0.00042     1.71997   
  1567. RY*(   6) C  85                  0.00023     1.94579   
  1568. RY*(   7) C  85                  0.00021     2.04806   
  1569. RY*(   8) C  85                  0.00018     2.23955   
  1570. RY*(   9) C  85                  0.00013     1.48903   
  1571. RY*(  10) C  85                  0.00009     2.54113   
  1572. RY*(  11) C  85                  0.00006     2.10341   
  1573. RY*(  12) C  85                  0.00007     2.78668   
  1574. RY*(  13) C  85                  0.00005     2.25526   
  1575. RY*(  14) C  85                  0.00002     2.48188   
  1576. RY*(  15) C  85                  0.00003     2.46982   
  1577. RY*(  16) C  85                  0.00001     2.41247   
  1578. RY*(  17) C  85                  0.00001     3.28835   
  1579. RY*(  18) C  85                  0.00000    21.34211   
  1580. RY*(  19) C  85                  0.00001     3.28502   
  1581. RY*(  20) C  85                  0.00000     3.62305   
  1582. RY*(  21) C  85                  0.00000     3.46598   
  1583. RY*(  22) C  85                  0.00000     3.71066   
  1584. RY*(  23) C  85                  0.00001     3.84415   
  1585. RY*(  24) C  85                  0.00001     3.54656   
  1586. RY*(  25) C  85                  0.00000     3.67138   
  1587. RY*(  26) C  85                  0.00001     3.35274   
  1588. RY*(   1) H  86                  0.00047     1.97960   
  1589. RY*(   2) H  86                  0.00014     2.62754   
  1590. RY*(   3) H  86                  0.00012     2.53935   
  1591. RY*(   4) H  86                  0.00003     1.33562   
  1592. RY*(   5) H  86                  0.00001     3.04739   
  1593. RY*(   1) H  87                  0.00073     0.94675   
  1594. RY*(   2) H  87                  0.00013     2.59070   
  1595. RY*(   3) H  87                  0.00014     2.66991   
  1596. RY*(   4) H  87                  0.00009     2.38172   
  1597. RY*(   5) H  87                  0.00002     3.12546   
  1598. RY*(   1) H  88                  0.00063     1.91564   
  1599. RY*(   2) H  88                  0.00014     2.51826   
  1600. RY*(   3) H  88                  0.00012     2.51154   
  1601. RY*(   4) H  88                  0.00005     1.44228   
  1602. RY*(   5) H  88                  0.00001     2.87416   
  1603. RY*(   1) H  89                  0.00063     1.91564   
  1604. RY*(   2) H  89                  0.00014     2.51827   
  1605. RY*(   3) H  89                  0.00012     2.51154   
  1606. RY*(   4) H  89                  0.00005     1.44224   
  1607. RY*(   5) H  89                  0.00001     2.87418   
  1608. BD*(   1) P   1 - C   2          0.04486     0.23588   
  1609. BD*(   1) P   1 - C  16          0.04054     0.23567   
  1610. BD*(   1) P   1 - C  30          0.04231     0.23425   
  1611. BD*(   1) C   2 - C   3          0.02989     0.53644   
  1612. BD*(   2) C   2 - C   3          0.37262     0.03403  1622(v),1617(v),1630(r)
                                                    1656(r),1609(v),228(g)
                                                    1701(r),203(g),332(v)
                                                    1646(r)
  1613. BD*(   1) C   2 - C   7          0.02249     0.53548   
  1614. BD*(   1) C   3 - C   4          0.01644     0.55812   
  1615. BD*(   1) C   3 - H  15          0.01719     0.42645   
  1616. BD*(   1) C   4 - C   5          0.02291     0.54224   
  1617. BD*(   2) C   4 - C   5          0.34462     0.04169  1622(v),1612(v),254(g)
                                                    1625(v),1627(v)
  1618. BD*(   1) C   4 - H  14          0.01521     0.40605   
  1619. BD*(   1) C   5 - C   6          0.02335     0.53663   
  1620. BD*(   1) C   5 - C  10          0.01357     0.39564   
  1621. BD*(   1) C   6 - C   7          0.01390     0.55913   
  1622. BD*(   2) C   6 - C   7          0.31154     0.04032  1617(v),1612(v),1630(r)
                                                    306(g),332(g)
  1623. BD*(   1) C   6 - H   9          0.01432     0.40699   
  1624. BD*(   1) C   7 - H   8          0.01635     0.41440   
  1625. BD*(   1) C  10 - H  11          0.01106     0.36288   
  1626. BD*(   1) C  10 - H  12          0.00528     0.37077   
  1627. BD*(   1) C  10 - H  13          0.00729     0.36815   
  1628. BD*(   1) C  16 - C  17          0.03354     0.53681   
  1629. BD*(   1) C  16 - C  21          0.02477     0.54335   
  1630. BD*(   2) C  16 - C  21          0.35740     0.04052  1632(v),1637(v),1669(r)
                                                    1622(r),1612(r),1676(r)
                                                    1646(r),549(g),1608(v)
                                                    1610(v),420(g)
  1631. BD*(   1) C  17 - C  18          0.01608     0.56161   
  1632. BD*(   2) C  17 - C  18          0.31341     0.04221  1637(v),1630(v),471(g)
                                                    1669(r)
  1633. BD*(   1) C  17 - H  29          0.01679     0.42239   
  1634. BD*(   1) C  18 - C  19          0.02360     0.53695   
  1635. BD*(   1) C  18 - H  28          0.01556     0.40267   
  1636. BD*(   1) C  19 - C  20          0.02346     0.54262   
  1637. BD*(   2) C  19 - C  20          0.33721     0.04387  1632(v),1630(v),1676(r)
                                                    523(g),1642(v),1643(v)
  1638. BD*(   1) C  19 - C  24          0.01377     0.39474   
  1639. BD*(   1) C  20 - C  21          0.01561     0.56109   
  1640. BD*(   1) C  20 - H  23          0.01501     0.40690   
  1641. BD*(   1) C  21 - H  22          0.01619     0.42424   
  1642. BD*(   1) C  24 - H  25          0.01154     0.35896   
  1643. BD*(   1) C  24 - H  26          0.00644     0.36836   
  1644. BD*(   1) C  24 - H  27          0.00583     0.36890   
  1645. BD*(   1) C  30 - C  31          0.03495     0.54525   
  1646. BD*(   2) C  30 - C  31          0.39130     0.04282  1669(r),1656(v),1651(v)
                                                    1685(r),1666(v),1687(r)
                                                    1630(r),662(g),1608(v)
                                                    1665(v),1609(v),636(g)
                                                    1612(r)
  1647. BD*(   1) C  30 - C  35          0.02060     0.51642   
  1648. BD*(   1) C  31 - C  32          0.03157     0.52867   
  1649. BD*(   1) C  31 - C  44          0.03973     0.39136   
  1650. BD*(   1) C  32 - C  33          0.02223     0.56750   
  1651. BD*(   2) C  32 - C  33          0.32924     0.05095  1646(v),1656(v),713(g)
                                                    1661(v),1671(r),1659(v)
  1652. BD*(   1) C  32 - C  39          0.02117     0.40108   
  1653. BD*(   1) C  33 - C  34          0.01375     0.55306   
  1654. BD*(   1) C  33 - H  38          0.01562     0.41023   
  1655. BD*(   1) C  34 - C  35          0.01705     0.56086   
  1656. BD*(   2) C  34 - C  35          0.32703     0.03847  1646(v),1651(v),1685(r)
                                                    1692(r),1612(r),740(g)
                                                    1676(r)
  1657. BD*(   1) C  34 - H  37          0.01402     0.41424   
  1658. BD*(   1) C  35 - H  36          0.01555     0.42486   
  1659. BD*(   1) C  39 - H  40          0.01446     0.37856   
  1660. BD*(   1) C  39 - C  41          0.00841     0.35566   
  1661. BD*(   1) C  39 - H  89          0.01876     0.37044   
  1662. BD*(   1) C  41 - H  42          0.01179     0.38754   
  1663. BD*(   1) C  41 - H  43          0.01551     0.39934   
  1664. BD*(   1) C  41 - C  44          0.03131     0.32626   
  1665. BD*(   1) C  44 - C  45          0.03973     0.39136   
  1666. BD*(   1) C  44 - C  85          0.03131     0.32626   
  1667. BD*(   1) C  45 - C  46          0.03157     0.52867   
  1668. BD*(   1) C  45 - C  50          0.03495     0.54525   
  1669. BD*(   2) C  45 - C  50          0.39131     0.04282  1646(r),1676(v),1671(v)
                                                    1630(r),1664(v),1632(r)
                                                    1685(r),900(g),1682(v)
                                                    1649(v),1681(v),1030(g)
                                                    1701(r)
  1670. BD*(   1) C  46 - C  47          0.02223     0.56750   
  1671. BD*(   2) C  46 - C  47          0.32924     0.05095  1669(v),1676(v),951(g)
                                                    1719(v),1651(r),1717(v)
  1672. BD*(   1) C  46 - C  83          0.02117     0.40108   
  1673. BD*(   1) C  47 - C  48          0.01375     0.55306   
  1674. BD*(   1) C  47 - H  82          0.01562     0.41023   
  1675. BD*(   1) C  48 - C  49          0.01705     0.56086   
  1676. BD*(   2) C  48 - C  49          0.32702     0.03847  1669(v),1671(v),1630(r)
                                                    1637(r),1701(r),978(g)
                                                    1656(r)
  1677. BD*(   1) C  48 - H  81          0.01402     0.41424   
  1678. BD*(   1) C  49 - C  50          0.02060     0.51642   
  1679. BD*(   1) C  49 - H  80          0.01555     0.42486   
  1680. BD*(   1) C  50 - P  51          0.04231     0.23426   
  1681. BD*(   1) P  51 - C  52          0.04054     0.23568   
  1682. BD*(   1) P  51 - C  66          0.04486     0.23588   
  1683. BD*(   1) C  52 - C  53          0.03354     0.53685   
  1684. BD*(   1) C  52 - C  57          0.02477     0.54332   
  1685. BD*(   2) C  52 - C  57          0.35755     0.04051  1687(v),1692(v),1646(r)
                                                    1711(r),1701(r),1656(r)
                                                    1669(r),1214(g),1682(v)
                                                    1680(v),1085(g)
  1686. BD*(   1) C  53 - C  54          0.01608     0.56157   
  1687. BD*(   2) C  53 - C  54          0.31359     0.04220  1692(v),1685(v),1136(g)
                                                    1646(r)
  1688. BD*(   1) C  53 - H  65          0.01679     0.42238   
  1689. BD*(   1) C  54 - C  55          0.02359     0.53702   
  1690. BD*(   1) C  54 - H  64          0.01556     0.40269   
  1691. BD*(   1) C  55 - C  56          0.02347     0.54255   
  1692. BD*(   2) C  55 - C  56          0.33733     0.04386  1687(v),1685(v),1656(r)
                                                    1188(g),1698(v),1697(v)
  1693. BD*(   1) C  55 - C  60          0.01377     0.39473   
  1694. BD*(   1) C  56 - C  57          0.01561     0.56113   
  1695. BD*(   1) C  56 - H  59          0.01501     0.40688   
  1696. BD*(   1) C  57 - H  58          0.01619     0.42425   
  1697. BD*(   1) C  60 - H  61          0.00648     0.36830   
  1698. BD*(   1) C  60 - H  62          0.01154     0.35898   
  1699. BD*(   1) C  60 - H  63          0.00580     0.36896   
  1700. BD*(   1) C  66 - C  67          0.02990     0.53644   
  1701. BD*(   2) C  66 - C  67          0.37262     0.03403  1711(v),1706(v),1685(r)
                                                    1676(r),1681(v),1327(g)
                                                    1612(r),1302(g),1431(v)
                                                    1669(r)
  1702. BD*(   1) C  66 - C  71          0.02249     0.53548   
  1703. BD*(   1) C  67 - C  68          0.01643     0.55812   
  1704. BD*(   1) C  67 - H  79          0.01719     0.42645   
  1705. BD*(   1) C  68 - C  69          0.02291     0.54223   
  1706. BD*(   2) C  68 - C  69          0.34463     0.04169  1711(v),1701(v),1353(g)
                                                    1716(v),1714(v)
  1707. BD*(   1) C  68 - H  78          0.01521     0.40605   
  1708. BD*(   1) C  69 - C  70          0.02335     0.53664   
  1709. BD*(   1) C  69 - C  74          0.01357     0.39564   
  1710. BD*(   1) C  70 - C  71          0.01390     0.55913   
  1711. BD*(   2) C  70 - C  71          0.31156     0.04032  1706(v),1701(v),1685(r)
                                                    1405(g),1431(g)
  1712. BD*(   1) C  70 - H  73          0.01432     0.40699   
  1713. BD*(   1) C  71 - H  72          0.01635     0.41440   
  1714. BD*(   1) C  74 - H  75          0.00728     0.36816   
  1715. BD*(   1) C  74 - H  76          0.00528     0.37077   
  1716. BD*(   1) C  74 - H  77          0.01107     0.36287   
  1717. BD*(   1) C  83 - H  84          0.01446     0.37855   
  1718. BD*(   1) C  83 - C  85          0.00841     0.35566   
  1719. BD*(   1) C  83 - H  88          0.01876     0.37044   
  1720. BD*(   1) C  85 - H  86          0.01179     0.38754   
  1721. BD*(   1) C  85 - H  87          0.01551     0.39933   
       -------------------------------
              Total Lewis  333.31098  ( 97.4594%)
        Valence non-Lewis    8.05251  (  2.3545%)
        Rydberg non-Lewis    0.63651  (  0.1861%)
       -------------------------------
            Total unit  1  342.00000  (100.0000%)
           Charge unit  1    0.00000
 1\1\GINC-NOTCH210\SP\RPBE1PBE\def2TZVP\C45H42P2\U1010977\02-Nov-2021\0
 \\# PBE1PBE/def2TZVP int=(grid=ultrafine) empiricaldispersion=GD3BJ po
 p=nbo guess=read geom=check\\title\\0,1\P,0,0.7071978547,1.0229252067,
 -0.2494260412\C,0,1.3660209416,0.3963764001,-1.8605696548\C,0,1.279820
 342,-0.9580548987,-2.235652956\C,0,1.9721880858,-1.427737151,-3.359926
 8721\C,0,2.772877318,-0.5709805805,-4.1336325991\C,0,2.8753363546,0.77
 5159512,-3.7326092437\C,0,2.1891628314,1.2571232106,-2.6154515197\H,0,
 2.2830228574,2.3076450462,-2.3321404349\H,0,3.5026867489,1.4637887586,
 -4.3100692016\C,0,3.4928661762,-1.0703785681,-5.3629545254\H,0,2.95355
 60958,-0.780147305,-6.2838375378\H,0,3.580279858,-2.1695741034,-5.3639
 795358\H,0,4.5079829564,-0.6437735937,-5.4372899639\H,0,1.888242008,-2
 .48522998,-3.6367718893\H,0,0.6769912698,-1.6584516426,-1.6511276238\C
 ,0,2.3047248716,0.9358206518,0.6651153199\C,0,3.0779802,-0.2422010885,
 0.6768934254\C,0,4.3517737657,-0.242945562,1.2512886247\C,0,4.90609877
 72,0.9356021567,1.7904780309\C,0,4.152581345,2.11936255,1.7110832436\C
 ,0,2.8661753151,2.1252187259,1.1599582118\H,0,2.2910758054,3.056891239
 3,1.0997494104\H,0,4.5744664169,3.0546925614,2.0956471327\C,0,6.266675
 6703,0.9253582154,2.4439077545\H,0,6.1779532917,0.7737241614,3.5367711
 465\H,0,6.7962471041,1.8808513874,2.2921505054\H,0,6.9013108069,0.1131
 590633,2.0518375031\H,0,4.9402485963,-1.1680157539,1.2591809885\H,0,2.
 698558264,-1.1508241215,0.1982068832\C,0,-0.5184398167,-0.2583794816,0
 .2565093642\C,0,-0.8208485069,-0.726179524,1.5562997162\C,0,-1.9597481
 622,-1.5466043096,1.7514061355\C,0,-2.7918119065,-1.9147832713,0.69359
 10182\C,0,-2.5109884367,-1.4301748875,-0.5907755662\C,0,-1.4092979923,
 -0.5971225035,-0.7960121932\H,0,-1.2378845076,-0.1821683081,-1.7942039
 655\H,0,-3.1671433252,-1.6743116887,-1.4322203533\H,0,-3.6672936621,-2
 .5485523464,0.8736917855\C,0,-2.1225961982,-1.9370354887,3.2027343013\
 H,0,-3.1672249992,-1.8305169405,3.5444111188\C,0,-1.1647618793,-0.9797
 449938,3.9350246469\H,0,-0.713245035,-1.4143170263,4.8424426373\H,0,-1
 .7037800506,-0.0692748964,4.2339168092\C,0,-0.0682225177,-0.6083943769
 ,2.8821490129\C,0,0.6561730985,0.6658965453,3.317616761\C,0,1.82397560
 5,0.3028380399,4.0336343513\C,0,2.6417659281,1.2566182241,4.6405759862
 \C,0,2.3160046153,2.6129055619,4.5076792493\C,0,1.1847550693,2.9901228
 091,3.7811801177\C,0,0.3090049585,2.0321446109,3.2054079448\P,0,-0.966
 8863709,2.8105813257,2.12558788\C,0,-2.538980749,1.8556078472,2.013360
 4408\C,0,-3.2752554075,1.5198463537,3.1669973758\C,0,-4.5345127021,0.9
 254440393,3.0507069877\C,0,-5.1117794171,0.688161245,1.7868501283\C,0,
 -4.3969625846,1.0901308192,0.6453882628\C,0,-3.1247679741,1.6637145962
 ,0.7504790319\H,0,-2.5800431028,1.9773181,-0.1480218455\H,0,-4.8380840
 053,0.9442395344,-0.3470092786\C,0,-6.4556140313,0.0124213445,1.661400
 3797\H,0,-7.0208300046,0.392462888,0.7938746449\H,0,-6.3363104392,-1.0
 786182605,1.5178733639\H,0,-7.0711849011,0.1579077514,2.564731671\H,0,
 -5.094002273,0.6636022964,3.9565342626\H,0,-2.8795883982,1.7621592817,
 4.1586772436\C,0,-1.6439839842,4.187530777,3.1589900807\C,0,-1.5251939
 236,4.2070294181,4.5618828148\C,0,-2.229147321,5.1524893814,5.31985377
 09\C,0,-3.0737100504,6.0943268818,4.7087751072\C,0,-3.207880074,6.0471
 456981,3.3076395235\C,0,-2.5106553874,5.1115085985,2.539766883\H,0,-2.
 6299530341,5.1029142695,1.4542412874\H,0,-3.8694642709,6.7617296028,2.
 8047342109\C,0,-3.8067926737,7.132900387,5.5230044887\H,0,-4.835681569
 4,7.2831834319,5.1531743278\H,0,-3.861234179,6.8503163382,6.5874571546
 \H,0,-3.2979502054,8.1131911849,5.4661847886\H,0,-2.1193992057,5.15274
 70943,6.4106960707\H,0,-0.8875955751,3.4818551197,5.0749327824\H,0,0.9
 772129136,4.0554294991,3.6397406452\H,0,2.959320744,3.3838576221,4.943
 5093567\H,0,3.5402877356,0.9476348955,5.1862435609\C,0,2.0329100699,-1
 .1943758686,4.0355643237\H,0,3.0815534339,-1.4653674809,3.820500644\C,
 0,1.0637268037,-1.6870578264,2.9455896789\H,0,0.6472801202,-2.68874053
 14,3.1439090401\H,0,1.581476532,-1.7269841218,1.9764787569\H,0,1.78536
 23696,-1.6225583146,5.0264952346\H,0,-1.8387230916,-2.9963658132,3.357
 0073723\\Version=ES64L-G16RevB.01\State=1-A\HF=-2421.2086299\RMSD=3.39
 8e-09\Dipole=0.0152787,-0.6226457,0.4791352\Quadrupole=5.4206551,-3.55
 28946,-1.8677605,0.2619167,-0.0184988,3.1977349\PG=C01 [X(C45H42P2)]\\
 @


 IN SO FAR AS QUANTUM MECHANICS IS CORRECT, CHEMICAL 
 QUESTIONS ARE PROBLEMS IN APPLIED MATHEMATICS.

                    -- EYRING, WALTER, & KIMBALL, 1944
 Job cpu time:       0 days  2 hours 22 minutes 16.5 seconds.
 Elapsed time:       0 days  0 hours  2 minutes 45.4 seconds.
 File lengths (MBytes):  RWF=   1512 Int=      0 D2E=      0 Chk=    228 Scr=      1
 Normal termination of Gaussian 16 at Tue Nov  2 10:33:38 2021.
