 Entering Gaussian System, Link 0=/uufs/chpc.utah.edu/sys/installdir/gaussian16/B01/E6B/g16/g16
 Input=R-pTol-SDP_1_SPE_NoPd.com
 Output=R-pTol-SDP_1_SPE_NoPd.log
 Initial command:
 /uufs/chpc.utah.edu/sys/installdir/gaussian16/B01/E6B/g16/l1.exe "/scratch/general/lustre/u1010977/3356280/notchpeak.peaks/Gau-81660.inp" -scrdir="/scratch/general/lustre/u1010977/3356280/notchpeak.peaks/"
 Entering Link 1 = /uufs/chpc.utah.edu/sys/installdir/gaussian16/B01/E6B/g16/l1.exe PID=     81662.
  
 Copyright (c) 1988-2017, Gaussian, Inc.  All Rights Reserved.
  
 This is part of the Gaussian(R) 16 program.  It is based on
 the Gaussian(R) 09 system (copyright 2009, Gaussian, Inc.),
 the Gaussian(R) 03 system (copyright 2003, Gaussian, Inc.),
 the Gaussian(R) 98 system (copyright 1998, Gaussian, Inc.),
 the Gaussian(R) 94 system (copyright 1995, Gaussian, Inc.),
 the Gaussian 92(TM) system (copyright 1992, Gaussian, Inc.),
 the Gaussian 90(TM) system (copyright 1990, Gaussian, Inc.),
 the Gaussian 88(TM) system (copyright 1988, Gaussian, Inc.),
 the Gaussian 86(TM) system (copyright 1986, Carnegie Mellon
 University), and the Gaussian 82(TM) system (copyright 1983,
 Carnegie Mellon University). Gaussian is a federally registered
 trademark of Gaussian, Inc.
  
 This software contains proprietary and confidential information,
 including trade secrets, belonging to Gaussian, Inc.
  
 This software is provided under written license and may be
 used, copied, transmitted, or stored only in accord with that
 written license.
  
 The following legend is applicable only to US Government
 contracts under FAR:
  
                    RESTRICTED RIGHTS LEGEND
  
 Use, reproduction and disclosure by the US Government is
 subject to restrictions as set forth in subparagraphs (a)
 and (c) of the Commercial Computer Software - Restricted
 Rights clause in FAR 52.227-19.
  
 Gaussian, Inc.
 340 Quinnipiac St., Bldg. 40, Wallingford CT 06492
  
  
 ---------------------------------------------------------------
 Warning -- This program may not be used in any manner that
 competes with the business of Gaussian, Inc. or will provide
 assistance to any competitor of Gaussian, Inc.  The licensee
 of this program is prohibited from giving any competitor of
 Gaussian, Inc. access to this program.  By using this program,
 the user acknowledges that Gaussian, Inc. is engaged in the
 business of creating and licensing software in the field of
 computational chemistry and represents and warrants to the
 licensee that it is not a competitor of Gaussian, Inc. and that
 it will not use this program in any manner prohibited above.
 ---------------------------------------------------------------
  

 Cite this work as:
 Gaussian 16, Revision B.01,
 M. J. Frisch, G. W. Trucks, H. B. Schlegel, G. E. Scuseria, 
 M. A. Robb, J. R. Cheeseman, G. Scalmani, V. Barone, 
 G. A. Petersson, H. Nakatsuji, X. Li, M. Caricato, A. V. Marenich, 
 J. Bloino, B. G. Janesko, R. Gomperts, B. Mennucci, H. P. Hratchian, 
 J. V. Ortiz, A. F. Izmaylov, J. L. Sonnenberg, D. Williams-Young, 
 F. Ding, F. Lipparini, F. Egidi, J. Goings, B. Peng, A. Petrone, 
 T. Henderson, D. Ranasinghe, V. G. Zakrzewski, J. Gao, N. Rega, 
 G. Zheng, W. Liang, M. Hada, M. Ehara, K. Toyota, R. Fukuda, 
 J. Hasegawa, M. Ishida, T. Nakajima, Y. Honda, O. Kitao, H. Nakai, 
 T. Vreven, K. Throssell, J. A. Montgomery, Jr., J. E. Peralta, 
 F. Ogliaro, M. J. Bearpark, J. J. Heyd, E. N. Brothers, K. N. Kudin, 
 V. N. Staroverov, T. A. Keith, R. Kobayashi, J. Normand, 
 K. Raghavachari, A. P. Rendell, J. C. Burant, S. S. Iyengar, 
 J. Tomasi, M. Cossi, J. M. Millam, M. Klene, C. Adamo, R. Cammi, 
 J. W. Ochterski, R. L. Martin, K. Morokuma, O. Farkas, 
 J. B. Foresman, and D. J. Fox, Gaussian, Inc., Wallingford CT, 2016.
 
 ******************************************
 Gaussian 16:  ES64L-G16RevB.01 20-Dec-2017
                 2-Nov-2021 
 ******************************************
 %NProcShared=40
 Will use up to   40 processors via shared memory.
 %mem=18GB
 %chk=R-pTol-SDP_1_SPE_NoPd.chk
 ----------------------------------------------------------------------
 # PBE1PBE/def2TZVP int=(grid=ultrafine) empiricaldispersion=GD3BJ nmr=
 giao
 ----------------------------------------------------------------------
 1/38=1,172=1/1;
 2/12=2,17=6,18=5,40=1/2;
 3/5=44,7=101,11=2,25=1,30=1,74=-13,75=-5,124=41/1,2,3,8;
 4//1;
 5/5=2,38=5/2;
 8/6=1,10=90,11=11/1;
 10/13=100,45=16/2;
 6/7=2,8=2,9=2,10=2,28=1/1;
 99/9=1/99;
 -----
 title
 -----
 Symbolic Z-matrix:
 Charge =  0 Multiplicity = 1
 P                     0.71058   1.07859  -0.30383 
 C                     1.53305   0.61568  -1.8798 
 C                     1.61189  -0.72114  -2.31 
 C                     2.39376  -1.05732  -3.4238 
 C                     3.11257  -0.07808  -4.13005 
 C                     3.03392   1.25576  -3.68154 
 C                     2.25645   1.60492  -2.57541 
 H                     2.19122   2.6486   -2.25777 
 H                     3.58406   2.03734  -4.21797 
 C                     3.92968  -0.43564  -5.34831 
 H                     3.40919  -0.13588  -6.27678 
 H                     4.11518  -1.52079  -5.40838 
 H                     4.90529   0.08067  -5.34606 
 H                     2.44313  -2.10278  -3.74991 
 H                     1.05915  -1.50389  -1.78161 
 C                     2.19988   1.12612   0.76969 
 C                     3.15896   0.09453   0.75592 
 C                     4.32993   0.21317   1.51081 
 C                     4.5928    1.37182   2.26735 
 C                     3.66141   2.42495   2.21573 
 C                     2.48052   2.30796   1.47719 
 H                     1.76222   3.13354   1.44157 
 H                     3.85819   3.34747   2.77302 
 C                     5.83092   1.47899   3.12317 
 H                     6.25634   2.49658   3.09667 
 H                     6.6119    0.77007   2.80238 
 H                     5.5946    1.25535   4.18104 
 H                     5.06457  -0.60045   1.49926 
 H                     3.00393  -0.78928   0.12884 
 C                    -0.49433  -0.28772  -0.00239 
 C                    -0.84935  -0.89909   1.21792 
 C                    -1.96183  -1.77387   1.25776 
 C                    -2.7437   -2.01749   0.12773 
 C                    -2.42164  -1.37117  -1.07431 
 C                    -1.31978  -0.51444  -1.13613 
 H                    -1.10925   0.02178  -2.06751 
 H                    -3.03832  -1.51802  -1.96656 
 H                    -3.60996  -2.68538   0.18881 
 C                    -2.1489   -2.369     2.63418 
 H                    -3.20554  -2.35758   2.95447 
 C                    -1.25979  -1.48529   3.52797 
 H                    -0.79771  -2.03152   4.367 
 H                    -1.86175  -0.67061   3.95248 
 C                    -0.1644   -0.88306   2.57885 
 C                     0.39705   0.38856   3.23087 
 C                     1.50558   0.01144   4.02707 
 C                     2.12408   0.90492   4.90501 
 C                     1.63096   2.20988   4.9966 
 C                     0.56861   2.6141    4.18096 
 C                    -0.06897   1.73205   3.27442 
 P                    -1.29259   2.51501   2.09728 
 C                    -2.85473   1.59584   2.35112 
 C                    -3.66777   1.27996   1.2474 
 C                    -4.85881   0.57293   1.4355 
 C                    -5.28192   0.1789    2.71955 
 C                    -4.46713   0.50858   3.81933 
 C                    -3.26413   1.20344   3.64106 
 H                    -2.62996   1.42372   4.50729 
 H                    -4.77367   0.20769   4.82793 
 C                    -6.5827   -0.56411   2.91006 
 H                    -6.73356  -1.32073   2.12092 
 H                    -6.62142  -1.07304   3.88742 
 H                    -7.44477   0.12675   2.86209 
 H                    -5.47301   0.31974   0.56403 
 H                    -3.35958   1.59413   0.24625 
 C                    -1.53476   4.18414   2.83119 
 C                    -2.46186   4.44846   3.85157 
 C                    -2.54695   5.73085   4.40991 
 C                    -1.71296   6.77453   3.97334 
 C                    -0.78697   6.49855   2.94728 
 C                    -0.70475   5.22808   2.3747 
 H                    -0.01601   5.04198   1.54291 
 H                    -0.13772   7.29982   2.57604 
 C                    -1.82978   8.16275   4.55543 
 H                    -2.40464   8.82587   3.88264 
 H                    -2.34675   8.15227   5.52921 
 H                    -0.83877   8.62772   4.69627 
 H                    -3.28439   5.92577   5.19723 
 H                    -3.13743   3.66355   4.20187 
 H                     0.23536   3.65181   4.23936 
 H                     2.08667   2.93033   5.6836 
 H                     2.98102   0.58293   5.50781 
 C                     1.88944  -1.43613   3.8132 
 H                     2.97622  -1.55327   3.65469 
 C                     1.067    -1.84259   2.57691 
 H                     0.74683  -2.89799   2.58525 
 H                     1.65529  -1.6792    1.66157 
 H                     1.62655  -2.04645   4.69886 
 H                    -1.81952  -3.4266    2.64546 
 
 Stoichiometry    C45H42P2
 Framework group  C1[X(C45H42P2)]
 Deg. of freedom   261
 Full point group                 C1      NOp   1
 Largest Abelian subgroup         C1      NOp   1
 Largest concise Abelian subgroup C1      NOp   1
                         Standard orientation:                         
 ---------------------------------------------------------------------
 Center     Atomic      Atomic             Coordinates (Angstroms)
 Number     Number       Type             X           Y           Z
 ---------------------------------------------------------------------
      1         15           0       -1.719933    0.093087   -1.041079
      2          6           0       -3.444782    0.341387   -1.622179
      3          6           0       -4.277817    1.331042   -1.069898
      4          6           0       -5.636249    1.379201   -1.412251
      5          6           0       -6.194749    0.448694   -2.304786
      6          6           0       -5.351460   -0.544639   -2.842047
      7          6           0       -3.995887   -0.602234   -2.511916
      8          1           0       -3.354494   -1.366879   -2.957282
      9          1           0       -5.764102   -1.279942   -3.542286
     10          6           0       -7.650911    0.519796   -2.697495
     11          1           0       -7.767737    0.944666   -3.711727
     12          1           0       -8.227674    1.154212   -2.004367
     13          1           0       -8.114268   -0.481923   -2.713615
     14          1           0       -6.272896    2.158190   -0.976797
     15          1           0       -3.868911    2.071322   -0.375495
     16          6           0       -2.036418   -1.257290    0.162685
     17          6           0       -3.088088   -1.188212    1.097256
     18          6           0       -3.362052   -2.278175    1.929143
     19          6           0       -2.623310   -3.473183    1.828468
     20          6           0       -1.623322   -3.555448    0.842316
     21          6           0       -1.331733   -2.464994    0.017993
     22          1           0       -0.552788   -2.538836   -0.747904
     23          1           0       -1.054989   -4.484858    0.726003
     24          6           0       -2.883695   -4.630750    2.760709
     25          1           0       -2.801259   -5.599246    2.238807
     26          1           0       -3.884819   -4.569543    3.218335
     27          1           0       -2.143454   -4.643344    3.583407
     28          1           0       -4.177173   -2.208968    2.658932
     29          1           0       -3.713875   -0.291698    1.152500
     30          6           0       -1.233852    1.734152   -0.348181
     31          6           0       -0.458636    2.015291    0.795923
     32          6           0       -0.012532    3.339562    1.023394
     33          6           0       -0.285839    4.370082    0.122844
     34          6           0       -1.013908    4.081481   -1.040340
     35          6           0       -1.473507    2.783272   -1.275567
     36          1           0       -1.997700    2.561471   -2.211169
     37          1           0       -1.212832    4.863694   -1.779622
     38          1           0        0.085492    5.383042    0.313172
     39          6           0        0.753169    3.450336    2.321515
     40          1           0        1.675245    4.048061    2.213271
     41          6           0        1.048977    1.984203    2.686571
     42          1           0        1.055308    1.793414    3.772581
     43          1           0        2.034231    1.700200    2.293018
     44          6           0       -0.061104    1.134042    1.973589
     45          6           0        0.452523   -0.304795    1.820867
     46          6           0        0.058081   -1.027918    2.972595
     47          6           0        0.531085   -2.315826    3.235629
     48          6           0        1.419916   -2.904961    2.331539
     49          6           0        1.781148   -2.225115    1.163396
     50          6           0        1.307441   -0.923585    0.866789
     51         15           0        1.694915   -0.284420   -0.847053
     52          6           0        2.563509    1.304113   -0.579288
     53          6           0        2.300371    2.396594   -1.425597
     54          6           0        2.956836    3.613646   -1.221450
     55          6           0        3.901050    3.772564   -0.188844
     56          6           0        4.165796    2.670712    0.646571
     57          6           0        3.502760    1.451001    0.460792
     58          1           0        3.701428    0.615029    1.141045
     59          1           0        4.893250    2.772493    1.460344
     60          6           0        4.619733    5.086419    0.005215
     61          1           0        3.937653    5.942848   -0.133665
     62          1           0        5.066756    5.161298    1.010346
     63          1           0        5.437071    5.203811   -0.730271
     64          1           0        2.728800    4.460356   -1.878635
     65          1           0        1.581536    2.282394   -2.241824
     66          6           0        2.956192   -1.484396   -1.440768
     67          6           0        4.326982   -1.358484   -1.165732
     68          6           0        5.224095   -2.345922   -1.594283
     69          6           0        4.781634   -3.479139   -2.298157
     70          6           0        3.403591   -3.594631   -2.570316
     71          6           0        2.504002   -2.609076   -2.160301
     72          1           0        1.443179   -2.687132   -2.423804
     73          1           0        3.035135   -4.459621   -3.133705
     74          6           0        5.755500   -4.524826   -2.785770
     75          1           0        5.974672   -4.389300   -3.861144
     76          1           0        6.714302   -4.470335   -2.244150
     77          1           0        5.349303   -5.544018   -2.665840
     78          1           0        6.293331   -2.227920   -1.383321
     79          1           0        4.706338   -0.480746   -0.635772
     80          1           0        2.438952   -2.728372    0.452534
     81          1           0        1.817328   -3.908465    2.515225
     82          1           0        0.206591   -2.850215    4.135921
     83          6           0       -0.887877   -0.231646    3.844183
     84          1           0       -1.768908   -0.826654    4.143649
     85          6           0       -1.262507    0.969209    2.956692
     86          1           0       -1.442114    1.898983    3.522131
     87          1           0       -2.174681    0.745252    2.383625
     88          1           0       -0.385149    0.089424    4.777013
     89          1           0        0.134230    3.948506    3.093443
 ---------------------------------------------------------------------
 Rotational constants (GHZ):           0.0803724           0.0570185           0.0472891
 Standard basis: def2TZVP (5D, 7F)
 There are  1956 symmetry adapted cartesian basis functions of A   symmetry.
 There are  1721 symmetry adapted basis functions of A   symmetry.
  1721 basis functions,  2769 primitive gaussians,  1956 cartesian basis functions
   171 alpha electrons      171 beta electrons
       nuclear repulsion energy      6449.1850980412 Hartrees.
 NAtoms=   89 NActive=   89 NUniq=   89 SFac= 1.00D+00 NAtFMM=   60 NAOKFM=T Big=T
 Integral buffers will be    131072 words long.
 Raffenetti 2 integral format.
 Two-electron integral symmetry is turned on.
 Nuclear repulsion after empirical dispersion term =     6449.0353924516 Hartrees.
 One-electron integrals computed using PRISM.
   1 Symmetry operations used in ECPInt.
 ECPInt:  NShTT=  237705 NPrTT=  729009 LenC2=  181378 LenP2D=  366493.
 LDataN:  DoStor=T MaxTD1= 6 Len=  172
 Number of processors reduced to  22 by ecpmxn.
 NBasis=  1721 RedAO= T EigKep=  3.20D-06  NBF=  1721
 NBsUse=  1721 1.00D-06 EigRej= -1.00D+00 NBFU=  1721
 ExpMin= 9.04D-02 ExpMax= 5.24D+04 ExpMxC= 1.79D+03 IAcc=3 IRadAn=         5 AccDes= 0.00D+00
 Harris functional with IExCor= 1009 and IRadAn=       5 diagonalized for initial guess.
 HarFok:  IExCor= 1009 AccDes= 0.00D+00 IRadAn=         5 IDoV= 1 UseB2=F ITyADJ=14
 ICtDFT=  3500011 ScaDFX=  1.000000  1.000000  1.000000  1.000000
 FoFCou: FMM=F IPFlag=           0 FMFlag=      100000 FMFlg1=        2001
         NFxFlg=           0 DoJE=T BraDBF=F KetDBF=T FulRan=T
         wScrn=  0.000000 ICntrl=       500 IOpCl=  0 I1Cent=   200000004 NGrid=           0
         NMat0=    1 NMatS0=      1 NMatT0=    0 NMatD0=    1 NMtDS0=    0 NMtDT0=    0
 Petite list used in FoFCou.
 Requested convergence on RMS density matrix=1.00D-08 within 128 cycles.
 Requested convergence on MAX density matrix=1.00D-06.
 Requested convergence on             energy=1.00D-06.
 No special actions if energy rises.
 Integral accuracy reduced to 1.0D-05 until final iterations.
 Problem detected with inexpensive integrals.
 Switching to full accuracy and repeating last cycle.
 SCF Done:  E(RPBE1PBE) =  -2421.21326142     A.U. after   15 cycles
            NFock= 15  Conv=0.72D-08     -V/T= 2.0050
 DoSCS=F DFT=T ScalE2(SS,OS)=  1.000000  1.000000
 Range of M.O.s used for correlation:     1  1721
 NBasis=  1721 NAE=   171 NBE=   171 NFC=     0 NFV=     0
 NROrb=   1721 NOA=   171 NOB=   171 NVA=  1550 NVB=  1550

 **** Warning!!: The largest alpha MO coefficient is  0.47742138D+02

          Differentiating once with respect to magnetic field using GIAOs.
          Electric field/nuclear overlap derivatives assumed to be zero.
 FoFCou: FMM=F IPFlag=           0 FMFlag=      100000 FMFlg1=        2001
         NFxFlg=           0 DoJE=F BraDBF=F KetDBF=T FulRan=T
         wScrn=  0.000000 ICntrl=      6100 IOpCl=  0 I1Cent=           7 NGrid=          89
         NMat0=    1 NMatS0=      1 NMatT0=    0 NMatD0=    1 NMtDS0=    0 NMtDT0=    0
 Symmetry not used in FoFCou.
   1 Symmetry operations used in ECPInt.
 ECPInt:  NShTT=  237705 NPrTT=  729009 LenC2=  237706 LenP2D=  729009.
 LDataN:  DoStor=T MaxTD1= 7 Len=  274
 Number of processors reduced to  14 by ecpmxn.
 FoFJK:  IHMeth= 1 ICntrl=    6127 DoSepK=F KAlg= 0 I1Cent=           0 FoldK=F
 IRaf=         1 NMat=       1 IRICut=       1 DoRegI=T DoRafI=F ISym2E= 0 IDoP0=0 IntGTp=1.
          There are     3 degrees of freedom in the 1st order CPHF.  IDoFFX=0 NUNeed=     3.
      3 vectors produced by pass  0 Test12= 8.83D-12 3.33D-08 XBig12= 2.16D+02 1.52D+00.
 AX will form     3 AO Fock derivatives at one time.
      3 vectors produced by pass  1 Test12= 8.83D-12 3.33D-08 XBig12= 8.60D-01 1.60D-01.
      3 vectors produced by pass  2 Test12= 8.83D-12 3.33D-08 XBig12= 4.36D-03 8.59D-03.
      3 vectors produced by pass  3 Test12= 8.83D-12 3.33D-08 XBig12= 1.33D-05 7.80D-04.
      3 vectors produced by pass  4 Test12= 8.83D-12 3.33D-08 XBig12= 5.95D-08 9.35D-05.
      3 vectors produced by pass  5 Test12= 8.83D-12 3.33D-08 XBig12= 4.43D-10 8.95D-06.
      3 vectors produced by pass  6 Test12= 8.83D-12 3.33D-08 XBig12= 2.52D-12 5.41D-07.
 InvSVY:  IOpt=1 It=  1 EMax= 1.78D-15
 Solved reduced A of dimension    21 with     3 vectors.
 Calculating GIAO nuclear magnetic shielding tensors.
 SCF GIAO Magnetic shielding tensor (ppm):
      1  P    Isotropic =   289.2545   Anisotropy =    90.4186
   XX=   267.6311   YX=   -28.0989   ZX=     5.1830
   XY=    14.4694   YY=   291.6077   ZY=    24.2398
   XZ=    -5.6160   YZ=    72.7229   ZZ=   308.5247
   Eigenvalues:   249.4207   268.8093   349.5336
      2  C    Isotropic =    34.7899   Anisotropy =   210.0622
   XX=   -34.6715   YX=    33.9019   ZX=   -45.2435
   XY=    22.4487   YY=    61.4847   ZY=   -84.8850
   XZ=   -37.6110   YZ=  -101.5546   ZZ=    77.5565
   Eigenvalues:   -48.4419   -22.0197   174.8314
      3  C    Isotropic =    44.8967   Anisotropy =   184.7910
   XX=    31.2653   YX=    -2.6210   ZX=   -41.5619
   XY=     2.7511   YY=    37.8633   ZY=   -94.5965
   XZ=   -60.8647   YZ=  -113.7371   ZZ=    65.5613
   Eigenvalues:   -65.9153    32.5146   168.0906
      4  C    Isotropic =    50.9477   Anisotropy =   160.1569
   XX=    21.3168   YX=    57.9947   ZX=     9.7979
   XY=    61.4932   YY=    41.6786   ZY=   -74.8908
   XZ=     3.0033   YZ=   -86.5722   ZZ=    89.8478
   Eigenvalues:   -55.5073    50.6314   157.7190
      5  C    Isotropic =    41.9926   Anisotropy =   197.4702
   XX=   -48.9844   YX=    25.0877   ZX=   -44.6039
   XY=    19.9114   YY=    69.7033   ZY=   -75.8811
   XZ=   -36.5766   YZ=   -73.3862   ZZ=   105.2589
   Eigenvalues:   -59.1787    11.5171   173.6394
      6  C    Isotropic =    50.8854   Anisotropy =   168.5413
   XX=    37.6228   YX=    -7.7977   ZX=   -40.8585
   XY=    -8.6708   YY=    41.0672   ZY=   -98.0182
   XZ=   -50.1973   YZ=   -96.1300   ZZ=    73.9663
   Eigenvalues:   -55.2726    44.6826   163.2463
      7  C    Isotropic =    45.9584   Anisotropy =   180.7080
   XX=    13.3888   YX=    54.9957   ZX=     5.2372
   XY=    70.9916   YY=    34.5570   ZY=   -82.3826
   XZ=   -11.2110   YZ=   -95.1439   ZZ=    89.9294
   Eigenvalues:   -64.6067    36.0515   166.4304
      8  H    Isotropic =    23.9120   Anisotropy =    11.1805
   XX=    26.0365   YX=     0.8916   ZX=     6.1020
   XY=     1.3123   YY=    20.0556   ZY=     2.0711
   XZ=     4.1674   YZ=     1.6646   ZZ=    25.6438
   Eigenvalues:    19.4152    20.9551    31.3656
      9  H    Isotropic =    24.1947   Anisotropy =     7.5526
   XX=    28.2836   YX=    -2.9123   ZX=     1.1673
   XY=    -1.8725   YY=    22.4348   ZY=     1.5295
   XZ=     1.2106   YZ=     0.2978   ZZ=    21.8658
   Eigenvalues:    20.4210    22.9335    29.2298
     10  C    Isotropic =   163.0742   Anisotropy =    41.1087
   XX=   187.9276   YX=    -4.1666   ZX=     5.8303
   XY=    -5.6399   YY=   151.6155   ZY=     6.8915
   XZ=    13.3858   YZ=     6.6632   ZZ=   149.6795
   Eigenvalues:   141.4224   157.3202   190.4800
     11  H    Isotropic =    28.8971   Anisotropy =     9.4424
   XX=    29.0245   YX=    -1.4806   ZX=     3.5393
   XY=    -2.5228   YY=    26.0763   ZY=    -2.0675
   XZ=     4.1932   YZ=    -1.7389   ZZ=    31.5904
   Eigenvalues:    25.0637    26.4354    35.1920
     12  H    Isotropic =    29.3576   Anisotropy =     7.4805
   XX=    32.7619   YX=    -3.4398   ZX=    -1.5116
   XY=    -1.2275   YY=    27.5912   ZY=     3.5408
   XZ=    -0.2730   YZ=     2.8345   ZZ=    27.7198
   Eigenvalues:    24.3251    29.4031    34.3446
     13  H    Isotropic =    29.0866   Anisotropy =     8.2800
   XX=    32.0648   YX=     3.3335   ZX=     1.8736
   XY=     2.5271   YY=    30.5710   ZY=     1.5380
   XZ=     0.2578   YZ=     1.0127   ZZ=    24.6241
   Eigenvalues:    24.3292    28.3240    34.6067
     14  H    Isotropic =    24.1321   Anisotropy =     8.3709
   XX=    27.9631   YX=     1.2420   ZX=     3.7048
   XY=     0.6174   YY=    22.0786   ZY=     1.3748
   XZ=     2.8721   YZ=     0.9294   ZZ=    22.3545
   Eigenvalues:    20.5205    22.1631    29.7127
     15  H    Isotropic =    23.1478   Anisotropy =    13.5354
   XX=    31.8093   YX=    -0.9259   ZX=     1.9429
   XY=    -2.8109   YY=    20.3789   ZY=    -0.3863
   XZ=    -0.4409   YZ=    -2.5867   ZZ=    17.2552
   Eigenvalues:    16.6608    20.6111    32.1714
     16  C    Isotropic =    41.5423   Anisotropy =   204.4978
   XX=    80.8069   YX=    33.7912   ZX=    81.8146
   XY=    33.8000   YY=   -12.6896   ZY=    59.4824
   XZ=    93.5696   YZ=    53.0622   ZZ=    56.5096
   Eigenvalues:   -46.9276    -6.3197   177.8742
     17  C    Isotropic =    40.8568   Anisotropy =   195.5927
   XX=    50.8004   YX=    73.4690   ZX=    69.9414
   XY=    73.1772   YY=   -20.0994   ZY=    43.4171
   XZ=    65.7160   YZ=    29.4744   ZZ=    91.8694
   Eigenvalues:   -66.3115    17.6300   171.2519
     18  C    Isotropic =    54.1419   Anisotropy =   160.6014
   XX=    44.1009   YX=    32.2629   ZX=    95.9221
   XY=    34.1024   YY=    66.3663   ZY=    18.2035
   XZ=    99.1522   YZ=    24.3709   ZZ=    51.9585
   Eigenvalues:   -50.3589    51.5751   161.2095
     19  C    Isotropic =    42.0878   Anisotropy =   202.0601
   XX=    82.9775   YX=    28.5827   ZX=    81.9443
   XY=    32.4781   YY=   -13.4514   ZY=    70.2289
   XZ=    80.5656   YZ=    66.1824   ZZ=    56.7372
   Eigenvalues:   -57.8638     7.3326   176.7945
     20  C    Isotropic =    50.5471   Anisotropy =   175.7417
   XX=    76.0682   YX=    78.1384   ZX=    55.7647
   XY=    68.5693   YY=   -11.9596   ZY=    20.5778
   XZ=    64.3803   YZ=    23.7416   ZZ=    87.5326
   Eigenvalues:   -54.3872    38.3203   167.7082
     21  C    Isotropic =    42.3266   Anisotropy =   188.5813
   XX=    42.8279   YX=    37.8319   ZX=   112.4012
   XY=    34.6815   YY=    40.3717   ZY=    24.3753
   XZ=   109.1416   YZ=    22.4570   ZZ=    43.7801
   Eigenvalues:   -68.3037    27.2360   168.0475
     22  H    Isotropic =    23.7751   Anisotropy =     5.0517
   XX=    22.9192   YX=     0.6253   ZX=     3.8368
   XY=     0.5553   YY=    26.8071   ZY=     1.5558
   XZ=     0.9935   YZ=    -0.1772   ZZ=    21.5991
   Eigenvalues:    19.7502    24.4323    27.1429
     23  H    Isotropic =    24.9061   Anisotropy =     7.4114
   XX=    24.0146   YX=     4.4756   ZX=    -1.7480
   XY=     3.0022   YY=    25.6517   ZY=    -1.7646
   XZ=    -2.9539   YZ=    -0.4823   ZZ=    25.0519
   Eigenvalues:    20.6623    24.2089    29.8470
     24  C    Isotropic =   162.9175   Anisotropy =    40.9281
   XX=   152.7339   YX=     0.8594   ZX=    -9.0428
   XY=     5.3160   YY=   173.6549   ZY=   -16.9203
   XZ=   -13.9879   YZ=   -20.9781   ZZ=   162.3637
   Eigenvalues:   142.0297   156.5200   190.2029
     25  H    Isotropic =    29.2585   Anisotropy =     9.0057
   XX=    26.1198   YX=     2.4945   ZX=    -2.5379
   XY=     0.2854   YY=    35.0190   ZY=     1.0614
   XZ=    -1.4077   YZ=     0.5629   ZZ=    26.6368
   Eigenvalues:    24.1582    28.3551    35.2623
     26  H    Isotropic =    29.4908   Anisotropy =     8.8636
   XX=    32.0188   YX=     0.5710   ZX=    -4.2896
   XY=     1.7683   YY=    29.2407   ZY=    -3.2864
   XZ=    -4.3583   YZ=    -1.5428   ZZ=    27.2131
   Eigenvalues:    24.1852    28.8874    35.3999
     27  H    Isotropic =    29.0862   Anisotropy =     6.6250
   XX=    28.3257   YX=     0.2727   ZX=     1.5533
   XY=     0.2476   YY=    28.0483   ZY=    -2.9806
   XZ=     2.2112   YZ=    -3.6967   ZZ=    30.8845
   Eigenvalues:    25.2743    28.4815    33.5029
     28  H    Isotropic =    24.6996   Anisotropy =     6.6246
   XX=    24.4339   YX=     0.2565   ZX=    -1.3869
   XY=    -0.0583   YY=    27.4527   ZY=    -3.2796
   XZ=     0.6517   YZ=    -3.4637   ZZ=    22.2123
   Eigenvalues:    20.5412    24.4416    29.1160
     29  H    Isotropic =    24.1442   Anisotropy =     9.1018
   XX=    24.7806   YX=     1.8945   ZX=    -1.9412
   XY=     2.3669   YY=    20.8703   ZY=    -6.3146
   XZ=     0.7535   YZ=    -3.9201   ZZ=    26.7818
   Eigenvalues:    17.5740    24.6467    30.2121
     30  C    Isotropic =    41.2414   Anisotropy =   179.4126
   XX=   108.6198   YX=   -37.3518   ZX=   -75.8304
   XY=   -45.4708   YY=   -23.2299   ZY=     4.1564
   XZ=   -65.3303   YZ=    12.0545   ZZ=    38.3344
   Eigenvalues:   -38.1837     1.0581   160.8498
     31  C    Isotropic =    28.9267   Anisotropy =   181.6767
   XX=   110.6357   YX=    -4.4063   ZX=   -64.9261
   XY=   -10.2623   YY=   -30.0281   ZY=    44.4922
   XZ=   -76.9646   YZ=    36.5570   ZZ=     6.1726
   Eigenvalues:   -64.2209     0.9566   150.0445
     32  C    Isotropic =    31.8926   Anisotropy =   174.0956
   XX=    84.8196   YX=   -46.2916   ZX=   -88.9705
   XY=   -35.6518   YY=    19.3613   ZY=    -7.5074
   XZ=   -86.0288   YZ=    13.7815   ZZ=    -8.5030
   Eigenvalues:   -65.3395    13.0610   147.9564
     33  C    Isotropic =    56.5453   Anisotropy =   171.0581
   XX=   126.6710   YX=   -52.0904   ZX=   -53.7852
   XY=   -54.5507   YY=   -22.4097   ZY=    -7.8325
   XZ=   -58.5763   YZ=     2.1675   ZZ=    65.3745
   Eigenvalues:   -43.7001    42.7519   170.5840
     34  C    Isotropic =    55.0829   Anisotropy =   179.6130
   XX=   139.3812   YX=   -12.5201   ZX=   -59.3738
   XY=   -11.1081   YY=     0.9489   ZY=    60.2254
   XZ=   -66.8824   YZ=    57.2854   ZZ=    24.9187
   Eigenvalues:   -52.7109    43.1348   174.8249
     35  C    Isotropic =    48.8356   Anisotropy =   181.8249
   XX=   117.8792   YX=   -37.5805   ZX=   -86.1057
   XY=   -24.8656   YY=    36.8126   ZY=     4.2695
   XZ=   -94.2044   YZ=   -10.7536   ZZ=    -8.1851
   Eigenvalues:   -58.4062    34.8607   170.0522
     36  H    Isotropic =    23.4725   Anisotropy =    10.5032
   XX=    22.7692   YX=     2.7338   ZX=     0.5355
   XY=     3.1436   YY=    28.5174   ZY=    -2.2083
   XZ=    -1.4052   YZ=    -3.6139   ZZ=    19.1308
   Eigenvalues:    18.2610    21.6817    30.4746
     37  H    Isotropic =    24.1267   Anisotropy =     4.1210
   XX=    23.7052   YX=     1.1675   ZX=     2.8405
   XY=     1.1998   YY=    26.0907   ZY=     0.4565
   XZ=     1.4146   YZ=    -0.0697   ZZ=    22.5842
   Eigenvalues:    20.8792    24.6268    26.8741
     38  H    Isotropic =    24.5575   Anisotropy =     4.3333
   XX=    23.6434   YX=    -1.9324   ZX=     2.3011
   XY=    -1.0626   YY=    25.2741   ZY=    -1.4513
   XZ=     1.0763   YZ=    -0.7244   ZZ=    24.7551
   Eigenvalues:    22.2688    23.9574    27.4464
     39  C    Isotropic =   153.2833   Anisotropy =    28.6310
   XX=   142.9455   YX=    -2.8966   ZX=    15.8873
   XY=     0.1218   YY=   156.9676   ZY=    -5.6268
   XZ=    18.6994   YZ=    -4.5449   ZZ=   159.9366
   Eigenvalues:   132.0793   155.3998   172.3706
     40  H    Isotropic =    29.6397   Anisotropy =     7.3973
   XX=    30.8386   YX=     3.9630   ZX=    -1.8546
   XY=     3.2720   YY=    31.0492   ZY=     0.0592
   XZ=    -1.0471   YZ=     2.0830   ZZ=    27.0312
   Eigenvalues:    25.3816    28.9663    34.5712
     41  C    Isotropic =   145.2916   Anisotropy =    40.1170
   XX=   143.3645   YX=    12.0225   ZX=    18.2253
   XY=    11.4607   YY=   162.0293   ZY=    -0.3796
   XZ=    12.1626   YZ=    14.3301   ZZ=   130.4811
   Eigenvalues:   120.4073   143.4312   172.0363
     42  H    Isotropic =    29.9569   Anisotropy =     6.2752
   XX=    26.7924   YX=     4.8383   ZX=     2.0292
   XY=     1.7878   YY=    29.4028   ZY=    -0.5099
   XZ=     1.1560   YZ=     0.3202   ZZ=    33.6754
   Eigenvalues:    24.3339    31.3964    34.1403
     43  H    Isotropic =    29.7177   Anisotropy =    10.7728
   XX=    34.3102   YX=     3.8876   ZX=    -6.0034
   XY=    -0.3312   YY=    27.2017   ZY=     2.3699
   XZ=    -3.7194   YZ=     2.1977   ZZ=    27.6411
   Eigenvalues:    23.0947    29.1588    36.8995
     44  C    Isotropic =   116.5444   Anisotropy =    38.4563
   XX=   100.0537   YX=    13.5114   ZX=    -4.8482
   XY=    -7.4039   YY=   136.9772   ZY=   -14.8867
   XZ=     4.4140   YZ=    -9.3636   ZZ=   112.6023
   Eigenvalues:    99.7356   107.7157   142.1819
     45  C    Isotropic =    24.6603   Anisotropy =   185.0781
   XX=    87.4363   YX=    73.1063   ZX=    53.7300
   XY=    63.7807   YY=   -34.6885   ZY=    19.9377
   XZ=    53.4595   YZ=    42.0418   ZZ=    21.2332
   Eigenvalues:   -65.9587    -8.1060   148.0457
     46  C    Isotropic =    34.9100   Anisotropy =   172.6474
   XX=    65.8583   YX=    47.1874   ZX=    91.2524
   XY=    55.0513   YY=    17.0537   ZY=    14.9706
   XZ=    90.3939   YZ=   -14.4331   ZZ=    21.8180
   Eigenvalues:   -63.2645    17.9862   150.0083
     47  C    Isotropic =    56.4139   Anisotropy =   172.8476
   XX=   115.0754   YX=    22.6655   ZX=    68.5033
   XY=    24.1734   YY=    39.8391   ZY=    63.6056
   XZ=    75.4129   YZ=    56.0722   ZZ=    14.3274
   Eigenvalues:   -46.9398    44.5359   171.6457
     48  C    Isotropic =    54.2086   Anisotropy =   180.0655
   XX=   111.1769   YX=    72.8331   ZX=    41.4520
   XY=    74.7713   YY=   -18.7564   ZY=    38.7688
   XZ=    41.4121   YZ=    45.3219   ZZ=    70.2053
   Eigenvalues:   -56.1711    44.5447   174.2523
     49  C    Isotropic =    46.6518   Anisotropy =   189.2150
   XX=    85.6440   YX=    69.0372   ZX=    90.9171
   XY=    74.3645   YY=    26.3595   ZY=    -2.8520
   XZ=    84.2362   YZ=    -0.2488   ZZ=    27.9517
   Eigenvalues:   -61.3634    28.5236   172.7951
     50  C    Isotropic =    37.9233   Anisotropy =   190.5987
   XX=    99.4814   YX=    43.3892   ZX=    77.9518
   XY=    53.6215   YY=     6.0908   ZY=    48.2647
   XZ=    67.6371   YZ=    37.1624   ZZ=     8.1979
   Eigenvalues:   -40.1047   -11.1144   164.9892
     51  P    Isotropic =   298.8500   Anisotropy =    48.6122
   XX=   293.2825   YX=     3.5581   ZX=    39.6297
   XY=     0.4210   YY=   284.0243   ZY=    -6.4872
   XZ=    -2.4113   YZ=   -18.8275   ZZ=   319.2432
   Eigenvalues:   275.1562   290.1357   331.2581
     52  C    Isotropic =    45.9363   Anisotropy =   202.9966
   XX=    90.3115   YX=   -58.2910   ZX=   -83.9113
   XY=   -59.0982   YY=   -19.5012   ZY=    23.6626
   XZ=   -82.3115   YZ=    27.0964   ZZ=    66.9984
   Eigenvalues:   -46.3915     2.9330   181.2673
     53  C    Isotropic =    43.4023   Anisotropy =   188.5007
   XX=    63.3032   YX=   -28.4005   ZX=  -116.0961
   XY=   -35.7220   YY=    41.3252   ZY=    17.9723
   XZ=  -111.6131   YZ=    12.4036   ZZ=    25.5784
   Eigenvalues:   -71.7412    32.8786   169.0694
     54  C    Isotropic =    50.0676   Anisotropy =   174.4513
   XX=   104.2199   YX=   -12.2833   ZX=   -68.2325
   XY=   -12.7371   YY=    -5.7281   ZY=    64.1454
   XZ=   -67.9789   YZ=    73.2042   ZZ=    51.7109
   Eigenvalues:   -56.9794    40.8136   166.3685
     55  C    Isotropic =    39.4870   Anisotropy =   204.4290
   XX=    82.1567   YX=   -65.8016   ZX=   -79.7416
   XY=   -64.2915   YY=   -32.8382   ZY=    22.2718
   XZ=   -80.6638   YZ=    23.7127   ZZ=    69.1426
   Eigenvalues:   -63.6889     6.3769   175.7731
     56  C    Isotropic =    52.5655   Anisotropy =   161.1781
   XX=    63.4436   YX=   -33.8458   ZX=   -98.2381
   XY=   -29.8828   YY=    59.1488   ZY=    14.2009
   XZ=   -98.6124   YZ=    15.1435   ZZ=    35.1041
   Eigenvalues:   -51.0801    48.7591   160.0176
     57  C    Isotropic =    39.8162   Anisotropy =   191.4899
   XX=   102.6055   YX=    -5.7038   ZX=   -76.0371
   XY=   -19.9550   YY=   -19.9153   ZY=    70.2047
   XZ=   -79.8456   YZ=    64.5315   ZZ=    36.7583
   Eigenvalues:   -72.1278    24.1002   167.4761
     58  H    Isotropic =    23.6214   Anisotropy =    10.4855
   XX=    27.0517   YX=     3.6209   ZX=     0.0364
   XY=     3.7713   YY=    23.5782   ZY=     2.6523
   XZ=     2.9255   YZ=     5.4437   ZZ=    20.2343
   Eigenvalues:    17.4405    22.8119    30.6118
     59  H    Isotropic =    24.1854   Anisotropy =     7.1823
   XX=    24.1300   YX=     2.7403   ZX=     0.1162
   XY=     1.8728   YY=    27.7280   ZY=    -1.7415
   XZ=     0.6050   YZ=    -0.8059   ZZ=    20.6982
   Eigenvalues:    20.2966    23.2860    28.9736
     60  C    Isotropic =   162.9303   Anisotropy =    41.0124
   XX=   158.2217   YX=    20.3133   ZX=    12.1900
   XY=    14.8359   YY=   179.2032   ZY=     4.8681
   XZ=     7.5720   YZ=    -1.3739   ZZ=   151.3660
   Eigenvalues:   141.5630   156.9560   190.2719
     61  H    Isotropic =    28.9782   Anisotropy =     7.2396
   XX=    28.4547   YX=    -0.0717   ZX=     1.6646
   XY=    -1.4465   YY=    33.6413   ZY=    -1.2554
   XZ=     1.6621   YZ=     0.3571   ZZ=    24.8385
   Eigenvalues:    24.1875    28.9423    33.8046
     62  H    Isotropic =    29.2343   Anisotropy =     7.5095
   XX=    28.0314   YX=     2.3109   ZX=     4.0739
   XY=     3.3585   YY=    29.3930   ZY=     1.6196
   XZ=     3.4007   YZ=    -0.0981   ZZ=    30.2786
   Eigenvalues:    24.4805    28.9818    34.2407
     63  H    Isotropic =    28.8280   Anisotropy =    10.3019
   XX=    31.6436   YX=     5.1253   ZX=    -2.7450
   XY=     3.1438   YY=    27.5636   ZY=    -1.5385
   XZ=    -3.1213   YZ=    -2.4040   ZZ=    27.2767
   Eigenvalues:    24.9766    25.8114    35.6959
     64  H    Isotropic =    24.3022   Anisotropy =     7.5058
   XX=    26.3308   YX=     4.2065   ZX=     1.2832
   XY=     3.2542   YY=    24.0630   ZY=     1.3656
   XZ=     0.6535   YZ=     0.0368   ZZ=    22.5130
   Eigenvalues:    21.2978    22.3027    29.3061
     65  H    Isotropic =    24.1494   Anisotropy =     4.9905
   XX=    24.0457   YX=    -0.0720   ZX=    -3.9108
   XY=    -0.0450   YY=    26.7989   ZY=    -1.3408
   XZ=    -2.5988   YZ=    -1.5153   ZZ=    21.6036
   Eigenvalues:    19.1556    25.8162    27.4764
     66  C    Isotropic =    45.2377   Anisotropy =   197.9805
   XX=    -9.8729   YX=    30.6196   ZX=    -6.0184
   XY=    37.0180   YY=    17.5361   ZY=   -94.6254
   XZ=   -12.2467   YZ=   -75.0885   ZZ=   128.0500
   Eigenvalues:   -47.0922     5.5807   177.2247
     67  C    Isotropic =    45.0877   Anisotropy =   193.6285
   XX=    16.0189   YX=   -19.8649   ZX=   -33.6642
   XY=   -19.8643   YY=     8.6197   ZY=   -94.3341
   XZ=   -26.2064   YZ=  -107.4873   ZZ=   110.6245
   Eigenvalues:   -66.4803    27.5700   174.1733
     68  C    Isotropic =    49.5358   Anisotropy =   164.0284
   XX=   -50.2565   YX=    -3.9048   ZX=   -32.1987
   XY=    -6.0276   YY=    77.1662   ZY=   -47.2018
   XZ=   -32.3916   YZ=   -56.8586   ZZ=   121.6978
   Eigenvalues:   -57.7805    47.4999   158.8881
     69  C    Isotropic =    39.3773   Anisotropy =   201.2618
   XX=   -18.6589   YX=    39.9423   ZX=    -4.1641
   XY=    43.5287   YY=    11.5451   ZY=   -87.2709
   XZ=    -6.1836   YZ=   -82.1432   ZZ=   125.2457
   Eigenvalues:   -62.3495     6.9295   173.5519
     70  C    Isotropic =    51.4937   Anisotropy =   167.0725
   XX=    36.4744   YX=   -20.0355   ZX=   -31.4179
   XY=   -17.8771   YY=    13.7977   ZY=   -88.6213
   XZ=   -24.7903   YZ=   -94.9116   ZZ=   104.2089
   Eigenvalues:   -53.9826    45.5882   162.8753
     71  C    Isotropic =    42.7729   Anisotropy =   179.8299
   XX=   -61.3019   YX=     3.4881   ZX=   -38.4962
   XY=    -6.5546   YY=    71.7468   ZY=   -51.0835
   XZ=   -41.6120   YZ=   -66.4256   ZZ=   117.8737
   Eigenvalues:   -71.3440    37.0031   162.6594
     72  H    Isotropic =    23.0968   Anisotropy =    10.2808
   XX=    20.6088   YX=    -2.9177   ZX=    -0.8973
   XY=    -2.4921   YY=    25.3940   ZY=     4.3732
   XZ=    -0.8068   YZ=     5.1033   ZZ=    23.2876
   Eigenvalues:    18.6631    20.6766    29.9507
     73  H    Isotropic =    23.7465   Anisotropy =     7.7817
   XX=    27.1009   YX=    -2.6233   ZX=    -0.3998
   XY=    -3.1984   YY=    23.1171   ZY=     1.4848
   XZ=    -1.3397   YZ=     1.7438   ZZ=    21.0216
   Eigenvalues:    20.0633    22.2420    28.9344
     74  C    Isotropic =   162.8950   Anisotropy =    40.9248
   XX=   172.3803   YX=   -16.7924   ZX=    -2.0607
   XY=   -15.3736   YY=   168.1359   ZY=     9.5677
   XZ=    -7.7037   YZ=    16.5599   ZZ=   148.1689
   Eigenvalues:   141.3776   157.1292   190.1782
     75  H    Isotropic =    28.7862   Anisotropy =     9.2809
   XX=    28.1930   YX=    -2.1237   ZX=    -3.2337
   XY=    -0.8491   YY=    25.8899   ZY=     1.3706
   XZ=    -3.5861   YZ=     3.0021   ZZ=    32.2757
   Eigenvalues:    25.0891    26.2961    34.9735
     76  H    Isotropic =    29.1761   Anisotropy =     7.8505
   XX=    33.2681   YX=    -1.2780   ZX=     2.8033
   XY=    -3.0579   YY=    28.1279   ZY=     1.4825
   XZ=     1.9169   YZ=     2.0550   ZZ=    26.1325
   Eigenvalues:    24.0278    29.0908    34.4098
     77  H    Isotropic =    28.8555   Anisotropy =     8.1012
   XX=    28.3605   YX=    -1.1264   ZX=    -0.7908
   XY=     0.6104   YY=    34.1758   ZY=     1.2048
   XZ=     0.1052   YZ=     0.4457   ZZ=    24.0301
   Eigenvalues:    23.9401    28.3700    34.2562
     78  H    Isotropic =    23.9643   Anisotropy =     8.4703
   XX=    23.5595   YX=    -3.0695   ZX=    -1.3533
   XY=    -1.4039   YY=    26.6848   ZY=     3.1558
   XZ=    -1.1197   YZ=     3.9772   ZZ=    21.6486
   Eigenvalues:    19.7993    22.4825    29.6112
     79  H    Isotropic =    23.6260   Anisotropy =    14.1674
   XX=    28.7213   YX=    -6.6489   ZX=    -1.4968
   XY=    -3.9500   YY=    24.5220   ZY=     1.3471
   XZ=    -2.5386   YZ=     4.7524   ZZ=    17.6346
   Eigenvalues:    16.4783    21.3287    33.0709
     80  H    Isotropic =    25.0717   Anisotropy =    13.3083
   XX=    21.9472   YX=    -0.4964   ZX=    -3.6141
   XY=     1.9402   YY=    24.0992   ZY=    -6.8882
   XZ=    -5.3783   YZ=    -3.5776   ZZ=    29.1687
   Eigenvalues:    18.9537    22.3175    33.9439
     81  H    Isotropic =    24.6251   Anisotropy =     5.1613
   XX=    24.4937   YX=    -1.6083   ZX=    -2.3676
   XY=    -0.3473   YY=    23.0712   ZY=    -1.9152
   XZ=    -2.0627   YZ=    -1.9846   ZZ=    26.3105
   Eigenvalues:    21.0549    24.7545    28.0660
     82  H    Isotropic =    24.8139   Anisotropy =     4.0204
   XX=    24.0899   YX=    -2.9797   ZX=     0.8020
   XY=    -1.7685   YY=    25.7260   ZY=     0.1041
   XZ=     0.2467   YZ=    -0.4924   ZZ=    24.6258
   Eigenvalues:    22.3526    24.5949    27.4942
     83  C    Isotropic =   152.9727   Anisotropy =    29.0196
   XX=   147.0066   YX=   -14.2319   ZX=    -9.1323
   XY=   -15.4452   YY=   162.3366   ZY=    -3.0366
   XZ=   -12.5596   YZ=    -0.0388   ZZ=   149.5750
   Eigenvalues:   132.0354   154.5637   172.3191
     84  H    Isotropic =    29.4247   Anisotropy =     7.4496
   XX=    29.0869   YX=     4.2433   ZX=    -2.4273
   XY=     2.6676   YY=    29.1420   ZY=    -1.4217
   XZ=    -2.1674   YZ=    -1.9242   ZZ=    30.0451
   Eigenvalues:    25.5972    28.2857    34.3910
     85  C    Isotropic =   143.5752   Anisotropy =    42.0057
   XX=   145.7028   YX=     1.0269   ZX=   -19.2411
   XY=     2.7164   YY=   132.6969   ZY=   -10.5000
   XZ=   -14.6169   YZ=   -22.6519   ZZ=   152.3260
   Eigenvalues:   120.8317   138.3150   171.5790
     86  H    Isotropic =    29.6586   Anisotropy =     6.7640
   XX=    27.6810   YX=     0.5633   ZX=    -4.8110
   XY=    -1.4093   YY=    31.3619   ZY=     2.2264
   XZ=    -2.7480   YZ=     2.0340   ZZ=    29.9328
   Eigenvalues:    24.7216    30.0861    34.1679
     87  H    Isotropic =    29.2059   Anisotropy =     7.3356
   XX=    31.8833   YX=     4.9910   ZX=     1.5818
   XY=     1.5402   YY=    26.4858   ZY=    -0.1146
   XZ=     1.8974   YZ=     1.2139   ZZ=    29.2485
   Eigenvalues:    24.9330    28.5884    34.0962
     88  H    Isotropic =    28.8167   Anisotropy =    10.5614
   XX=    23.5482   YX=     1.5313   ZX=     2.6436
   XY=    -0.5810   YY=    27.3968   ZY=     1.1185
   XZ=     0.8685   YZ=     0.6016   ZZ=    35.5051
   Eigenvalues:    23.2658    27.3267    35.8576
     89  H    Isotropic =    28.9066   Anisotropy =    10.6385
   XX=    24.4882   YX=    -1.6495   ZX=    -3.9566
   XY=    -1.6549   YY=    31.2603   ZY=     3.5887
   XZ=    -1.5834   YZ=     4.4776   ZZ=    30.9711
   Eigenvalues:    23.4617    27.2591    35.9989
 End of Minotr F.D. properties file   721 does not exist.
 End of Minotr F.D. properties file   722 does not exist.
 End of Minotr F.D. properties file   788 does not exist.

 **********************************************************************

            Population analysis using the SCF Density.

 **********************************************************************

 Orbital symmetries:
       Occupied  (A) (A) (A) (A) (A) (A) (A) (A) (A) (A) (A) (A)
                 (A) (A) (A) (A) (A) (A) (A) (A) (A) (A) (A) (A)
                 (A) (A) (A) (A) (A) (A) (A) (A) (A) (A) (A) (A)
                 (A) (A) (A) (A) (A) (A) (A) (A) (A) (A) (A) (A)
                 (A) (A) (A) (A) (A) (A) (A) (A) (A) (A) (A) (A)
                 (A) (A) (A) (A) (A) (A) (A) (A) (A) (A) (A) (A)
                 (A) (A) (A) (A) (A) (A) (A) (A) (A) (A) (A) (A)
                 (A) (A) (A) (A) (A) (A) (A) (A) (A) (A) (A) (A)
                 (A) (A) (A) (A) (A) (A) (A) (A) (A) (A) (A) (A)
                 (A) (A) (A) (A) (A) (A) (A) (A) (A) (A) (A) (A)
                 (A) (A) (A) (A) (A) (A) (A) (A) (A) (A) (A) (A)
                 (A) (A) (A) (A) (A) (A) (A) (A) (A) (A) (A) (A)
                 (A) (A) (A) (A) (A) (A) (A) (A) (A) (A) (A) (A)
                 (A) (A) (A) (A) (A) (A) (A) (A) (A) (A) (A) (A)
                 (A) (A) (A)
       Virtual   (A) (A) (A) (A) (A) (A) (A) (A) (A) (A) (A) (A)
                 (A) (A) (A) (A) (A) (A) (A) (A) (A) (A) (A) (A)
                 (A) (A) (A) (A) (A) (A) (A) (A) (A) (A) (A) (A)
                 (A) (A) (A) (A) (A) (A) (A) (A) (A) (A) (A) (A)
                 (A) (A) (A) (A) (A) (A) (A) (A) (A) (A) (A) (A)
                 (A) (A) (A) (A) (A) (A) (A) (A) (A) (A) (A) (A)
                 (A) (A) (A) (A) (A) (A) (A) (A) (A) (A) (A) (A)
                 (A) (A) (A) (A) (A) (A) (A) (A) (A) (A) (A) (A)
                 (A) (A) (A) (A) (A) (A) (A) (A) (A) (A) (A) (A)
                 (A) (A) (A) (A) (A) (A) (A) (A) (A) (A) (A) (A)
                 (A) (A) (A) (A) (A) (A) (A) (A) (A) (A) (A) (A)
                 (A) (A) (A) (A) (A) (A) (A) (A) (A) (A) (A) (A)
                 (A) (A) (A) (A) (A) (A) (A) (A) (A) (A) (A) (A)
                 (A) (A) (A) (A) (A) (A) (A) (A) (A) (A) (A) (A)
                 (A) (A) (A) (A) (A) (A) (A) (A) (A) (A) (A) (A)
                 (A) (A) (A) (A) (A) (A) (A) (A) (A) (A) (A) (A)
                 (A) (A) (A) (A) (A) (A) (A) (A) (A) (A) (A) (A)
                 (A) (A) (A) (A) (A) (A) (A) (A) (A) (A) (A) (A)
                 (A) (A) (A) (A) (A) (A) (A) (A) (A) (A) (A) (A)
                 (A) (A) (A) (A) (A) (A) (A) (A) (A) (A) (A) (A)
                 (A) (A) (A) (A) (A) (A) (A) (A) (A) (A) (A) (A)
                 (A) (A) (A) (A) (A) (A) (A) (A) (A) (A) (A) (A)
                 (A) (A) (A) (A) (A) (A) (A) (A) (A) (A) (A) (A)
                 (A) (A) (A) (A) (A) (A) (A) (A) (A) (A) (A) (A)
                 (A) (A) (A) (A) (A) (A) (A) (A) (A) (A) (A) (A)
                 (A) (A) (A) (A) (A) (A) (A) (A) (A) (A) (A) (A)
                 (A) (A) (A) (A) (A) (A) (A) (A) (A) (A) (A) (A)
                 (A) (A) (A) (A) (A) (A) (A) (A) (A) (A) (A) (A)
                 (A) (A) (A) (A) (A) (A) (A) (A) (A) (A) (A) (A)
                 (A) (A) (A) (A) (A) (A) (A) (A) (A) (A) (A) (A)
                 (A) (A) (A) (A) (A) (A) (A) (A) (A) (A) (A) (A)
                 (A) (A) (A) (A) (A) (A) (A) (A) (A) (A) (A) (A)
                 (A) (A) (A) (A) (A) (A) (A) (A) (A) (A) (A) (A)
                 (A) (A) (A) (A) (A) (A) (A) (A) (A) (A) (A) (A)
                 (A) (A) (A) (A) (A) (A) (A) (A) (A) (A) (A) (A)
                 (A) (A) (A) (A) (A) (A) (A) (A) (A) (A) (A) (A)
                 (A) (A) (A) (A) (A) (A) (A) (A) (A) (A) (A) (A)
                 (A) (A) (A) (A) (A) (A) (A) (A) (A) (A) (A) (A)
                 (A) (A) (A) (A) (A) (A) (A) (A) (A) (A) (A) (A)
                 (A) (A) (A) (A) (A) (A) (A) (A) (A) (A) (A) (A)
                 (A) (A) (A) (A) (A) (A) (A) (A) (A) (A) (A) (A)
                 (A) (A) (A) (A) (A) (A) (A) (A) (A) (A) (A) (A)
                 (A) (A) (A) (A) (A) (A) (A) (A) (A) (A) (A) (A)
                 (A) (A) (A) (A) (A) (A) (A) (A) (A) (A) (A) (A)
                 (A) (A) (A) (A) (A) (A) (A) (A) (A) (A) (A) (A)
                 (A) (A) (A) (A) (A) (A) (A) (A) (A) (A) (A) (A)
                 (A) (A) (A) (A) (A) (A) (A) (A) (A) (A) (A) (A)
                 (A) (A) (A) (A) (A) (A) (A) (A) (A) (A) (A) (A)
                 (A) (A) (A) (A) (A) (A) (A) (A) (A) (A) (A) (A)
                 (A) (A) (A) (A) (A) (A) (A) (A) (A) (A) (A) (A)
                 (A) (A) (A) (A) (A) (A) (A) (A) (A) (A) (A) (A)
                 (A) (A) (A) (A) (A) (A) (A) (A) (A) (A) (A) (A)
                 (A) (A) (A) (A) (A) (A) (A) (A) (A) (A) (A) (A)
                 (A) (A) (A) (A) (A) (A) (A) (A) (A) (A) (A) (A)
                 (A) (A) (A) (A) (A) (A) (A) (A) (A) (A) (A) (A)
                 (A) (A) (A) (A) (A) (A) (A) (A) (A) (A) (A) (A)
                 (A) (A) (A) (A) (A) (A) (A) (A) (A) (A) (A) (A)
                 (A) (A) (A) (A) (A) (A) (A) (A) (A) (A) (A) (A)
                 (A) (A) (A) (A) (A) (A) (A) (A) (A) (A) (A) (A)
                 (A) (A) (A) (A) (A) (A) (A) (A) (A) (A) (A) (A)
                 (A) (A) (A) (A) (A) (A) (A) (A) (A) (A) (A) (A)
                 (A) (A) (A) (A) (A) (A) (A) (A) (A) (A) (A) (A)
                 (A) (A) (A) (A) (A) (A) (A) (A) (A) (A) (A) (A)
                 (A) (A) (A) (A) (A) (A) (A) (A) (A) (A) (A) (A)
                 (A) (A) (A) (A) (A) (A) (A) (A) (A) (A) (A) (A)
                 (A) (A) (A) (A) (A) (A) (A) (A) (A) (A) (A) (A)
                 (A) (A) (A) (A) (A) (A) (A) (A) (A) (A) (A) (A)
                 (A) (A) (A) (A) (A) (A) (A) (A) (A) (A) (A) (A)
                 (A) (A) (A) (A) (A) (A) (A) (A) (A) (A) (A) (A)
                 (A) (A) (A) (A) (A) (A) (A) (A) (A) (A) (A) (A)
                 (A) (A) (A) (A) (A) (A) (A) (A) (A) (A) (A) (A)
                 (A) (A) (A) (A) (A) (A) (A) (A) (A) (A) (A) (A)
                 (A) (A) (A) (A) (A) (A) (A) (A) (A) (A) (A) (A)
                 (A) (A) (A) (A) (A) (A) (A) (A) (A) (A) (A) (A)
                 (A) (A) (A) (A) (A) (A) (A) (A) (A) (A) (A) (A)
                 (A) (A) (A) (A) (A) (A) (A) (A) (A) (A) (A) (A)
                 (A) (A) (A) (A) (A) (A) (A) (A) (A) (A) (A) (A)
                 (A) (A) (A) (A) (A) (A) (A) (A) (A) (A) (A) (A)
                 (A) (A) (A) (A) (A) (A) (A) (A) (A) (A) (A) (A)
                 (A) (A) (A) (A) (A) (A) (A) (A) (A) (A) (A) (A)
                 (A) (A) (A) (A) (A) (A) (A) (A) (A) (A) (A) (A)
                 (A) (A) (A) (A) (A) (A) (A) (A) (A) (A) (A) (A)
                 (A) (A) (A) (A) (A) (A) (A) (A) (A) (A) (A) (A)
                 (A) (A) (A) (A) (A) (A) (A) (A) (A) (A) (A) (A)
                 (A) (A) (A) (A) (A) (A) (A) (A) (A) (A) (A) (A)
                 (A) (A) (A) (A) (A) (A) (A) (A) (A) (A) (A) (A)
                 (A) (A) (A) (A) (A) (A) (A) (A) (A) (A) (A) (A)
                 (A) (A) (A) (A) (A) (A) (A) (A) (A) (A) (A) (A)
                 (A) (A) (A) (A) (A) (A) (A) (A) (A) (A) (A) (A)
                 (A) (A) (A) (A) (A) (A) (A) (A) (A) (A) (A) (A)
                 (A) (A) (A) (A) (A) (A) (A) (A) (A) (A) (A) (A)
                 (A) (A) (A) (A) (A) (A) (A) (A) (A) (A) (A) (A)
                 (A) (A) (A) (A) (A) (A) (A) (A) (A) (A) (A) (A)
                 (A) (A) (A) (A) (A) (A) (A) (A) (A) (A) (A) (A)
                 (A) (A) (A) (A) (A) (A) (A) (A) (A) (A) (A) (A)
                 (A) (A) (A) (A) (A) (A) (A) (A) (A) (A) (A) (A)
                 (A) (A) (A) (A) (A) (A) (A) (A) (A) (A) (A) (A)
                 (A) (A) (A) (A) (A) (A) (A) (A) (A) (A) (A) (A)
                 (A) (A) (A) (A) (A) (A) (A) (A) (A) (A) (A) (A)
                 (A) (A) (A) (A) (A) (A) (A) (A) (A) (A) (A) (A)
                 (A) (A) (A) (A) (A) (A) (A) (A) (A) (A) (A) (A)
                 (A) (A) (A) (A) (A) (A) (A) (A) (A) (A) (A) (A)
                 (A) (A) (A) (A) (A) (A) (A) (A) (A) (A) (A) (A)
                 (A) (A) (A) (A) (A) (A) (A) (A) (A) (A) (A) (A)
                 (A) (A) (A) (A) (A) (A) (A) (A) (A) (A) (A) (A)
                 (A) (A) (A) (A) (A) (A) (A) (A) (A) (A) (A) (A)
                 (A) (A) (A) (A) (A) (A) (A) (A) (A) (A) (A) (A)
                 (A) (A) (A) (A) (A) (A) (A) (A) (A) (A) (A) (A)
                 (A) (A) (A) (A) (A) (A) (A) (A) (A) (A) (A) (A)
                 (A) (A) (A) (A) (A) (A) (A) (A) (A) (A) (A) (A)
                 (A) (A) (A) (A) (A) (A) (A) (A) (A) (A) (A) (A)
                 (A) (A) (A) (A) (A) (A) (A) (A) (A) (A) (A) (A)
                 (A) (A) (A) (A) (A) (A) (A) (A) (A) (A) (A) (A)
                 (A) (A) (A) (A) (A) (A) (A) (A) (A) (A) (A) (A)
                 (A) (A) (A) (A) (A) (A) (A) (A) (A) (A) (A) (A)
                 (A) (A) (A) (A) (A) (A) (A) (A) (A) (A) (A) (A)
                 (A) (A) (A) (A) (A) (A) (A) (A) (A) (A) (A) (A)
                 (A) (A) (A) (A) (A) (A) (A) (A) (A) (A) (A) (A)
                 (A) (A) (A) (A) (A) (A) (A) (A) (A) (A) (A) (A)
                 (A) (A) (A) (A) (A) (A) (A) (A) (A) (A) (A) (A)
                 (A) (A) (A) (A) (A) (A) (A) (A) (A) (A) (A) (A)
                 (A) (A) (A) (A) (A) (A) (A) (A) (A) (A) (A) (A)
                 (A) (A) (A) (A) (A) (A) (A) (A) (A) (A) (A) (A)
                 (A) (A) (A) (A) (A) (A) (A) (A) (A) (A) (A) (A)
                 (A) (A) (A) (A) (A) (A) (A) (A) (A) (A) (A) (A)
                 (A) (A) (A) (A) (A) (A) (A) (A) (A) (A) (A) (A)
                 (A) (A) (A) (A) (A) (A) (A) (A) (A) (A) (A) (A)
                 (A) (A) (A) (A) (A) (A) (A) (A) (A) (A) (A) (A)
                 (A) (A) (A) (A) (A) (A) (A) (A) (A) (A) (A) (A)
                 (A) (A)
 The electronic state is 1-A.
 Alpha  occ. eigenvalues --  -77.19403 -77.18896 -10.24314 -10.24298 -10.24298
 Alpha  occ. eigenvalues --  -10.23792 -10.23599 -10.23581 -10.23476 -10.23380
 Alpha  occ. eigenvalues --  -10.23232 -10.23219 -10.23206 -10.23128 -10.23035
 Alpha  occ. eigenvalues --  -10.22946 -10.22897 -10.22880 -10.22823 -10.22803
 Alpha  occ. eigenvalues --  -10.22802 -10.22693 -10.22602 -10.22592 -10.22520
 Alpha  occ. eigenvalues --  -10.22496 -10.22458 -10.22369 -10.22346 -10.22300
 Alpha  occ. eigenvalues --  -10.22283 -10.22222 -10.22120 -10.22086 -10.22080
 Alpha  occ. eigenvalues --  -10.22041 -10.22022 -10.21972 -10.21966 -10.21958
 Alpha  occ. eigenvalues --  -10.21938 -10.21920 -10.21862 -10.21847 -10.21633
 Alpha  occ. eigenvalues --  -10.21522 -10.21355  -6.58967  -6.58488  -4.72556
 Alpha  occ. eigenvalues --   -4.72550  -4.72111  -4.72088  -4.72062  -4.71624
 Alpha  occ. eigenvalues --   -0.90336  -0.88311  -0.87903  -0.87607  -0.87582
 Alpha  occ. eigenvalues --   -0.87041  -0.83752  -0.81148  -0.80432  -0.79779
 Alpha  occ. eigenvalues --   -0.79203  -0.78446  -0.77513  -0.76702  -0.76482
 Alpha  occ. eigenvalues --   -0.76103  -0.75870  -0.75765  -0.72927  -0.72791
 Alpha  occ. eigenvalues --   -0.72083  -0.71393  -0.70279  -0.70055  -0.69398
 Alpha  occ. eigenvalues --   -0.64428  -0.63910  -0.63416  -0.62694  -0.62062
 Alpha  occ. eigenvalues --   -0.61883  -0.61527  -0.60874  -0.60605  -0.59701
 Alpha  occ. eigenvalues --   -0.58957  -0.58402  -0.58264  -0.57253  -0.56413
 Alpha  occ. eigenvalues --   -0.54769  -0.51818  -0.51142  -0.50376  -0.49217
 Alpha  occ. eigenvalues --   -0.49071  -0.48437  -0.47996  -0.47599  -0.47437
 Alpha  occ. eigenvalues --   -0.47291  -0.47205  -0.46799  -0.46732  -0.46083
 Alpha  occ. eigenvalues --   -0.45878  -0.45539  -0.45421  -0.45026  -0.43681
 Alpha  occ. eigenvalues --   -0.43443  -0.43226  -0.43165  -0.42859  -0.42836
 Alpha  occ. eigenvalues --   -0.42771  -0.42488  -0.42414  -0.42296  -0.41814
 Alpha  occ. eigenvalues --   -0.41316  -0.40786  -0.40266  -0.40130  -0.39860
 Alpha  occ. eigenvalues --   -0.39583  -0.39349  -0.39200  -0.38987  -0.38709
 Alpha  occ. eigenvalues --   -0.38508  -0.37568  -0.37100  -0.37006  -0.36732
 Alpha  occ. eigenvalues --   -0.36487  -0.36389  -0.36054  -0.35339  -0.35198
 Alpha  occ. eigenvalues --   -0.35089  -0.34733  -0.34431  -0.34334  -0.34302
 Alpha  occ. eigenvalues --   -0.34125  -0.33060  -0.32818  -0.32342  -0.32309
 Alpha  occ. eigenvalues --   -0.32045  -0.31443  -0.28302  -0.27130  -0.26661
 Alpha  occ. eigenvalues --   -0.26257  -0.26135  -0.25834  -0.25736  -0.25593
 Alpha  occ. eigenvalues --   -0.25163  -0.24463  -0.23912  -0.22907  -0.21456
 Alpha  occ. eigenvalues --   -0.18548
 Alpha virt. eigenvalues --   -0.02917  -0.02486  -0.02252  -0.01984  -0.01416
 Alpha virt. eigenvalues --   -0.00939  -0.00758  -0.00549  -0.00149   0.00145
 Alpha virt. eigenvalues --    0.00658   0.01082   0.03910   0.04415   0.05004
 Alpha virt. eigenvalues --    0.05599   0.05756   0.05854   0.06301   0.06560
 Alpha virt. eigenvalues --    0.06941   0.07036   0.07459   0.08161   0.08393
 Alpha virt. eigenvalues --    0.08605   0.08882   0.08935   0.09124   0.09491
 Alpha virt. eigenvalues --    0.09560   0.09844   0.09997   0.10336   0.10556
 Alpha virt. eigenvalues --    0.10736   0.11200   0.11466   0.11517   0.12073
 Alpha virt. eigenvalues --    0.12095   0.12337   0.12385   0.12620   0.12863
 Alpha virt. eigenvalues --    0.13077   0.13197   0.13377   0.13656   0.13872
 Alpha virt. eigenvalues --    0.13984   0.14124   0.14343   0.14676   0.14870
 Alpha virt. eigenvalues --    0.15009   0.15130   0.15426   0.15579   0.15830
 Alpha virt. eigenvalues --    0.15946   0.16003   0.16483   0.16502   0.16711
 Alpha virt. eigenvalues --    0.17077   0.17394   0.17685   0.18191   0.18400
 Alpha virt. eigenvalues --    0.18602   0.18678   0.19136   0.19145   0.19707
 Alpha virt. eigenvalues --    0.19918   0.20107   0.20230   0.20722   0.20781
 Alpha virt. eigenvalues --    0.20932   0.21135   0.21325   0.21560   0.21890
 Alpha virt. eigenvalues --    0.22049   0.22095   0.22590   0.22749   0.22933
 Alpha virt. eigenvalues --    0.23116   0.23464   0.23792   0.23976   0.24121
 Alpha virt. eigenvalues --    0.24442   0.24688   0.24938   0.25005   0.25163
 Alpha virt. eigenvalues --    0.25438   0.25672   0.25976   0.26369   0.26464
 Alpha virt. eigenvalues --    0.26629   0.26843   0.27082   0.27330   0.27650
 Alpha virt. eigenvalues --    0.27724   0.27893   0.28047   0.28316   0.28531
 Alpha virt. eigenvalues --    0.28814   0.29019   0.29497   0.29568   0.29695
 Alpha virt. eigenvalues --    0.29913   0.30106   0.30297   0.30521   0.30941
 Alpha virt. eigenvalues --    0.30971   0.31177   0.31605   0.31686   0.31930
 Alpha virt. eigenvalues --    0.31988   0.32247   0.32334   0.32478   0.32773
 Alpha virt. eigenvalues --    0.32957   0.33010   0.33302   0.33506   0.33876
 Alpha virt. eigenvalues --    0.34023   0.34440   0.34623   0.34846   0.35091
 Alpha virt. eigenvalues --    0.35253   0.35484   0.35749   0.35898   0.36027
 Alpha virt. eigenvalues --    0.36360   0.36382   0.36680   0.37005   0.37318
 Alpha virt. eigenvalues --    0.37465   0.37552   0.37679   0.37894   0.38026
 Alpha virt. eigenvalues --    0.38326   0.38655   0.38800   0.38961   0.39391
 Alpha virt. eigenvalues --    0.39900   0.40090   0.40231   0.40385   0.40552
 Alpha virt. eigenvalues --    0.41102   0.41189   0.41420   0.41573   0.41705
 Alpha virt. eigenvalues --    0.41924   0.42146   0.42347   0.42439   0.42736
 Alpha virt. eigenvalues --    0.42840   0.43088   0.43245   0.43424   0.43581
 Alpha virt. eigenvalues --    0.43654   0.43801   0.44081   0.44149   0.44422
 Alpha virt. eigenvalues --    0.44567   0.44668   0.44953   0.45027   0.45214
 Alpha virt. eigenvalues --    0.45360   0.45548   0.45694   0.45908   0.46183
 Alpha virt. eigenvalues --    0.46298   0.46484   0.46702   0.46798   0.46972
 Alpha virt. eigenvalues --    0.47068   0.47254   0.47439   0.47602   0.47702
 Alpha virt. eigenvalues --    0.48218   0.48594   0.48654   0.48867   0.49102
 Alpha virt. eigenvalues --    0.49187   0.49337   0.49432   0.49527   0.49684
 Alpha virt. eigenvalues --    0.49877   0.50085   0.50302   0.50352   0.50607
 Alpha virt. eigenvalues --    0.50813   0.50971   0.51272   0.51533   0.51637
 Alpha virt. eigenvalues --    0.51702   0.51984   0.52221   0.52502   0.52819
 Alpha virt. eigenvalues --    0.53067   0.53212   0.53541   0.53770   0.53858
 Alpha virt. eigenvalues --    0.53996   0.54312   0.54370   0.54474   0.54902
 Alpha virt. eigenvalues --    0.55082   0.55445   0.55743   0.56041   0.56205
 Alpha virt. eigenvalues --    0.56453   0.56747   0.56911   0.57363   0.57626
 Alpha virt. eigenvalues --    0.57894   0.58072   0.58273   0.58391   0.58523
 Alpha virt. eigenvalues --    0.58745   0.59043   0.59429   0.60133   0.60202
 Alpha virt. eigenvalues --    0.60654   0.60934   0.60984   0.61196   0.61509
 Alpha virt. eigenvalues --    0.61805   0.62374   0.62488   0.62858   0.63171
 Alpha virt. eigenvalues --    0.63271   0.63387   0.63610   0.63663   0.64449
 Alpha virt. eigenvalues --    0.64881   0.65216   0.65437   0.65509   0.65959
 Alpha virt. eigenvalues --    0.66271   0.66432   0.67045   0.67163   0.67776
 Alpha virt. eigenvalues --    0.67831   0.67913   0.68285   0.68360   0.68448
 Alpha virt. eigenvalues --    0.68720   0.69198   0.69482   0.69665   0.69781
 Alpha virt. eigenvalues --    0.69967   0.70201   0.70750   0.70847   0.71261
 Alpha virt. eigenvalues --    0.71450   0.71810   0.71970   0.72341   0.72452
 Alpha virt. eigenvalues --    0.72727   0.73077   0.73121   0.73652   0.73824
 Alpha virt. eigenvalues --    0.74091   0.74398   0.74671   0.74848   0.75072
 Alpha virt. eigenvalues --    0.75494   0.75842   0.76126   0.76207   0.76742
 Alpha virt. eigenvalues --    0.76793   0.77104   0.77433   0.77674   0.77928
 Alpha virt. eigenvalues --    0.78329   0.78448   0.78576   0.78854   0.79197
 Alpha virt. eigenvalues --    0.79384   0.79577   0.80082   0.80448   0.80602
 Alpha virt. eigenvalues --    0.80735   0.80917   0.81637   0.81811   0.81874
 Alpha virt. eigenvalues --    0.82341   0.82493   0.82688   0.83089   0.83328
 Alpha virt. eigenvalues --    0.83845   0.83960   0.84466   0.84698   0.84919
 Alpha virt. eigenvalues --    0.85183   0.85809   0.86087   0.86374   0.86572
 Alpha virt. eigenvalues --    0.86904   0.87189   0.87440   0.87574   0.88062
 Alpha virt. eigenvalues --    0.88422   0.88628   0.88795   0.89363   0.89845
 Alpha virt. eigenvalues --    0.89990   0.90187   0.90540   0.90823   0.91082
 Alpha virt. eigenvalues --    0.91551   0.91643   0.91912   0.92292   0.92491
 Alpha virt. eigenvalues --    0.92824   0.93326   0.93630   0.93665   0.93994
 Alpha virt. eigenvalues --    0.94409   0.94543   0.95150   0.95331   0.95926
 Alpha virt. eigenvalues --    0.96414   0.96618   0.96901   0.97210   0.97249
 Alpha virt. eigenvalues --    0.97709   0.97951   0.98558   0.98776   0.99026
 Alpha virt. eigenvalues --    0.99462   0.99948   0.99985   1.00266   1.00668
 Alpha virt. eigenvalues --    1.01270   1.01620   1.01840   1.02135   1.02445
 Alpha virt. eigenvalues --    1.02783   1.02987   1.03472   1.03791   1.04100
 Alpha virt. eigenvalues --    1.04333   1.04715   1.05006   1.05381   1.05986
 Alpha virt. eigenvalues --    1.06201   1.06442   1.07360   1.07571   1.07851
 Alpha virt. eigenvalues --    1.08248   1.08523   1.08889   1.09156   1.09722
 Alpha virt. eigenvalues --    1.09926   1.10480   1.10559   1.10949   1.11483
 Alpha virt. eigenvalues --    1.11956   1.12052   1.12402   1.12720   1.12987
 Alpha virt. eigenvalues --    1.13535   1.13775   1.14234   1.14574   1.14633
 Alpha virt. eigenvalues --    1.14966   1.15049   1.15433   1.16052   1.16514
 Alpha virt. eigenvalues --    1.16654   1.16902   1.17462   1.17752   1.18243
 Alpha virt. eigenvalues --    1.18564   1.19107   1.19295   1.20136   1.20678
 Alpha virt. eigenvalues --    1.20722   1.21253   1.21460   1.21934   1.22113
 Alpha virt. eigenvalues --    1.22141   1.22559   1.22835   1.23159   1.23389
 Alpha virt. eigenvalues --    1.23648   1.23933   1.24261   1.24484   1.24980
 Alpha virt. eigenvalues --    1.25250   1.25345   1.25878   1.26057   1.26351
 Alpha virt. eigenvalues --    1.26802   1.27048   1.27478   1.27723   1.27934
 Alpha virt. eigenvalues --    1.28032   1.28209   1.28510   1.28734   1.28943
 Alpha virt. eigenvalues --    1.29559   1.29742   1.30249   1.30359   1.30918
 Alpha virt. eigenvalues --    1.31074   1.31485   1.31552   1.31989   1.32301
 Alpha virt. eigenvalues --    1.32630   1.32717   1.33030   1.33117   1.33589
 Alpha virt. eigenvalues --    1.34082   1.34343   1.34800   1.34921   1.35307
 Alpha virt. eigenvalues --    1.35512   1.35940   1.36197   1.36305   1.37021
 Alpha virt. eigenvalues --    1.37202   1.37539   1.38162   1.38373   1.39093
 Alpha virt. eigenvalues --    1.39145   1.39309   1.39953   1.40496   1.40653
 Alpha virt. eigenvalues --    1.41263   1.41696   1.41984   1.42118   1.42504
 Alpha virt. eigenvalues --    1.43060   1.43328   1.43817   1.44247   1.44373
 Alpha virt. eigenvalues --    1.45246   1.45336   1.45823   1.46257   1.46743
 Alpha virt. eigenvalues --    1.46939   1.47320   1.47822   1.48439   1.48575
 Alpha virt. eigenvalues --    1.48884   1.49130   1.49551   1.49735   1.49973
 Alpha virt. eigenvalues --    1.50122   1.50920   1.51053   1.51597   1.51827
 Alpha virt. eigenvalues --    1.52111   1.52459   1.52944   1.53535   1.53693
 Alpha virt. eigenvalues --    1.53970   1.54435   1.54529   1.54672   1.54964
 Alpha virt. eigenvalues --    1.55163   1.55457   1.55549   1.55993   1.56207
 Alpha virt. eigenvalues --    1.56266   1.56408   1.57016   1.57104   1.57908
 Alpha virt. eigenvalues --    1.58014   1.58104   1.58435   1.58706   1.58930
 Alpha virt. eigenvalues --    1.59463   1.59488   1.60027   1.60263   1.60429
 Alpha virt. eigenvalues --    1.60826   1.61158   1.61339   1.61695   1.62072
 Alpha virt. eigenvalues --    1.62302   1.62603   1.62901   1.63071   1.63461
 Alpha virt. eigenvalues --    1.63582   1.63746   1.63817   1.64226   1.64820
 Alpha virt. eigenvalues --    1.64903   1.65407   1.65444   1.65621   1.65660
 Alpha virt. eigenvalues --    1.65999   1.66184   1.66388   1.66832   1.67087
 Alpha virt. eigenvalues --    1.67366   1.67762   1.68160   1.68713   1.68967
 Alpha virt. eigenvalues --    1.69295   1.69535   1.69700   1.70012   1.70128
 Alpha virt. eigenvalues --    1.70557   1.70811   1.71029   1.71401   1.71888
 Alpha virt. eigenvalues --    1.72033   1.72425   1.72656   1.73062   1.73204
 Alpha virt. eigenvalues --    1.73639   1.73839   1.74076   1.74292   1.74850
 Alpha virt. eigenvalues --    1.74942   1.75176   1.75694   1.75995   1.76446
 Alpha virt. eigenvalues --    1.76716   1.77522   1.77723   1.78307   1.78610
 Alpha virt. eigenvalues --    1.78964   1.79270   1.79682   1.79854   1.80156
 Alpha virt. eigenvalues --    1.80347   1.80907   1.81307   1.81584   1.82001
 Alpha virt. eigenvalues --    1.82074   1.82478   1.82819   1.83558   1.83768
 Alpha virt. eigenvalues --    1.83869   1.84452   1.84721   1.84861   1.85650
 Alpha virt. eigenvalues --    1.86066   1.86671   1.87337   1.87509   1.87873
 Alpha virt. eigenvalues --    1.88431   1.88665   1.88894   1.89122   1.89783
 Alpha virt. eigenvalues --    1.90079   1.90263   1.90498   1.90788   1.90856
 Alpha virt. eigenvalues --    1.91437   1.91759   1.92309   1.92820   1.93104
 Alpha virt. eigenvalues --    1.94068   1.94346   1.94575   1.94910   1.95409
 Alpha virt. eigenvalues --    1.95779   1.96743   1.97006   1.97609   1.98076
 Alpha virt. eigenvalues --    1.98344   1.98508   1.98738   1.99385   1.99950
 Alpha virt. eigenvalues --    2.00166   2.00610   2.00924   2.01292   2.01424
 Alpha virt. eigenvalues --    2.01594   2.01849   2.02277   2.02589   2.02675
 Alpha virt. eigenvalues --    2.03032   2.03204   2.03719   2.03987   2.04978
 Alpha virt. eigenvalues --    2.05168   2.05305   2.05819   2.05865   2.06391
 Alpha virt. eigenvalues --    2.06855   2.07283   2.07603   2.08115   2.08206
 Alpha virt. eigenvalues --    2.08318   2.09094   2.09757   2.09901   2.10071
 Alpha virt. eigenvalues --    2.10188   2.11750   2.11902   2.12155   2.12494
 Alpha virt. eigenvalues --    2.12750   2.13305   2.13621   2.13935   2.14536
 Alpha virt. eigenvalues --    2.14743   2.14860   2.15241   2.15965   2.16393
 Alpha virt. eigenvalues --    2.16555   2.16630   2.16942   2.17668   2.18037
 Alpha virt. eigenvalues --    2.18542   2.18762   2.18982   2.19313   2.19565
 Alpha virt. eigenvalues --    2.20127   2.20765   2.20968   2.21423   2.21558
 Alpha virt. eigenvalues --    2.21782   2.22140   2.22417   2.22678   2.23002
 Alpha virt. eigenvalues --    2.23346   2.23846   2.23992   2.24301   2.24415
 Alpha virt. eigenvalues --    2.24647   2.24984   2.25506   2.25875   2.26145
 Alpha virt. eigenvalues --    2.26461   2.26889   2.26980   2.27883   2.28268
 Alpha virt. eigenvalues --    2.28517   2.28706   2.29455   2.29890   2.30443
 Alpha virt. eigenvalues --    2.30478   2.31084   2.31794   2.32350   2.32746
 Alpha virt. eigenvalues --    2.33597   2.34125   2.34315   2.34691   2.34724
 Alpha virt. eigenvalues --    2.35286   2.35745   2.36489   2.36960   2.37101
 Alpha virt. eigenvalues --    2.37476   2.37880   2.38103   2.38416   2.39303
 Alpha virt. eigenvalues --    2.39324   2.39795   2.40191   2.40564   2.40909
 Alpha virt. eigenvalues --    2.41344   2.42140   2.42659   2.42852   2.43580
 Alpha virt. eigenvalues --    2.43908   2.44242   2.44315   2.44492   2.45357
 Alpha virt. eigenvalues --    2.45770   2.46446   2.46910   2.47198   2.47662
 Alpha virt. eigenvalues --    2.48031   2.48217   2.48476   2.49222   2.49609
 Alpha virt. eigenvalues --    2.50105   2.50380   2.51003   2.51082   2.51374
 Alpha virt. eigenvalues --    2.52090   2.52775   2.52860   2.53426   2.53591
 Alpha virt. eigenvalues --    2.53934   2.54327   2.54399   2.54793   2.55167
 Alpha virt. eigenvalues --    2.55292   2.56093   2.56182   2.56786   2.57082
 Alpha virt. eigenvalues --    2.57391   2.57696   2.57867   2.58020   2.58575
 Alpha virt. eigenvalues --    2.58738   2.59402   2.59804   2.60017   2.60227
 Alpha virt. eigenvalues --    2.60471   2.60604   2.61292   2.61468   2.61618
 Alpha virt. eigenvalues --    2.62217   2.62328   2.62701   2.62848   2.62987
 Alpha virt. eigenvalues --    2.63342   2.63796   2.63868   2.64141   2.64393
 Alpha virt. eigenvalues --    2.64683   2.64959   2.65333   2.65567   2.65910
 Alpha virt. eigenvalues --    2.66382   2.66672   2.67288   2.67463   2.67961
 Alpha virt. eigenvalues --    2.68390   2.68451   2.68906   2.69211   2.69645
 Alpha virt. eigenvalues --    2.69842   2.70004   2.70219   2.70328   2.71025
 Alpha virt. eigenvalues --    2.71817   2.72024   2.72515   2.72697   2.73079
 Alpha virt. eigenvalues --    2.73492   2.73735   2.74093   2.74140   2.74386
 Alpha virt. eigenvalues --    2.74939   2.75338   2.75438   2.75649   2.76263
 Alpha virt. eigenvalues --    2.76579   2.76639   2.77129   2.77186   2.77499
 Alpha virt. eigenvalues --    2.77663   2.78040   2.78446   2.78639   2.79154
 Alpha virt. eigenvalues --    2.79355   2.79555   2.80057   2.80227   2.80688
 Alpha virt. eigenvalues --    2.80989   2.81135   2.81277   2.81306   2.81746
 Alpha virt. eigenvalues --    2.81891   2.82441   2.82563   2.82659   2.83096
 Alpha virt. eigenvalues --    2.83253   2.83323   2.83535   2.84302   2.84574
 Alpha virt. eigenvalues --    2.85044   2.85177   2.85498   2.85625   2.85946
 Alpha virt. eigenvalues --    2.86001   2.86425   2.86878   2.87029   2.87443
 Alpha virt. eigenvalues --    2.87608   2.87848   2.88128   2.88701   2.89051
 Alpha virt. eigenvalues --    2.89214   2.89539   2.89806   2.90532   2.90806
 Alpha virt. eigenvalues --    2.91281   2.91912   2.92074   2.92493   2.92951
 Alpha virt. eigenvalues --    2.93192   2.93518   2.94041   2.94220   2.94477
 Alpha virt. eigenvalues --    2.94725   2.95182   2.95365   2.95473   2.95969
 Alpha virt. eigenvalues --    2.96202   2.96331   2.96950   2.97260   2.97578
 Alpha virt. eigenvalues --    2.97976   2.98197   2.98460   2.98758   2.99029
 Alpha virt. eigenvalues --    2.99548   2.99651   2.99914   3.00353   3.00610
 Alpha virt. eigenvalues --    3.01304   3.02160   3.02196   3.02724   3.02988
 Alpha virt. eigenvalues --    3.03259   3.03333   3.03869   3.04089   3.04290
 Alpha virt. eigenvalues --    3.05040   3.05259   3.05500   3.05969   3.06106
 Alpha virt. eigenvalues --    3.06566   3.06766   3.07072   3.07383   3.07638
 Alpha virt. eigenvalues --    3.08012   3.08207   3.08727   3.09092   3.09319
 Alpha virt. eigenvalues --    3.09674   3.10105   3.10230   3.10608   3.10833
 Alpha virt. eigenvalues --    3.11206   3.11794   3.12025   3.12649   3.12861
 Alpha virt. eigenvalues --    3.13262   3.13315   3.14250   3.14384   3.14515
 Alpha virt. eigenvalues --    3.14640   3.15095   3.15197   3.15393   3.15559
 Alpha virt. eigenvalues --    3.15952   3.16341   3.16563   3.16876   3.17311
 Alpha virt. eigenvalues --    3.17614   3.18012   3.18152   3.18382   3.18679
 Alpha virt. eigenvalues --    3.18910   3.19142   3.19647   3.20025   3.20215
 Alpha virt. eigenvalues --    3.20541   3.21133   3.21366   3.21476   3.21756
 Alpha virt. eigenvalues --    3.22169   3.22422   3.22655   3.22746   3.23053
 Alpha virt. eigenvalues --    3.23315   3.23511   3.23705   3.24362   3.24612
 Alpha virt. eigenvalues --    3.24736   3.25038   3.25216   3.25487   3.26046
 Alpha virt. eigenvalues --    3.26361   3.26588   3.26906   3.27119   3.27481
 Alpha virt. eigenvalues --    3.27740   3.28132   3.28398   3.28654   3.28801
 Alpha virt. eigenvalues --    3.28929   3.29081   3.29294   3.29434   3.30011
 Alpha virt. eigenvalues --    3.30342   3.30371   3.30753   3.31012   3.31449
 Alpha virt. eigenvalues --    3.31838   3.32265   3.32370   3.32996   3.33160
 Alpha virt. eigenvalues --    3.33428   3.33701   3.33895   3.34124   3.34650
 Alpha virt. eigenvalues --    3.34684   3.34999   3.35247   3.35337   3.35919
 Alpha virt. eigenvalues --    3.36232   3.36306   3.36670   3.36818   3.36975
 Alpha virt. eigenvalues --    3.37478   3.37610   3.37778   3.38177   3.38297
 Alpha virt. eigenvalues --    3.38438   3.38799   3.38915   3.39157   3.39419
 Alpha virt. eigenvalues --    3.39555   3.39956   3.40237   3.40478   3.40599
 Alpha virt. eigenvalues --    3.41218   3.41431   3.42001   3.42217   3.42678
 Alpha virt. eigenvalues --    3.42792   3.42982   3.43365   3.43541   3.43742
 Alpha virt. eigenvalues --    3.44068   3.44366   3.44644   3.44774   3.44983
 Alpha virt. eigenvalues --    3.45209   3.45338   3.45594   3.45673   3.46222
 Alpha virt. eigenvalues --    3.46361   3.46569   3.47027   3.47039   3.47210
 Alpha virt. eigenvalues --    3.47634   3.47843   3.48057   3.48247   3.48709
 Alpha virt. eigenvalues --    3.48985   3.49260   3.49397   3.49741   3.49997
 Alpha virt. eigenvalues --    3.50468   3.50576   3.50814   3.51155   3.51442
 Alpha virt. eigenvalues --    3.51709   3.51848   3.52517   3.52778   3.52851
 Alpha virt. eigenvalues --    3.52959   3.53282   3.53515   3.53725   3.54043
 Alpha virt. eigenvalues --    3.54200   3.54376   3.54929   3.55307   3.55734
 Alpha virt. eigenvalues --    3.56119   3.56362   3.56473   3.56977   3.57144
 Alpha virt. eigenvalues --    3.57403   3.58354   3.58376   3.58660   3.59242
 Alpha virt. eigenvalues --    3.59596   3.59795   3.60464   3.60636   3.60966
 Alpha virt. eigenvalues --    3.61534   3.62132   3.62571   3.63013   3.63119
 Alpha virt. eigenvalues --    3.63410   3.64101   3.64220   3.64712   3.65092
 Alpha virt. eigenvalues --    3.65525   3.65759   3.66152   3.66671   3.67026
 Alpha virt. eigenvalues --    3.67195   3.68012   3.68071   3.68487   3.68784
 Alpha virt. eigenvalues --    3.69278   3.69547   3.70106   3.70176   3.71227
 Alpha virt. eigenvalues --    3.71345   3.71539   3.71776   3.72218   3.72402
 Alpha virt. eigenvalues --    3.72688   3.73830   3.74494   3.74746   3.75136
 Alpha virt. eigenvalues --    3.75374   3.75799   3.76309   3.76646   3.77139
 Alpha virt. eigenvalues --    3.77306   3.77795   3.78189   3.78544   3.79013
 Alpha virt. eigenvalues --    3.79574   3.80583   3.80900   3.81460   3.82165
 Alpha virt. eigenvalues --    3.82402   3.83473   3.83847   3.84537   3.85653
 Alpha virt. eigenvalues --    3.85925   3.87184   3.87592   3.87877   3.88396
 Alpha virt. eigenvalues --    3.88619   3.89229   3.89512   3.89765   3.90419
 Alpha virt. eigenvalues --    3.90475   3.91185   3.91467   3.91931   3.92218
 Alpha virt. eigenvalues --    3.92800   3.93565   3.94181   3.94508   3.94865
 Alpha virt. eigenvalues --    3.95552   3.95864   3.96480   3.97269   3.97957
 Alpha virt. eigenvalues --    3.98677   3.99019   3.99700   4.00501   4.00681
 Alpha virt. eigenvalues --    4.01321   4.02548   4.03261   4.04042   4.04375
 Alpha virt. eigenvalues --    4.04600   4.04947   4.05661   4.05874   4.06104
 Alpha virt. eigenvalues --    4.06518   4.07511   4.07934   4.08524   4.09412
 Alpha virt. eigenvalues --    4.09670   4.10386   4.11053   4.11229   4.11446
 Alpha virt. eigenvalues --    4.12060   4.12737   4.13060   4.13428   4.13496
 Alpha virt. eigenvalues --    4.13739   4.14030   4.14603   4.14756   4.15143
 Alpha virt. eigenvalues --    4.15433   4.16065   4.16787   4.17224   4.17937
 Alpha virt. eigenvalues --    4.18258   4.18419   4.19002   4.19411   4.19629
 Alpha virt. eigenvalues --    4.19650   4.20108   4.20178   4.20349   4.20920
 Alpha virt. eigenvalues --    4.21410   4.21922   4.23068   4.23353   4.23782
 Alpha virt. eigenvalues --    4.24069   4.24245   4.24439   4.25017   4.25352
 Alpha virt. eigenvalues --    4.25827   4.25964   4.26051   4.26611   4.26805
 Alpha virt. eigenvalues --    4.27053   4.27296   4.27388   4.27884   4.28043
 Alpha virt. eigenvalues --    4.28716   4.28998   4.29976   4.30507   4.30935
 Alpha virt. eigenvalues --    4.31841   4.31930   4.32117   4.32471   4.32788
 Alpha virt. eigenvalues --    4.33544   4.34186   4.34862   4.35100   4.35353
 Alpha virt. eigenvalues --    4.35890   4.36182   4.36764   4.37292   4.37712
 Alpha virt. eigenvalues --    4.38216   4.38893   4.39567   4.40315   4.40697
 Alpha virt. eigenvalues --    4.41900   4.41994   4.43080   4.43266   4.43580
 Alpha virt. eigenvalues --    4.44898   4.45084   4.45207   4.45681   4.46151
 Alpha virt. eigenvalues --    4.46538   4.46829   4.47358   4.47967   4.48287
 Alpha virt. eigenvalues --    4.49834   4.51266   4.52680   4.52982   4.53492
 Alpha virt. eigenvalues --    4.54705   4.55918   4.56471   4.57694   4.58467
 Alpha virt. eigenvalues --    4.58897   4.59689   4.60274   4.60490   4.60977
 Alpha virt. eigenvalues --    4.61341   4.63070   4.63735   4.66399   4.66523
 Alpha virt. eigenvalues --    4.67241   4.67281   4.67801   4.68223   4.68490
 Alpha virt. eigenvalues --    4.68754   4.69088   4.69481   4.69672   4.70112
 Alpha virt. eigenvalues --    4.70456   4.70929   4.71460   4.72971   4.73495
 Alpha virt. eigenvalues --    4.75509   4.76447   4.77625   4.78745   4.79764
 Alpha virt. eigenvalues --    4.80268   4.81580   4.82041   4.86223   4.88846
 Alpha virt. eigenvalues --    4.88930   4.90399   4.90749   4.91126   4.91933
 Alpha virt. eigenvalues --    4.92218   4.93263   4.93867   4.94446   4.96436
 Alpha virt. eigenvalues --    4.96786   4.97912   4.99702   5.00342   5.01037
 Alpha virt. eigenvalues --    5.01408   5.02201   5.02686   5.03047   5.03970
 Alpha virt. eigenvalues --    5.04447   5.05023   5.07473   5.10434   5.11370
 Alpha virt. eigenvalues --    5.12780   5.14861   5.16237   5.16376   5.16724
[...]
  1523. RY*(   3) H  81                  0.00015     1.63330   
  1524. RY*(   4) H  81                  0.00013     2.71387   
  1525. RY*(   5) H  81                  0.00001     3.02404   
  1526. RY*(   1) H  82                  0.00096     0.51219   
  1527. RY*(   2) H  82                  0.00022     2.16327   
  1528. RY*(   3) H  82                  0.00022     2.21579   
  1529. RY*(   4) H  82                  0.00010     2.85759   
  1530. RY*(   5) H  82                  0.00001     3.11340   
  1531. RY*(   1) C  83                  0.00259     1.07427   
  1532. RY*(   2) C  83                  0.00204     1.09540   
  1533. RY*(   3) C  83                  0.00069     1.34165   
  1534. RY*(   4) C  83                  0.00054     1.88670   
  1535. RY*(   5) C  83                  0.00031     1.55769   
  1536. RY*(   6) C  83                  0.00025     1.76207   
  1537. RY*(   7) C  83                  0.00016     2.05864   
  1538. RY*(   8) C  83                  0.00013     1.60509   
  1539. RY*(   9) C  83                  0.00010     2.77501   
  1540. RY*(  10) C  83                  0.00010     1.84441   
  1541. RY*(  11) C  83                  0.00007     2.02551   
  1542. RY*(  12) C  83                  0.00005     2.60600   
  1543. RY*(  13) C  83                  0.00002     2.79001   
  1544. RY*(  14) C  83                  0.00003     2.94373   
  1545. RY*(  15) C  83                  0.00001     2.76825   
  1546. RY*(  16) C  83                  0.00001     1.96662   
  1547. RY*(  17) C  83                  0.00001     3.26128   
  1548. RY*(  18) C  83                  0.00000    21.24911   
  1549. RY*(  19) C  83                  0.00000     3.46981   
  1550. RY*(  20) C  83                  0.00000     3.22280   
  1551. RY*(  21) C  83                  0.00000     3.50865   
  1552. RY*(  22) C  83                  0.00000     3.46228   
  1553. RY*(  23) C  83                  0.00000     3.51554   
  1554. RY*(  24) C  83                  0.00001     3.37328   
  1555. RY*(  25) C  83                  0.00000     3.58537   
  1556. RY*(  26) C  83                  0.00000     3.60318   
  1557. RY*(   1) H  84                  0.00106     0.62289   
  1558. RY*(   2) H  84                  0.00017     2.29651   
  1559. RY*(   3) H  84                  0.00013     2.57761   
  1560. RY*(   4) H  84                  0.00009     2.45752   
  1561. RY*(   5) H  84                  0.00001     3.11078   
  1562. RY*(   1) C  85                  0.00225     1.13480   
  1563. RY*(   2) C  85                  0.00134     1.28320   
  1564. RY*(   3) C  85                  0.00064     1.49791   
  1565. RY*(   4) C  85                  0.00053     1.88391   
  1566. RY*(   5) C  85                  0.00043     1.69875   
  1567. RY*(   6) C  85                  0.00023     1.97085   
  1568. RY*(   7) C  85                  0.00022     1.72280   
  1569. RY*(   8) C  85                  0.00018     2.53121   
  1570. RY*(   9) C  85                  0.00014     1.64462   
  1571. RY*(  10) C  85                  0.00011     1.82940   
  1572. RY*(  11) C  85                  0.00008     2.78423   
  1573. RY*(  12) C  85                  0.00006     2.49219   
  1574. RY*(  13) C  85                  0.00005     2.28544   
  1575. RY*(  14) C  85                  0.00003     2.51518   
  1576. RY*(  15) C  85                  0.00002     2.79636   
  1577. RY*(  16) C  85                  0.00001     3.11844   
  1578. RY*(  17) C  85                  0.00001     2.16068   
  1579. RY*(  18) C  85                  0.00001     3.20614   
  1580. RY*(  19) C  85                  0.00000    21.36825   
  1581. RY*(  20) C  85                  0.00000     3.62786   
  1582. RY*(  21) C  85                  0.00000     3.56529   
  1583. RY*(  22) C  85                  0.00000     3.61904   
  1584. RY*(  23) C  85                  0.00001     3.79723   
  1585. RY*(  24) C  85                  0.00000     3.69465   
  1586. RY*(  25) C  85                  0.00000     3.55456   
  1587. RY*(  26) C  85                  0.00001     3.69984   
  1588. RY*(   1) H  86                  0.00046     1.95729   
  1589. RY*(   2) H  86                  0.00014     2.61915   
  1590. RY*(   3) H  86                  0.00012     2.53976   
  1591. RY*(   4) H  86                  0.00005     1.36647   
  1592. RY*(   5) H  86                  0.00001     3.00269   
  1593. RY*(   1) H  87                  0.00091     0.81442   
  1594. RY*(   2) H  87                  0.00017     2.47621   
  1595. RY*(   3) H  87                  0.00013     2.59562   
  1596. RY*(   4) H  87                  0.00011     2.60162   
  1597. RY*(   5) H  87                  0.00002     3.24737   
  1598. RY*(   1) H  88                  0.00063     1.90314   
  1599. RY*(   2) H  88                  0.00014     2.50249   
  1600. RY*(   3) H  88                  0.00012     2.51411   
  1601. RY*(   4) H  88                  0.00006     1.43080   
  1602. RY*(   5) H  88                  0.00001     2.88882   
  1603. RY*(   1) H  89                  0.00062     1.91362   
  1604. RY*(   2) H  89                  0.00014     2.51777   
  1605. RY*(   3) H  89                  0.00012     2.48148   
  1606. RY*(   4) H  89                  0.00006     1.45279   
  1607. RY*(   5) H  89                  0.00001     2.87671   
  1608. BD*(   1) P   1 - C   2          0.04728     0.24739   
  1609. BD*(   1) P   1 - C  16          0.04170     0.24381   
  1610. BD*(   1) P   1 - C  30          0.04647     0.23550   
  1611. BD*(   1) C   2 - C   3          0.03052     0.54085   
  1612. BD*(   2) C   2 - C   3          0.37189     0.03645  1622(v),1617(v),1630(r)
                                                    1656(r),1609(v),228(g)
                                                    1632(r),203(g),332(v)
  1613. BD*(   1) C   2 - C   7          0.02313     0.53850   
  1614. BD*(   1) C   3 - C   4          0.01653     0.55864   
  1615. BD*(   1) C   3 - H  15          0.01660     0.42536   
  1616. BD*(   1) C   4 - C   5          0.02279     0.54344   
  1617. BD*(   2) C   4 - C   5          0.34447     0.04292  1622(v),1612(v),254(g)
                                                    1625(v),1627(v)
  1618. BD*(   1) C   4 - H  14          0.01520     0.40784   
  1619. BD*(   1) C   5 - C   6          0.02343     0.53640   
  1620. BD*(   1) C   5 - C  10          0.01353     0.39670   
  1621. BD*(   1) C   6 - C   7          0.01394     0.56128   
  1622. BD*(   2) C   6 - C   7          0.31057     0.04184  1617(v),1612(v),1630(r)
                                                    306(g),332(g)
  1623. BD*(   1) C   6 - H   9          0.01433     0.40820   
  1624. BD*(   1) C   7 - H   8          0.01642     0.41523   
  1625. BD*(   1) C  10 - H  11          0.01097     0.36427   
  1626. BD*(   1) C  10 - H  12          0.00513     0.37229   
  1627. BD*(   1) C  10 - H  13          0.00759     0.36888   
  1628. BD*(   1) C  16 - C  17          0.03398     0.54005   
  1629. BD*(   1) C  16 - C  21          0.02511     0.54396   
  1630. BD*(   2) C  16 - C  21          0.36388     0.04145  1632(v),1637(v),1612(r)
                                                    1622(r),549(g),1610(v)
                                                    1668(r),1608(v),1646(r)
                                                    420(g),548(g)
  1631. BD*(   1) C  17 - C  18          0.01628     0.56132   
  1632. BD*(   2) C  17 - C  18          0.31802     0.04195  1630(v),1637(v),471(g)
                                                    1612(r)
  1633. BD*(   1) C  17 - H  29          0.01682     0.42178   
  1634. BD*(   1) C  18 - C  19          0.02348     0.53962   
  1635. BD*(   1) C  18 - H  28          0.01561     0.40434   
  1636. BD*(   1) C  19 - C  20          0.02363     0.54165   
  1637. BD*(   2) C  19 - C  20          0.34126     0.04504  1632(v),1630(v),1673(r)
                                                    523(g),1644(v),1642(v)
  1638. BD*(   1) C  19 - C  24          0.01377     0.39638   
  1639. BD*(   1) C  20 - C  21          0.01595     0.56406   
  1640. BD*(   1) C  20 - H  23          0.01500     0.40995   
  1641. BD*(   1) C  21 - H  22          0.01725     0.42751   
  1642. BD*(   1) C  24 - H  25          0.00700     0.36856   
  1643. BD*(   1) C  24 - H  26          0.00542     0.37081   
  1644. BD*(   1) C  24 - H  27          0.01140     0.36092   
  1645. BD*(   1) C  30 - C  31          0.03437     0.55365   
  1646. BD*(   2) C  30 - C  31          0.39053     0.04615  1651(v),1656(v),1666(v)
                                                    662(g),1665(v),1608(v)
                                                    1684(r),1630(r),1668(r)
                                                    636(g),637(g),1609(v)
  1647. BD*(   1) C  30 - C  35          0.01985     0.51799   
  1648. BD*(   1) C  31 - C  32          0.03169     0.53457   
  1649. BD*(   1) C  31 - C  44          0.03915     0.40045   
  1650. BD*(   1) C  32 - C  33          0.02175     0.56685   
  1651. BD*(   2) C  32 - C  33          0.33240     0.05229  1646(v),1656(v),1661(v)
                                                    714(g),1659(v)
  1652. BD*(   1) C  32 - C  39          0.02085     0.40349   
  1653. BD*(   1) C  33 - C  34          0.01363     0.55245   
  1654. BD*(   1) C  33 - H  38          0.01539     0.40804   
  1655. BD*(   1) C  34 - C  35          0.01646     0.56055   
  1656. BD*(   2) C  34 - C  35          0.32278     0.03954  1646(v),1651(v),1612(r)
                                                    740(g),765(g)
  1657. BD*(   1) C  34 - H  37          0.01380     0.41521   
  1658. BD*(   1) C  35 - H  36          0.01519     0.42101   
  1659. BD*(   1) C  39 - H  40          0.01404     0.38082   
  1660. BD*(   1) C  39 - C  41          0.00851     0.35929   
  1661. BD*(   1) C  39 - H  89          0.01882     0.37221   
  1662. BD*(   1) C  41 - H  42          0.01166     0.38928   
  1663. BD*(   1) C  41 - H  43          0.01545     0.40976   
  1664. BD*(   1) C  41 - C  44          0.03132     0.32612   
  1665. BD*(   1) C  44 - C  45          0.04062     0.38672   
  1666. BD*(   1) C  44 - C  85          0.03096     0.33233   
  1667. BD*(   1) C  45 - C  46          0.03134     0.53238   
  1668. BD*(   2) C  45 - C  46          0.34600     0.05690  1673(v),1678(v),1664(v)
                                                    1719(v),1630(r),1717(v)
                                                    925(g),1646(r),951(v)
  1669. BD*(   1) C  45 - C  50          0.03243     0.53490   
  1670. BD*(   1) C  46 - C  47          0.02266     0.56784   
  1671. BD*(   1) C  46 - C  83          0.02131     0.40298   
  1672. BD*(   1) C  47 - C  48          0.01387     0.56060   
  1673. BD*(   2) C  47 - C  48          0.34144     0.04303  1678(v),1668(v),1637(r)
                                                    978(g),951(g)
  1674. BD*(   1) C  47 - H  82          0.01586     0.41236   
  1675. BD*(   1) C  48 - C  49          0.01772     0.56349   
  1676. BD*(   1) C  48 - H  81          0.01415     0.41783   
  1677. BD*(   1) C  49 - C  50          0.02186     0.53228   
  1678. BD*(   2) C  49 - C  50          0.38539     0.03793  1673(v),1668(v),1684(r)
                                                    1003(g),1681(v),1694(r)
                                                    1030(g)
  1679. BD*(   1) C  49 - H  80          0.01724     0.43966   
  1680. BD*(   1) C  50 - P  51          0.04998     0.22285   
  1681. BD*(   1) P  51 - C  52          0.03960     0.24679   
  1682. BD*(   1) P  51 - C  66          0.04030     0.24072   
  1683. BD*(   1) C  52 - C  53          0.02470     0.53783   
  1684. BD*(   2) C  52 - C  53          0.35820     0.03554  1689(v),1694(v),1678(r)
                                                    1110(g),1682(v),1706(r)
                                                    1646(r),1680(v)
  1685. BD*(   1) C  52 - C  57          0.03248     0.52959   
  1686. BD*(   1) C  53 - C  54          0.01448     0.55629   
  1687. BD*(   1) C  53 - H  65          0.01554     0.42077   
  1688. BD*(   1) C  54 - C  55          0.02358     0.53408   
  1689. BD*(   2) C  54 - C  55          0.34259     0.03687  1684(v),1694(v),1136(g)
                                                    1699(v),1697(v)
  1690. BD*(   1) C  54 - H  64          0.01472     0.40222   
  1691. BD*(   1) C  55 - C  56          0.02340     0.53408   
  1692. BD*(   1) C  55 - C  60          0.01360     0.38961   
  1693. BD*(   1) C  56 - C  57          0.01693     0.55097   
  1694. BD*(   2) C  56 - C  57          0.33076     0.03255  1684(v),1689(v),1188(g)
                                                    1678(r)
  1695. BD*(   1) C  56 - H  59          0.01563     0.39855   
  1696. BD*(   1) C  57 - H  58          0.01612     0.41815   
  1697. BD*(   1) C  60 - H  61          0.00700     0.36252   
  1698. BD*(   1) C  60 - H  62          0.00516     0.36550   
  1699. BD*(   1) C  60 - H  63          0.01074     0.35812   
  1700. BD*(   1) C  66 - C  67          0.03094     0.53915   
  1701. BD*(   2) C  66 - C  67          0.36565     0.03101  1711(v),1706(v),1680(v)
                                                    1327(g)
  1702. BD*(   1) C  66 - C  71          0.02301     0.52533   
  1703. BD*(   1) C  67 - C  68          0.01556     0.55053   
  1704. BD*(   1) C  67 - H  79          0.01720     0.42108   
  1705. BD*(   1) C  68 - C  69          0.02277     0.53487   
  1706. BD*(   2) C  68 - C  69          0.33872     0.03539  1711(v),1701(v),1353(g)
                                                    1714(v),1684(r),1716(v)
  1707. BD*(   1) C  68 - H  78          0.01494     0.40214   
  1708. BD*(   1) C  69 - C  70          0.02354     0.52855   
  1709. BD*(   1) C  69 - C  74          0.01351     0.38983   
  1710. BD*(   1) C  70 - C  71          0.01483     0.55453   
  1711. BD*(   2) C  70 - C  71          0.31357     0.03273  1701(v),1706(v),1405(g)
                                                    1431(g)
  1712. BD*(   1) C  70 - H  73          0.01449     0.40099   
  1713. BD*(   1) C  71 - H  72          0.01599     0.41144   
  1714. BD*(   1) C  74 - H  75          0.01071     0.35847   
  1715. BD*(   1) C  74 - H  76          0.00517     0.36634   
  1716. BD*(   1) C  74 - H  77          0.00701     0.36311   
  1717. BD*(   1) C  83 - H  84          0.01488     0.38124   
  1718. BD*(   1) C  83 - C  85          0.00856     0.35829   
  1719. BD*(   1) C  83 - H  88          0.01865     0.37360   
  1720. BD*(   1) C  85 - H  86          0.01187     0.39025   
  1721. BD*(   1) C  85 - H  87          0.01567     0.40090   
       -------------------------------
              Total Lewis  333.25710  ( 97.4436%)
        Valence non-Lewis    8.10960  (  2.3712%)
        Rydberg non-Lewis    0.63331  (  0.1852%)
       -------------------------------
            Total unit  1  342.00000  (100.0000%)
           Charge unit  1    0.00000
 1\1\GINC-NOTCH143\SP\RPBE1PBE\def2TZVP\C45H42P2\U1010977\02-Nov-2021\0
 \\# PBE1PBE/def2TZVP int=(grid=ultrafine) empiricaldispersion=GD3BJ po
 p=nbo guess=read geom=check\\title\\0,1\P,0,0.7105750902,1.078592882,-
 0.3038341716\C,0,1.533052937,0.6156795299,-1.879802598\C,0,1.611894868
 ,-0.7211420967,-2.3100030199\C,0,2.3937602753,-1.0573192854,-3.4237956
 636\C,0,3.1125679628,-0.078082912,-4.1300500651\C,0,3.0339160196,1.255
 7630255,-3.6815356377\C,0,2.2564482987,1.6049205568,-2.5754103929\H,0,
 2.191220795,2.6486023274,-2.2577746738\H,0,3.5840589976,2.0373396823,-
 4.2179683081\C,0,3.9296816251,-0.4356446167,-5.3483103479\H,0,3.409185
 137,-0.1358771898,-6.2767773498\H,0,4.1151841312,-1.5207923607,-5.4083
 848109\H,0,4.9052933409,0.0806682194,-5.3460589853\H,0,2.4431274764,-2
 .1027755598,-3.7499070625\H,0,1.0591488481,-1.5038851368,-1.7816105308
 \C,0,2.1998798323,1.1261243205,0.7696850668\C,0,3.1589604091,0.0945342
 784,0.7559246656\C,0,4.3299348816,0.2131733401,1.5108128438\C,0,4.5928
 018396,1.3718221089,2.2673539647\C,0,3.6614099469,2.424953123,2.215731
 174\C,0,2.4805248917,2.3079632718,1.4771878691\H,0,1.7622179837,3.1335
 368678,1.4415738684\H,0,3.8581878421,3.3474718089,2.7730206987\C,0,5.8
 309180485,1.4789929161,3.1231674911\H,0,6.2563391167,2.4965772848,3.09
 66658922\H,0,6.6119034318,0.7700664896,2.8023841621\H,0,5.5946030203,1
 .2553456155,4.1810355569\H,0,5.0645650305,-0.6004534149,1.4992584745\H
 ,0,3.0039338123,-0.7892806998,0.1288394273\C,0,-0.494328636,-0.2877214
 365,-0.002392618\C,0,-0.8493463616,-0.899085673,1.2179226552\C,0,-1.96
 1826449,-1.7738704232,1.257764215\C,0,-2.7437013219,-2.0174932195,0.12
 77297129\C,0,-2.4216436224,-1.3711660771,-1.07431482\C,0,-1.319780978,
 -0.5144359095,-1.1361305639\H,0,-1.1092539047,0.02178325,-2.067512233\
 H,0,-3.0383207589,-1.5180178612,-1.9665646937\H,0,-3.6099581862,-2.685
 3765404,0.1888145511\C,0,-2.1488975834,-2.3689993654,2.6341764468\H,0,
 -3.2055417965,-2.357583164,2.9544718923\C,0,-1.2597915375,-1.485290688
 9,3.5279682169\H,0,-0.7977088498,-2.0315203141,4.3669974617\H,0,-1.861
 7478925,-0.6706089639,3.9524794131\C,0,-0.1643979201,-0.8830614608,2.5
 788471929\C,0,0.3970532277,0.3885599895,3.2308744568\C,0,1.505575842,0
 .0114392406,4.0270689222\C,0,2.1240820188,0.9049169897,4.9050052743\C,
 0,1.6309581567,2.2098766394,4.9965984153\C,0,0.5686140162,2.6141028915
 ,4.180961505\C,0,-0.0689726339,1.7320534952,3.2744153082\P,0,-1.292593
 2247,2.5150143326,2.0972803299\C,0,-2.8547309614,1.5958387388,2.351115
 5523\C,0,-3.6677744788,1.2799634635,1.2474047151\C,0,-4.8588106583,0.5
 729331356,1.4355009624\C,0,-5.2819192461,0.1788966588,2.7195502463\C,0
 ,-4.4671349806,0.5085784949,3.819333396\C,0,-3.2641343576,1.2034394145
 ,3.6410564906\H,0,-2.6299622521,1.4237204969,4.5072918892\H,0,-4.77367
 459,0.2076907092,4.8279341896\C,0,-6.5826985087,-0.5641090671,2.910064
 3097\H,0,-6.7335632624,-1.3207307517,2.1209165918\H,0,-6.6214194988,-1
 .0730350486,3.8874177347\H,0,-7.4447726685,0.1267518932,2.8620934407\H
 ,0,-5.4730090609,0.3197361523,0.564029396\H,0,-3.359581771,1.594130765
 ,0.2462515023\C,0,-1.5347558274,4.1841429115,2.831192974\C,0,-2.461862
 3601,4.4484621519,3.8515716879\C,0,-2.546948235,5.7308529784,4.4099054
 012\C,0,-1.7129604,6.7745302174,3.9733369333\C,0,-0.7869704328,6.49855
 01221,2.9472815426\C,0,-0.7047462451,5.2280827843,2.3747033453\H,0,-0.
 0160104143,5.0419796621,1.5429096809\H,0,-0.1377183918,7.2998155206,2.
 5760416259\C,0,-1.8297806101,8.1627546769,4.5554255869\H,0,-2.40464099
 5,8.8258743463,3.8826398185\H,0,-2.3467493833,8.1522678547,5.529209920
 6\H,0,-0.8387717258,8.6277224811,4.6962725732\H,0,-3.2843877125,5.9257
 700897,5.1972329138\H,0,-3.1374336891,3.6635488232,4.2018662898\H,0,0.
 2353584617,3.6518076062,4.2393556688\H,0,2.086671646,2.930328776,5.683
 5994423\H,0,2.9810198323,0.5829347128,5.5078135752\C,0,1.8894433071,-1
 .4361306922,3.8132019558\H,0,2.9762194548,-1.5532667545,3.6546872209\C
 ,0,1.0669997395,-1.8425859039,2.5769075948\H,0,0.7468261204,-2.8979901
 136,2.5852483252\H,0,1.6552913022,-1.6791969511,1.6615715596\H,0,1.626
 5487015,-2.0464456058,4.6988629373\H,0,-1.8195187025,-3.4265978877,2.6
 454580072\\Version=ES64L-G16RevB.01\State=1-A\HF=-2421.2132614\RMSD=4.
 723e-09\Dipole=-0.0704732,-0.1992069,0.6992556\Quadrupole=3.1777725,1.
 7561725,-4.933945,3.6935389,-2.6557076,4.5430416\PG=C01 [X(C45H42P2)]\
 \@


 COLLEGE PROFESSOR: SOMEONE WHO TALKS IN OTHER PEOPLE'S SLEEP.
 Job cpu time:       0 days  2 hours  7 minutes 52.5 seconds.
 Elapsed time:       0 days  0 hours  3 minutes 13.2 seconds.
 File lengths (MBytes):  RWF=   1512 Int=      0 D2E=      0 Chk=    228 Scr=      1
 Normal termination of Gaussian 16 at Tue Nov  2 10:45:11 2021.
