 Entering Gaussian System, Link 0=/uufs/chpc.utah.edu/sys/installdir/gaussian16/B01/E6B/g16/g16
 Input=R-pTol-SDP_2_SPE.com
 Output=R-pTol-SDP_2_SPE.log
 Initial command:
 /uufs/chpc.utah.edu/sys/installdir/gaussian16/B01/E6B/g16/l1.exe "/scratch/general/lustre/u1010977/3356281/notchpeak.peaks/Gau-168028.inp" -scrdir="/scratch/general/lustre/u1010977/3356281/notchpeak.peaks/"
 Entering Link 1 = /uufs/chpc.utah.edu/sys/installdir/gaussian16/B01/E6B/g16/l1.exe PID=    168030.
  
 Copyright (c) 1988-2017, Gaussian, Inc.  All Rights Reserved.
  
 This is part of the Gaussian(R) 16 program.  It is based on
 the Gaussian(R) 09 system (copyright 2009, Gaussian, Inc.),
 the Gaussian(R) 03 system (copyright 2003, Gaussian, Inc.),
 the Gaussian(R) 98 system (copyright 1998, Gaussian, Inc.),
 the Gaussian(R) 94 system (copyright 1995, Gaussian, Inc.),
 the Gaussian 92(TM) system (copyright 1992, Gaussian, Inc.),
 the Gaussian 90(TM) system (copyright 1990, Gaussian, Inc.),
 the Gaussian 88(TM) system (copyright 1988, Gaussian, Inc.),
 the Gaussian 86(TM) system (copyright 1986, Carnegie Mellon
 University), and the Gaussian 82(TM) system (copyright 1983,
 Carnegie Mellon University). Gaussian is a federally registered
 trademark of Gaussian, Inc.
  
 This software contains proprietary and confidential information,
 including trade secrets, belonging to Gaussian, Inc.
  
 This software is provided under written license and may be
 used, copied, transmitted, or stored only in accord with that
 written license.
  
 The following legend is applicable only to US Government
 contracts under FAR:
  
                    RESTRICTED RIGHTS LEGEND
  
 Use, reproduction and disclosure by the US Government is
 subject to restrictions as set forth in subparagraphs (a)
 and (c) of the Commercial Computer Software - Restricted
 Rights clause in FAR 52.227-19.
  
 Gaussian, Inc.
 340 Quinnipiac St., Bldg. 40, Wallingford CT 06492
  
  
 ---------------------------------------------------------------
 Warning -- This program may not be used in any manner that
 competes with the business of Gaussian, Inc. or will provide
 assistance to any competitor of Gaussian, Inc.  The licensee
 of this program is prohibited from giving any competitor of
 Gaussian, Inc. access to this program.  By using this program,
 the user acknowledges that Gaussian, Inc. is engaged in the
 business of creating and licensing software in the field of
 computational chemistry and represents and warrants to the
 licensee that it is not a competitor of Gaussian, Inc. and that
 it will not use this program in any manner prohibited above.
 ---------------------------------------------------------------
  

 Cite this work as:
 Gaussian 16, Revision B.01,
 M. J. Frisch, G. W. Trucks, H. B. Schlegel, G. E. Scuseria, 
 M. A. Robb, J. R. Cheeseman, G. Scalmani, V. Barone, 
 G. A. Petersson, H. Nakatsuji, X. Li, M. Caricato, A. V. Marenich, 
 J. Bloino, B. G. Janesko, R. Gomperts, B. Mennucci, H. P. Hratchian, 
 J. V. Ortiz, A. F. Izmaylov, J. L. Sonnenberg, D. Williams-Young, 
 F. Ding, F. Lipparini, F. Egidi, J. Goings, B. Peng, A. Petrone, 
 T. Henderson, D. Ranasinghe, V. G. Zakrzewski, J. Gao, N. Rega, 
 G. Zheng, W. Liang, M. Hada, M. Ehara, K. Toyota, R. Fukuda, 
 J. Hasegawa, M. Ishida, T. Nakajima, Y. Honda, O. Kitao, H. Nakai, 
 T. Vreven, K. Throssell, J. A. Montgomery, Jr., J. E. Peralta, 
 F. Ogliaro, M. J. Bearpark, J. J. Heyd, E. N. Brothers, K. N. Kudin, 
 V. N. Staroverov, T. A. Keith, R. Kobayashi, J. Normand, 
 K. Raghavachari, A. P. Rendell, J. C. Burant, S. S. Iyengar, 
 J. Tomasi, M. Cossi, J. M. Millam, M. Klene, C. Adamo, R. Cammi, 
 J. W. Ochterski, R. L. Martin, K. Morokuma, O. Farkas, 
 J. B. Foresman, and D. J. Fox, Gaussian, Inc., Wallingford CT, 2016.
 
 ******************************************
 Gaussian 16:  ES64L-G16RevB.01 20-Dec-2017
                 2-Nov-2021 
 ******************************************
 %NProcShared=40
 Will use up to   40 processors via shared memory.
 %mem=18GB
 %chk=R-pTol-SDP_2_SPE.chk
 ----------------------------------------------------------------------
 # PBE1PBE gen pseudo=read int=(grid=ultrafine) empiricaldispersion=GD3
 BJ nmr=giao
 ----------------------------------------------------------------------
 1/38=1,172=1/1;
 2/12=2,17=6,18=5,40=1/2;
 3/5=7,11=2,16=1,17=8,25=1,30=1,74=-13,75=-5,124=41/1,2,3,8;
 4//1;
 5/5=2,38=5/2;
 8/6=1,10=90,11=11/1;
 10/13=100,45=16/2;
 6/7=2,8=2,9=2,10=2,28=1/1;
 99/9=1/99;
 -----
 title
 -----
 Symbolic Z-matrix:
 Charge =  0 Multiplicity = 1
 Pd                   -0.16053   3.17528  -0.03082 
 P                     0.7072    1.02293  -0.24943 
 C                     1.36602   0.39638  -1.86057 
 C                     1.27982  -0.95805  -2.23565 
 C                     1.97219  -1.42774  -3.35993 
 C                     2.77288  -0.57098  -4.13363 
 C                     2.87534   0.77516  -3.73261 
 C                     2.18916   1.25712  -2.61545 
 H                     2.28302   2.30765  -2.33214 
 H                     3.50269   1.46379  -4.31007 
 C                     3.49287  -1.07038  -5.36295 
 H                     2.95356  -0.78015  -6.28384 
 H                     3.58028  -2.16957  -5.36398 
 H                     4.50798  -0.64377  -5.43729 
 H                     1.88824  -2.48523  -3.63677 
 H                     0.67699  -1.65845  -1.65113 
 C                     2.30472   0.93582   0.66512 
 C                     3.07798  -0.2422    0.67689 
 C                     4.35177  -0.24295   1.25129 
 C                     4.9061    0.9356    1.79048 
 C                     4.15258   2.11936   1.71108 
 C                     2.86618   2.12522   1.15996 
 H                     2.29108   3.05689   1.09975 
 H                     4.57447   3.05469   2.09565 
 C                     6.26668   0.92536   2.44391 
 H                     6.17795   0.77372   3.53677 
 H                     6.79625   1.88085   2.29215 
 H                     6.90131   0.11316   2.05184 
 H                     4.94025  -1.16802   1.25918 
 H                     2.69856  -1.15082   0.19821 
 C                    -0.51844  -0.25838   0.25651 
 C                    -0.82085  -0.72618   1.5563 
 C                    -1.95975  -1.5466    1.75141 
 C                    -2.79181  -1.91478   0.69359 
 C                    -2.51099  -1.43017  -0.59078 
 C                    -1.4093   -0.59712  -0.79601 
 H                    -1.23788  -0.18217  -1.7942 
 H                    -3.16714  -1.67431  -1.43222 
 H                    -3.66729  -2.54855   0.87369 
 C                    -2.1226   -1.93704   3.20273 
 H                    -3.16722  -1.83052   3.54441 
 C                    -1.16476  -0.97974   3.93502 
 H                    -0.71325  -1.41432   4.84244 
 H                    -1.70378  -0.06927   4.23392 
 C                    -0.06822  -0.60839   2.88215 
 C                     0.65617   0.6659    3.31762 
 C                     1.82398   0.30284   4.03363 
 C                     2.64177   1.25662   4.64058 
 C                     2.316     2.61291   4.50768 
 C                     1.18476   2.99012   3.78118 
 C                     0.309     2.03214   3.20541 
 P                    -0.96689   2.81058   2.12559 
 C                    -2.53898   1.85561   2.01336 
 C                    -3.27526   1.51985   3.167 
 C                    -4.53451   0.92544   3.05071 
 C                    -5.11178   0.68816   1.78685 
 C                    -4.39696   1.09013   0.64539 
 C                    -3.12477   1.66371   0.75048 
 H                    -2.58004   1.97732  -0.14802 
 H                    -4.83808   0.94424  -0.34701 
 C                    -6.45561   0.01242   1.6614 
 H                    -7.02083   0.39246   0.79387 
 H                    -6.33631  -1.07862   1.51787 
 H                    -7.07118   0.15791   2.56473 
 H                    -5.094     0.6636    3.95653 
 H                    -2.87959   1.76216   4.15868 
 C                    -1.64398   4.18753   3.15899 
 C                    -1.52519   4.20703   4.56188 
 C                    -2.22915   5.15249   5.31985 
 C                    -3.07371   6.09433   4.70878 
 C                    -3.20788   6.04715   3.30764 
 C                    -2.51066   5.11151   2.53977 
 H                    -2.62995   5.10291   1.45424 
 H                    -3.86946   6.76173   2.80473 
 C                    -3.80679   7.1329    5.523 
 H                    -4.83568   7.28318   5.15317 
 H                    -3.86123   6.85032   6.58746 
 H                    -3.29795   8.11319   5.46618 
 H                    -2.1194    5.15275   6.4107 
 H                    -0.8876    3.48186   5.07493 
 Cl                   -0.35491   5.5241    0.25011 
 H                     0.97721   4.05543   3.63974 
 H                     2.95932   3.38386   4.94351 
 H                     3.54029   0.94763   5.18624 
 C                     2.03291  -1.19438   4.03556 
 H                     3.08155  -1.46537   3.8205 
 C                     1.06373  -1.68706   2.94559 
 H                     0.64728  -2.68874   3.14391 
 H                     1.58148  -1.72698   1.97648 
 H                     1.78536  -1.62256   5.0265 
 H                    -1.83872  -2.99637   3.35701 
 Cl                   -0.03152   3.50936  -2.37718 
 
 Stoichiometry    C45H42Cl2P2Pd
 Framework group  C1[X(C45H42Cl2P2Pd)]
 Deg. of freedom   270
 Full point group                 C1      NOp   1
 Largest Abelian subgroup         C1      NOp   1
 Largest concise Abelian subgroup C1      NOp   1
                         Standard orientation:                         
 ---------------------------------------------------------------------
 Center     Atomic      Atomic             Coordinates (Angstroms)
 Number     Number       Type             X           Y           Z
 ---------------------------------------------------------------------
      1         46           0        0.000068   -0.000362   -1.964407
      2         15           0       -1.659964    0.392562   -0.375929
      3          6           0       -3.332145    1.026433   -0.849650
      4          6           0       -4.088300    1.863796   -0.007240
      5          6           0       -5.427119    2.148987   -0.307564
      6          6           0       -6.051514    1.605418   -1.442649
      7          6           0       -5.294703    0.745922   -2.262352
      8          6           0       -3.958905    0.454720   -1.975977
      9          1           0       -3.395218   -0.210571   -2.633484
     10          1           0       -5.759355    0.297457   -3.147912
     11          6           0       -7.484087    1.938472   -1.782980
     12          1           0       -7.534919    2.698127   -2.585136
     13          1           0       -8.025363    2.342048   -0.911189
     14          1           0       -8.029412    1.050530   -2.146519
     15          1           0       -5.996764    2.806539    0.359602
     16          1           0       -3.641256    2.295510    0.892429
     17          6           0       -2.241417   -1.227644    0.282030
     18          6           0       -3.274679   -1.301267    1.237409
     19          6           0       -3.799602   -2.540518    1.613165
     20          6           0       -3.341006   -3.733824    1.019291
     21          6           0       -2.358529   -3.641403    0.018502
     22          6           0       -1.809079   -2.407357   -0.347353
     23          1           0       -1.046653   -2.349013   -1.133280
     24          1           0       -2.007931   -4.552272   -0.479611
     25          6           0       -3.882276   -5.074579    1.452473
     26          1           0       -3.243398   -5.522593    2.237543
     27          1           0       -3.912459   -5.789658    0.613310
     28          1           0       -4.899730   -4.988392    1.869014
     29          1           0       -4.599088   -2.583844    2.362207
     30          1           0       -3.697933   -0.383200    1.657774
     31          6           0       -1.091444    1.570385    0.923847
     32          6           0       -0.323996    1.304407    2.081441
     33          6           0        0.204073    2.386876    2.828207
     34          6           0       -0.017451    3.713907    2.458378
     35          6           0       -0.753797    3.980447    1.296459
     36          6           0       -1.257087    2.925306    0.532787
     37          1           0       -1.780823    3.150582   -0.401509
     38          1           0       -0.912542    5.011126    0.963784
     39          1           0        0.404902    4.531407    3.053255
     40          6           0        1.000233    1.905364    4.019670
     41          1           0        1.956869    2.447050    4.123413
     42          6           0        1.202327    0.407555    3.726706
     43          1           0        1.241521   -0.219116    4.633279
     44          1           0        2.142984    0.258588    3.177339
     45          6           0       -0.000049    0.000510    2.811580
     46          6           0        0.323938   -1.303636    2.081898
     47          6           0       -0.204197   -2.385847    2.828991
     48          6           0        0.017318   -3.713006    2.459617
     49          6           0        0.753741   -3.979950    1.297843
     50          6           0        1.257105   -2.925076    0.533851
     51          6           0        1.091450   -1.570021    0.924437
     52         15           0        1.660033   -0.392666   -0.375725
     53          6           0        2.241472    1.227751    0.281716
     54          6           0        3.274644    1.301693    1.237123
     55          6           0        3.799487    2.541113    1.612546
     56          6           0        3.340900    3.734191    1.018292
     57          6           0        2.358460    3.641436    0.017450
     58          6           0        1.809117    2.407279   -0.348063
     59          1           0        1.046727    2.348643   -1.134001
     60          1           0        2.007835    4.552140   -0.480954
     61          6           0        3.882059    5.075176    1.450914
     62          1           0        3.919624    5.787484    0.609661
     63          1           0        3.238612    5.527176    2.229934
     64          1           0        4.896399    4.988156    1.874758
     65          1           0        4.598882    2.584721    2.361664
     66          1           0        3.697894    0.383779    1.657825
     67          6           0        3.332202   -1.026720   -0.849221
     68          6           0        4.088343   -1.863832   -0.006550
     69          6           0        5.427156   -2.149141   -0.306790
     70          6           0        6.051552   -1.605945   -1.442055
     71          6           0        5.294753   -0.746693   -2.262025
     72          6           0        3.958959   -0.455381   -1.975738
     73          1           0        3.395284    0.209714   -2.633452
     74          1           0        5.759413   -0.298519   -3.147727
     75          6           0        7.484106   -1.939170   -1.782301
     76          1           0        8.029225   -1.051566   -2.146960
     77          1           0        8.025618   -2.341689   -0.910166
     78          1           0        7.534880   -2.699741   -2.583596
     79          1           0        5.996794   -2.806487    0.360586
     80          1           0        3.641296   -2.295242    0.893263
     81         17           0        1.326383   -1.004500   -3.657410
     82          1           0        1.780891   -3.150675   -0.400338
     83          1           0        0.912474   -5.010744    0.965520
     84          1           0       -0.405114   -4.530299    3.054720
     85          6           0       -1.000439   -1.903927    4.020233
     86          1           0       -1.957088   -2.445571    4.124092
     87          6           0       -1.202503   -0.406218    3.726744
     88          1           0       -1.241765    0.220762    4.633099
     89          1           0       -2.143117   -0.257426    3.177252
     90          1           0       -0.435161   -2.063800    4.959098
     91          1           0        0.434886    2.065552    4.958439
     92         17           0       -1.326178    1.003065   -3.657887
 ---------------------------------------------------------------------
 Rotational constants (GHZ):           0.0695214           0.0463537           0.0450761
 General basis read from cards:  (5D, 7F)
 ======================================================================================================
                                       Pseudopotential Parameters
 ======================================================================================================
  Center     Atomic      Valence      Angular      Power
  Number     Number     Electrons     Momentum     of R      Exponent        Coefficient   SO-Coeffient
 ======================================================================================================
    1         46           18
                                      G and up 
                                                     2        1.0000000        0.00000000    0.00000000
                                      S - G
                                                     2       12.4300000      240.22904000    0.00000000
                                                     2        6.1707590       35.17194300    0.00000000
                                      P - G
                                                     2       11.0800000      170.41727600    0.00000000
                                                     2        5.8295540       28.47213300    0.00000000
                                      D - G
                                                     2        9.5100000       69.01384500    0.00000000
                                                     2        4.1397810       11.75086200    0.00000000
                                      F - G
                                                     2       13.2700000      -31.92955400    0.00000000
                                                     2        6.6300000       -5.39821700    0.00000000
    2         15
                                   No pseudopotential on this center.
    3          6
                                   No pseudopotential on this center.
    4          6
                                   No pseudopotential on this center.
    5          6
                                   No pseudopotential on this center.
    6          6
                                   No pseudopotential on this center.
    7          6
                                   No pseudopotential on this center.
    8          6
                                   No pseudopotential on this center.
    9          1
                                   No pseudopotential on this center.
   10          1
                                   No pseudopotential on this center.
   11          6
                                   No pseudopotential on this center.
   12          1
                                   No pseudopotential on this center.
   13          1
                                   No pseudopotential on this center.
   14          1
                                   No pseudopotential on this center.
   15          1
                                   No pseudopotential on this center.
   16          1
                                   No pseudopotential on this center.
   17          6
                                   No pseudopotential on this center.
   18          6
                                   No pseudopotential on this center.
   19          6
                                   No pseudopotential on this center.
   20          6
                                   No pseudopotential on this center.
   21          6
                                   No pseudopotential on this center.
   22          6
                                   No pseudopotential on this center.
   23          1
                                   No pseudopotential on this center.
   24          1
                                   No pseudopotential on this center.
   25          6
                                   No pseudopotential on this center.
   26          1
                                   No pseudopotential on this center.
   27          1
                                   No pseudopotential on this center.
   28          1
                                   No pseudopotential on this center.
   29          1
                                   No pseudopotential on this center.
   30          1
                                   No pseudopotential on this center.
   31          6
                                   No pseudopotential on this center.
   32          6
                                   No pseudopotential on this center.
   33          6
                                   No pseudopotential on this center.
   34          6
                                   No pseudopotential on this center.
   35          6
                                   No pseudopotential on this center.
   36          6
                                   No pseudopotential on this center.
   37          1
                                   No pseudopotential on this center.
   38          1
                                   No pseudopotential on this center.
   39          1
                                   No pseudopotential on this center.
   40          6
                                   No pseudopotential on this center.
   41          1
                                   No pseudopotential on this center.
   42          6
                                   No pseudopotential on this center.
   43          1
                                   No pseudopotential on this center.
   44          1
                                   No pseudopotential on this center.
   45          6
                                   No pseudopotential on this center.
   46          6
                                   No pseudopotential on this center.
   47          6
                                   No pseudopotential on this center.
   48          6
                                   No pseudopotential on this center.
   49          6
                                   No pseudopotential on this center.
   50          6
                                   No pseudopotential on this center.
   51          6
                                   No pseudopotential on this center.
   52         15
                                   No pseudopotential on this center.
   53          6
                                   No pseudopotential on this center.
   54          6
                                   No pseudopotential on this center.
   55          6
                                   No pseudopotential on this center.
   56          6
                                   No pseudopotential on this center.
   57          6
                                   No pseudopotential on this center.
   58          6
                                   No pseudopotential on this center.
   59          1
                                   No pseudopotential on this center.
   60          1
                                   No pseudopotential on this center.
   61          6
                                   No pseudopotential on this center.
   62          1
                                   No pseudopotential on this center.
   63          1
                                   No pseudopotential on this center.
   64          1
                                   No pseudopotential on this center.
   65          1
                                   No pseudopotential on this center.
   66          1
                                   No pseudopotential on this center.
   67          6
                                   No pseudopotential on this center.
   68          6
                                   No pseudopotential on this center.
   69          6
                                   No pseudopotential on this center.
   70          6
                                   No pseudopotential on this center.
   71          6
                                   No pseudopotential on this center.
   72          6
                                   No pseudopotential on this center.
   73          1
                                   No pseudopotential on this center.
   74          1
                                   No pseudopotential on this center.
   75          6
                                   No pseudopotential on this center.
   76          1
                                   No pseudopotential on this center.
   77          1
                                   No pseudopotential on this center.
   78          1
                                   No pseudopotential on this center.
   79          1
                                   No pseudopotential on this center.
   80          1
                                   No pseudopotential on this center.
   81         17
                                   No pseudopotential on this center.
   82          1
                                   No pseudopotential on this center.
   83          1
                                   No pseudopotential on this center.
   84          1
                                   No pseudopotential on this center.
   85          6
                                   No pseudopotential on this center.
   86          1
                                   No pseudopotential on this center.
   87          6
                                   No pseudopotential on this center.
   88          1
                                   No pseudopotential on this center.
   89          1
                                   No pseudopotential on this center.
   90          1
                                   No pseudopotential on this center.
   91          1
                                   No pseudopotential on this center.
   92         17
                                   No pseudopotential on this center.
 ======================================================================================================
 There are  2079 symmetry adapted cartesian basis functions of A   symmetry.
 There are  1831 symmetry adapted basis functions of A   symmetry.
  1831 basis functions,  2972 primitive gaussians,  2079 cartesian basis functions
   197 alpha electrons      197 beta electrons
       nuclear repulsion energy      8438.0810845014 Hartrees.
 NAtoms=   92 NActive=   92 NUniq=   92 SFac= 1.00D+00 NAtFMM=   60 NAOKFM=T Big=T
 Integral buffers will be    131072 words long.
 Raffenetti 2 integral format.
 Two-electron integral symmetry is turned on.
 Nuclear repulsion after empirical dispersion term =     8437.9038031853 Hartrees.
 One-electron integrals computed using PRISM.
   1 Symmetry operations used in ECPInt.
 ECPInt:  NShTT=  266085 NPrTT=  822392 LenC2=  207087 LenP2D=  422477.
 LDataN:  DoStor=T MaxTD1= 7 Len=  274
 Number of processors reduced to  20 by ecpmxn.
 NBasis=  1831 RedAO= T EigKep=  2.80D-06  NBF=  1831
 NBsUse=  1831 1.00D-06 EigRej= -1.00D+00 NBFU=  1831
 Defaulting to unpruned grid for atomic number  46.
 ExpMin= 1.60D-02 ExpMax= 6.95D+04 ExpMxC= 2.37D+03 IAcc=3 IRadAn=         5 AccDes= 0.00D+00
 Harris functional with IExCor= 1009 and IRadAn=       5 diagonalized for initial guess.
 HarFok:  IExCor= 1009 AccDes= 0.00D+00 IRadAn=         5 IDoV= 1 UseB2=F ITyADJ=14
 ICtDFT=  3500011 ScaDFX=  1.000000  1.000000  1.000000  1.000000
 Defaulting to unpruned grid for atomic number  46.
 FoFCou: FMM=F IPFlag=           0 FMFlag=      100000 FMFlg1=        2001
         NFxFlg=           0 DoJE=T BraDBF=F KetDBF=T FulRan=T
         wScrn=  0.000000 ICntrl=       500 IOpCl=  0 I1Cent=   200000004 NGrid=           0
         NMat0=    1 NMatS0=      1 NMatT0=    0 NMatD0=    1 NMtDS0=    0 NMtDT0=    0
 Petite list used in FoFCou.
 Requested convergence on RMS density matrix=1.00D-08 within 128 cycles.
 Requested convergence on MAX density matrix=1.00D-06.
 Requested convergence on             energy=1.00D-06.
 No special actions if energy rises.
 Defaulting to unpruned grid for atomic number  46.
 Defaulting to unpruned grid for atomic number  46.
 Defaulting to unpruned grid for atomic number  46.
 Defaulting to unpruned grid for atomic number  46.
 Defaulting to unpruned grid for atomic number  46.
 Defaulting to unpruned grid for atomic number  46.
 Defaulting to unpruned grid for atomic number  46.
 Defaulting to unpruned grid for atomic number  46.
 Defaulting to unpruned grid for atomic number  46.
 Defaulting to unpruned grid for atomic number  46.
 Defaulting to unpruned grid for atomic number  46.
 Defaulting to unpruned grid for atomic number  46.
 Defaulting to unpruned grid for atomic number  46.
 Defaulting to unpruned grid for atomic number  46.
 Defaulting to unpruned grid for atomic number  46.
 Defaulting to unpruned grid for atomic number  46.
 Defaulting to unpruned grid for atomic number  46.
 Defaulting to unpruned grid for atomic number  46.
 Defaulting to unpruned grid for atomic number  46.
 Defaulting to unpruned grid for atomic number  46.
 Defaulting to unpruned grid for atomic number  46.
 Defaulting to unpruned grid for atomic number  46.
 Defaulting to unpruned grid for atomic number  46.
 Defaulting to unpruned grid for atomic number  46.
 Defaulting to unpruned grid for atomic number  46.
 Defaulting to unpruned grid for atomic number  46.
 Defaulting to unpruned grid for atomic number  46.
 Defaulting to unpruned grid for atomic number  46.
 Defaulting to unpruned grid for atomic number  46.
 Defaulting to unpruned grid for atomic number  46.
 Defaulting to unpruned grid for atomic number  46.
 Defaulting to unpruned grid for atomic number  46.
 Defaulting to unpruned grid for atomic number  46.
 Defaulting to unpruned grid for atomic number  46.
 Defaulting to unpruned grid for atomic number  46.
 Defaulting to unpruned grid for atomic number  46.
 Defaulting to unpruned grid for atomic number  46.
 Defaulting to unpruned grid for atomic number  46.
 Defaulting to unpruned grid for atomic number  46.
 Defaulting to unpruned grid for atomic number  46.
 EnCoef did     3 forward-backward iterations
 EnCoef did   100 forward-backward iterations
 EnCoef did   100 forward-backward iterations
 EnCoef did   100 forward-backward iterations
 EnCoef did     6 forward-backward iterations
 Restarting incremental Fock formation.
 SCF Done:  E(RPBE1PBE) =  -3469.38923035     A.U. after   22 cycles
            NFock= 22  Conv=0.68D-08     -V/T= 2.0277
 DoSCS=F DFT=T ScalE2(SS,OS)=  1.000000  1.000000
 Range of M.O.s used for correlation:     1  1831
 NBasis=  1831 NAE=   197 NBE=   197 NFC=     0 NFV=     0
 NROrb=   1831 NOA=   197 NOB=   197 NVA=  1634 NVB=  1634

 **** Warning!!: The largest alpha MO coefficient is  0.42601520D+02

          Differentiating once with respect to magnetic field using GIAOs.
          Electric field/nuclear overlap derivatives assumed to be zero.
 Defaulting to unpruned grid for atomic number  46.
 FoFCou: FMM=F IPFlag=           0 FMFlag=      100000 FMFlg1=        2001
         NFxFlg=           0 DoJE=F BraDBF=F KetDBF=T FulRan=T
         wScrn=  0.000000 ICntrl=      6100 IOpCl=  0 I1Cent=           7 NGrid=          92
         NMat0=    1 NMatS0=      1 NMatT0=    0 NMatD0=    1 NMtDS0=    0 NMtDT0=    0
 Symmetry not used in FoFCou.
   1 Symmetry operations used in ECPInt.
 ECPInt:  NShTT=  266085 NPrTT=  822392 LenC2=  266086 LenP2D=  822392.
 LDataN:  DoStor=T MaxTD1= 8 Len=  415
 Number of processors reduced to  13 by ecpmxn.
 FoFJK:  IHMeth= 1 ICntrl=    6127 DoSepK=F KAlg= 0 I1Cent=           0 FoldK=F
 IRaf=         1 NMat=       1 IRICut=       1 DoRegI=T DoRafI=F ISym2E= 0 IDoP0=0 IntGTp=1.
 Defaulting to unpruned grid for atomic number  46.
 Defaulting to unpruned grid for atomic number  46.
 Defaulting to unpruned grid for atomic number  46.
 Defaulting to unpruned grid for atomic number  46.
 Defaulting to unpruned grid for atomic number  46.
 Defaulting to unpruned grid for atomic number  46.
 Defaulting to unpruned grid for atomic number  46.
 Defaulting to unpruned grid for atomic number  46.
 Defaulting to unpruned grid for atomic number  46.
 Defaulting to unpruned grid for atomic number  46.
 Defaulting to unpruned grid for atomic number  46.
 Defaulting to unpruned grid for atomic number  46.
 Defaulting to unpruned grid for atomic number  46.
 Defaulting to unpruned grid for atomic number  46.
 Defaulting to unpruned grid for atomic number  46.
 Defaulting to unpruned grid for atomic number  46.
 Defaulting to unpruned grid for atomic number  46.
 Defaulting to unpruned grid for atomic number  46.
 Defaulting to unpruned grid for atomic number  46.
 Defaulting to unpruned grid for atomic number  46.
 Defaulting to unpruned grid for atomic number  46.
 Defaulting to unpruned grid for atomic number  46.
 Defaulting to unpruned grid for atomic number  46.
 Defaulting to unpruned grid for atomic number  46.
 Defaulting to unpruned grid for atomic number  46.
 Defaulting to unpruned grid for atomic number  46.
 Defaulting to unpruned grid for atomic number  46.
 Defaulting to unpruned grid for atomic number  46.
 Defaulting to unpruned grid for atomic number  46.
 Defaulting to unpruned grid for atomic number  46.
 Defaulting to unpruned grid for atomic number  46.
 Defaulting to unpruned grid for atomic number  46.
 Defaulting to unpruned grid for atomic number  46.
 Defaulting to unpruned grid for atomic number  46.
 Defaulting to unpruned grid for atomic number  46.
 Defaulting to unpruned grid for atomic number  46.
 Defaulting to unpruned grid for atomic number  46.
 Defaulting to unpruned grid for atomic number  46.
 Defaulting to unpruned grid for atomic number  46.
 Defaulting to unpruned grid for atomic number  46.
          There are     3 degrees of freedom in the 1st order CPHF.  IDoFFX=0 NUNeed=     3.
      3 vectors produced by pass  0 Test12= 1.07D-11 3.33D-08 XBig12= 1.98D+02 1.70D+00.
 AX will form     3 AO Fock derivatives at one time.
      3 vectors produced by pass  1 Test12= 1.07D-11 3.33D-08 XBig12= 8.72D-01 1.95D-01.
      3 vectors produced by pass  2 Test12= 1.07D-11 3.33D-08 XBig12= 9.61D-03 2.96D-02.
      3 vectors produced by pass  3 Test12= 1.07D-11 3.33D-08 XBig12= 2.49D-04 8.88D-03.
      3 vectors produced by pass  4 Test12= 1.07D-11 3.33D-08 XBig12= 1.92D-06 4.61D-04.
      3 vectors produced by pass  5 Test12= 1.07D-11 3.33D-08 XBig12= 2.19D-08 5.64D-05.
      3 vectors produced by pass  6 Test12= 1.07D-11 3.33D-08 XBig12= 2.93D-10 5.61D-06.
      3 vectors produced by pass  7 Test12= 1.07D-11 3.33D-08 XBig12= 2.20D-12 4.44D-07.
 InvSVY:  IOpt=1 It=  1 EMax= 1.78D-15
 Solved reduced A of dimension    24 with     3 vectors.
 Calculating GIAO nuclear magnetic shielding tensors.
 SCF GIAO Magnetic shielding tensor (ppm):
      1  Pd   Isotropic =  -180.4273   Anisotropy =   273.6254
   XX=  -111.4354   YX=  -181.4628   ZX=     0.0387
   XY=  -192.7993   YY=  -431.8361   ZY=     0.0817
   XZ=     0.0447   YZ=     0.0884   ZZ=     1.9896
   Eigenvalues:  -517.9733   -25.2982     1.9896
      2  P    Isotropic =   232.7862   Anisotropy =   137.7603
   XX=   215.4375   YX=   -37.8645   ZX=   -48.8156
   XY=   -48.5023   YY=   176.8029   ZY=   -28.3040
   XZ=   -40.8589   YZ=    -0.0673   ZZ=   306.1183
   Eigenvalues:   140.4248   233.3074   324.6264
      3  C    Isotropic =    45.7508   Anisotropy =   176.5812
   XX=   -23.4842   YX=    52.2619   ZX=   -33.4135
   XY=    42.3688   YY=   114.7440   ZY=   -44.3489
   XZ=   -35.8210   YZ=   -65.9118   ZZ=    45.9926
   Eigenvalues:   -42.4289    16.2097   163.4716
      4  C    Isotropic =    48.7764   Anisotropy =   185.0557
   XX=    35.4132   YX=    17.0963   ZX=   -50.0283
   XY=    29.7989   YY=   100.9584   ZY=   -87.1486
   XZ=   -54.9261   YZ=   -90.2104   ZZ=     9.9577
   Eigenvalues:   -57.1435    31.3259   172.1469
      5  C    Isotropic =    53.8517   Anisotropy =   157.0017
   XX=    35.6319   YX=    55.9295   ZX=    16.9935
   XY=    61.8528   YY=    83.2225   ZY=   -77.9145
   XZ=    14.1563   YZ=   -83.4265   ZZ=    42.7007
   Eigenvalues:   -50.0714    53.1070   158.5195
      6  C    Isotropic =    38.3598   Anisotropy =   203.8037
   XX=   -44.0505   YX=    54.3571   ZX=   -40.2940
   XY=    45.0037   YY=   107.1972   ZY=   -72.1648
   XZ=   -35.6942   YZ=   -71.1189   ZZ=    51.9326
   Eigenvalues:   -62.0718     2.9223   174.2289
      7  C    Isotropic =    51.3066   Anisotropy =   169.4815
   XX=    38.3669   YX=    11.2973   ZX=   -50.7697
   XY=    15.5220   YY=    95.4176   ZY=   -88.1299
   XZ=   -58.1607   YZ=   -80.6530   ZZ=    20.1354
   Eigenvalues:   -52.4731    42.0986   164.2943
      8  C    Isotropic =    36.2479   Anisotropy =   206.0322
   XX=     7.5563   YX=    61.9899   ZX=    -8.3164
   XY=    71.7750   YY=    72.0506   ZY=   -95.3866
   XZ=   -10.7747   YZ=  -104.1721   ZZ=    29.1368
   Eigenvalues:   -70.4867     5.6277   173.6027
      9  H    Isotropic =    22.6531   Anisotropy =    12.2731
   XX=    29.5879   YX=     1.0366   ZX=     4.5670
   XY=     2.6971   YY=    16.2021   ZY=    -1.3071
   XZ=     1.6990   YZ=    -1.9325   ZZ=    22.1693
   Eigenvalues:    15.2932    21.8310    30.8352
     10  H    Isotropic =    24.1261   Anisotropy =     8.7849
   XX=    28.6678   YX=    -3.8210   ZX=     0.4178
   XY=    -2.7296   YY=    21.8022   ZY=     1.3336
   XZ=     0.5494   YZ=     0.2359   ZZ=    21.9083
   Eigenvalues:    20.0466    22.3490    29.9827
     11  C    Isotropic =   162.9931   Anisotropy =    41.6346
   XX=   186.3869   YX=    -8.9094   ZX=     4.9519
   XY=   -13.8685   YY=   149.3049   ZY=     5.2879
   XZ=    11.2421   YZ=     4.5695   ZZ=   153.2874
   Eigenvalues:   141.6203   156.6095   190.7494
     12  H    Isotropic =    28.8437   Anisotropy =     9.6461
   XX=    28.6450   YX=    -2.8389   ZX=     2.5078
   XY=    -3.9903   YY=    28.4944   ZY=    -3.6264
   XZ=     2.9144   YZ=    -3.3731   ZZ=    29.3918
   Eigenvalues:    24.9408    26.3159    35.2745
     13  H    Isotropic =    29.3664   Anisotropy =     7.9915
   XX=    32.7179   YX=    -3.5018   ZX=    -2.3565
   XY=    -1.7712   YY=    25.8795   ZY=     3.0218
   XZ=    -0.6855   YZ=     2.1508   ZZ=    29.5019
   Eigenvalues:    24.1787    29.2265    34.6941
     14  H    Isotropic =    29.1126   Anisotropy =     8.3887
   XX=    32.8324   YX=     2.0818   ZX=     3.2298
   XY=     1.7622   YY=    28.6025   ZY=     2.8312
   XZ=     1.2914   YZ=     2.5447   ZZ=    25.9027
   Eigenvalues:    24.1316    28.5010    34.7050
     15  H    Isotropic =    24.1848   Anisotropy =     8.3876
   XX=    28.3929   YX=    -1.2436   ZX=     3.6698
   XY=    -1.0975   YY=    21.1667   ZY=     0.6441
   XZ=     2.2686   YZ=     0.8452   ZZ=    22.9948
   Eigenvalues:    20.2028    22.5751    29.7765
     16  H    Isotropic =    23.5548   Anisotropy =    14.3416
   XX=    32.1011   YX=    -3.1645   ZX=     1.5857
   XY=    -3.5679   YY=    21.6975   ZY=     1.7350
   XZ=    -2.3394   YZ=    -0.1980   ZZ=    16.8658
   Eigenvalues:    16.7449    20.8036    33.1159
     17  C    Isotropic =    46.0618   Anisotropy =   183.1046
   XX=    89.9282   YX=   -32.0512   ZX=    76.5022
   XY=   -33.3467   YY=   -28.1105   ZY=     9.0986
   XZ=    88.3270   YZ=    -0.0666   ZZ=    76.3677
   Eigenvalues:   -44.6064    14.6603   168.1315
     18  C    Isotropic =    43.8718   Anisotropy =   195.8146
   XX=    75.1166   YX=    24.0506   ZX=    92.5152
   XY=    18.2839   YY=   -37.7740   ZY=   -30.9415
   XZ=    84.7896   YZ=   -35.5929   ZZ=    94.2728
   Eigenvalues:   -62.9226    20.1231   174.4148
     19  C    Isotropic =    53.0574   Anisotropy =   164.8478
   XX=    51.7056   YX=    -2.9892   ZX=   106.9710
   XY=    -5.2624   YY=    48.7879   ZY=    -6.5261
   XZ=   108.0358   YZ=     1.0843   ZZ=    58.6787
   Eigenvalues:   -52.3791    48.5954   162.9559
     20  C    Isotropic =    40.2326   Anisotropy =   204.2148
   XX=    83.9663   YX=   -33.8472   ZX=    91.4784
   XY=   -28.6922   YY=   -46.3992   ZY=     4.1008
   XZ=    90.2061   YZ=    -0.4754   ZZ=    83.1309
   Eigenvalues:   -58.8416     3.1637   176.3758
     21  C    Isotropic =    48.5525   Anisotropy =   177.2320
   XX=    98.4406   YX=    23.7705   ZX=    74.4238
   XY=    12.3983   YY=   -28.8084   ZY=   -40.4675
   XZ=    81.2746   YZ=   -38.8995   ZZ=    76.0254
   Eigenvalues:   -56.4168    35.3672   166.7072
     22  C    Isotropic =    42.4167   Anisotropy =   191.7628
   XX=    56.9701   YX=    -6.7769   ZX=   118.0813
   XY=   -13.5328   YY=    24.1396   ZY=   -12.2831
   XZ=   115.2800   YZ=   -14.6601   ZZ=    46.1404
   Eigenvalues:   -65.3355    22.3271   170.2586
     23  H    Isotropic =    22.7258   Anisotropy =     9.1418
   XX=    19.9706   YX=     2.4614   ZX=     2.6801
   XY=     2.9866   YY=    27.7707   ZY=    -1.1044
   XZ=     0.8471   YZ=    -2.5858   ZZ=    20.4360
   Eigenvalues:    17.3937    21.9633    28.8203
     24  H    Isotropic =    24.4963   Anisotropy =     8.2783
   XX=    24.7845   YX=     5.4511   ZX=    -0.5526
   XY=     3.8769   YY=    25.1045   ZY=    -2.0314
   XZ=    -1.2930   YZ=    -0.6598   ZZ=    23.5999
   Eigenvalues:    20.2537    23.2199    30.0152
     25  C    Isotropic =   162.8952   Anisotropy =    41.4331
   XX=   155.4813   YX=    10.4618   ZX=    -8.8784
   XY=    16.1351   YY=   181.9040   ZY=    -5.2015
   XZ=   -12.2245   YZ=    -9.4603   ZZ=   151.3003
   Eigenvalues:   142.3713   155.7970   190.5172
     26  H    Isotropic =    29.0496   Anisotropy =     7.5732
   XX=    27.5029   YX=     0.1960   ZX=     0.8768
   XY=    -0.0113   YY=    31.1066   ZY=    -3.6258
   XZ=     1.2484   YZ=    -4.4320   ZZ=    28.5394
   Eigenvalues:    25.2237    27.8268    34.0984
     27  H    Isotropic =    29.1730   Anisotropy =     8.8915
   XX=    26.7694   YX=     4.6009   ZX=    -0.9045
   XY=     1.9456   YY=    32.4507   ZY=     3.7875
   XZ=    -0.6814   YZ=     2.8934   ZZ=    28.2988
   Eigenvalues:    24.0203    28.3979    35.1007
     28  H    Isotropic =    29.3663   Anisotropy =     9.2460
   XX=    32.9330   YX=     2.1276   ZX=    -4.2318
   XY=     2.8805   YY=    29.5821   ZY=    -1.2341
   XZ=    -3.1982   YZ=     0.3051   ZZ=    25.5837
   Eigenvalues:    23.9757    28.5928    35.5303
     29  H    Isotropic =    24.5982   Anisotropy =     7.0401
   XX=    24.3763   YX=     2.2332   ZX=    -1.5493
   XY=     0.8748   YY=    28.6517   ZY=    -0.4594
   XZ=     0.0267   YZ=    -1.2952   ZZ=    20.7667
   Eigenvalues:    20.5713    23.9317    29.2916
     30  H    Isotropic =    24.4875   Anisotropy =     9.6103
   XX=    26.3865   YX=     2.7855   ZX=    -3.0459
   XY=     1.3788   YY=    23.5242   ZY=    -6.6083
   XZ=     0.0195   YZ=    -5.2300   ZZ=    23.5518
   Eigenvalues:    17.5989    24.9692    30.8944
     31  C    Isotropic =    49.7026   Anisotropy =   166.1610
   XX=   109.7032   YX=   -17.2023   ZX=   -77.9015
   XY=   -27.0279   YY=    -0.6264   ZY=   -27.5547
   XZ=   -77.6238   YZ=   -11.6149   ZZ=    40.0310
   Eigenvalues:   -34.4909    23.1221   160.4766
     32  C    Isotropic =    27.0746   Anisotropy =   182.7661
   XX=   108.3915   YX=    21.5396   ZX=   -60.7830
   XY=    14.1241   YY=   -55.4156   ZY=    30.1896
   XZ=   -78.2684   YZ=    -2.1462   ZZ=    28.2481
   Eigenvalues:   -64.2307    -3.4641   148.9187
     33  C    Isotropic =    33.1192   Anisotropy =   176.0675
   XX=    78.4221   YX=    -9.1657   ZX=  -104.1025
   XY=     0.1533   YY=    11.4386   ZY=     6.2353
   XZ=   -94.7071   YZ=    27.8862   ZZ=     9.4968
   Eigenvalues:   -62.9818    11.8418   150.4975
     34  C    Isotropic =    52.1363   Anisotropy =   181.5769
   XX=   118.7912   YX=   -34.3527   ZX=   -80.3730
   XY=   -31.1538   YY=   -10.9176   ZY=   -36.7378
   XZ=   -82.8977   YZ=   -24.0770   ZZ=    48.5355
   Eigenvalues:   -51.8344    35.0559   173.1876
     35  C    Isotropic =    52.1786   Anisotropy =   187.8393
   XX=   138.7476   YX=     4.4454   ZX=   -62.4536
   XY=     9.8807   YY=   -44.5561   ZY=    30.8729
   XZ=   -70.0124   YZ=    31.0222   ZZ=    62.3442
   Eigenvalues:   -56.3936    35.5245   177.4048
     36  C    Isotropic =    44.7146   Anisotropy =   195.0200
   XX=   121.2317   YX=     7.9596   ZX=   -95.0205
   XY=    10.1498   YY=    18.1887   ZY=    25.9764
   XZ=  -101.2226   YZ=    11.7101   ZZ=    -5.2768
   Eigenvalues:   -64.0654    23.4812   174.7279
     37  H    Isotropic =    23.2590   Anisotropy =    10.6496
   XX=    23.0981   YX=     0.7898   ZX=     1.9183
   XY=     2.5799   YY=    29.2276   ZY=     3.7329
   XZ=    -1.3134   YZ=     2.3055   ZZ=    17.4513
   Eigenvalues:    16.7207    22.6975    30.3587
     38  H    Isotropic =    24.0604   Anisotropy =     4.3627
   XX=    23.8986   YX=    -0.5518   ZX=     3.0331
   XY=     0.3141   YY=    25.2449   ZY=     2.1615
   XZ=     1.1568   YZ=     2.1486   ZZ=    23.0379
   Eigenvalues:    20.6212    24.5912    26.9689
     39  H    Isotropic =    24.4881   Anisotropy =     4.0408
   XX=    22.7661   YX=    -2.6954   ZX=     0.1084
   XY=    -1.5141   YY=    26.1467   ZY=    -0.6807
   XZ=     0.0118   YZ=     0.1576   ZZ=    24.5514
   Eigenvalues:    21.7557    24.5265    27.1819
     40  C    Isotropic =   152.5537   Anisotropy =    29.2341
   XX=   141.5443   YX=    -7.5305   ZX=    14.2066
   XY=    -7.4737   YY=   162.6200   ZY=    -3.6894
   XZ=    17.3625   YZ=    -6.2805   ZZ=   153.4968
   Eigenvalues:   130.2743   155.3437   172.0431
     41  H    Isotropic =    29.2846   Anisotropy =     7.8375
   XX=    29.5679   YX=     5.1660   ZX=     1.0700
   XY=     3.1989   YY=    29.2603   ZY=     1.6185
   XZ=     1.3008   YZ=     2.3378   ZZ=    29.0256
   Eigenvalues:    25.1198    28.2243    34.5096
     42  C    Isotropic =   143.8870   Anisotropy =    43.0438
   XX=   145.5360   YX=     6.9849   ZX=    20.8056
   XY=     7.5712   YY=   147.9623   ZY=     9.1593
   XZ=    16.6180   YZ=    24.8913   ZZ=   138.1625
   Eigenvalues:   119.4682   139.6099   172.5828
     43  H    Isotropic =    29.4724   Anisotropy =     7.3066
   XX=    26.8352   YX=     3.1273   ZX=     4.2155
   XY=     0.4628   YY=    29.1314   ZY=    -2.5353
   XZ=     2.4659   YZ=    -1.8503   ZZ=    32.4508
   Eigenvalues:    23.9765    30.0974    34.3435
     44  H    Isotropic =    29.2137   Anisotropy =     6.5668
   XX=    32.3716   YX=     3.7884   ZX=    -2.0228
   XY=    -0.0978   YY=    25.6366   ZY=     1.8630
   XZ=    -2.0516   YZ=     0.9092   ZZ=    29.6327
   Eigenvalues:    24.4607    29.5887    33.5915
     45  C    Isotropic =   115.8007   Anisotropy =    39.1756
   XX=    98.7509   YX=    20.2160   ZX=    -0.0045
   XY=    -5.9950   YY=   140.7465   ZY=    -0.0044
   XZ=     0.0009   YZ=    -0.0048   ZZ=   107.9046
   Eigenvalues:    97.5797   107.9046   141.9177
     46  C    Isotropic =    27.0766   Anisotropy =   182.7663
   XX=   108.3849   YX=    21.5612   ZX=    60.7810
   XY=    14.1508   YY=   -55.4260   ZY=   -30.1623
   XZ=    78.2669   YZ=     2.1767   ZZ=    28.2709
   Eigenvalues:   -64.2310    -3.4600   148.9208
     47  C    Isotropic =    33.1187   Anisotropy =   176.0677
   XX=    78.4068   YX=    -9.1284   ZX=   104.1117
   XY=     0.1848   YY=    11.4296   ZY=    -6.2419
   XZ=    94.7126   YZ=   -27.8890   ZZ=     9.5196
   Eigenvalues:   -62.9857    11.8446   150.4971
     48  C    Isotropic =    52.1354   Anisotropy =   181.5791
   XX=   118.7751   YX=   -34.3303   ZX=    80.3938
   XY=   -31.1332   YY=   -10.8945   ZY=    36.7522
   XZ=    82.9161   YZ=    24.0886   ZZ=    48.5255
   Eigenvalues:   -51.8341    35.0522   173.1881
     49  C    Isotropic =    52.1744   Anisotropy =   187.8460
   XX=   138.7394   YX=     4.4606   ZX=    62.4555
   XY=     9.9004   YY=   -44.5795   ZY=   -30.8380
   XZ=    70.0203   YZ=   -30.9878   ZZ=    62.3631
   Eigenvalues:   -56.3964    35.5145   177.4050
     50  C    Isotropic =    44.7145   Anisotropy =   195.0194
   XX=   121.2207   YX=     7.9892   ZX=    95.0232
   XY=    10.1839   YY=    18.1745   ZY=   -25.9851
   XZ=   101.2260   YZ=   -11.7206   ZZ=    -5.2518
   Eigenvalues:   -64.0642    23.4802   174.7274
     51  C    Isotropic =    49.7040   Anisotropy =   166.1609
   XX=   109.6942   YX=   -17.1770   ZX=    77.9133
   XY=   -27.0031   YY=    -0.6110   ZY=    27.5694
   XZ=    77.6366   YZ=    11.6274   ZZ=    40.0288
   Eigenvalues:   -34.4907    23.1248   160.4779
     52  P    Isotropic =   232.7869   Anisotropy =   137.7589
   XX=   215.4353   YX=   -37.8445   ZX=    48.8321
   XY=   -48.4929   YY=   176.8207   ZY=    28.3454
   XZ=    40.8807   YZ=     0.1080   ZZ=   306.1048
   Eigenvalues:   140.4281   233.3065   324.6262
     53  C    Isotropic =    46.0621   Anisotropy =   183.1072
   XX=    89.9563   YX=   -32.0585   ZX=   -76.4759
   XY=   -33.3500   YY=   -28.1448   ZY=    -9.0412
   XZ=   -88.3070   YZ=     0.0889   ZZ=    76.3748
   Eigenvalues:   -44.6045    14.6572   168.1335
     54  C    Isotropic =    43.8685   Anisotropy =   195.8134
   XX=    75.1322   YX=    24.0129   ZX=   -92.5184
   XY=    18.2410   YY=   -37.7656   ZY=    30.9677
   XZ=   -84.7921   YZ=    35.6323   ZZ=    94.2390
   Eigenvalues:   -62.9164    20.1112   174.4108
     55  C    Isotropic =    53.0530   Anisotropy =   164.7243
   XX=    51.6841   YX=    -3.0121   ZX=  -106.9284
   XY=    -5.3038   YY=    48.8599   ZY=     6.5093
   XZ=  -107.9846   YZ=    -1.0296   ZZ=    58.6152
   Eigenvalues:   -52.3743    48.6642   162.8692
     56  C    Isotropic =    40.2329   Anisotropy =   204.2163
   XX=    83.9798   YX=   -33.8587   ZX=   -91.4670
   XY=   -28.7242   YY=   -46.3998   ZY=    -4.0705
   XZ=   -90.2051   YZ=     0.4984   ZZ=    83.1187
   Eigenvalues:   -58.8424     3.1641   176.3771
     57  C    Isotropic =    48.5510   Anisotropy =   177.3576
   XX=    98.4533   YX=    23.7219   ZX=   -74.5054
   XY=    12.3187   YY=   -28.8282   ZY=    40.4538
   XZ=   -81.3265   YZ=    38.9527   ZZ=    76.0280
   Eigenvalues:   -56.4279    35.2916   166.7895
     58  C    Isotropic =    42.4218   Anisotropy =   191.7680
   XX=    56.9872   YX=    -6.7995   ZX=  -118.0858
   XY=   -13.5580   YY=    24.1572   ZY=    12.2912
   XZ=  -115.2812   YZ=    14.6783   ZZ=    46.1209
   Eigenvalues:   -65.3400    22.3382   170.2671
     59  H    Isotropic =    22.7258   Anisotropy =     9.1411
   XX=    19.9706   YX=     2.4595   ZX=    -2.6810
   XY=     2.9855   YY=    27.7719   ZY=     1.1018
   XZ=    -0.8484   YZ=     2.5840   ZZ=    20.4349
   Eigenvalues:    17.3939    21.9636    28.8199
     60  H    Isotropic =    24.4956   Anisotropy =     8.2821
   XX=    24.7847   YX=     5.4516   ZX=     0.5533
   XY=     3.8800   YY=    25.1033   ZY=     2.0343
   XZ=     1.2924   YZ=     0.6606   ZZ=    23.5989
   Eigenvalues:    20.2512    23.2186    30.0170
     61  C    Isotropic =   162.8960   Anisotropy =    41.4390
   XX=   155.5149   YX=    10.4644   ZX=     8.9193
   XY=    16.1822   YY=   181.8481   ZY=     5.2828
   XZ=    12.2481   YZ=     9.4388   ZZ=   151.3252
   Eigenvalues:   142.3686   155.7975   190.5220
     62  H    Isotropic =    29.1679   Anisotropy =     8.9120
   XX=    26.7737   YX=     4.6344   ZX=     0.8688
   XY=     1.9816   YY=    32.4197   ZY=    -3.7840
   XZ=     0.6476   YZ=    -2.9055   ZZ=    28.3102
   Eigenvalues:    24.0174    28.3771    35.1092
     63  H    Isotropic =    29.0491   Anisotropy =     7.5669
   XX=    27.5350   YX=     0.1782   ZX=    -0.8721
   XY=    -0.0401   YY=    31.1287   ZY=     3.6160
   XZ=    -1.2550   YZ=     4.4359   ZZ=    28.4838
   Eigenvalues:    25.2127    27.8410    34.0937
     64  H    Isotropic =    29.3719   Anisotropy =     9.2310
   XX=    32.8976   YX=     2.1136   ZX=     4.2623
   XY=     2.8766   YY=    29.5894   ZY=     1.2416
   XZ=     3.2366   YZ=    -0.3040   ZZ=    25.6286
   Eigenvalues:    23.9829    28.6069    35.5259
     65  H    Isotropic =    24.5990   Anisotropy =     7.0364
   XX=    24.3778   YX=     2.2333   ZX=     1.5489
   XY=     0.8763   YY=    28.6496   ZY=     0.4587
   XZ=    -0.0249   YZ=     1.2912   ZZ=    20.7696
   Eigenvalues:    20.5743    23.9328    29.2900
     66  H    Isotropic =    24.4878   Anisotropy =     9.6115
   XX=    26.3864   YX=     2.7865   ZX=     3.0453
   XY=     1.3788   YY=    23.5284   ZY=     6.6087
   XZ=    -0.0192   YZ=     5.2308   ZZ=    23.5484
   Eigenvalues:    17.5988    24.9691    30.8954
     67  C    Isotropic =    45.7514   Anisotropy =   176.5815
   XX=   -23.4815   YX=    52.2768   ZX=    33.3974
   XY=    42.3804   YY=   114.7754   ZY=    44.3321
   XZ=    35.8065   YZ=    65.8885   ZZ=    45.9604
   Eigenvalues:   -42.4269    16.2087   163.4724
     68  C    Isotropic =    48.7789   Anisotropy =   185.0573
   XX=    35.4185   YX=    17.1147   ZX=    50.0256
   XY=    29.8210   YY=   101.0155   ZY=    87.1192
   XZ=    54.9176   YZ=    90.1809   ZZ=     9.9028
   Eigenvalues:   -57.1414    31.3277   172.1505
     69  C    Isotropic =    53.8521   Anisotropy =   157.0132
   XX=    35.6323   YX=    55.9275   ZX=   -17.0047
   XY=    61.8624   YY=    83.2773   ZY=    77.8976
   XZ=   -14.1679   YZ=    83.4170   ZZ=    42.6467
   Eigenvalues:   -50.0717    53.1003   158.5276
     70  C    Isotropic =    38.3594   Anisotropy =   203.8030
   XX=   -44.0495   YX=    54.3750   ZX=    40.2808
   XY=    45.0133   YY=   107.2409   ZY=    72.1464
   XZ=    35.6790   YZ=    71.1001   ZZ=    51.8867
   Eigenvalues:   -62.0724     2.9224   174.2280
     71  C    Isotropic =    51.3067   Anisotropy =   169.4694
   XX=    38.3780   YX=    11.3093   ZX=    50.7685
   XY=    15.5478   YY=    95.4622   ZY=    88.1006
   XZ=    58.1590   YZ=    80.6221   ZZ=    20.0799
   Eigenvalues:   -52.4711    42.1049   164.2863
     72  C    Isotropic =    36.2474   Anisotropy =   206.0331
   XX=     7.5592   YX=    61.9954   ZX=     8.2999
   XY=    71.7836   YY=    72.1123   ZY=    95.3685
   XZ=    10.7549   YZ=   104.1589   ZZ=    29.0706
   Eigenvalues:   -70.4869     5.6262   173.6028
     73  H    Isotropic =    22.6531   Anisotropy =    12.2732
   XX=    29.5878   YX=     1.0357   ZX=    -4.5675
   XY=     2.6968   YY=    16.2036   ZY=     1.3094
   XZ=    -1.7002   YZ=     1.9347   ZZ=    22.1679
   Eigenvalues:    15.2932    21.8309    30.8352
     74  H    Isotropic =    24.1262   Anisotropy =     8.7846
   XX=    28.6677   YX=    -3.8208   ZX=    -0.4170
   XY=    -2.7297   YY=    21.8022   ZY=    -1.3340
   XZ=    -0.5485   YZ=    -0.2359   ZZ=    21.9086
   Eigenvalues:    20.0468    22.3491    29.9826
     75  C    Isotropic =   162.9926   Anisotropy =    41.6346
   XX=   186.3858   YX=    -8.8998   ZX=    -4.9545
   XY=   -13.8777   YY=   149.2988   ZY=    -5.2836
   XZ=   -11.2435   YZ=    -4.5703   ZZ=   153.2932
   Eigenvalues:   141.6190   156.6098   190.7490
     76  H    Isotropic =    29.1130   Anisotropy =     8.3877
   XX=    32.8308   YX=     2.0789   ZX=    -3.2336
   XY=     1.7583   YY=    28.5994   ZY=    -2.8345
   XZ=    -1.2945   YZ=    -2.5493   ZZ=    25.9089
   Eigenvalues:    24.1311    28.5030    34.7048
     77  H    Isotropic =    29.3660   Anisotropy =     7.9921
   XX=    32.7198   YX=    -3.4983   ZX=     2.3595
   XY=    -1.7680   YY=    25.8732   ZY=    -3.0175
   XZ=     0.6889   YZ=    -2.1474   ZZ=    29.5050
   Eigenvalues:    24.1785    29.2254    34.6941
     78  H    Isotropic =    28.8437   Anisotropy =     9.6465
   XX=    28.6444   YX=    -2.8402   ZX=    -2.5058
   XY=    -3.9914   YY=    28.5028   ZY=     3.6263
   XZ=    -2.9135   YZ=     3.3747   ZZ=    29.3840
   Eigenvalues:    24.9434    26.3130    35.2747
     79  H    Isotropic =    24.1847   Anisotropy =     8.3878
   XX=    28.3928   YX=    -1.2449   ZX=    -3.6695
   XY=    -1.0983   YY=    21.1656   ZY=    -0.6429
   XZ=    -2.2683   YZ=    -0.8449   ZZ=    22.9957
   Eigenvalues:    20.2025    22.5749    29.7765
     80  H    Isotropic =    23.5548   Anisotropy =    14.3410
   XX=    32.1004   YX=    -3.1652   ZX=    -1.5842
   XY=    -3.5672   YY=    21.6971   ZY=    -1.7366
   XZ=     2.3408   YZ=     0.1962   ZZ=    16.8667
   Eigenvalues:    16.7453    20.8035    33.1154
     81  Cl   Isotropic =   838.5285   Anisotropy =   470.4880
   XX=   751.9237   YX=   138.4570   ZX=  -142.3307
   XY=   234.4738   YY=  1057.6800   ZY=    62.1976
   XZ=  -113.2923   YZ=   168.1983   ZZ=   705.9817
   Eigenvalues:   516.9642   846.4340  1152.1871
     82  H    Isotropic =    23.2588   Anisotropy =    10.6495
   XX=    23.0983   YX=     0.7897   ZX=    -1.9183
   XY=     2.5806   YY=    29.2251   ZY=    -3.7372
   XZ=     1.3129   YZ=    -2.3093   ZZ=    17.4531
   Eigenvalues:    16.7204    22.6976    30.3585
     83  H    Isotropic =    24.0607   Anisotropy =     4.3625
   XX=    23.8990   YX=    -0.5526   ZX=    -3.0329
   XY=     0.3135   YY=    25.2433   ZY=    -2.1621
   XZ=    -1.1568   YZ=    -2.1495   ZZ=    23.0398
   Eigenvalues:    20.6216    24.5914    26.9690
     84  H    Isotropic =    24.4883   Anisotropy =     4.0406
   XX=    22.7666   YX=    -2.6949   ZX=    -0.1074
   XY=    -1.5149   YY=    26.1467   ZY=     0.6796
   XZ=    -0.0123   YZ=    -0.1580   ZZ=    24.5515
   Eigenvalues:    21.7560    24.5268    27.1820
     85  C    Isotropic =   152.5544   Anisotropy =    29.2359
   XX=   141.5479   YX=    -7.5360   ZX=   -14.2059
   XY=    -7.4802   YY=   162.6246   ZY=     3.6864
   XZ=   -17.3616   YZ=     6.2777   ZZ=   153.4907
   Eigenvalues:   130.2743   155.3438   172.0450
     86  H    Isotropic =    29.2846   Anisotropy =     7.8382
   XX=    29.5681   YX=     5.1658   ZX=    -1.0722
   XY=     3.1986   YY=    29.2591   ZY=    -1.6188
   XZ=    -1.3021   YZ=    -2.3380   ZZ=    29.0266
   Eigenvalues:    25.1199    28.2238    34.5101
     87  C    Isotropic =   143.8857   Anisotropy =    43.0446
   XX=   145.5380   YX=     6.9805   ZX=   -20.8084
   XY=     7.5656   YY=   147.9497   ZY=    -9.1610
   XZ=   -16.6200   YZ=   -24.8958   ZZ=   138.1695
   Eigenvalues:   119.4662   139.6089   172.5821
     88  H    Isotropic =    29.4724   Anisotropy =     7.3065
   XX=    26.8357   YX=     3.1258   ZX=    -4.2171
   XY=     0.4618   YY=    29.1329   ZY=     2.5364
   XZ=    -2.4666   YZ=     1.8514   ZZ=    32.4487
   Eigenvalues:    23.9764    30.0974    34.3434
     89  H    Isotropic =    29.2135   Anisotropy =     6.5670
   XX=    32.3713   YX=     3.7892   ZX=     2.0216
   XY=    -0.0971   YY=    25.6355   ZY=    -1.8616
   XZ=     2.0521   YZ=    -0.9078   ZZ=    29.6337
   Eigenvalues:    24.4606    29.5885    33.5915
     90  H    Isotropic =    28.6393   Anisotropy =    11.2883
   XX=    23.3470   YX=     0.8042   ZX=     3.4799
   XY=    -0.6341   YY=    27.9465   ZY=    -2.9558
   XZ=     1.2650   YZ=    -3.0927   ZZ=    34.6242
   Eigenvalues:    22.7645    26.9885    36.1648
     91  H    Isotropic =    28.6395   Anisotropy =    11.2883
   XX=    23.3476   YX=     0.8025   ZX=    -3.4810
   XY=    -0.6348   YY=    27.9487   ZY=     2.9578
   XZ=    -1.2658   YZ=     3.0949   ZZ=    34.6221
   Eigenvalues:    22.7647    26.9887    36.1650
     92  Cl   Isotropic =   838.5848   Anisotropy =   470.5804
   XX=   751.9315   YX=   138.5439   ZX=   142.2830
   XY=   234.5556   YY=  1057.7030   ZY=   -62.2907
   XZ=   113.1924   YZ=  -168.3546   ZZ=   706.1198
   Eigenvalues:   516.9944   846.4549  1152.3050
 End of Minotr F.D. properties file   721 does not exist.
 End of Minotr F.D. properties file   722 does not exist.
 End of Minotr F.D. properties file   788 does not exist.

 **********************************************************************

            Population analysis using the SCF Density.

 **********************************************************************

 Orbital symmetries:
       Occupied  (A) (A) (A) (A) (A) (A) (A) (A) (A) (A) (A) (A)
                 (A) (A) (A) (A) (A) (A) (A) (A) (A) (A) (A) (A)
                 (A) (A) (A) (A) (A) (A) (A) (A) (A) (A) (A) (A)
                 (A) (A) (A) (A) (A) (A) (A) (A) (A) (A) (A) (A)
                 (A) (A) (A) (A) (A) (A) (A) (A) (A) (A) (A) (A)
                 (A) (A) (A) (A) (A) (A) (A) (A) (A) (A) (A) (A)
                 (A) (A) (A) (A) (A) (A) (A) (A) (A) (A) (A) (A)
                 (A) (A) (A) (A) (A) (A) (A) (A) (A) (A) (A) (A)
                 (A) (A) (A) (A) (A) (A) (A) (A) (A) (A) (A) (A)
                 (A) (A) (A) (A) (A) (A) (A) (A) (A) (A) (A) (A)
                 (A) (A) (A) (A) (A) (A) (A) (A) (A) (A) (A) (A)
                 (A) (A) (A) (A) (A) (A) (A) (A) (A) (A) (A) (A)
                 (A) (A) (A) (A) (A) (A) (A) (A) (A) (A) (A) (A)
                 (A) (A) (A) (A) (A) (A) (A) (A) (A) (A) (A) (A)
                 (A) (A) (A) (A) (A) (A) (A) (A) (A) (A) (A) (A)
                 (A) (A) (A) (A) (A) (A) (A) (A) (A) (A) (A) (A)
                 (A) (A) (A) (A) (A)
       Virtual   (A) (A) (A) (A) (A) (A) (A) (A) (A) (A) (A) (A)
                 (A) (A) (A) (A) (A) (A) (A) (A) (A) (A) (A) (A)
                 (A) (A) (A) (A) (A) (A) (A) (A) (A) (A) (A) (A)
                 (A) (A) (A) (A) (A) (A) (A) (A) (A) (A) (A) (A)
                 (A) (A) (A) (A) (A) (A) (A) (A) (A) (A) (A) (A)
                 (A) (A) (A) (A) (A) (A) (A) (A) (A) (A) (A) (A)
                 (A) (A) (A) (A) (A) (A) (A) (A) (A) (A) (A) (A)
                 (A) (A) (A) (A) (A) (A) (A) (A) (A) (A) (A) (A)
                 (A) (A) (A) (A) (A) (A) (A) (A) (A) (A) (A) (A)
                 (A) (A) (A) (A) (A) (A) (A) (A) (A) (A) (A) (A)
                 (A) (A) (A) (A) (A) (A) (A) (A) (A) (A) (A) (A)
                 (A) (A) (A) (A) (A) (A) (A) (A) (A) (A) (A) (A)
                 (A) (A) (A) (A) (A) (A) (A) (A) (A) (A) (A) (A)
                 (A) (A) (A) (A) (A) (A) (A) (A) (A) (A) (A) (A)
                 (A) (A) (A) (A) (A) (A) (A) (A) (A) (A) (A) (A)
                 (A) (A) (A) (A) (A) (A) (A) (A) (A) (A) (A) (A)
                 (A) (A) (A) (A) (A) (A) (A) (A) (A) (A) (A) (A)
                 (A) (A) (A) (A) (A) (A) (A) (A) (A) (A) (A) (A)
                 (A) (A) (A) (A) (A) (A) (A) (A) (A) (A) (A) (A)
                 (A) (A) (A) (A) (A) (A) (A) (A) (A) (A) (A) (A)
                 (A) (A) (A) (A) (A) (A) (A) (A) (A) (A) (A) (A)
                 (A) (A) (A) (A) (A) (A) (A) (A) (A) (A) (A) (A)
                 (A) (A) (A) (A) (A) (A) (A) (A) (A) (A) (A) (A)
                 (A) (A) (A) (A) (A) (A) (A) (A) (A) (A) (A) (A)
                 (A) (A) (A) (A) (A) (A) (A) (A) (A) (A) (A) (A)
                 (A) (A) (A) (A) (A) (A) (A) (A) (A) (A) (A) (A)
                 (A) (A) (A) (A) (A) (A) (A) (A) (A) (A) (A) (A)
                 (A) (A) (A) (A) (A) (A) (A) (A) (A) (A) (A) (A)
                 (A) (A) (A) (A) (A) (A) (A) (A) (A) (A) (A) (A)
                 (A) (A) (A) (A) (A) (A) (A) (A) (A) (A) (A) (A)
                 (A) (A) (A) (A) (A) (A) (A) (A) (A) (A) (A) (A)
                 (A) (A) (A) (A) (A) (A) (A) (A) (A) (A) (A) (A)
                 (A) (A) (A) (A) (A) (A) (A) (A) (A) (A) (A) (A)
                 (A) (A) (A) (A) (A) (A) (A) (A) (A) (A) (A) (A)
                 (A) (A) (A) (A) (A) (A) (A) (A) (A) (A) (A) (A)
                 (A) (A) (A) (A) (A) (A) (A) (A) (A) (A) (A) (A)
                 (A) (A) (A) (A) (A) (A) (A) (A) (A) (A) (A) (A)
                 (A) (A) (A) (A) (A) (A) (A) (A) (A) (A) (A) (A)
                 (A) (A) (A) (A) (A) (A) (A) (A) (A) (A) (A) (A)
                 (A) (A) (A) (A) (A) (A) (A) (A) (A) (A) (A) (A)
                 (A) (A) (A) (A) (A) (A) (A) (A) (A) (A) (A) (A)
                 (A) (A) (A) (A) (A) (A) (A) (A) (A) (A) (A) (A)
                 (A) (A) (A) (A) (A) (A) (A) (A) (A) (A) (A) (A)
                 (A) (A) (A) (A) (A) (A) (A) (A) (A) (A) (A) (A)
                 (A) (A) (A) (A) (A) (A) (A) (A) (A) (A) (A) (A)
                 (A) (A) (A) (A) (A) (A) (A) (A) (A) (A) (A) (A)
                 (A) (A) (A) (A) (A) (A) (A) (A) (A) (A) (A) (A)
                 (A) (A) (A) (A) (A) (A) (A) (A) (A) (A) (A) (A)
                 (A) (A) (A) (A) (A) (A) (A) (A) (A) (A) (A) (A)
                 (A) (A) (A) (A) (A) (A) (A) (A) (A) (A) (A) (A)
                 (A) (A) (A) (A) (A) (A) (A) (A) (A) (A) (A) (A)
                 (A) (A) (A) (A) (A) (A) (A) (A) (A) (A) (A) (A)
                 (A) (A) (A) (A) (A) (A) (A) (A) (A) (A) (A) (A)
                 (A) (A) (A) (A) (A) (A) (A) (A) (A) (A) (A) (A)
                 (A) (A) (A) (A) (A) (A) (A) (A) (A) (A) (A) (A)
                 (A) (A) (A) (A) (A) (A) (A) (A) (A) (A) (A) (A)
                 (A) (A) (A) (A) (A) (A) (A) (A) (A) (A) (A) (A)
                 (A) (A) (A) (A) (A) (A) (A) (A) (A) (A) (A) (A)
                 (A) (A) (A) (A) (A) (A) (A) (A) (A) (A) (A) (A)
                 (A) (A) (A) (A) (A) (A) (A) (A) (A) (A) (A) (A)
                 (A) (A) (A) (A) (A) (A) (A) (A) (A) (A) (A) (A)
                 (A) (A) (A) (A) (A) (A) (A) (A) (A) (A) (A) (A)
                 (A) (A) (A) (A) (A) (A) (A) (A) (A) (A) (A) (A)
                 (A) (A) (A) (A) (A) (A) (A) (A) (A) (A) (A) (A)
                 (A) (A) (A) (A) (A) (A) (A) (A) (A) (A) (A) (A)
                 (A) (A) (A) (A) (A) (A) (A) (A) (A) (A) (A) (A)
                 (A) (A) (A) (A) (A) (A) (A) (A) (A) (A) (A) (A)
                 (A) (A) (A) (A) (A) (A) (A) (A) (A) (A) (A) (A)
                 (A) (A) (A) (A) (A) (A) (A) (A) (A) (A) (A) (A)
                 (A) (A) (A) (A) (A) (A) (A) (A) (A) (A) (A) (A)
                 (A) (A) (A) (A) (A) (A) (A) (A) (A) (A) (A) (A)
                 (A) (A) (A) (A) (A) (A) (A) (A) (A) (A) (A) (A)
                 (A) (A) (A) (A) (A) (A) (A) (A) (A) (A) (A) (A)
                 (A) (A) (A) (A) (A) (A) (A) (A) (A) (A) (A) (A)
                 (A) (A) (A) (A) (A) (A) (A) (A) (A) (A) (A) (A)
                 (A) (A) (A) (A) (A) (A) (A) (A) (A) (A) (A) (A)
                 (A) (A) (A) (A) (A) (A) (A) (A) (A) (A) (A) (A)
                 (A) (A) (A) (A) (A) (A) (A) (A) (A) (A) (A) (A)
                 (A) (A) (A) (A) (A) (A) (A) (A) (A) (A) (A) (A)
                 (A) (A) (A) (A) (A) (A) (A) (A) (A) (A) (A) (A)
                 (A) (A) (A) (A) (A) (A) (A) (A) (A) (A) (A) (A)
                 (A) (A) (A) (A) (A) (A) (A) (A) (A) (A) (A) (A)
                 (A) (A) (A) (A) (A) (A) (A) (A) (A) (A) (A) (A)
                 (A) (A) (A) (A) (A) (A) (A) (A) (A) (A) (A) (A)
                 (A) (A) (A) (A) (A) (A) (A) (A) (A) (A) (A) (A)
                 (A) (A) (A) (A) (A) (A) (A) (A) (A) (A) (A) (A)
                 (A) (A) (A) (A) (A) (A) (A) (A) (A) (A) (A) (A)
                 (A) (A) (A) (A) (A) (A) (A) (A) (A) (A) (A) (A)
                 (A) (A) (A) (A) (A) (A) (A) (A) (A) (A) (A) (A)
                 (A) (A) (A) (A) (A) (A) (A) (A) (A) (A) (A) (A)
                 (A) (A) (A) (A) (A) (A) (A) (A) (A) (A) (A) (A)
                 (A) (A) (A) (A) (A) (A) (A) (A) (A) (A) (A) (A)
                 (A) (A) (A) (A) (A) (A) (A) (A) (A) (A) (A) (A)
                 (A) (A) (A) (A) (A) (A) (A) (A) (A) (A) (A) (A)
                 (A) (A) (A) (A) (A) (A) (A) (A) (A) (A) (A) (A)
                 (A) (A) (A) (A) (A) (A) (A) (A) (A) (A) (A) (A)
                 (A) (A) (A) (A) (A) (A) (A) (A) (A) (A) (A) (A)
                 (A) (A) (A) (A) (A) (A) (A) (A) (A) (A) (A) (A)
                 (A) (A) (A) (A) (A) (A) (A) (A) (A) (A) (A) (A)
                 (A) (A) (A) (A) (A) (A) (A) (A) (A) (A) (A) (A)
                 (A) (A) (A) (A) (A) (A) (A) (A) (A) (A) (A) (A)
                 (A) (A) (A) (A) (A) (A) (A) (A) (A) (A) (A) (A)
                 (A) (A) (A) (A) (A) (A) (A) (A) (A) (A) (A) (A)
                 (A) (A) (A) (A) (A) (A) (A) (A) (A) (A) (A) (A)
                 (A) (A) (A) (A) (A) (A) (A) (A) (A) (A) (A) (A)
                 (A) (A) (A) (A) (A) (A) (A) (A) (A) (A) (A) (A)
                 (A) (A) (A) (A) (A) (A) (A) (A) (A) (A) (A) (A)
                 (A) (A) (A) (A) (A) (A) (A) (A) (A) (A) (A) (A)
                 (A) (A) (A) (A) (A) (A) (A) (A) (A) (A) (A) (A)
                 (A) (A) (A) (A) (A) (A) (A) (A) (A) (A) (A) (A)
                 (A) (A) (A) (A) (A) (A) (A) (A) (A) (A) (A) (A)
                 (A) (A) (A) (A) (A) (A) (A) (A) (A) (A) (A) (A)
                 (A) (A) (A) (A) (A) (A) (A) (A) (A) (A) (A) (A)
                 (A) (A) (A) (A) (A) (A) (A) (A) (A) (A) (A) (A)
                 (A) (A) (A) (A) (A) (A) (A) (A) (A) (A) (A) (A)
                 (A) (A) (A) (A) (A) (A) (A) (A) (A) (A) (A) (A)
                 (A) (A) (A) (A) (A) (A) (A) (A) (A) (A) (A) (A)
                 (A) (A) (A) (A) (A) (A) (A) (A) (A) (A) (A) (A)
                 (A) (A) (A) (A) (A) (A) (A) (A) (A) (A) (A) (A)
                 (A) (A) (A) (A) (A) (A) (A) (A) (A) (A) (A) (A)
                 (A) (A) (A) (A) (A) (A) (A) (A) (A) (A) (A) (A)
                 (A) (A) (A) (A) (A) (A) (A) (A) (A) (A) (A) (A)
                 (A) (A) (A) (A) (A) (A) (A) (A) (A) (A) (A) (A)
                 (A) (A) (A) (A) (A) (A) (A) (A) (A) (A) (A) (A)
                 (A) (A) (A) (A) (A) (A) (A) (A) (A) (A) (A) (A)
                 (A) (A) (A) (A) (A) (A) (A) (A) (A) (A) (A) (A)
                 (A) (A) (A) (A) (A) (A) (A) (A) (A) (A) (A) (A)
                 (A) (A) (A) (A) (A) (A) (A) (A) (A) (A) (A) (A)
                 (A) (A) (A) (A) (A) (A) (A) (A) (A) (A) (A) (A)
                 (A) (A) (A) (A) (A) (A) (A) (A) (A) (A) (A) (A)
                 (A) (A) (A) (A) (A) (A) (A) (A) (A) (A) (A) (A)
                 (A) (A) (A) (A) (A) (A) (A) (A) (A) (A) (A) (A)
                 (A) (A) (A) (A) (A) (A) (A) (A) (A) (A) (A) (A)
                 (A) (A) (A) (A) (A) (A) (A) (A) (A) (A) (A) (A)
                 (A) (A) (A) (A) (A) (A) (A) (A) (A) (A) (A) (A)
                 (A) (A) (A) (A) (A) (A) (A) (A) (A) (A) (A) (A)
                 (A) (A)
 The electronic state is 1-A.
 Alpha  occ. eigenvalues -- -101.60623-101.60623 -77.26295 -77.26295 -10.26742
 Alpha  occ. eigenvalues --  -10.26255 -10.26255 -10.25905 -10.25905 -10.25274
 Alpha  occ. eigenvalues --  -10.25274 -10.25200 -10.25200 -10.24928 -10.24928
 Alpha  occ. eigenvalues --  -10.24672 -10.24672 -10.24527 -10.24527 -10.24518
 Alpha  occ. eigenvalues --  -10.24518 -10.24411 -10.24411 -10.24368 -10.24368
 Alpha  occ. eigenvalues --  -10.24282 -10.24281 -10.24078 -10.24078 -10.24051
 Alpha  occ. eigenvalues --  -10.24050 -10.23912 -10.23912 -10.23731 -10.23731
 Alpha  occ. eigenvalues --  -10.23690 -10.23689 -10.23576 -10.23576 -10.23321
 Alpha  occ. eigenvalues --  -10.23321 -10.22994 -10.22993 -10.22953 -10.22953
 Alpha  occ. eigenvalues --  -10.22564 -10.22564 -10.22406 -10.22406  -9.43132
 Alpha  occ. eigenvalues --   -9.43132  -7.16343  -7.16343  -7.15862  -7.15861
 Alpha  occ. eigenvalues --   -7.15786  -7.15786  -6.65442  -6.65441  -4.79036
 Alpha  occ. eigenvalues --   -4.79036  -4.79017  -4.79017  -4.78780  -4.78780
 Alpha  occ. eigenvalues --   -3.51320  -2.18979  -2.18972  -2.15598  -0.92824
 Alpha  occ. eigenvalues --   -0.90143  -0.89404  -0.89376  -0.88315  -0.88244
 Alpha  occ. eigenvalues --   -0.86202  -0.83448  -0.82332  -0.81596  -0.80019
 Alpha  occ. eigenvalues --   -0.79857  -0.79508  -0.78477  -0.77681  -0.77669
 Alpha  occ. eigenvalues --   -0.76726  -0.76715  -0.75258  -0.75142  -0.74122
 Alpha  occ. eigenvalues --   -0.73406  -0.73164  -0.72655  -0.72242  -0.70655
 Alpha  occ. eigenvalues --   -0.70601  -0.66891  -0.66556  -0.65712  -0.63746
 Alpha  occ. eigenvalues --   -0.63679  -0.63276  -0.62897  -0.62413  -0.62253
 Alpha  occ. eigenvalues --   -0.60665  -0.60615  -0.60303  -0.60288  -0.59146
 Alpha  occ. eigenvalues --   -0.58267  -0.57028  -0.54207  -0.52341  -0.51660
 Alpha  occ. eigenvalues --   -0.51208  -0.51001  -0.50385  -0.49673  -0.49605
 Alpha  occ. eigenvalues --   -0.49149  -0.49106  -0.49002  -0.48129  -0.47937
 Alpha  occ. eigenvalues --   -0.47655  -0.47251  -0.47089  -0.46393  -0.46372
 Alpha  occ. eigenvalues --   -0.45451  -0.44772  -0.44547  -0.44338  -0.44169
 Alpha  occ. eigenvalues --   -0.44116  -0.43961  -0.43640  -0.43332  -0.43238
 Alpha  occ. eigenvalues --   -0.43125  -0.43109  -0.42875  -0.42585  -0.41493
 Alpha  occ. eigenvalues --   -0.41093  -0.41053  -0.40914  -0.40664  -0.40608
 Alpha  occ. eigenvalues --   -0.39957  -0.39942  -0.39483  -0.39411  -0.39260
 Alpha  occ. eigenvalues --   -0.38625  -0.38202  -0.38050  -0.37598  -0.37328
 Alpha  occ. eigenvalues --   -0.36978  -0.36758  -0.36625  -0.36318  -0.36253
 Alpha  occ. eigenvalues --   -0.35759  -0.35686  -0.35672  -0.35232  -0.35113
 Alpha  occ. eigenvalues --   -0.35044  -0.34440  -0.34407  -0.34128  -0.33938
 Alpha  occ. eigenvalues --   -0.32698  -0.31182  -0.30941  -0.29871  -0.29742
 Alpha  occ. eigenvalues --   -0.28711  -0.27981  -0.27394  -0.27355  -0.26846
 Alpha  occ. eigenvalues --   -0.26666  -0.26612  -0.26332  -0.25906  -0.25691
 Alpha  occ. eigenvalues --   -0.25444  -0.24445  -0.24406  -0.24078  -0.23186
 Alpha  occ. eigenvalues --   -0.22377  -0.22100
 Alpha virt. eigenvalues --   -0.07680  -0.04405  -0.04380  -0.04090  -0.03846
 Alpha virt. eigenvalues --   -0.02961  -0.02567  -0.02475  -0.01426  -0.01099
 Alpha virt. eigenvalues --   -0.00965  -0.00501  -0.00469   0.01500   0.02333
 Alpha virt. eigenvalues --    0.02955   0.03287   0.04148   0.04305   0.04351
 Alpha virt. eigenvalues --    0.04968   0.04991   0.05331   0.05893   0.06386
 Alpha virt. eigenvalues --    0.06485   0.06843   0.07049   0.07114   0.07507
 Alpha virt. eigenvalues --    0.07590   0.07993   0.08456   0.08589   0.08815
 Alpha virt. eigenvalues --    0.09323   0.09707   0.09841   0.09965   0.10231
 Alpha virt. eigenvalues --    0.10417   0.10574   0.10878   0.11070   0.11185
 Alpha virt. eigenvalues --    0.11393   0.11674   0.11798   0.12106   0.12154
 Alpha virt. eigenvalues --    0.12438   0.12446   0.12779   0.12816   0.13108
 Alpha virt. eigenvalues --    0.13331   0.13723   0.13796   0.13935   0.14064
 Alpha virt. eigenvalues --    0.14429   0.14551   0.14623   0.14729   0.15075
 Alpha virt. eigenvalues --    0.15291   0.15311   0.15568   0.15808   0.15810
 Alpha virt. eigenvalues --    0.16334   0.16391   0.16816   0.16899   0.17165
 Alpha virt. eigenvalues --    0.17332   0.17960   0.18038   0.18197   0.18406
 Alpha virt. eigenvalues --    0.18593   0.18719   0.19232   0.19287   0.19606
 Alpha virt. eigenvalues --    0.20064   0.20194   0.20233   0.20595   0.20706
 Alpha virt. eigenvalues --    0.20930   0.20933   0.21479   0.21485   0.21563
 Alpha virt. eigenvalues --    0.21724   0.22336   0.22345   0.22554   0.22644
 Alpha virt. eigenvalues --    0.23026   0.23306   0.23357   0.23894   0.23972
 Alpha virt. eigenvalues --    0.24226   0.24236   0.24336   0.24529   0.25068
 Alpha virt. eigenvalues --    0.25286   0.25514   0.25706   0.25955   0.26006
 Alpha virt. eigenvalues --    0.26340   0.26523   0.26726   0.26845   0.26980
 Alpha virt. eigenvalues --    0.27003   0.27595   0.27652   0.28332   0.28336
 Alpha virt. eigenvalues --    0.28550   0.28688   0.29095   0.29238   0.29385
 Alpha virt. eigenvalues --    0.29517   0.29643   0.30126   0.30233   0.30349
 Alpha virt. eigenvalues --    0.30498   0.30629   0.30887   0.31105   0.31280
 Alpha virt. eigenvalues --    0.31413   0.31631   0.31692   0.31823   0.31930
 Alpha virt. eigenvalues --    0.32340   0.32347   0.32732   0.33087   0.33136
 Alpha virt. eigenvalues --    0.33288   0.33580   0.33650   0.34164   0.34275
 Alpha virt. eigenvalues --    0.34674   0.34693   0.35045   0.35106   0.35449
 Alpha virt. eigenvalues --    0.35547   0.35690   0.35915   0.36137   0.36432
 Alpha virt. eigenvalues --    0.36513   0.36638   0.36900   0.36921   0.37144
 Alpha virt. eigenvalues --    0.37475   0.37747   0.38028   0.38132   0.38210
 Alpha virt. eigenvalues --    0.38315   0.38346   0.38862   0.39075   0.39561
 Alpha virt. eigenvalues --    0.39569   0.39702   0.39889   0.39900   0.40085
 Alpha virt. eigenvalues --    0.40128   0.40345   0.40866   0.41172   0.41216
 Alpha virt. eigenvalues --    0.41217   0.41480   0.41648   0.41657   0.41983
 Alpha virt. eigenvalues --    0.42555   0.42638   0.42733   0.42844   0.43097
 Alpha virt. eigenvalues --    0.43180   0.43292   0.43479   0.43536   0.43740
 Alpha virt. eigenvalues --    0.43905   0.44094   0.44363   0.44527   0.44552
 Alpha virt. eigenvalues --    0.44759   0.45124   0.45203   0.45349   0.45407
 Alpha virt. eigenvalues --    0.45527   0.45594   0.45825   0.45883   0.46352
 Alpha virt. eigenvalues --    0.46520   0.46613   0.47099   0.47227   0.47410
 Alpha virt. eigenvalues --    0.47723   0.47780   0.47926   0.47957   0.48191
 Alpha virt. eigenvalues --    0.48265   0.48506   0.48512   0.48630   0.48920
 Alpha virt. eigenvalues --    0.48965   0.49156   0.49231   0.49584   0.49751
 Alpha virt. eigenvalues --    0.49875   0.50079   0.50108   0.50131   0.50684
 Alpha virt. eigenvalues --    0.50811   0.50909   0.51312   0.51471   0.51545
 Alpha virt. eigenvalues --    0.51839   0.51992   0.52067   0.52448   0.52726
 Alpha virt. eigenvalues --    0.52861   0.53067   0.53475   0.53524   0.53729
 Alpha virt. eigenvalues --    0.53745   0.54258   0.54334   0.54491   0.54852
 Alpha virt. eigenvalues --    0.55378   0.55451   0.55708   0.55906   0.56192
 Alpha virt. eigenvalues --    0.56248   0.56391   0.56426   0.56860   0.56875
 Alpha virt. eigenvalues --    0.57241   0.57598   0.57666   0.58231   0.58326
 Alpha virt. eigenvalues --    0.58669   0.58815   0.59409   0.59445   0.59875
 Alpha virt. eigenvalues --    0.60021   0.60234   0.60444   0.60683   0.60807
 Alpha virt. eigenvalues --    0.61008   0.61484   0.61835   0.61961   0.62125
 Alpha virt. eigenvalues --    0.62406   0.62534   0.62775   0.62978   0.63494
 Alpha virt. eigenvalues --    0.64099   0.64139   0.64304   0.64468   0.64518
 Alpha virt. eigenvalues --    0.65130   0.65132   0.65684   0.65690   0.66160
 Alpha virt. eigenvalues --    0.66358   0.66747   0.66823   0.66994   0.67410
 Alpha virt. eigenvalues --    0.67623   0.67686   0.67781   0.67961   0.68459
 Alpha virt. eigenvalues --    0.68761   0.69144   0.69263   0.69306   0.69649
 Alpha virt. eigenvalues --    0.69933   0.70281   0.70911   0.71047   0.71194
 Alpha virt. eigenvalues --    0.71373   0.71387   0.72077   0.72123   0.72417
 Alpha virt. eigenvalues --    0.72699   0.72996   0.73186   0.73335   0.73786
 Alpha virt. eigenvalues --    0.73898   0.74103   0.74257   0.74822   0.75076
 Alpha virt. eigenvalues --    0.75375   0.75548   0.75793   0.76333   0.76414
 Alpha virt. eigenvalues --    0.76783   0.76923   0.76993   0.77161   0.77465
 Alpha virt. eigenvalues --    0.77801   0.77852   0.78014   0.78092   0.78626
 Alpha virt. eigenvalues --    0.78653   0.78996   0.79018   0.79634   0.79966
 Alpha virt. eigenvalues --    0.80089   0.80251   0.80770   0.80971   0.81283
 Alpha virt. eigenvalues --    0.81671   0.81781   0.82158   0.82807   0.83130
 Alpha virt. eigenvalues --    0.83369   0.83602   0.83633   0.84261   0.84322
 Alpha virt. eigenvalues --    0.84443   0.84673   0.84912   0.85231   0.85363
 Alpha virt. eigenvalues --    0.85608   0.86201   0.86430   0.86469   0.86893
 Alpha virt. eigenvalues --    0.86918   0.87511   0.87524   0.87994   0.88206
 Alpha virt. eigenvalues --    0.88414   0.88682   0.88983   0.89344   0.89439
 Alpha virt. eigenvalues --    0.89523   0.90009   0.90119   0.90565   0.90929
 Alpha virt. eigenvalues --    0.91421   0.91480   0.91630   0.92437   0.92888
 Alpha virt. eigenvalues --    0.93172   0.93290   0.93344   0.93754   0.93871
[...]
                                                    496(r),1378(r),279(r)
                                                    1161(r),1751(r),948(r)
                                                    1238(r),250(r),1689(v)
                                                    1268(r),1376(r),1263(r)
                                                    278(r),1379(r),277(r),710(r)
                                                    1080(v),1135(v),1137(v)
                                                    573(r),1109(g),472(r),601(r)
                                                    1694(v),1483(r),1352(v)
                                                    1574(v),686(r),384(r),599(r)
                                                    1385(r),1288(r),304(r)
                                                    1804(r),262(r),280(r)
                                                    1269(r),1361(v),1266(r)
                                                    1749(r),1349(v),604(r)
                                                    286(r),1580(v),949(r)
                                                    1806(r),1142(v),923(r)
                                                    1028(r),357(r),206(g),242(v)
                                                    1482(r),1456(r),711(r)
                                                    603(r),598(r),1696(v),687(r)
                                                    1700(v),1566(v),691(r)
                                                    917(r),1144(v),1738(r)
                                                    1671(r),1085(v),243(v)
                                                    220(g),470(r),1090(v)
                                                    1160(r),237(v),204(g),253(r)
                                                    383(r),956(r),575(r),1353(v)
                                                    1488(r),1272(r),1687(v)
                                                    696(r),1459(r),389(r)
                                                    1487(r),1720(v),360(r)
                                                    1240(r),1124(g),1081(v)
                                                    1635(r),388(r),828(r),607(r)
                                                    260(r),608(r),479(r),495(r)
                                                    764(r),1359(v),1820(r)
                                                    500(r),1125(g),718(r)
                                                    1141(v),1066(r),477(r)
                                                    254(r),1165(r),1794(v)
                                                    1264(r),1119(g)
  1716. BD*(   1)Pd   1 -Cl  81          0.18031     0.18277  1717(g),1715(g),211(g)
                                                    1104(v),209(g),214(g),207(g)
                                                    1792(v),222(v),215(g),218(g)
                                                    1111(v),192(g),217(g)
                                                    1133(r),1078(r),229(v)
                                                    1107(v),1114(v),1566(g)
                                                    1113(v),1571(g),1718(v)
                                                    206(g),1568(g),1691(v)
                                                    684(r),1112(v),230(v),468(r)
                                                    220(g),1087(r),1132(r)
                                                    225(v),469(r),212(g),251(r)
                                                    213(g),205(g)
  1717. BD*(   1)Pd   1 -Cl  92          0.18031     0.18277  1716(g),1714(g),211(g)
                                                    222(v),209(g),214(g),207(g)
                                                    1718(v),1104(v),215(g)
                                                    218(g),229(v),192(g),217(g)
                                                    468(r),684(r),1111(v),225(v)
                                                    232(v),1686(g),231(v)
                                                    1691(g),1792(v),206(g)
                                                    1688(g),1571(v),1078(r)
                                                    230(v),1112(v),1133(r)
                                                    220(g),693(r),1107(v),467(r)
                                                    1134(r),212(g),1350(r)
                                                    213(g),205(g)
  1718. BD*(   1) P   2 - C   3          0.06930     0.20347   
  1719. BD*(   1) P   2 - C  17          0.06990     0.20799   
  1720. BD*(   1) P   2 - C  31          0.07041     0.20885   
  1721. BD*(   1) C   3 - C   4          0.02615     0.52109   
  1722. BD*(   2) C   3 - C   4          0.38752     0.02054  1727(v),1732(v),1766(r)
                                                    1740(r),1756(r),1811(r)
                                                    1719(v),278(g),1742(r)
                                                    253(g)
  1723. BD*(   1) C   3 - C   8          0.02307     0.52633   
  1724. BD*(   1) C   4 - C   5          0.01487     0.54653   
  1725. BD*(   1) C   4 - H  16          0.01624     0.41176   
  1726. BD*(   1) C   5 - C   6          0.02286     0.53489   
  1727. BD*(   2) C   5 - C   6          0.33882     0.03466  1732(v),1722(v),304(g)
                                                    1735(v),1737(v)
  1728. BD*(   1) C   5 - H  15          0.01466     0.39748   
  1729. BD*(   1) C   6 - C   7          0.02317     0.53244   
  1730. BD*(   1) C   6 - C  11          0.01343     0.39044   
  1731. BD*(   1) C   7 - C   8          0.01420     0.55936   
  1732. BD*(   2) C   7 - C   8          0.28549     0.04168  1727(v),1722(v),356(g)
  1733. BD*(   1) C   7 - H  10          0.01431     0.40421   
  1734. BD*(   1) C   8 - H   9          0.01594     0.43447   
  1735. BD*(   1) C  11 - H  12          0.01043     0.35977   
  1736. BD*(   1) C  11 - H  13          0.00518     0.36586   
  1737. BD*(   1) C  11 - H  14          0.00696     0.36422   
  1738. BD*(   1) C  17 - C  18          0.02853     0.51715   
  1739. BD*(   1) C  17 - C  22          0.02464     0.52384   
  1740. BD*(   2) C  17 - C  22          0.36493     0.02251  1742(v),1747(v),1722(r)
                                                    1779(r),1786(r),1718(v)
                                                    1756(r),1720(v),598(g)
                                                    1795(r),599(g),470(g)
  1741. BD*(   1) C  18 - C  19          0.01436     0.54368   
  1742. BD*(   2) C  18 - C  19          0.31158     0.02465  1740(v),1747(v),521(g)
                                                    1722(r),498(g)
  1743. BD*(   1) C  18 - H  30          0.01623     0.40297   
  1744. BD*(   1) C  19 - C  20          0.02355     0.52098   
  1745. BD*(   1) C  19 - H  29          0.01497     0.38786   
  1746. BD*(   1) C  20 - C  21          0.02328     0.52870   
  1747. BD*(   2) C  20 - C  21          0.32810     0.03012  1742(v),1740(v),1781(r)
                                                    1752(v),573(g),1786(r)
                                                    1753(v)
  1748. BD*(   1) C  20 - C  25          0.01361     0.38174   
  1749. BD*(   1) C  21 - C  22          0.01572     0.55002   
  1750. BD*(   1) C  21 - H  24          0.01483     0.39674   
  1751. BD*(   1) C  22 - H  23          0.01609     0.44106   
  1752. BD*(   1) C  25 - H  26          0.01099     0.34683   
  1753. BD*(   1) C  25 - H  27          0.00621     0.35831   
  1754. BD*(   1) C  25 - H  28          0.00569     0.35794   
  1755. BD*(   1) C  31 - C  32          0.03502     0.52185   
  1756. BD*(   2) C  31 - C  32          0.39219     0.01980  1779(r),1766(v),1761(v)
                                                    1795(r),1722(r),1776(v)
                                                    1740(r),712(g),1775(v)
                                                    685(g),1718(v),1719(v)
  1757. BD*(   1) C  31 - C  36          0.02103     0.49273   
  1758. BD*(   1) C  32 - C  33          0.03092     0.50688   
  1759. BD*(   1) C  32 - C  45          0.03952     0.36945   
  1760. BD*(   1) C  33 - C  34          0.02213     0.54465   
  1761. BD*(   2) C  33 - C  34          0.31898     0.03101  1756(v),1766(v),764(g)
                                                    1802(r),1771(v),1781(r)
                                                    1769(v)
  1762. BD*(   1) C  33 - C  40          0.02087     0.38137   
  1763. BD*(   1) C  34 - C  35          0.01362     0.53293   
  1764. BD*(   1) C  34 - H  39          0.01540     0.38815   
  1765. BD*(   1) C  35 - C  36          0.01650     0.54137   
  1766. BD*(   2) C  35 - C  36          0.31516     0.02073  1756(v),1761(v),1722(r)
                                                    1795(r),1786(r),790(g)
                                                    1802(r)
  1767. BD*(   1) C  35 - H  38          0.01376     0.39786   
  1768. BD*(   1) C  36 - H  37          0.01447     0.41399   
  1769. BD*(   1) C  40 - H  41          0.01416     0.36145   
  1770. BD*(   1) C  40 - C  42          0.00816     0.33718   
  1771. BD*(   1) C  40 - H  91          0.01847     0.35337   
  1772. BD*(   1) C  42 - H  43          0.01167     0.36967   
  1773. BD*(   1) C  42 - H  44          0.01559     0.38025   
  1774. BD*(   1) C  42 - C  45          0.03103     0.30623   
  1775. BD*(   1) C  45 - C  46          0.03952     0.36945   
  1776. BD*(   1) C  45 - C  87          0.03103     0.30623   
  1777. BD*(   1) C  46 - C  47          0.03091     0.50689   
  1778. BD*(   1) C  46 - C  51          0.03502     0.52185   
  1779. BD*(   2) C  46 - C  51          0.39220     0.01980  1756(r),1786(v),1781(v)
                                                    1740(r),1811(r),1774(v)
                                                    1795(r),950(g),1759(v)
                                                    1079(g),1792(v),1791(v)
  1780. BD*(   1) C  47 - C  48          0.02213     0.54465   
  1781. BD*(   2) C  47 - C  48          0.31898     0.03101  1779(v),1786(v),1002(g)
                                                    1747(r),1829(v),1761(r)
                                                    1827(v)
  1782. BD*(   1) C  47 - C  85          0.02088     0.38137   
  1783. BD*(   1) C  48 - C  49          0.01362     0.53293   
  1784. BD*(   1) C  48 - H  84          0.01540     0.38815   
  1785. BD*(   1) C  49 - C  50          0.01650     0.54137   
  1786. BD*(   2) C  49 - C  50          0.31516     0.02073  1779(v),1781(v),1811(r)
                                                    1740(r),1766(r),1028(g)
                                                    1747(r)
  1787. BD*(   1) C  49 - H  83          0.01376     0.39786   
  1788. BD*(   1) C  50 - C  51          0.02103     0.49273   
  1789. BD*(   1) C  50 - H  82          0.01447     0.41399   
  1790. BD*(   1) C  51 - P  52          0.07040     0.20885   
  1791. BD*(   1) P  52 - C  53          0.06990     0.20800   
  1792. BD*(   1) P  52 - C  67          0.06929     0.20347   
  1793. BD*(   1) C  53 - C  54          0.02853     0.51719   
  1794. BD*(   1) C  53 - C  58          0.02464     0.52381   
  1795. BD*(   2) C  53 - C  58          0.36508     0.02250  1797(v),1802(v),1811(r)
                                                    1756(r),1766(r),1792(v)
                                                    1779(r),1790(v),1263(g)
                                                    1740(r),1264(g),1135(g)
  1796. BD*(   1) C  54 - C  55          0.01436     0.54363   
  1797. BD*(   2) C  54 - C  55          0.31175     0.02464  1795(v),1802(v),1186(g)
                                                    1811(r),1163(g)
  1798. BD*(   1) C  54 - H  66          0.01623     0.40297   
  1799. BD*(   1) C  55 - C  56          0.02354     0.52105   
  1800. BD*(   1) C  55 - H  65          0.01498     0.38788   
  1801. BD*(   1) C  56 - C  57          0.02328     0.52863   
  1802. BD*(   2) C  56 - C  57          0.32821     0.03011  1797(v),1795(v),1761(r)
                                                    1808(v),1238(g),1766(r)
                                                    1807(v)
  1803. BD*(   1) C  56 - C  61          0.01361     0.38174   
  1804. BD*(   1) C  57 - C  58          0.01572     0.55007   
  1805. BD*(   1) C  57 - H  60          0.01483     0.39672   
  1806. BD*(   1) C  58 - H  59          0.01609     0.44107   
  1807. BD*(   1) C  61 - H  62          0.00625     0.35825   
  1808. BD*(   1) C  61 - H  63          0.01098     0.34685   
  1809. BD*(   1) C  61 - H  64          0.00565     0.35799   
  1810. BD*(   1) C  67 - C  68          0.02615     0.52110   
  1811. BD*(   2) C  67 - C  68          0.38753     0.02054  1816(v),1821(v),1786(r)
                                                    1795(r),1779(r),1722(r)
                                                    1791(v),1377(g),1797(r)
                                                    1352(g)
  1812. BD*(   1) C  67 - C  72          0.02307     0.52633   
  1813. BD*(   1) C  68 - C  69          0.01487     0.54653   
  1814. BD*(   1) C  68 - H  80          0.01624     0.41176   
  1815. BD*(   1) C  69 - C  70          0.02286     0.53488   
  1816. BD*(   2) C  69 - C  70          0.33882     0.03467  1821(v),1811(v),1403(g)
                                                    1826(v),1824(v)
  1817. BD*(   1) C  69 - H  79          0.01466     0.39748   
  1818. BD*(   1) C  70 - C  71          0.02317     0.53245   
  1819. BD*(   1) C  70 - C  75          0.01343     0.39044   
  1820. BD*(   1) C  71 - C  72          0.01420     0.55936   
  1821. BD*(   2) C  71 - C  72          0.28550     0.04168  1816(v),1811(v),1455(g)
  1822. BD*(   1) C  71 - H  74          0.01431     0.40421   
  1823. BD*(   1) C  72 - H  73          0.01594     0.43447   
  1824. BD*(   1) C  75 - H  76          0.00696     0.36423   
  1825. BD*(   1) C  75 - H  77          0.00518     0.36586   
  1826. BD*(   1) C  75 - H  78          0.01043     0.35977   
  1827. BD*(   1) C  85 - H  86          0.01416     0.36144   
  1828. BD*(   1) C  85 - C  87          0.00816     0.33718   
  1829. BD*(   1) C  85 - H  90          0.01847     0.35337   
  1830. BD*(   1) C  87 - H  88          0.01167     0.36967   
  1831. BD*(   1) C  87 - H  89          0.01559     0.38025   
       -------------------------------
              Total Lewis  412.38227  ( 97.7209%)
        Valence non-Lewis    8.90761  (  2.1108%)
        Rydberg non-Lewis    0.71013  (  0.1683%)
       -------------------------------
            Total unit  1  422.00000  (100.0000%)
           Charge unit  1    0.00000
 1\1\GINC-NOTCH144\SP\RPBE1PBE\Gen\C45H42Cl2P2Pd1\U1010977\02-Nov-2021\
 0\\# PBE1PBE gen pseudo=read int=(grid=ultrafine) empiricaldispersion=
 GD3BJ pop=nbo guess=read geom=check\\title\\0,1\Pd,0,-0.1605280824,3.1
 752770318,-0.0308165193\P,0,0.7071978547,1.0229252067,-0.2494260412\C,
 0,1.3660209416,0.3963764001,-1.8605696548\C,0,1.279820342,-0.958054898
 7,-2.235652956\C,0,1.9721880858,-1.427737151,-3.3599268721\C,0,2.77287
 7318,-0.5709805805,-4.1336325991\C,0,2.8753363546,0.775159512,-3.73260
 92437\C,0,2.1891628314,1.2571232106,-2.6154515197\H,0,2.2830228574,2.3
 076450462,-2.3321404349\H,0,3.5026867489,1.4637887586,-4.3100692016\C,
 0,3.4928661762,-1.0703785681,-5.3629545254\H,0,2.9535560958,-0.7801473
 05,-6.2838375378\H,0,3.580279858,-2.1695741034,-5.3639795358\H,0,4.507
 9829564,-0.6437735937,-5.4372899639\H,0,1.888242008,-2.48522998,-3.636
 7718893\H,0,0.6769912698,-1.6584516426,-1.6511276238\C,0,2.3047248716,
 0.9358206518,0.6651153199\C,0,3.0779802,-0.2422010885,0.6768934254\C,0
 ,4.3517737657,-0.242945562,1.2512886247\C,0,4.9060987772,0.9356021567,
 1.7904780309\C,0,4.152581345,2.11936255,1.7110832436\C,0,2.8661753151,
 2.1252187259,1.1599582118\H,0,2.2910758054,3.0568912393,1.0997494104\H
 ,0,4.5744664169,3.0546925614,2.0956471327\C,0,6.2666756703,0.925358215
 4,2.4439077545\H,0,6.1779532917,0.7737241614,3.5367711465\H,0,6.796247
 1041,1.8808513874,2.2921505054\H,0,6.9013108069,0.1131590633,2.0518375
 031\H,0,4.9402485963,-1.1680157539,1.2591809885\H,0,2.698558264,-1.150
 8241215,0.1982068832\C,0,-0.5184398167,-0.2583794816,0.2565093642\C,0,
 -0.8208485069,-0.726179524,1.5562997162\C,0,-1.9597481622,-1.546604309
 6,1.7514061355\C,0,-2.7918119065,-1.9147832713,0.6935910182\C,0,-2.510
 9884367,-1.4301748875,-0.5907755662\C,0,-1.4092979923,-0.5971225035,-0
 .7960121932\H,0,-1.2378845076,-0.1821683081,-1.7942039655\H,0,-3.16714
 33252,-1.6743116887,-1.4322203533\H,0,-3.6672936621,-2.5485523464,0.87
 36917855\C,0,-2.1225961982,-1.9370354887,3.2027343013\H,0,-3.167224999
 2,-1.8305169405,3.5444111188\C,0,-1.1647618793,-0.9797449938,3.9350246
 469\H,0,-0.713245035,-1.4143170263,4.8424426373\H,0,-1.7037800506,-0.0
 692748964,4.2339168092\C,0,-0.0682225177,-0.6083943769,2.8821490129\C,
 0,0.6561730985,0.6658965453,3.317616761\C,0,1.823975605,0.3028380399,4
 .0336343513\C,0,2.6417659281,1.2566182241,4.6405759862\C,0,2.316004615
 3,2.6129055619,4.5076792493\C,0,1.1847550693,2.9901228091,3.7811801177
 \C,0,0.3090049585,2.0321446109,3.2054079448\P,0,-0.9668863709,2.810581
 3257,2.12558788\C,0,-2.538980749,1.8556078472,2.0133604408\C,0,-3.2752
 554075,1.5198463537,3.1669973758\C,0,-4.5345127021,0.9254440393,3.0507
 069877\C,0,-5.1117794171,0.688161245,1.7868501283\C,0,-4.3969625846,1.
 0901308192,0.6453882628\C,0,-3.1247679741,1.6637145962,0.7504790319\H,
 0,-2.5800431028,1.9773181,-0.1480218455\H,0,-4.8380840053,0.9442395344
 ,-0.3470092786\C,0,-6.4556140313,0.0124213445,1.6614003797\H,0,-7.0208
 300046,0.392462888,0.7938746449\H,0,-6.3363104392,-1.0786182605,1.5178
 733639\H,0,-7.0711849011,0.1579077514,2.564731671\H,0,-5.094002273,0.6
 636022964,3.9565342626\H,0,-2.8795883982,1.7621592817,4.1586772436\C,0
 ,-1.6439839842,4.187530777,3.1589900807\C,0,-1.5251939236,4.2070294181
 ,4.5618828148\C,0,-2.229147321,5.1524893814,5.3198537709\C,0,-3.073710
 0504,6.0943268818,4.7087751072\C,0,-3.207880074,6.0471456981,3.3076395
 235\C,0,-2.5106553874,5.1115085985,2.539766883\H,0,-2.6299530341,5.102
 9142695,1.4542412874\H,0,-3.8694642709,6.7617296028,2.8047342109\C,0,-
 3.8067926737,7.132900387,5.5230044887\H,0,-4.8356815694,7.2831834319,5
 .1531743278\H,0,-3.861234179,6.8503163382,6.5874571546\H,0,-3.29795020
 54,8.1131911849,5.4661847886\H,0,-2.1193992057,5.1527470943,6.41069607
 07\H,0,-0.8875955751,3.4818551197,5.0749327824\Cl,0,-0.3549107453,5.52
 40981433,0.2501057167\H,0,0.9772129136,4.0554294991,3.6397406452\H,0,2
 .959320744,3.3838576221,4.9435093567\H,0,3.5402877356,0.9476348955,5.1
 862435609\C,0,2.0329100699,-1.1943758686,4.0355643237\H,0,3.0815534339
 ,-1.4653674809,3.820500644\C,0,1.0637268037,-1.6870578264,2.9455896789
 \H,0,0.6472801202,-2.6887405314,3.1439090401\H,0,1.581476532,-1.726984
 1218,1.9764787569\H,0,1.7853623696,-1.6225583146,5.0264952346\H,0,-1.8
 387230916,-2.9963658132,3.3570073723\Cl,0,-0.0315191957,3.5093551741,-
 2.3771791101\\Version=ES64L-G16RevB.01\State=1-A\HF=-3469.3892303\RMSD
 =3.030e-09\Dipole=0.0934439,-3.8287373,2.947369\Quadrupole=20.3150635,
 -15.3775751,-4.9374884,-1.0589676,-2.9768042,19.510249\PG=C01 [X(C45H4
 2Cl2P2Pd1)]\\@


 SUCCESS-- IF YOU HAVE TRIED TO DO SOMETHING AND FAILED
           YOU ARE BETTER OFF THAN IF YOU HAD TRIED TO DO
           NOTHING AND SUCCEEDED.

                   -- FROM THE BACK OF A SUGAR PACKET
 Job cpu time:       0 days  4 hours  6 minutes 24.7 seconds.
 Elapsed time:       0 days  0 hours  6 minutes 12.2 seconds.
 File lengths (MBytes):  RWF=   1723 Int=      0 D2E=      0 Chk=    258 Scr=      1
 Normal termination of Gaussian 16 at Tue Nov  2 11:56:58 2021.
