 Entering Gaussian System, Link 0=/uufs/chpc.utah.edu/sys/installdir/gaussian16/B01/E6B/g16/g16
 Input=RSS-C3-Tunephos_1_SPE.com
 Output=RSS-C3-Tunephos_1_SPE.log
 Initial command:
 /uufs/chpc.utah.edu/sys/installdir/gaussian16/B01/E6B/g16/l1.exe "/scratch/general/lustre/u1010977/3356294/notchpeak.peaks/Gau-9101.inp" -scrdir="/scratch/general/lustre/u1010977/3356294/notchpeak.peaks/"
 Entering Link 1 = /uufs/chpc.utah.edu/sys/installdir/gaussian16/B01/E6B/g16/l1.exe PID=      9103.
  
 Copyright (c) 1988-2017, Gaussian, Inc.  All Rights Reserved.
  
 This is part of the Gaussian(R) 16 program.  It is based on
 the Gaussian(R) 09 system (copyright 2009, Gaussian, Inc.),
 the Gaussian(R) 03 system (copyright 2003, Gaussian, Inc.),
 the Gaussian(R) 98 system (copyright 1998, Gaussian, Inc.),
 the Gaussian(R) 94 system (copyright 1995, Gaussian, Inc.),
 the Gaussian 92(TM) system (copyright 1992, Gaussian, Inc.),
 the Gaussian 90(TM) system (copyright 1990, Gaussian, Inc.),
 the Gaussian 88(TM) system (copyright 1988, Gaussian, Inc.),
 the Gaussian 86(TM) system (copyright 1986, Carnegie Mellon
 University), and the Gaussian 82(TM) system (copyright 1983,
 Carnegie Mellon University). Gaussian is a federally registered
 trademark of Gaussian, Inc.
  
 This software contains proprietary and confidential information,
 including trade secrets, belonging to Gaussian, Inc.
  
 This software is provided under written license and may be
 used, copied, transmitted, or stored only in accord with that
 written license.
  
 The following legend is applicable only to US Government
 contracts under FAR:
  
                    RESTRICTED RIGHTS LEGEND
  
 Use, reproduction and disclosure by the US Government is
 subject to restrictions as set forth in subparagraphs (a)
 and (c) of the Commercial Computer Software - Restricted
 Rights clause in FAR 52.227-19.
  
 Gaussian, Inc.
 340 Quinnipiac St., Bldg. 40, Wallingford CT 06492
  
  
 ---------------------------------------------------------------
 Warning -- This program may not be used in any manner that
 competes with the business of Gaussian, Inc. or will provide
 assistance to any competitor of Gaussian, Inc.  The licensee
 of this program is prohibited from giving any competitor of
 Gaussian, Inc. access to this program.  By using this program,
 the user acknowledges that Gaussian, Inc. is engaged in the
 business of creating and licensing software in the field of
 computational chemistry and represents and warrants to the
 licensee that it is not a competitor of Gaussian, Inc. and that
 it will not use this program in any manner prohibited above.
 ---------------------------------------------------------------
  

 Cite this work as:
 Gaussian 16, Revision B.01,
 M. J. Frisch, G. W. Trucks, H. B. Schlegel, G. E. Scuseria, 
 M. A. Robb, J. R. Cheeseman, G. Scalmani, V. Barone, 
 G. A. Petersson, H. Nakatsuji, X. Li, M. Caricato, A. V. Marenich, 
 J. Bloino, B. G. Janesko, R. Gomperts, B. Mennucci, H. P. Hratchian, 
 J. V. Ortiz, A. F. Izmaylov, J. L. Sonnenberg, D. Williams-Young, 
 F. Ding, F. Lipparini, F. Egidi, J. Goings, B. Peng, A. Petrone, 
 T. Henderson, D. Ranasinghe, V. G. Zakrzewski, J. Gao, N. Rega, 
 G. Zheng, W. Liang, M. Hada, M. Ehara, K. Toyota, R. Fukuda, 
 J. Hasegawa, M. Ishida, T. Nakajima, Y. Honda, O. Kitao, H. Nakai, 
 T. Vreven, K. Throssell, J. A. Montgomery, Jr., J. E. Peralta, 
 F. Ogliaro, M. J. Bearpark, J. J. Heyd, E. N. Brothers, K. N. Kudin, 
 V. N. Staroverov, T. A. Keith, R. Kobayashi, J. Normand, 
 K. Raghavachari, A. P. Rendell, J. C. Burant, S. S. Iyengar, 
 J. Tomasi, M. Cossi, J. M. Millam, M. Klene, C. Adamo, R. Cammi, 
 J. W. Ochterski, R. L. Martin, K. Morokuma, O. Farkas, 
 J. B. Foresman, and D. J. Fox, Gaussian, Inc., Wallingford CT, 2016.
 
 ******************************************
 Gaussian 16:  ES64L-G16RevB.01 20-Dec-2017
                 2-Nov-2021 
 ******************************************
 %NProcShared=32
 Will use up to   32 processors via shared memory.
 %mem=18GB
 %chk=RSS-C3-Tunephos_1_SPE.chk
 ----------------------------------------------------------------------
 # PBE1PBE gen pseudo=read int=(grid=ultrafine) empiricaldispersion=GD3
 BJ nmr=giao
 ----------------------------------------------------------------------
 1/38=1,172=1/1;
 2/12=2,17=6,18=5,40=1/2;
 3/5=7,11=2,16=1,17=8,25=1,30=1,74=-13,75=-5,124=41/1,2,3,8;
 4//1;
 5/5=2,38=5/2;
 8/6=1,10=90,11=11/1;
 10/13=100,45=16/2;
 6/7=2,8=2,9=2,10=2,28=1/1;
 99/9=1/99;
 -----
 title
 -----
 Symbolic Z-matrix:
 Charge =  0 Multiplicity = 1
 Pd                   -0.30972  -2.14567  -0.04916 
 P                     1.56857  -0.84388   0.03121 
 P                    -1.75533  -0.37367  -0.04161 
 O                    -0.32638   3.91723  -0.99956 
 O                     1.36713   3.61828   1.26688 
 C                     3.03128  -1.66538  -0.71643 
 C                     2.83886  -2.58688  -1.76443 
 C                     3.94574  -3.1466   -2.41281 
 C                     5.24597  -2.80566  -2.01013 
 C                     5.43812  -1.89947  -0.95852 
 C                     4.33444  -1.3247   -0.31296 
 C                     2.10607  -0.29481   1.69059 
 C                     2.805     0.9111    1.88877 
 C                     3.20247   1.28088   3.17987 
 C                     2.91485   0.44687   4.27 
 C                     2.22823  -0.76048   4.06994 
 C                     1.81859  -1.13512   2.78409 
 C                     1.41018   0.68795  -0.9986 
 C                     2.06602   0.7375   -2.24562 
 C                     1.93427   1.85726  -3.07339 
 C                     1.15949   2.95002  -2.67283 
 C                     0.50754   2.90963  -1.43343 
 C                     0.60616   1.77778  -0.58712 
 C                    -0.11071   1.84028   0.7187 
 C                     0.28187   2.8544    1.62455 
 C                    -0.36284   3.02224   2.85741 
 C                    -1.42154   2.17478   3.19642 
 C                    -1.83628   1.17196   2.31287 
 C                    -1.19409   0.99832   1.06988 
 C                    -3.39437  -0.80392   0.66678 
 C                    -3.4685   -1.79451   1.66575 
 C                    -4.69163  -2.06599   2.28938 
 C                    -5.84748  -1.36671   1.90976 
 C                    -5.77738  -0.39123   0.90607 
 C                    -4.55314  -0.10445   0.2861 
 C                    -2.10427   0.39643  -1.66311 
 C                    -2.03171  -0.42091  -2.80798 
 C                    -2.31133   0.12596  -4.0667 
 C                    -2.65727   1.48039  -4.18836 
 C                    -2.73201   2.29188  -3.047 
 C                    -2.46074   1.75318  -1.783 
 C                     1.21971   5.06382   1.25936 
 H                     1.82295  -2.87829  -2.0482 
 H                     6.10992  -3.25547  -2.51024 
 H                     4.488    -0.62182   0.51153 
 H                     3.00149   1.57917   1.0449 
 H                     3.22307   0.74004   5.27911 
 H                     1.28891  -2.07885   2.60933 
 H                     2.6859   -0.10152  -2.56812 
 H                     2.44008   1.87595  -4.04397 
 H                     1.04212   3.81794  -3.32788 
 H                    -0.01358   3.7948    3.54951 
 H                    -1.92531   2.28908   4.16145 
 H                    -2.66975   0.52267   2.58868 
 H                    -2.57198  -2.36359   1.93023 
 H                    -6.80567  -1.59065   2.38993 
 H                    -4.50341   0.65377  -0.50127 
 H                    -1.77035  -1.47935  -2.69405 
 H                    -2.86586   1.90508  -5.17596 
 H                    -2.487     2.39576  -0.89777 
 C                     2.30334   5.64917   2.16221 
 H                     0.21946   5.31542   1.65795 
 Cl                    1.03336  -4.0238    0.54972 
 Cl                   -2.11498  -3.54115  -0.74427 
 C                     1.35841   5.53398  -0.19863 
 C                     0.13266   5.28583  -1.09859 
 H                     0.42394   5.50472  -2.14512 
 C                    -1.08294   6.13705  -0.74343 
 H                     2.23845   5.01872  -0.62493 
 H                     1.58003   6.61723  -0.22063 
 H                     2.23433   6.74959   2.19822 
 H                     2.20555   5.25653   3.18777 
 H                     3.30347   5.37506   1.78436 
 H                    -0.8406    7.20921  -0.82718 
 H                    -1.91531   5.90993  -1.42906 
 H                    -1.42544   5.93039   0.28418 
 H                     6.45087  -1.64063  -0.63239 
 H                     3.72497   2.23124   3.3318 
 H                     2.00458  -1.4133    4.91984 
 H                     3.78997  -3.86755  -3.22158 
 H                    -2.25432  -0.50914  -4.95659 
 H                    -2.99003   3.35239  -3.13795 
 H                    -6.67937   0.14738   0.59733 
 H                    -4.7443   -2.84167   3.05989 
 
 Stoichiometry    C41H36Cl2O2P2Pd
 Framework group  C1[X(C41H36Cl2O2P2Pd)]
 Deg. of freedom   246
 Full point group                 C1      NOp   1
 Largest Abelian subgroup         C1      NOp   1
 Largest concise Abelian subgroup C1      NOp   1
                         Standard orientation:                         
 ---------------------------------------------------------------------
 Center     Atomic      Atomic             Coordinates (Angstroms)
 Number     Number       Type             X           Y           Z
 ---------------------------------------------------------------------
      1         46           0        2.402502   -0.009540   -0.043359
      2         15           0        0.844453   -1.682621    0.005479
      3         15           0        0.856061    1.675051   -0.020330
      4          8           0       -3.539297    0.906623    1.188710
      5          8           0       -3.601419   -0.877686   -1.026345
      6          6           0        1.487040   -3.225822    0.766373
      7          6           0        2.479321   -3.137424    1.762398
      8          6           0        2.908621   -4.293895    2.423561
      9          6           0        2.365952   -5.542772    2.084706
     10          6           0        1.388670   -5.633208    1.084347
     11          6           0        0.944177   -4.477652    0.426823
     12          6           0        0.139743   -2.183760   -1.605776
     13          6           0       -1.161893   -2.707471   -1.721793
     14          6           0       -1.650488   -3.085138   -2.978898
     15          6           0       -0.841357   -2.952391   -4.116599
     16          6           0        0.460047   -2.441001   -3.998335
     17          6           0        0.954906   -2.052150   -2.747138
     18          6           0       -0.594151   -1.275581    1.099482
     19          6           0       -0.672120   -1.880803    2.370411
     20          6           0       -1.717604   -1.565290    3.244394
     21          6           0       -2.708262   -0.653422    2.867619
     22          6           0       -2.639514   -0.050513    1.604862
     23          6           0       -1.578327   -0.335538    0.710611
     24          6           0       -1.605468    0.344445   -0.615987
     25          6           0       -2.710433    0.075526   -1.458511
     26          6           0       -2.848216    0.701416   -2.704728
     27          6           0       -1.877429    1.616887   -3.121223
     28          6           0       -0.781632    1.908696   -2.301227
     29          6           0       -0.637237    1.284765   -1.045265
     30          6           0        1.477912    3.213795   -0.807051
     31          6           0        2.416167    3.115506   -1.853348
     32          6           0        2.826306    4.268148   -2.532952
     33          6           0        2.318998    5.523135   -2.163157
     34          6           0        1.396502    5.623370   -1.113010
     35          6           0        0.970890    4.471724   -0.436307
     36          6           0        0.228010    2.178279    1.621739
     37          6           0        1.084637    2.022369    2.728950
     38          6           0        0.648695    2.414348    4.000930
     39          6           0       -0.634695    2.954882    4.173270
     40          6           0       -1.485048    3.112209    3.069209
     41          6           0       -1.056267    2.729520    1.792030
     42          6           0       -5.008972   -0.523750   -0.956491
     43          1           0        2.926457   -2.166141    1.995192
     44          1           0        2.713515   -6.447463    2.594195
     45          1           0        0.185059   -4.552523   -0.357733
     46          1           0       -1.806730   -2.781130   -0.840991
     47          1           0       -1.226989   -3.244566   -5.099036
     48          1           0        1.972101   -1.658837   -2.636089
     49          1           0        0.085720   -2.605226    2.675528
     50          1           0       -1.757980   -2.034604    4.232485
     51          1           0       -3.515748   -0.393387    3.557913
     52          1           0       -3.697219    0.446851   -3.346767
     53          1           0       -1.968520    2.103477   -4.097473
     54          1           0       -0.035505    2.631715   -2.637177
     55          1           0        2.837584    2.139122   -2.111514
     56          1           0        2.651865    6.424729   -2.687720
     57          1           0        0.254895    4.554551    0.386994
     58          1           0        2.087857    1.608292    2.575132
     59          1           0       -0.973939    3.251110    5.171462
     60          1           0       -1.733344    2.822073    0.937495
     61          6           0       -5.788210   -1.537809   -1.791045
     62          1           0       -5.135994    0.490232   -1.378865
     63         17           0        4.037168   -1.625664   -0.680452
     64         17           0        4.074454    1.595771    0.519717
     65          6           0       -5.418300   -0.550780    0.525988
     66          6           0       -4.952326    0.652280    1.368300
     67          1           0       -5.156173    0.426170    2.433808
     68          6           0       -5.639200    1.966767    1.009557
     69          1           0       -5.012137   -1.482954    0.959318
     70          1           0       -6.519472   -0.613565    0.606717
     71          1           0       -6.868016   -1.312337   -1.777964
     72          1           0       -5.439040   -1.527479   -2.836744
     73          1           0       -5.639996   -2.555507   -1.390430
     74          1           0       -6.729170    1.883690    1.152157
     75          1           0       -5.260996    2.777476    1.653164
     76          1           0       -5.439179    2.245853   -0.038348
     77          1           0        0.971986   -6.607281    0.807639
     78          1           0       -2.672040   -3.469738   -3.067111
     79          1           0        1.093355   -2.338466   -4.885427
     80          1           0        3.685110   -4.219902    3.191502
     81          1           0        1.314243    2.292587    4.861584
     82          1           0       -2.491973    3.522614    3.200311
     83          1           0        1.008258    6.602067   -0.812287
     84          1           0        3.560835    4.186203   -3.340347
 ---------------------------------------------------------------------
 Rotational constants (GHZ):           0.0653506           0.0598275           0.0478057
 General basis read from cards:  (5D, 7F)
 ======================================================================================================
                                       Pseudopotential Parameters
 ======================================================================================================
  Center     Atomic      Valence      Angular      Power
  Number     Number     Electrons     Momentum     of R      Exponent        Coefficient   SO-Coeffient
 ======================================================================================================
    1         46           18
                                      G and up 
                                                     2        1.0000000        0.00000000    0.00000000
                                      S - G
                                                     2       12.4300000      240.22904000    0.00000000
                                                     2        6.1707590       35.17194300    0.00000000
                                      P - G
                                                     2       11.0800000      170.41727600    0.00000000
                                                     2        5.8295540       28.47213300    0.00000000
                                      D - G
                                                     2        9.5100000       69.01384500    0.00000000
                                                     2        4.1397810       11.75086200    0.00000000
                                      F - G
                                                     2       13.2700000      -31.92955400    0.00000000
                                                     2        6.6300000       -5.39821700    0.00000000
    2         15
                                   No pseudopotential on this center.
    3         15
                                   No pseudopotential on this center.
    4          8
                                   No pseudopotential on this center.
    5          8
                                   No pseudopotential on this center.
    6          6
                                   No pseudopotential on this center.
    7          6
                                   No pseudopotential on this center.
    8          6
                                   No pseudopotential on this center.
    9          6
                                   No pseudopotential on this center.
   10          6
                                   No pseudopotential on this center.
   11          6
                                   No pseudopotential on this center.
   12          6
                                   No pseudopotential on this center.
   13          6
                                   No pseudopotential on this center.
   14          6
                                   No pseudopotential on this center.
   15          6
                                   No pseudopotential on this center.
   16          6
                                   No pseudopotential on this center.
   17          6
                                   No pseudopotential on this center.
   18          6
                                   No pseudopotential on this center.
   19          6
                                   No pseudopotential on this center.
   20          6
                                   No pseudopotential on this center.
   21          6
                                   No pseudopotential on this center.
   22          6
                                   No pseudopotential on this center.
   23          6
                                   No pseudopotential on this center.
   24          6
                                   No pseudopotential on this center.
   25          6
                                   No pseudopotential on this center.
   26          6
                                   No pseudopotential on this center.
   27          6
                                   No pseudopotential on this center.
   28          6
                                   No pseudopotential on this center.
   29          6
                                   No pseudopotential on this center.
   30          6
                                   No pseudopotential on this center.
   31          6
                                   No pseudopotential on this center.
   32          6
                                   No pseudopotential on this center.
   33          6
                                   No pseudopotential on this center.
   34          6
                                   No pseudopotential on this center.
   35          6
                                   No pseudopotential on this center.
   36          6
                                   No pseudopotential on this center.
   37          6
                                   No pseudopotential on this center.
   38          6
                                   No pseudopotential on this center.
   39          6
                                   No pseudopotential on this center.
   40          6
                                   No pseudopotential on this center.
   41          6
                                   No pseudopotential on this center.
   42          6
                                   No pseudopotential on this center.
   43          1
                                   No pseudopotential on this center.
   44          1
                                   No pseudopotential on this center.
   45          1
                                   No pseudopotential on this center.
   46          1
                                   No pseudopotential on this center.
   47          1
                                   No pseudopotential on this center.
   48          1
                                   No pseudopotential on this center.
   49          1
                                   No pseudopotential on this center.
   50          1
                                   No pseudopotential on this center.
   51          1
                                   No pseudopotential on this center.
   52          1
                                   No pseudopotential on this center.
   53          1
                                   No pseudopotential on this center.
   54          1
                                   No pseudopotential on this center.
   55          1
                                   No pseudopotential on this center.
   56          1
                                   No pseudopotential on this center.
   57          1
                                   No pseudopotential on this center.
   58          1
                                   No pseudopotential on this center.
   59          1
                                   No pseudopotential on this center.
   60          1
                                   No pseudopotential on this center.
   61          6
                                   No pseudopotential on this center.
   62          1
                                   No pseudopotential on this center.
   63         17
                                   No pseudopotential on this center.
   64         17
                                   No pseudopotential on this center.
   65          6
                                   No pseudopotential on this center.
   66          6
                                   No pseudopotential on this center.
   67          1
                                   No pseudopotential on this center.
   68          6
                                   No pseudopotential on this center.
   69          1
                                   No pseudopotential on this center.
   70          1
                                   No pseudopotential on this center.
   71          1
                                   No pseudopotential on this center.
   72          1
                                   No pseudopotential on this center.
   73          1
                                   No pseudopotential on this center.
   74          1
                                   No pseudopotential on this center.
   75          1
                                   No pseudopotential on this center.
   76          1
                                   No pseudopotential on this center.
   77          1
                                   No pseudopotential on this center.
   78          1
                                   No pseudopotential on this center.
   79          1
                                   No pseudopotential on this center.
   80          1
                                   No pseudopotential on this center.
   81          1
                                   No pseudopotential on this center.
   82          1
                                   No pseudopotential on this center.
   83          1
                                   No pseudopotential on this center.
   84          1
                                   No pseudopotential on this center.
 ======================================================================================================
 There are  1971 symmetry adapted cartesian basis functions of A   symmetry.
 There are  1733 symmetry adapted basis functions of A   symmetry.
  1733 basis functions,  2822 primitive gaussians,  1971 cartesian basis functions
   190 alpha electrons      190 beta electrons
       nuclear repulsion energy      8003.9490527598 Hartrees.
 NAtoms=   84 NActive=   84 NUniq=   84 SFac= 1.00D+00 NAtFMM=   60 NAOKFM=T Big=T
 Integral buffers will be    131072 words long.
 Raffenetti 2 integral format.
 Two-electron integral symmetry is turned on.
 Nuclear repulsion after empirical dispersion term =     8003.7903579411 Hartrees.
 One-electron integrals computed using PRISM.
   1 Symmetry operations used in ECPInt.
 ECPInt:  NShTT=  233586 NPrTT=  727824 LenC2=  185706 LenP2D=  380013.
 LDataN:  DoStor=T MaxTD1= 7 Len=  274
 Number of processors reduced to  21 by ecpmxn.
 NBasis=  1733 RedAO= T EigKep=  3.36D-06  NBF=  1733
 NBsUse=  1733 1.00D-06 EigRej= -1.00D+00 NBFU=  1733
 Defaulting to unpruned grid for atomic number  46.
 ExpMin= 1.60D-02 ExpMax= 6.95D+04 ExpMxC= 2.37D+03 IAcc=3 IRadAn=         5 AccDes= 0.00D+00
 Harris functional with IExCor= 1009 and IRadAn=       5 diagonalized for initial guess.
 HarFok:  IExCor= 1009 AccDes= 0.00D+00 IRadAn=         5 IDoV= 1 UseB2=F ITyADJ=14
 ICtDFT=  3500011 ScaDFX=  1.000000  1.000000  1.000000  1.000000
 Defaulting to unpruned grid for atomic number  46.
 FoFCou: FMM=F IPFlag=           0 FMFlag=      100000 FMFlg1=        2001
         NFxFlg=           0 DoJE=T BraDBF=F KetDBF=T FulRan=T
         wScrn=  0.000000 ICntrl=       500 IOpCl=  0 I1Cent=   200000004 NGrid=           0
         NMat0=    1 NMatS0=      1 NMatT0=    0 NMatD0=    1 NMtDS0=    0 NMtDT0=    0
 Petite list used in FoFCou.
 Requested convergence on RMS density matrix=1.00D-08 within 128 cycles.
 Requested convergence on MAX density matrix=1.00D-06.
 Requested convergence on             energy=1.00D-06.
 No special actions if energy rises.
 Defaulting to unpruned grid for atomic number  46.
 Defaulting to unpruned grid for atomic number  46.
 Defaulting to unpruned grid for atomic number  46.
 Defaulting to unpruned grid for atomic number  46.
 Defaulting to unpruned grid for atomic number  46.
 Defaulting to unpruned grid for atomic number  46.
 Defaulting to unpruned grid for atomic number  46.
 Defaulting to unpruned grid for atomic number  46.
 Defaulting to unpruned grid for atomic number  46.
 Defaulting to unpruned grid for atomic number  46.
 Defaulting to unpruned grid for atomic number  46.
 Defaulting to unpruned grid for atomic number  46.
 Defaulting to unpruned grid for atomic number  46.
 Defaulting to unpruned grid for atomic number  46.
 Defaulting to unpruned grid for atomic number  46.
 Defaulting to unpruned grid for atomic number  46.
 Defaulting to unpruned grid for atomic number  46.
 Defaulting to unpruned grid for atomic number  46.
 Defaulting to unpruned grid for atomic number  46.
 Defaulting to unpruned grid for atomic number  46.
 Defaulting to unpruned grid for atomic number  46.
 Defaulting to unpruned grid for atomic number  46.
 Defaulting to unpruned grid for atomic number  46.
 Defaulting to unpruned grid for atomic number  46.
 Defaulting to unpruned grid for atomic number  46.
 Defaulting to unpruned grid for atomic number  46.
 Defaulting to unpruned grid for atomic number  46.
 Defaulting to unpruned grid for atomic number  46.
 Defaulting to unpruned grid for atomic number  46.
 Defaulting to unpruned grid for atomic number  46.
 Defaulting to unpruned grid for atomic number  46.
 Defaulting to unpruned grid for atomic number  46.
 EnCoef did     7 forward-backward iterations
 EnCoef did   100 forward-backward iterations
 EnCoef did   100 forward-backward iterations
 EnCoef did     3 forward-backward iterations
 SCF Done:  E(RPBE1PBE) =  -3463.81110045     A.U. after   20 cycles
            NFock= 20  Conv=0.46D-08     -V/T= 2.0276
 DoSCS=F DFT=T ScalE2(SS,OS)=  1.000000  1.000000
 Range of M.O.s used for correlation:     1  1733
 NBasis=  1733 NAE=   190 NBE=   190 NFC=     0 NFV=     0
 NROrb=   1733 NOA=   190 NOB=   190 NVA=  1543 NVB=  1543

 **** Warning!!: The largest alpha MO coefficient is  0.43345629D+02

          Differentiating once with respect to magnetic field using GIAOs.
          Electric field/nuclear overlap derivatives assumed to be zero.
 Defaulting to unpruned grid for atomic number  46.
 FoFCou: FMM=F IPFlag=           0 FMFlag=      100000 FMFlg1=        2001
         NFxFlg=           0 DoJE=F BraDBF=F KetDBF=T FulRan=T
         wScrn=  0.000000 ICntrl=      6100 IOpCl=  0 I1Cent=           7 NGrid=          84
         NMat0=    1 NMatS0=      1 NMatT0=    0 NMatD0=    1 NMtDS0=    0 NMtDT0=    0
 Symmetry not used in FoFCou.
   1 Symmetry operations used in ECPInt.
 ECPInt:  NShTT=  233586 NPrTT=  727824 LenC2=  233587 LenP2D=  727824.
 LDataN:  DoStor=T MaxTD1= 8 Len=  415
 Number of processors reduced to  14 by ecpmxn.
 FoFJK:  IHMeth= 1 ICntrl=    6127 DoSepK=F KAlg= 0 I1Cent=           0 FoldK=F
 IRaf=         1 NMat=       1 IRICut=       1 DoRegI=T DoRafI=F ISym2E= 0 IDoP0=0 IntGTp=1.
 Defaulting to unpruned grid for atomic number  46.
 Defaulting to unpruned grid for atomic number  46.
 Defaulting to unpruned grid for atomic number  46.
 Defaulting to unpruned grid for atomic number  46.
 Defaulting to unpruned grid for atomic number  46.
 Defaulting to unpruned grid for atomic number  46.
 Defaulting to unpruned grid for atomic number  46.
 Defaulting to unpruned grid for atomic number  46.
 Defaulting to unpruned grid for atomic number  46.
 Defaulting to unpruned grid for atomic number  46.
 Defaulting to unpruned grid for atomic number  46.
 Defaulting to unpruned grid for atomic number  46.
 Defaulting to unpruned grid for atomic number  46.
 Defaulting to unpruned grid for atomic number  46.
 Defaulting to unpruned grid for atomic number  46.
 Defaulting to unpruned grid for atomic number  46.
 Defaulting to unpruned grid for atomic number  46.
 Defaulting to unpruned grid for atomic number  46.
 Defaulting to unpruned grid for atomic number  46.
 Defaulting to unpruned grid for atomic number  46.
 Defaulting to unpruned grid for atomic number  46.
 Defaulting to unpruned grid for atomic number  46.
 Defaulting to unpruned grid for atomic number  46.
 Defaulting to unpruned grid for atomic number  46.
 Defaulting to unpruned grid for atomic number  46.
 Defaulting to unpruned grid for atomic number  46.
 Defaulting to unpruned grid for atomic number  46.
 Defaulting to unpruned grid for atomic number  46.
 Defaulting to unpruned grid for atomic number  46.
 Defaulting to unpruned grid for atomic number  46.
 Defaulting to unpruned grid for atomic number  46.
 Defaulting to unpruned grid for atomic number  46.
          There are     3 degrees of freedom in the 1st order CPHF.  IDoFFX=0 NUNeed=     3.
      3 vectors produced by pass  0 Test12= 9.77D-12 3.33D-08 XBig12= 2.22D+02 2.45D+00.
 AX will form     3 AO Fock derivatives at one time.
      3 vectors produced by pass  1 Test12= 9.77D-12 3.33D-08 XBig12= 1.15D+00 2.81D-01.
      3 vectors produced by pass  2 Test12= 9.77D-12 3.33D-08 XBig12= 1.07D-02 3.20D-02.
      3 vectors produced by pass  3 Test12= 9.77D-12 3.33D-08 XBig12= 2.71D-04 8.16D-03.
      3 vectors produced by pass  4 Test12= 9.77D-12 3.33D-08 XBig12= 1.66D-06 3.87D-04.
      3 vectors produced by pass  5 Test12= 9.77D-12 3.33D-08 XBig12= 1.11D-08 4.10D-05.
      3 vectors produced by pass  6 Test12= 9.77D-12 3.33D-08 XBig12= 2.29D-10 6.26D-06.
      3 vectors produced by pass  7 Test12= 9.77D-12 3.33D-08 XBig12= 2.45D-12 4.96D-07.
 InvSVY:  IOpt=1 It=  1 EMax= 5.33D-15
 Solved reduced A of dimension    24 with     3 vectors.
 Calculating GIAO nuclear magnetic shielding tensors.
 SCF GIAO Magnetic shielding tensor (ppm):
      1  Pd   Isotropic =  -165.4151   Anisotropy =   275.7547
   XX=    18.1532   YX=     2.1748   ZX=   -11.7193
   XY=     0.9704   YY=   -13.1802   ZY=    35.4727
   XZ=   -11.8362   YZ=    88.6601   ZZ=  -501.2184
   Eigenvalues:  -509.2557    -5.4110    18.4213
      2  P    Isotropic =   239.3814   Anisotropy =   122.1162
   XX=   262.3101   YX=    47.0380   ZX=     9.5686
   XY=    77.6893   YY=   252.4046   ZY=     7.7397
   XZ=    28.1597   YZ=   -19.0071   ZZ=   203.4295
   Eigenvalues:   181.3566   215.9954   320.7923
      3  P    Isotropic =   239.0776   Anisotropy =   123.2402
   XX=   258.7574   YX=   -48.8325   ZX=   -12.2076
   XY=   -77.9718   YY=   253.4477   ZY=    11.2144
   XZ=   -31.0235   YZ=   -16.3334   ZZ=   205.0277
   Eigenvalues:   180.4619   215.5331   321.2378
      4  O    Isotropic =   189.5485   Anisotropy =   106.3761
   XX=   182.1959   YX=     9.2230   ZX=    33.8346
   XY=    53.4125   YY=   231.8091   ZY=     3.4139
   XZ=    81.0395   YZ=    14.7105   ZZ=   154.6404
   Eigenvalues:   108.0541   200.1254   260.4659
      5  O    Isotropic =   191.0362   Anisotropy =   116.3304
   XX=   180.1104   YX=   -19.4433   ZX=   -23.2241
   XY=   -56.4297   YY=   237.5816   ZY=    18.1389
   XZ=   -64.6447   YZ=    17.5852   ZZ=   155.4166
   Eigenvalues:   121.3589   183.1599   268.5898
      6  C    Isotropic =    44.2541   Anisotropy =   182.7095
   XX=    89.7064   YX=     6.6719   ZX=   -75.0448
   XY=     8.3556   YY=   -25.1110   ZY=    29.9049
   XZ=   -94.3811   YZ=    41.3191   ZZ=    68.1668
   Eigenvalues:   -49.7849    16.4867   166.0604
      7  C    Isotropic =    36.7135   Anisotropy =   201.1984
   XX=    68.6709   YX=   -45.1773   ZX=   -95.2049
   XY=   -41.0482   YY=   -49.3987   ZY=    -5.7939
   XZ=   -81.3498   YZ=   -13.9652   ZZ=    90.8682
   Eigenvalues:   -74.4012    13.6959   170.8457
      8  C    Isotropic =    52.6775   Anisotropy =   184.5152
   XX=    60.6691   YX=   -15.2732   ZX=  -114.8859
   XY=   -16.7216   YY=    40.2776   ZY=     7.0437
   XZ=  -115.0380   YZ=     5.3538   ZZ=    57.0857
   Eigenvalues:   -56.5821    38.9269   175.6876
      9  C    Isotropic =    49.4340   Anisotropy =   190.1863
   XX=    97.2317   YX=    11.0107   ZX=   -83.4990
   XY=    11.2398   YY=   -28.4140   ZY=    46.2860
   XZ=   -85.4948   YZ=    49.3711   ZZ=    79.4841
   Eigenvalues:   -59.9842    32.0613   176.2248
     10  C    Isotropic =    53.4175   Anisotropy =   181.9004
   XX=    93.7437   YX=   -45.3011   ZX=   -76.4547
   XY=   -45.0876   YY=   -34.2447   ZY=   -11.8480
   XZ=   -72.7498   YZ=    -9.8234   ZZ=   100.7534
   Eigenvalues:   -56.9349    42.5029   174.6844
     11  C    Isotropic =    47.1438   Anisotropy =   193.3484
   XX=    59.0477   YX=   -11.3170   ZX=  -119.6571
   XY=   -21.1174   YY=    28.0067   ZY=     3.1438
   XZ=  -116.9179   YZ=    -1.1796   ZZ=    54.3769
   Eigenvalues:   -62.8558    28.2444   176.0427
     12  C    Isotropic =    50.6487   Anisotropy =   179.2478
   XX=    37.9519   YX=   -53.6536   ZX=   -13.5838
   XY=   -56.5568   YY=   142.3286   ZY=   -39.4911
   XZ=   -21.0414   YZ=   -36.6279   ZZ=   -28.3344
   Eigenvalues:   -47.5361    29.3350   170.1472
     13  C    Isotropic =    43.7120   Anisotropy =   201.9075
   XX=     4.9644   YX=   -57.1569   ZX=    53.7280
   XY=   -51.2820   YY=   157.1866   ZY=    -9.8118
   XZ=    53.3341   YZ=   -13.4259   ZZ=   -31.0150
   Eigenvalues:   -71.8859    24.7050   178.3170
     14  C    Isotropic =    53.2875   Anisotropy =   185.9180
   XX=   -28.1232   YX=   -76.7523   ZX=    -1.8412
   XY=   -77.4263   YY=   146.3631   ZY=   -14.7100
   XZ=    -2.2695   YZ=   -19.1955   ZZ=    41.6228
   Eigenvalues:   -57.9391    40.5689   177.2329
     15  C    Isotropic =    48.8405   Anisotropy =   192.8123
   XX=    37.8232   YX=   -56.4383   ZX=   -23.0347
   XY=   -56.8033   YY=   149.5843   ZY=   -43.4731
   XZ=   -23.0795   YZ=   -39.5776   ZZ=   -40.8861
   Eigenvalues:   -62.6583    31.7977   177.3820
     16  C    Isotropic =    51.0075   Anisotropy =   188.9483
   XX=    20.0827   YX=   -51.8284   ZX=    52.1049
   XY=   -51.1659   YY=   156.0834   ZY=   -10.4252
   XZ=    52.4202   YZ=    -9.2419   ZZ=   -23.1436
   Eigenvalues:   -60.2181    36.2675   176.9731
     17  C    Isotropic =    38.9725   Anisotropy =   202.3418
   XX=   -39.3788   YX=   -80.8302   ZX=    -0.9724
   XY=   -86.3183   YY=   139.2871   ZY=    -9.8353
   XZ=     6.3834   YZ=   -21.8873   ZZ=    17.0092
   Eigenvalues:   -72.5012    15.5517   173.8670
     18  C    Isotropic =    41.3644   Anisotropy =   184.6839
   XX=    28.1575   YX=    74.3332   ZX=    56.0705
   XY=    70.3624   YY=   100.5823   ZY=    19.2803
   XZ=    46.9220   YZ=    49.6519   ZZ=    -4.6466
   Eigenvalues:   -44.7669     4.3731   164.4870
     19  C    Isotropic =    49.9329   Anisotropy =   189.7422
   XX=    35.9425   YX=    95.4472   ZX=    15.6953
   XY=    97.5320   YY=    73.2341   ZY=    60.3918
   XZ=     7.4200   YZ=    64.8567   ZZ=    40.6221
   Eigenvalues:   -55.4761    28.8471   176.4277
     20  C    Isotropic =    52.1921   Anisotropy =   184.6305
   XX=    80.4500   YX=    53.1460   ZX=    30.3093
   XY=    59.2294   YY=    96.6861   ZY=    71.9671
   XZ=    33.2451   YZ=    73.5622   ZZ=   -20.5597
   Eigenvalues:   -55.5494    36.8468   175.2791
     21  C    Isotropic =    63.0996   Anisotropy =   175.7046
   XX=    45.6516   YX=    65.2748   ZX=    58.4224
   XY=    85.5259   YY=   105.4859   ZY=    26.8620
   XZ=    70.7557   YZ=    20.9470   ZZ=    38.1614
   Eigenvalues:   -34.1875    43.2503   180.2360
     22  C    Isotropic =    21.8429   Anisotropy =   142.5105
   XX=     3.0052   YX=    76.5579   ZX=    10.4185
   XY=    84.5562   YY=    32.7263   ZY=    45.4759
   XZ=     6.0215   YZ=    39.7388   ZZ=    29.7973
   Eigenvalues:   -68.9149    17.5938   116.8499
     23  C    Isotropic =    46.0763   Anisotropy =   161.4297
   XX=    60.4146   YX=    57.8873   ZX=    20.3123
   XY=    41.5114   YY=    89.0622   ZY=    66.6719
   XZ=    16.3453   YZ=    70.7174   ZZ=   -11.2479
   Eigenvalues:   -46.5682    31.1010   153.6961
     24  C    Isotropic =    46.2644   Anisotropy =   162.0019
   XX=    57.8046   YX=   -53.6919   ZX=   -22.5879
   XY=   -38.6896   YY=    89.1186   ZY=    71.0344
   XZ=   -18.4651   YZ=    74.2278   ZZ=    -8.1299
   Eigenvalues:   -47.0578    31.5854   154.2657
     25  C    Isotropic =    18.1584   Anisotropy =   144.6855
   XX=     1.6647   YX=   -74.8087   ZX=    -8.7587
   XY=   -84.2083   YY=    34.0417   ZY=    41.4080
   XZ=    -7.3018   YZ=    44.1234   ZZ=    18.7687
   Eigenvalues:   -68.7919     8.6517   114.6154
     26  C    Isotropic =    60.5269   Anisotropy =   163.8135
   XX=    35.2101   YX=   -60.1284   ZX=   -56.6834
   XY=   -74.5733   YY=   105.6743   ZY=    21.6101
   XZ=   -66.6273   YZ=    27.2513   ZZ=    40.6962
   Eigenvalues:   -33.1374    44.9821   169.7359
     27  C    Isotropic =    51.4267   Anisotropy =   185.1991
   XX=    74.8243   YX=   -47.4589   ZX=   -37.9158
   XY=   -53.8233   YY=    94.5174   ZY=    77.8415
   XZ=   -39.7699   YZ=    78.5393   ZZ=   -15.0615
   Eigenvalues:   -56.8530    36.2404   174.8928
     28  C    Isotropic =    49.5355   Anisotropy =   190.8212
   XX=    33.4233   YX=   -90.7166   ZX=   -16.7419
   XY=   -95.2419   YY=    70.7798   ZY=    68.3919
   XZ=    -8.7314   YZ=    69.8757   ZZ=    44.4035
   Eigenvalues:   -56.7084    28.5652   176.7497
     29  C    Isotropic =    42.4139   Anisotropy =   183.1409
   XX=    22.9197   YX=   -70.0181   ZX=   -57.6772
   XY=   -67.6438   YY=   100.2816   ZY=    25.5620
   XZ=   -48.3019   YZ=    54.4730   ZZ=     4.0405
   Eigenvalues:   -42.4532     5.1871   164.5078
     30  C    Isotropic =    44.2809   Anisotropy =   182.9001
   XX=    98.5099   YX=    -6.6689   ZX=    73.7921
   XY=    -8.7288   YY=   -25.2472   ZY=    28.9144
   XZ=    93.5188   YZ=    40.0381   ZZ=    59.5799
   Eigenvalues:   -49.8491    16.4774   166.2143
     31  C    Isotropic =    36.7430   Anisotropy =   201.0722
   XX=    78.9901   YX=    42.5353   ZX=    95.7895
   XY=    38.7501   YY=   -50.4166   ZY=    -9.4973
   XZ=    81.8071   YZ=   -17.7956   ZZ=    81.6555
   Eigenvalues:   -74.3933    13.8312   170.7911
     32  C    Isotropic =    52.6419   Anisotropy =   184.5894
   XX=    72.9460   YX=    14.8719   ZX=   114.2708
   XY=    16.3740   YY=    39.7523   ZY=     4.5472
   XZ=   114.3212   YZ=     2.9513   ZZ=    45.2274
   Eigenvalues:   -56.6439    38.8682   175.7015
     33  C    Isotropic =    49.4408   Anisotropy =   190.1328
   XX=   105.7246   YX=   -10.5224   ZX=    82.6904
   XY=   -10.8606   YY=   -28.4321   ZY=    45.3995
   XZ=    84.6982   YZ=    48.4321   ZZ=    71.0297
   Eigenvalues:   -59.9700    32.0963   176.1960
     34  C    Isotropic =    53.4743   Anisotropy =   181.9544
   XX=   102.8688   YX=    42.5635   ZX=    76.2936
   XY=    42.2991   YY=   -35.3997   ZY=   -15.5433
   XZ=    72.6678   YZ=   -13.4939   ZZ=    92.9539
   Eigenvalues:   -56.8893    42.5351   174.7773
     35  C    Isotropic =    47.2868   Anisotropy =   193.2828
   XX=    71.8451   YX=    10.4675   ZX=   118.8115
   XY=    20.2723   YY=    27.7943   ZY=     0.3339
   XZ=   116.0472   YZ=    -3.3735   ZZ=    42.2209
   Eigenvalues:   -62.7457    28.4640   176.1420
     36  C    Isotropic =    50.4769   Anisotropy =   179.4903
   XX=    41.3166   YX=    54.3785   ZX=    10.1993
   XY=    57.4408   YY=   140.2546   ZY=   -40.7953
   XZ=    17.8105   YZ=   -38.1871   ZZ=   -30.1404
   Eigenvalues:   -47.6181    28.9118   170.1372
     37  C    Isotropic =    38.8779   Anisotropy =   201.9967
   XX=   -36.0838   YX=    83.6888   ZX=     3.3726
   XY=    89.3437   YY=   135.6336   ZY=   -12.6703
   XZ=    -4.0186   YZ=   -24.1855   ZZ=    17.0838
   Eigenvalues:   -72.6337    15.7250   173.5423
     38  C    Isotropic =    50.9999   Anisotropy =   189.1170
   XX=    18.1669   YX=    54.8703   ZX=   -53.6988
   XY=    53.9188   YY=   153.9474   ZY=   -10.5496
   XZ=   -53.9666   YZ=    -9.2661   ZZ=   -19.1147
   Eigenvalues:   -60.3016    36.2233   177.0779
     39  C    Isotropic =    48.8846   Anisotropy =   192.9356
   XX=    42.1562   YX=    57.2266   ZX=    18.8798
   XY=    57.3990   YY=   147.4633   ZY=   -45.5241
   XZ=    19.0400   YZ=   -41.4769   ZZ=   -42.9659
   Eigenvalues:   -62.6317    31.7770   177.5083
     40  C    Isotropic =    53.7024   Anisotropy =   185.1084
   XX=   -24.0118   YX=    79.7396   ZX=     4.3923
   XY=    80.6608   YY=   142.7295   ZY=   -17.7132
   XZ=     4.8874   YZ=   -21.9146   ZZ=    42.3894
   Eigenvalues:   -57.7109    41.7100   177.1080
     41  C    Isotropic =    43.7283   Anisotropy =   201.3745
   XX=     3.1208   YX=    59.9872   ZX=   -54.9539
   XY=    54.5683   YY=   154.5670   ZY=    -9.4517
   XZ=   -54.9275   YZ=   -13.5559   ZZ=   -26.5030
   Eigenvalues:   -71.8490    25.0559   177.9779
     42  C    Isotropic =   103.3217   Anisotropy =    88.0376
   XX=   158.7633   YX=   -16.3194   ZX=    -0.7757
   XY=   -16.8977   YY=    72.9259   ZY=    -1.0613
   XZ=    -6.0996   YZ=     2.6915   ZZ=    78.2760
   Eigenvalues:    69.8209    78.1308   162.0135
     43  H    Isotropic =    22.3169   Anisotropy =    13.1519
   XX=    21.3787   YX=    -2.1236   ZX=     3.2661
   XY=    -3.0418   YY=    21.5590   ZY=    -7.6787
   XZ=     1.8247   YZ=    -6.0141   ZZ=    24.0129
   Eigenvalues:    15.8045    20.0613    31.0848
     44  H    Isotropic =    23.7906   Anisotropy =     3.5312
   XX=    23.0524   YX=     0.9808   ZX=     2.8574
   XY=     0.5115   YY=    25.3991   ZY=    -0.2150
   XZ=     2.4772   YZ=     0.3735   ZZ=    22.9202
   Eigenvalues:    20.2756    24.9514    26.1447
     45  H    Isotropic =    24.2727   Anisotropy =    14.4273
   XX=    19.3821   YX=    -1.3474   ZX=     3.6082
   XY=    -1.4968   YY=    32.4656   ZY=    -5.6626
   XZ=     1.1220   YZ=    -1.9032   ZZ=    20.9703
   Eigenvalues:    17.5878    21.3393    33.8909
     46  H    Isotropic =    23.7620   Anisotropy =     9.8302
   XX=    25.3778   YX=     0.4879   ZX=     7.1232
   XY=    -0.0070   YY=    24.8088   ZY=     4.8579
   XZ=     3.1817   YZ=     3.8267   ZZ=    21.0995
   Eigenvalues:    16.1669    24.8036    30.3154
     47  H    Isotropic =    23.8854   Anisotropy =     3.8498
   XX=    25.0441   YX=     1.3738   ZX=    -1.7198
   XY=     1.4203   YY=    21.9174   ZY=     1.4620
   XZ=    -1.4115   YZ=     1.1939   ZZ=    24.6946
   Eigenvalues:    20.5622    24.6420    26.4519
     48  H    Isotropic =    21.8877   Anisotropy =    11.5778
   XX=    19.5801   YX=     1.1128   ZX=     1.4675
   XY=    -0.6553   YY=    17.3205   ZY=     3.2538
   XZ=     1.1970   YZ=     2.4083   ZZ=    28.7625
   Eigenvalues:    16.6560    19.4008    29.6063
     49  H    Isotropic =    24.9752   Anisotropy =    12.8115
   XX=    25.9279   YX=    -4.4474   ZX=    -5.9978
   XY=    -2.0528   YY=    22.3500   ZY=    -1.8010
   XZ=    -7.0723   YZ=     3.1673   ZZ=    26.6476
   Eigenvalues:    18.6254    22.7839    33.5162
     50  H    Isotropic =    24.5257   Anisotropy =     4.7510
   XX=    25.8149   YX=    -2.4919   ZX=    -2.3197
   XY=    -1.8946   YY=    23.6669   ZY=    -1.3981
   XZ=    -1.9025   YZ=    -0.8530   ZZ=    24.0954
   Eigenvalues:    20.8679    25.0162    27.6931
     51  H    Isotropic =    24.5543   Anisotropy =     6.6447
   XX=    24.5074   YX=    -1.9053   ZX=     1.5018
   XY=     0.3881   YY=    22.9970   ZY=    -3.7973
   XZ=     1.1790   YZ=    -3.2858   ZZ=    26.1584
   Eigenvalues:    20.6970    23.9818    28.9840
     52  H    Isotropic =    24.6671   Anisotropy =     6.3108
   XX=    24.2951   YX=     1.9230   ZX=    -1.5504
   XY=    -0.4567   YY=    23.3425   ZY=    -3.0126
   XZ=    -0.8980   YZ=    -3.4719   ZZ=    26.3637
   Eigenvalues:    21.2757    23.8514    28.8743
     53  H    Isotropic =    24.4917   Anisotropy =     4.8678
   XX=    26.0525   YX=     2.4972   ZX=     2.1282
   XY=     1.8879   YY=    23.7147   ZY=    -1.5727
   XZ=     1.8898   YZ=    -0.8949   ZZ=    23.7081
   Eigenvalues:    20.7969    24.9414    27.7370
     54  H    Isotropic =    24.9771   Anisotropy =    12.9057
   XX=    26.8122   YX=     4.5783   ZX=     5.9735
   XY=     1.7385   YY=    22.1050   ZY=    -1.9097
   XZ=     7.1478   YZ=     2.7384   ZZ=    26.0141
   Eigenvalues:    18.6711    22.6793    33.5808
     55  H    Isotropic =    22.3407   Anisotropy =    13.1551
   XX=    21.2186   YX=     1.8262   ZX=    -3.2289
   XY=     2.6657   YY=    21.5522   ZY=    -7.7768
   XZ=    -1.8017   YZ=    -6.0851   ZZ=    24.2514
   Eigenvalues:    15.8368    20.0746    31.1108
     56  H    Isotropic =    23.7958   Anisotropy =     3.5173
   XX=    22.7629   YX=    -0.9160   ZX=    -2.8465
   XY=    -0.4779   YY=    25.4187   ZY=    -0.1457
   XZ=    -2.4651   YZ=     0.4491   ZZ=    23.2057
   Eigenvalues:    20.2861    24.9606    26.1407
     57  H    Isotropic =    24.2687   Anisotropy =    14.4260
   XX=    19.2245   YX=     1.4680   ZX=    -3.6252
   XY=     1.4305   YY=    32.4342   ZY=    -5.6560
   XZ=    -1.0537   YZ=    -1.9267   ZZ=    21.1474
   Eigenvalues:    17.5869    21.3331    33.8860
     58  H    Isotropic =    21.9108   Anisotropy =    11.5174
   XX=    19.4581   YX=    -1.0027   ZX=    -1.0091
   XY=     0.8495   YY=    17.3902   ZY=     3.1397
   XZ=    -0.7566   YZ=     2.3825   ZZ=    28.8841
   Eigenvalues:    16.7558    19.3876    29.5890
     59  H    Isotropic =    23.8875   Anisotropy =     3.7466
   XX=    25.0323   YX=    -1.4468   ZX=     1.6828
   XY=    -1.4954   YY=    22.0295   ZY=     1.4879
   XZ=     1.3913   YZ=     1.2034   ZZ=    24.6007
   Eigenvalues:    20.5665    24.7108    26.3853
     60  H    Isotropic =    23.7676   Anisotropy =     9.9083
   XX=    24.9437   YX=    -0.5083   ZX=    -7.1393
   XY=     0.1447   YY=    24.7855   ZY=     5.0318
   XZ=    -3.2372   YZ=     3.8819   ZZ=    21.5734
   Eigenvalues:    16.2568    24.6728    30.3731
     61  C    Isotropic =   160.7189   Anisotropy =    38.0972
   XX=   168.6837   YX=     9.4383   ZX=     8.7908
   XY=    13.2836   YY=   153.0180   ZY=    21.2377
   XZ=     8.6750   YZ=    14.1558   ZZ=   160.4549
   Eigenvalues:   138.2160   157.8237   186.1170
     62  H    Isotropic =    27.0684   Anisotropy =     3.9911
   XX=    29.2042   YX=    -1.4290   ZX=     1.5487
   XY=    -1.6382   YY=    25.0159   ZY=     1.9011
   XZ=    -0.3928   YZ=     0.0767   ZZ=    26.9850
   Eigenvalues:    24.0811    27.3948    29.7291
     63  Cl   Isotropic =   844.3034   Anisotropy =   523.8704
   XX=   705.8538   YX=  -133.3202   ZX=  -101.7162
   XY=  -133.2267   YY=   696.5620   ZY=  -124.3897
   XZ=   -72.9089   YZ=  -218.9122   ZZ=  1130.4944
   Eigenvalues:   512.1368   827.2229  1193.5503
     64  Cl   Isotropic =   843.4913   Anisotropy =   523.6831
   XX=   716.0197   YX=   121.5162   ZX=   120.2929
   XY=   127.3805   YY=   695.0032   ZY=  -130.7935
   XZ=    92.6573   YZ=  -227.8961   ZZ=  1119.4510
   Eigenvalues:   511.4502   826.4104  1192.6134
     65  C    Isotropic =   143.3281   Anisotropy =    33.4997
   XX=   140.3980   YX=     2.8438   ZX=    -5.8667
   XY=     5.6240   YY=   131.7701   ZY=    14.6530
   XZ=    -7.6736   YZ=    15.9081   ZZ=   157.8163
   Eigenvalues:   122.2007   142.1225   165.6612
     66  C    Isotropic =   108.2182   Anisotropy =    64.5654
   XX=   149.9134   YX=     5.6750   ZX=    -6.6800
   XY=     9.3965   YY=    93.5875   ZY=     4.4338
   XZ=    -4.5391   YZ=     4.3167   ZZ=    81.1536
   Eigenvalues:    78.9276    94.4652   151.2617
     67  H    Isotropic =    26.6827   Anisotropy =     5.9897
   XX=    28.2046   YX=    -1.0343   ZX=    -3.2811
   XY=    -0.3044   YY=    22.7225   ZY=    -0.4084
   XZ=    -0.6335   YZ=    -1.0280   ZZ=    29.1212
   Eigenvalues:    22.4933    26.8790    30.6759
     68  C    Isotropic =   165.2320   Anisotropy =    32.2230
   XX=   174.2363   YX=    -8.7952   ZX=     2.6765
   XY=   -13.1512   YY=   176.2968   ZY=     0.0196
   XZ=     3.7233   YZ=    -5.5713   ZZ=   145.1630
   Eigenvalues:   144.7245   164.2575   186.7140
     69  H    Isotropic =    29.1536   Anisotropy =     3.8926
   XX=    29.8810   YX=     1.4289   ZX=     1.0360
   XY=     2.8933   YY=    28.7580   ZY=    -0.1062
   XZ=     1.8822   YZ=    -1.3990   ZZ=    28.8219
   Eigenvalues:    26.2090    29.5032    31.7487
     70  H    Isotropic =    30.2297   Anisotropy =     9.4945
   XX=    35.6469   YX=     2.2849   ZX=    -1.9389
   XY=     2.7949   YY=    26.9236   ZY=     3.0014
   XZ=    -2.0295   YZ=     1.5374   ZZ=    28.1186
   Eigenvalues:    24.2619    29.8678    36.5594
     71  H    Isotropic =    30.3974   Anisotropy =    11.8375
   XX=    37.3928   YX=     0.6996   ZX=     2.8947
   XY=     1.2069   YY=    25.8666   ZY=     1.5656
   XZ=     2.7089   YZ=     1.0131   ZZ=    27.9327
   Eigenvalues:    25.2344    27.6686    38.2890
     72  H    Isotropic =    29.7247   Anisotropy =     8.1154
   XX=    28.6825   YX=     2.0061   ZX=     1.1373
   XY=     0.8399   YY=    26.0123   ZY=     3.1013
   XZ=     0.2138   YZ=     1.1406   ZZ=    34.4793
   Eigenvalues:    25.0795    28.9596    35.1350
     73  H    Isotropic =    29.9528   Anisotropy =     6.1511
   XX=    28.9694   YX=     2.3789   ZX=     1.4777
   XY=     1.7409   YY=    32.9400   ZY=     0.5617
   XZ=     1.1812   YZ=     0.8954   ZZ=    27.9489
   Eigenvalues:    26.9631    28.8417    34.0535
     74  H    Isotropic =    30.5766   Anisotropy =    12.3093
   XX=    37.5768   YX=    -2.8649   ZX=    -2.1143
   XY=    -3.2656   YY=    27.7845   ZY=     1.2230
   XZ=    -1.4264   YZ=     0.9998   ZZ=    26.3685
   Eigenvalues:    25.7579    27.1891    38.7828
     75  H    Isotropic =    29.9285   Anisotropy =     8.4495
   XX=    29.0203   YX=    -1.2495   ZX=     0.1069
   XY=    -0.7118   YY=    32.6877   ZY=     5.3574
   XZ=     0.1352   YZ=     3.7124   ZZ=    28.0776
   Eigenvalues:    25.1948    29.0292    35.5615
     76  H    Isotropic =    30.0503   Anisotropy =     3.2944
   XX=    28.8938   YX=    -2.8146   ZX=    -0.8867
   XY=    -2.9937   YY=    29.5944   ZY=    -1.1588
   XZ=    -1.1915   YZ=    -1.0197   ZZ=    31.6628
   Eigenvalues:    25.9264    31.9779    32.2466
     77  H    Isotropic =    24.0746   Anisotropy =     7.0726
   XX=    22.3626   YX=    -1.2848   ZX=     3.1764
   XY=    -1.7223   YY=    26.4647   ZY=    -2.6690
   XZ=     2.7454   YZ=    -1.5850   ZZ=    23.3964
   Eigenvalues:    19.8652    23.5689    28.7896
     78  H    Isotropic =    24.0099   Anisotropy =     6.6519
   XX=    22.3357   YX=    -0.0781   ZX=    -0.0666
   XY=     0.5313   YY=    22.8410   ZY=     3.0952
   XZ=    -0.2031   YZ=     2.8775   ZZ=    26.8529
   Eigenvalues:    21.1890    22.3962    28.4445
     79  H    Isotropic =    23.8422   Anisotropy =     6.2320
   XX=    24.1417   YX=     1.7252   ZX=     1.1469
   XY=     1.0904   YY=    21.5216   ZY=     3.0753
   XZ=     1.4437   YZ=     2.3422   ZZ=    25.8634
   Eigenvalues:    20.0822    23.4476    27.9969
     80  H    Isotropic =    23.6263   Anisotropy =     7.1213
   XX=    21.4976   YX=    -0.4853   ZX=     1.8518
   XY=    -0.8133   YY=    27.2854   ZY=    -2.4287
   XZ=     1.5066   YZ=    -2.1642   ZZ=    22.0960
   Eigenvalues:    19.9328    22.5723    28.3738
     81  H    Isotropic =    23.8444   Anisotropy =     6.2461
   XX=    23.9429   YX=    -1.6812   ZX=    -1.0220
   XY=    -1.0101   YY=    21.6076   ZY=     3.1417
   XZ=    -1.3153   YZ=     2.4294   ZZ=    25.9827
   Eigenvalues:    20.1120    23.4127    28.0084
     82  H    Isotropic =    24.0112   Anisotropy =     6.8530
   XX=    22.1652   YX=    -0.0503   ZX=     0.3358
   XY=    -0.6724   YY=    22.8653   ZY=     3.1205
   XZ=     0.4818   YZ=     2.8688   ZZ=    27.0030
   Eigenvalues:    21.0583    22.3953    28.5798
     83  H    Isotropic =    24.0778   Anisotropy =     7.0650
   XX=    22.1060   YX=     1.2850   ZX=    -3.1345
   XY=     1.6509   YY=    26.4395   ZY=    -2.6976
   XZ=    -2.6893   YZ=    -1.5944   ZZ=    23.6878
   Eigenvalues:    19.8760    23.5696    28.7877
     84  H    Isotropic =    23.6313   Anisotropy =     7.1194
   XX=    21.3489   YX=     0.4658   ZX=    -1.8375
   XY=     0.7695   YY=    27.2802   ZY=    -2.4335
   XZ=    -1.4990   YZ=    -2.1573   ZZ=    22.2648
   Eigenvalues:    19.9416    22.5747    28.3775
 End of Minotr F.D. properties file   721 does not exist.
 End of Minotr F.D. properties file   722 does not exist.
 End of Minotr F.D. properties file   788 does not exist.

 **********************************************************************

            Population analysis using the SCF Density.

 **********************************************************************

 Orbital symmetries:
       Occupied  (A) (A) (A) (A) (A) (A) (A) (A) (A) (A) (A) (A)
                 (A) (A) (A) (A) (A) (A) (A) (A) (A) (A) (A) (A)
                 (A) (A) (A) (A) (A) (A) (A) (A) (A) (A) (A) (A)
                 (A) (A) (A) (A) (A) (A) (A) (A) (A) (A) (A) (A)
                 (A) (A) (A) (A) (A) (A) (A) (A) (A) (A) (A) (A)
                 (A) (A) (A) (A) (A) (A) (A) (A) (A) (A) (A) (A)
                 (A) (A) (A) (A) (A) (A) (A) (A) (A) (A) (A) (A)
                 (A) (A) (A) (A) (A) (A) (A) (A) (A) (A) (A) (A)
                 (A) (A) (A) (A) (A) (A) (A) (A) (A) (A) (A) (A)
                 (A) (A) (A) (A) (A) (A) (A) (A) (A) (A) (A) (A)
                 (A) (A) (A) (A) (A) (A) (A) (A) (A) (A) (A) (A)
                 (A) (A) (A) (A) (A) (A) (A) (A) (A) (A) (A) (A)
                 (A) (A) (A) (A) (A) (A) (A) (A) (A) (A) (A) (A)
                 (A) (A) (A) (A) (A) (A) (A) (A) (A) (A) (A) (A)
                 (A) (A) (A) (A) (A) (A) (A) (A) (A) (A) (A) (A)
                 (A) (A) (A) (A) (A) (A) (A) (A) (A) (A)
       Virtual   (A) (A) (A) (A) (A) (A) (A) (A) (A) (A) (A) (A)
                 (A) (A) (A) (A) (A) (A) (A) (A) (A) (A) (A) (A)
                 (A) (A) (A) (A) (A) (A) (A) (A) (A) (A) (A) (A)
                 (A) (A) (A) (A) (A) (A) (A) (A) (A) (A) (A) (A)
                 (A) (A) (A) (A) (A) (A) (A) (A) (A) (A) (A) (A)
                 (A) (A) (A) (A) (A) (A) (A) (A) (A) (A) (A) (A)
                 (A) (A) (A) (A) (A) (A) (A) (A) (A) (A) (A) (A)
                 (A) (A) (A) (A) (A) (A) (A) (A) (A) (A) (A) (A)
                 (A) (A) (A) (A) (A) (A) (A) (A) (A) (A) (A) (A)
                 (A) (A) (A) (A) (A) (A) (A) (A) (A) (A) (A) (A)
                 (A) (A) (A) (A) (A) (A) (A) (A) (A) (A) (A) (A)
                 (A) (A) (A) (A) (A) (A) (A) (A) (A) (A) (A) (A)
                 (A) (A) (A) (A) (A) (A) (A) (A) (A) (A) (A) (A)
                 (A) (A) (A) (A) (A) (A) (A) (A) (A) (A) (A) (A)
                 (A) (A) (A) (A) (A) (A) (A) (A) (A) (A) (A) (A)
                 (A) (A) (A) (A) (A) (A) (A) (A) (A) (A) (A) (A)
                 (A) (A) (A) (A) (A) (A) (A) (A) (A) (A) (A) (A)
                 (A) (A) (A) (A) (A) (A) (A) (A) (A) (A) (A) (A)
                 (A) (A) (A) (A) (A) (A) (A) (A) (A) (A) (A) (A)
                 (A) (A) (A) (A) (A) (A) (A) (A) (A) (A) (A) (A)
                 (A) (A) (A) (A) (A) (A) (A) (A) (A) (A) (A) (A)
                 (A) (A) (A) (A) (A) (A) (A) (A) (A) (A) (A) (A)
                 (A) (A) (A) (A) (A) (A) (A) (A) (A) (A) (A) (A)
                 (A) (A) (A) (A) (A) (A) (A) (A) (A) (A) (A) (A)
                 (A) (A) (A) (A) (A) (A) (A) (A) (A) (A) (A) (A)
                 (A) (A) (A) (A) (A) (A) (A) (A) (A) (A) (A) (A)
                 (A) (A) (A) (A) (A) (A) (A) (A) (A) (A) (A) (A)
                 (A) (A) (A) (A) (A) (A) (A) (A) (A) (A) (A) (A)
                 (A) (A) (A) (A) (A) (A) (A) (A) (A) (A) (A) (A)
                 (A) (A) (A) (A) (A) (A) (A) (A) (A) (A) (A) (A)
                 (A) (A) (A) (A) (A) (A) (A) (A) (A) (A) (A) (A)
                 (A) (A) (A) (A) (A) (A) (A) (A) (A) (A) (A) (A)
                 (A) (A) (A) (A) (A) (A) (A) (A) (A) (A) (A) (A)
                 (A) (A) (A) (A) (A) (A) (A) (A) (A) (A) (A) (A)
                 (A) (A) (A) (A) (A) (A) (A) (A) (A) (A) (A) (A)
                 (A) (A) (A) (A) (A) (A) (A) (A) (A) (A) (A) (A)
                 (A) (A) (A) (A) (A) (A) (A) (A) (A) (A) (A) (A)
                 (A) (A) (A) (A) (A) (A) (A) (A) (A) (A) (A) (A)
                 (A) (A) (A) (A) (A) (A) (A) (A) (A) (A) (A) (A)
                 (A) (A) (A) (A) (A) (A) (A) (A) (A) (A) (A) (A)
                 (A) (A) (A) (A) (A) (A) (A) (A) (A) (A) (A) (A)
                 (A) (A) (A) (A) (A) (A) (A) (A) (A) (A) (A) (A)
                 (A) (A) (A) (A) (A) (A) (A) (A) (A) (A) (A) (A)
                 (A) (A) (A) (A) (A) (A) (A) (A) (A) (A) (A) (A)
                 (A) (A) (A) (A) (A) (A) (A) (A) (A) (A) (A) (A)
                 (A) (A) (A) (A) (A) (A) (A) (A) (A) (A) (A) (A)
                 (A) (A) (A) (A) (A) (A) (A) (A) (A) (A) (A) (A)
                 (A) (A) (A) (A) (A) (A) (A) (A) (A) (A) (A) (A)
                 (A) (A) (A) (A) (A) (A) (A) (A) (A) (A) (A) (A)
                 (A) (A) (A) (A) (A) (A) (A) (A) (A) (A) (A) (A)
                 (A) (A) (A) (A) (A) (A) (A) (A) (A) (A) (A) (A)
                 (A) (A) (A) (A) (A) (A) (A) (A) (A) (A) (A) (A)
                 (A) (A) (A) (A) (A) (A) (A) (A) (A) (A) (A) (A)
                 (A) (A) (A) (A) (A) (A) (A) (A) (A) (A) (A) (A)
                 (A) (A) (A) (A) (A) (A) (A) (A) (A) (A) (A) (A)
                 (A) (A) (A) (A) (A) (A) (A) (A) (A) (A) (A) (A)
                 (A) (A) (A) (A) (A) (A) (A) (A) (A) (A) (A) (A)
                 (A) (A) (A) (A) (A) (A) (A) (A) (A) (A) (A) (A)
                 (A) (A) (A) (A) (A) (A) (A) (A) (A) (A) (A) (A)
                 (A) (A) (A) (A) (A) (A) (A) (A) (A) (A) (A) (A)
                 (A) (A) (A) (A) (A) (A) (A) (A) (A) (A) (A) (A)
                 (A) (A) (A) (A) (A) (A) (A) (A) (A) (A) (A) (A)
                 (A) (A) (A) (A) (A) (A) (A) (A) (A) (A) (A) (A)
                 (A) (A) (A) (A) (A) (A) (A) (A) (A) (A) (A) (A)
                 (A) (A) (A) (A) (A) (A) (A) (A) (A) (A) (A) (A)
                 (A) (A) (A) (A) (A) (A) (A) (A) (A) (A) (A) (A)
                 (A) (A) (A) (A) (A) (A) (A) (A) (A) (A) (A) (A)
                 (A) (A) (A) (A) (A) (A) (A) (A) (A) (A) (A) (A)
                 (A) (A) (A) (A) (A) (A) (A) (A) (A) (A) (A) (A)
                 (A) (A) (A) (A) (A) (A) (A) (A) (A) (A) (A) (A)
                 (A) (A) (A) (A) (A) (A) (A) (A) (A) (A) (A) (A)
                 (A) (A) (A) (A) (A) (A) (A) (A) (A) (A) (A) (A)
                 (A) (A) (A) (A) (A) (A) (A) (A) (A) (A) (A) (A)
                 (A) (A) (A) (A) (A) (A) (A) (A) (A) (A) (A) (A)
                 (A) (A) (A) (A) (A) (A) (A) (A) (A) (A) (A) (A)
                 (A) (A) (A) (A) (A) (A) (A) (A) (A) (A) (A) (A)
                 (A) (A) (A) (A) (A) (A) (A) (A) (A) (A) (A) (A)
                 (A) (A) (A) (A) (A) (A) (A) (A) (A) (A) (A) (A)
                 (A) (A) (A) (A) (A) (A) (A) (A) (A) (A) (A) (A)
                 (A) (A) (A) (A) (A) (A) (A) (A) (A) (A) (A) (A)
                 (A) (A) (A) (A) (A) (A) (A) (A) (A) (A) (A) (A)
                 (A) (A) (A) (A) (A) (A) (A) (A) (A) (A) (A) (A)
                 (A) (A) (A) (A) (A) (A) (A) (A) (A) (A) (A) (A)
                 (A) (A) (A) (A) (A) (A) (A) (A) (A) (A) (A) (A)
                 (A) (A) (A) (A) (A) (A) (A) (A) (A) (A) (A) (A)
                 (A) (A) (A) (A) (A) (A) (A) (A) (A) (A) (A) (A)
                 (A) (A) (A) (A) (A) (A) (A) (A) (A) (A) (A) (A)
                 (A) (A) (A) (A) (A) (A) (A) (A) (A) (A) (A) (A)
                 (A) (A) (A) (A) (A) (A) (A) (A) (A) (A) (A) (A)
                 (A) (A) (A) (A) (A) (A) (A) (A) (A) (A) (A) (A)
                 (A) (A) (A) (A) (A) (A) (A) (A) (A) (A) (A) (A)
                 (A) (A) (A) (A) (A) (A) (A) (A) (A) (A) (A) (A)
                 (A) (A) (A) (A) (A) (A) (A) (A) (A) (A) (A) (A)
                 (A) (A) (A) (A) (A) (A) (A) (A) (A) (A) (A) (A)
                 (A) (A) (A) (A) (A) (A) (A) (A) (A) (A) (A) (A)
                 (A) (A) (A) (A) (A) (A) (A) (A) (A) (A) (A) (A)
                 (A) (A) (A) (A) (A) (A) (A) (A) (A) (A) (A) (A)
                 (A) (A) (A) (A) (A) (A) (A) (A) (A) (A) (A) (A)
                 (A) (A) (A) (A) (A) (A) (A) (A) (A) (A) (A) (A)
                 (A) (A) (A) (A) (A) (A) (A) (A) (A) (A) (A) (A)
                 (A) (A) (A) (A) (A) (A) (A) (A) (A) (A) (A) (A)
                 (A) (A) (A) (A) (A) (A) (A) (A) (A) (A) (A) (A)
                 (A) (A) (A) (A) (A) (A) (A) (A) (A) (A) (A) (A)
                 (A) (A) (A) (A) (A) (A) (A) (A) (A) (A) (A) (A)
                 (A) (A) (A) (A) (A) (A) (A) (A) (A) (A) (A) (A)
                 (A) (A) (A) (A) (A) (A) (A) (A) (A) (A) (A) (A)
                 (A) (A) (A) (A) (A) (A) (A) (A) (A) (A) (A) (A)
                 (A) (A) (A) (A) (A) (A) (A) (A) (A) (A) (A) (A)
                 (A) (A) (A) (A) (A) (A) (A) (A) (A) (A) (A) (A)
                 (A) (A) (A) (A) (A) (A) (A) (A) (A) (A) (A) (A)
                 (A) (A) (A) (A) (A) (A) (A) (A) (A) (A) (A) (A)
                 (A) (A) (A) (A) (A) (A) (A) (A) (A) (A) (A) (A)
                 (A) (A) (A) (A) (A) (A) (A) (A) (A) (A) (A) (A)
                 (A) (A) (A) (A) (A) (A) (A) (A) (A) (A) (A) (A)
                 (A) (A) (A) (A) (A) (A) (A) (A) (A) (A) (A) (A)
                 (A) (A) (A) (A) (A) (A) (A) (A) (A) (A) (A) (A)
                 (A) (A) (A) (A) (A) (A) (A) (A) (A) (A) (A) (A)
                 (A) (A) (A) (A) (A) (A) (A) (A) (A) (A) (A) (A)
                 (A) (A) (A) (A) (A) (A) (A) (A) (A) (A) (A) (A)
                 (A) (A) (A) (A) (A) (A) (A) (A) (A) (A) (A) (A)
                 (A) (A) (A) (A) (A) (A) (A) (A) (A) (A) (A) (A)
                 (A) (A) (A) (A) (A) (A) (A) (A) (A) (A) (A) (A)
                 (A) (A) (A) (A) (A) (A) (A) (A) (A) (A) (A) (A)
                 (A) (A) (A) (A) (A) (A) (A) (A) (A) (A) (A) (A)
                 (A) (A) (A) (A) (A) (A) (A) (A) (A) (A) (A) (A)
                 (A) (A) (A) (A) (A) (A) (A) (A) (A) (A) (A) (A)
                 (A) (A) (A) (A) (A) (A) (A) (A) (A) (A) (A) (A)
                 (A) (A) (A) (A) (A) (A) (A) (A) (A) (A) (A) (A)
                 (A) (A) (A) (A) (A) (A) (A)
 The electronic state is 1-A.
 Alpha  occ. eigenvalues -- -101.60541-101.60534 -77.26159 -77.26157 -19.24712
 Alpha  occ. eigenvalues --  -19.24255 -10.30886 -10.30769 -10.30517 -10.30369
 Alpha  occ. eigenvalues --  -10.26424 -10.26405 -10.26320 -10.26260 -10.25325
 Alpha  occ. eigenvalues --  -10.25287 -10.24904 -10.24899 -10.24879 -10.24839
 Alpha  occ. eigenvalues --  -10.24817 -10.24793 -10.24730 -10.24469 -10.24403
 Alpha  occ. eigenvalues --  -10.24349 -10.24337 -10.24330 -10.24273 -10.24125
 Alpha  occ. eigenvalues --  -10.24039 -10.23974 -10.23943 -10.23943 -10.23919
 Alpha  occ. eigenvalues --  -10.23862 -10.23843 -10.23824 -10.23789 -10.23710
 Alpha  occ. eigenvalues --  -10.23709 -10.23622 -10.23618 -10.23532 -10.23530
 Alpha  occ. eigenvalues --  -10.23305 -10.23305  -9.43053  -9.43045  -7.16239
 Alpha  occ. eigenvalues --   -7.16232  -7.15789  -7.15781  -7.15728  -7.15720
 Alpha  occ. eigenvalues --   -6.65362  -6.65361  -4.78958  -4.78957  -4.78920
 Alpha  occ. eigenvalues --   -4.78918  -4.78714  -4.78712  -3.51562  -2.19270
 Alpha  occ. eigenvalues --   -2.19156  -2.15880  -1.10721  -1.09401  -0.91307
 Alpha  occ. eigenvalues --   -0.89269  -0.88923  -0.88704  -0.88256  -0.88150
 Alpha  occ. eigenvalues --   -0.85218  -0.82259  -0.81473  -0.80220  -0.80095
 Alpha  occ. eigenvalues --   -0.77706  -0.77625  -0.77602  -0.77570  -0.77057
 Alpha  occ. eigenvalues --   -0.77045  -0.76948  -0.76856  -0.75134  -0.73376
 Alpha  occ. eigenvalues --   -0.73235  -0.72676  -0.69685  -0.68579  -0.66867
 Alpha  occ. eigenvalues --   -0.66111  -0.65359  -0.63339  -0.63231  -0.62946
 Alpha  occ. eigenvalues --   -0.62751  -0.62209  -0.62015  -0.61758  -0.61458
 Alpha  occ. eigenvalues --   -0.60578  -0.58477  -0.57916  -0.56332  -0.55285
 Alpha  occ. eigenvalues --   -0.54037  -0.53934  -0.53065  -0.52389  -0.52229
 Alpha  occ. eigenvalues --   -0.51693  -0.50592  -0.50358  -0.49770  -0.48025
 Alpha  occ. eigenvalues --   -0.47810  -0.47656  -0.47641  -0.47457  -0.47012
 Alpha  occ. eigenvalues --   -0.46948  -0.46672  -0.46395  -0.46208  -0.46047
 Alpha  occ. eigenvalues --   -0.45534  -0.44431  -0.44227  -0.44158  -0.43943
 Alpha  occ. eigenvalues --   -0.43630  -0.43603  -0.43205  -0.43108  -0.42934
 Alpha  occ. eigenvalues --   -0.42676  -0.41941  -0.41364  -0.40990  -0.40952
 Alpha  occ. eigenvalues --   -0.40733  -0.39941  -0.39378  -0.39238  -0.38816
 Alpha  occ. eigenvalues --   -0.38717  -0.38315  -0.38027  -0.37939  -0.37464
 Alpha  occ. eigenvalues --   -0.37281  -0.37116  -0.36619  -0.36406  -0.36163
 Alpha  occ. eigenvalues --   -0.36054  -0.35688  -0.35576  -0.35189  -0.34893
 Alpha  occ. eigenvalues --   -0.34784  -0.33459  -0.32393  -0.31522  -0.31300
 Alpha  occ. eigenvalues --   -0.31002  -0.30026  -0.29730  -0.29361  -0.28072
 Alpha  occ. eigenvalues --   -0.27695  -0.27588  -0.27406  -0.27160  -0.26976
 Alpha  occ. eigenvalues --   -0.26681  -0.26284  -0.26157  -0.25777  -0.25586
 Alpha  occ. eigenvalues --   -0.24675  -0.24303  -0.23164  -0.22592  -0.22453
 Alpha virt. eigenvalues --   -0.08082  -0.04438  -0.04149  -0.04014  -0.03501
 Alpha virt. eigenvalues --   -0.02885  -0.02742  -0.01866  -0.01461  -0.01429
 Alpha virt. eigenvalues --   -0.01201  -0.00549  -0.00244   0.01509   0.01598
 Alpha virt. eigenvalues --    0.02536   0.03147   0.03760   0.04755   0.04869
 Alpha virt. eigenvalues --    0.05288   0.05305   0.05559   0.05881   0.06374
 Alpha virt. eigenvalues --    0.07095   0.07171   0.07449   0.07872   0.08140
 Alpha virt. eigenvalues --    0.08295   0.08352   0.08680   0.08838   0.09244
 Alpha virt. eigenvalues --    0.09473   0.09602   0.09776   0.10058   0.10221
 Alpha virt. eigenvalues --    0.10469   0.10726   0.11045   0.11237   0.11309
 Alpha virt. eigenvalues --    0.11516   0.11588   0.11777   0.12029   0.12335
 Alpha virt. eigenvalues --    0.12539   0.12652   0.12841   0.13218   0.13747
 Alpha virt. eigenvalues --    0.13929   0.14088   0.14191   0.14258   0.14530
 Alpha virt. eigenvalues --    0.14958   0.15085   0.15366   0.15754   0.15930
 Alpha virt. eigenvalues --    0.16416   0.16652   0.16765   0.16885   0.17440
 Alpha virt. eigenvalues --    0.17631   0.18098   0.18401   0.18778   0.19079
 Alpha virt. eigenvalues --    0.19401   0.19649   0.19688   0.20012   0.20160
 Alpha virt. eigenvalues --    0.20276   0.20565   0.20833   0.21196   0.21254
 Alpha virt. eigenvalues --    0.21402   0.21926   0.22176   0.22275   0.22372
 Alpha virt. eigenvalues --    0.22645   0.22762   0.22966   0.23146   0.23564
 Alpha virt. eigenvalues --    0.23641   0.23697   0.23928   0.24078   0.24162
 Alpha virt. eigenvalues --    0.24354   0.24560   0.24685   0.24843   0.25081
 Alpha virt. eigenvalues --    0.25274   0.25581   0.25613   0.25799   0.26134
 Alpha virt. eigenvalues --    0.26320   0.26438   0.26785   0.27006   0.27362
 Alpha virt. eigenvalues --    0.27438   0.27524   0.27837   0.28272   0.28357
 Alpha virt. eigenvalues --    0.28640   0.29014   0.29242   0.29408   0.29614
 Alpha virt. eigenvalues --    0.29720   0.29860   0.29930   0.30416   0.30707
 Alpha virt. eigenvalues --    0.30938   0.31218   0.31414   0.31544   0.31913
 Alpha virt. eigenvalues --    0.32042   0.32553   0.32766   0.33060   0.33188
 Alpha virt. eigenvalues --    0.33237   0.33637   0.33741   0.33901   0.34127
 Alpha virt. eigenvalues --    0.34629   0.34888   0.35042   0.35159   0.35274
 Alpha virt. eigenvalues --    0.35708   0.35966   0.36012   0.36141   0.36343
 Alpha virt. eigenvalues --    0.36563   0.36796   0.36950   0.37054   0.37506
 Alpha virt. eigenvalues --    0.37634   0.37802   0.37898   0.38052   0.38286
 Alpha virt. eigenvalues --    0.38469   0.38648   0.38992   0.39189   0.39429
 Alpha virt. eigenvalues --    0.39554   0.39775   0.39939   0.40246   0.40512
 Alpha virt. eigenvalues --    0.40596   0.40791   0.40919   0.41363   0.41432
 Alpha virt. eigenvalues --    0.41524   0.41740   0.41820   0.41972   0.42240
 Alpha virt. eigenvalues --    0.42571   0.42689   0.42731   0.42882   0.43031
 Alpha virt. eigenvalues --    0.43290   0.43361   0.43699   0.43816   0.43946
 Alpha virt. eigenvalues --    0.44162   0.44250   0.44413   0.44568   0.44694
 Alpha virt. eigenvalues --    0.44854   0.44944   0.45028   0.45086   0.45297
 Alpha virt. eigenvalues --    0.45543   0.45666   0.45824   0.45945   0.46117
 Alpha virt. eigenvalues --    0.46345   0.46473   0.46680   0.46979   0.46999
 Alpha virt. eigenvalues --    0.47241   0.47537   0.47657   0.47983   0.48362
 Alpha virt. eigenvalues --    0.48428   0.48546   0.48668   0.48903   0.48984
 Alpha virt. eigenvalues --    0.49081   0.49564   0.49655   0.49848   0.49996
 Alpha virt. eigenvalues --    0.50095   0.50462   0.50772   0.50795   0.50854
 Alpha virt. eigenvalues --    0.51117   0.51170   0.51504   0.51729   0.51875
 Alpha virt. eigenvalues --    0.51890   0.52465   0.52730   0.52855   0.52981
 Alpha virt. eigenvalues --    0.53208   0.53615   0.53892   0.54249   0.54347
 Alpha virt. eigenvalues --    0.54549   0.54971   0.55072   0.55330   0.55644
 Alpha virt. eigenvalues --    0.55784   0.56293   0.56644   0.56860   0.57002
 Alpha virt. eigenvalues --    0.57527   0.57874   0.58149   0.58309   0.58614
 Alpha virt. eigenvalues --    0.59071   0.59523   0.59753   0.60669   0.60685
 Alpha virt. eigenvalues --    0.60792   0.61129   0.61432   0.61615   0.61795
 Alpha virt. eigenvalues --    0.62344   0.62615   0.62946   0.63010   0.63775
 Alpha virt. eigenvalues --    0.64086   0.64214   0.64583   0.64777   0.65047
 Alpha virt. eigenvalues --    0.65162   0.65576   0.65882   0.66080   0.66107
 Alpha virt. eigenvalues --    0.66665   0.66822   0.66927   0.67285   0.67437
 Alpha virt. eigenvalues --    0.67651   0.68294   0.68374   0.68574   0.68645
 Alpha virt. eigenvalues --    0.68955   0.69283   0.69402   0.69688   0.70086
 Alpha virt. eigenvalues --    0.70236   0.70436   0.70841   0.70976   0.71286
 Alpha virt. eigenvalues --    0.71571   0.71703   0.72229   0.72495   0.72730
 Alpha virt. eigenvalues --    0.72888   0.73111   0.73222   0.73574   0.73778
 Alpha virt. eigenvalues --    0.73851   0.74275   0.74544   0.74766   0.75080
 Alpha virt. eigenvalues --    0.75273   0.75648   0.75841   0.76156   0.76403
 Alpha virt. eigenvalues --    0.76568   0.77080   0.77267   0.77718   0.77814
 Alpha virt. eigenvalues --    0.78031   0.78363   0.78691   0.79095   0.79426
 Alpha virt. eigenvalues --    0.79572   0.79725   0.79955   0.80484   0.80520
 Alpha virt. eigenvalues --    0.80798   0.81084   0.81325   0.81685   0.81755
 Alpha virt. eigenvalues --    0.82004   0.82210   0.82570   0.82807   0.83088
 Alpha virt. eigenvalues --    0.83173   0.83475   0.83987   0.84121   0.84598
 Alpha virt. eigenvalues --    0.84622   0.85194   0.85351   0.85553   0.85758
 Alpha virt. eigenvalues --    0.86195   0.86518   0.86626   0.86927   0.87677
 Alpha virt. eigenvalues --    0.87750   0.88125   0.88596   0.88784   0.89405
 Alpha virt. eigenvalues --    0.89814   0.89941   0.90150   0.90449   0.90844
 Alpha virt. eigenvalues --    0.90939   0.91238   0.91485   0.91494   0.92348
 Alpha virt. eigenvalues --    0.92494   0.92790   0.92896   0.93260   0.93671
 Alpha virt. eigenvalues --    0.93969   0.94293   0.94456   0.94549   0.95045
 Alpha virt. eigenvalues --    0.95355   0.95505   0.95743   0.95927   0.96131
 Alpha virt. eigenvalues --    0.96634   0.97021   0.97499   0.97673   0.98216
 Alpha virt. eigenvalues --    0.98630   0.99043   0.99368   0.99553   0.99807
 Alpha virt. eigenvalues --    1.00340   1.00621   1.01069   1.01277   1.01915
 Alpha virt. eigenvalues --    1.02193   1.02462   1.03380   1.03670   1.04036
 Alpha virt. eigenvalues --    1.04141   1.04601   1.05105   1.05433   1.06102
 Alpha virt. eigenvalues --    1.06244   1.06891   1.07322   1.07639   1.07963
 Alpha virt. eigenvalues --    1.08242   1.08846   1.09196   1.09804   1.10016
 Alpha virt. eigenvalues --    1.10214   1.10487   1.10756   1.11029   1.11683
 Alpha virt. eigenvalues --    1.12012   1.12162   1.12715   1.13193   1.13381
 Alpha virt. eigenvalues --    1.13584   1.13665   1.13798   1.14337   1.14454
 Alpha virt. eigenvalues --    1.14754   1.15006   1.15757   1.16013   1.16373
 Alpha virt. eigenvalues --    1.16699   1.17043   1.17469   1.17777   1.18246
 Alpha virt. eigenvalues --    1.18515   1.18993   1.19042   1.19233   1.19433
 Alpha virt. eigenvalues --    1.19823   1.20063   1.20541   1.21149   1.21280
 Alpha virt. eigenvalues --    1.21509   1.21862   1.22091   1.22588   1.22778
 Alpha virt. eigenvalues --    1.22900   1.23308   1.23518   1.23754   1.24069
 Alpha virt. eigenvalues --    1.24494   1.24800   1.25081   1.25226   1.25365
 Alpha virt. eigenvalues --    1.26095   1.26160   1.26361   1.26575   1.26744
 Alpha virt. eigenvalues --    1.27037   1.27555   1.27643   1.28105   1.28451
 Alpha virt. eigenvalues --    1.28520   1.28537   1.29099   1.29200   1.29638
 Alpha virt. eigenvalues --    1.29880   1.30101   1.30271   1.30878   1.31037
 Alpha virt. eigenvalues --    1.31295   1.31574   1.32045   1.32132   1.32628
 Alpha virt. eigenvalues --    1.32765   1.33129   1.33492   1.33647   1.34190
 Alpha virt. eigenvalues --    1.34502   1.34804   1.35096   1.35494   1.35796
 Alpha virt. eigenvalues --    1.36074   1.36423   1.36839   1.37348   1.37891
 Alpha virt. eigenvalues --    1.38403   1.38468   1.39382   1.39683   1.40157
 Alpha virt. eigenvalues --    1.40332   1.40554   1.40800   1.41744   1.41825
 Alpha virt. eigenvalues --    1.42735   1.43242   1.43696   1.44235   1.44373
 Alpha virt. eigenvalues --    1.44558   1.45079   1.45825   1.45908   1.46228
 Alpha virt. eigenvalues --    1.46644   1.47005   1.47380   1.47971   1.48138
 Alpha virt. eigenvalues --    1.48627   1.48945   1.49350   1.49510   1.49745
 Alpha virt. eigenvalues --    1.49944   1.50428   1.50717   1.50877   1.51133
 Alpha virt. eigenvalues --    1.51661   1.52085   1.52209   1.52503   1.52721
 Alpha virt. eigenvalues --    1.53008   1.53382   1.53491   1.53926   1.54664
 Alpha virt. eigenvalues --    1.54931   1.55188   1.55495   1.55559   1.55982
 Alpha virt. eigenvalues --    1.56214   1.56510   1.57232   1.57613   1.57820
 Alpha virt. eigenvalues --    1.58446   1.58505   1.59097   1.59262   1.59355
 Alpha virt. eigenvalues --    1.59466   1.59582   1.60409   1.60716   1.60823
 Alpha virt. eigenvalues --    1.61113   1.61335   1.61808   1.62232   1.62559
 Alpha virt. eigenvalues --    1.62847   1.63146   1.63497   1.63909   1.64030
 Alpha virt. eigenvalues --    1.64469   1.64573   1.65093   1.65284   1.66000
 Alpha virt. eigenvalues --    1.66217   1.66468   1.66833   1.67307   1.67457
 Alpha virt. eigenvalues --    1.67974   1.68108   1.68354   1.68685   1.68848
 Alpha virt. eigenvalues --    1.69110   1.69517   1.69842   1.70024   1.70235
 Alpha virt. eigenvalues --    1.70678   1.71267   1.71348   1.71732   1.71988
 Alpha virt. eigenvalues --    1.72141   1.72436   1.72809   1.72999   1.73313
 Alpha virt. eigenvalues --    1.73495   1.73775   1.73964   1.74306   1.74926
 Alpha virt. eigenvalues --    1.75319   1.75520   1.75586   1.75964   1.76202
 Alpha virt. eigenvalues --    1.76513   1.76954   1.77245   1.77313   1.77594
 Alpha virt. eigenvalues --    1.77972   1.78123   1.78327   1.78600   1.78852
 Alpha virt. eigenvalues --    1.79613   1.79681   1.79986   1.80270   1.80931
 Alpha virt. eigenvalues --    1.81081   1.81329   1.82089   1.82624   1.82959
 Alpha virt. eigenvalues --    1.83658   1.84468   1.84768   1.84935   1.85501
 Alpha virt. eigenvalues --    1.85609   1.86321   1.86766   1.87135   1.87204
 Alpha virt. eigenvalues --    1.87808   1.87870   1.88141   1.88191   1.88477
 Alpha virt. eigenvalues --    1.89331   1.89898   1.90341   1.90893   1.91180
 Alpha virt. eigenvalues --    1.91697   1.91769   1.92290   1.93107   1.93281
 Alpha virt. eigenvalues --    1.93939   1.94167   1.94357   1.94653   1.94873
 Alpha virt. eigenvalues --    1.95329   1.96241   1.96458   1.96728   1.97402
 Alpha virt. eigenvalues --    1.97518   1.97646   1.98220   1.98645   1.98958
 Alpha virt. eigenvalues --    1.99163   1.99607   1.99906   2.00436   2.00656
 Alpha virt. eigenvalues --    2.01398   2.01769   2.01975   2.02443   2.02675
 Alpha virt. eigenvalues --    2.02995   2.03402   2.03615   2.04094   2.04178
 Alpha virt. eigenvalues --    2.04617   2.05418   2.05554   2.05656   2.06380
 Alpha virt. eigenvalues --    2.06776   2.07269   2.07573   2.08111   2.08362
 Alpha virt. eigenvalues --    2.08641   2.09013   2.09199   2.09615   2.10024
 Alpha virt. eigenvalues --    2.10424   2.10855   2.11127   2.11338   2.11675
 Alpha virt. eigenvalues --    2.11871   2.12208   2.12335   2.12746   2.13038
 Alpha virt. eigenvalues --    2.13666   2.13782   2.13928   2.14614   2.14925
 Alpha virt. eigenvalues --    2.15031   2.15584   2.16019   2.16107   2.16337
 Alpha virt. eigenvalues --    2.16662   2.16890   2.17281   2.17381   2.17591
 Alpha virt. eigenvalues --    2.18323   2.18420   2.18604   2.18941   2.19134
[...]
                                                    205(g),1103(r),715(r),493(v)
                                                    352(r),337(v),1241(r)
                                                    1233(r),616(r),358(r)
                                                    1435(v),1130(r),1418(v)
                                                    1446(v),976(r),1620(r)
                                                    458(r),1136(r),210(g),456(r)
                                                    1117(r),613(r),479(v)
                                                    1082(r),982(r),771(r),212(g)
                                                    484(v),1460(v),350(r),258(v)
                                                    768(r),257(v),1600(r)
                                                    1133(r),463(r),955(r),214(g)
                                                    382(r),513(r),794(r),950(r)
                                                    610(r)
  1626. BD*(   1)Pd   1 - P   3          0.17463     0.60599  1625(g),208(g),243(g),209(g)
                                                    215(v),204(g),202(g),198(g)
                                                    193(g),197(g),1300(r),195(g)
                                                    1104(v),1410(v),480(r)
                                                    211(g),1439(v),1438(v)
                                                    254(g),251(g),223(v),226(v)
                                                    1411(v),1628(g),1106(v)
                                                    1370(r),196(g),192(g),922(v)
                                                    482(r),1412(v),948(v),324(r)
                                                    1441(v),1440(v),325(r)
                                                    248(g),485(r),949(v),1109(v)
                                                    200(g),636(r),662(r),221(v)
                                                    1413(v),220(v),252(g),921(v)
                                                    249(g),1295(r),224(v)
                                                    1355(r),896(r),635(r),245(g)
                                                    323(r),255(g),227(v),353(r)
                                                    792(r),1114(v),924(v),977(r)
                                                    1237(r),1105(v),947(v)
                                                    766(r),490(r),1107(v),222(v)
                                                    250(g),247(g),611(r),1131(r)
                                                    1414(v),219(v),199(g),483(r)
                                                    216(v),1081(r),508(r),481(r)
                                                    509(r),507(r),1235(r),908(r)
                                                    1236(r),1695(r),457(r)
                                                    1113(v),638(r),1711(r)
                                                    1346(r),217(v),637(r),951(v)
                                                    256(g),228(v),1286(r)
                                                    1709(r),210(g),230(v),927(v)
                                                    244(g),1311(r),455(r),715(r)
                                                    1706(v),641(r),1079(r)
                                                    327(r),1233(r),489(r)
                                                    1697(r),673(r),950(v),456(r)
                                                    1315(r),1361(r),201(g)
                                                    358(r),337(r),479(r),1117(v)
                                                    1241(r),610(r),976(r),961(v)
                                                    1407(v),1136(r),352(r)
                                                    1418(v),505(r),616(r)
                                                    1446(v),1600(r),1133(r)
                                                    1082(r),258(g),1080(r)
                                                    493(r),458(r),1103(v),797(r)
                                                    331(r),212(g),1340(r),974(r)
                                                    1620(r),214(g),326(r),794(r)
                                                    1432(v),768(r),613(r)
                                                    1006(r),1087(r),382(r)
                                                    982(r)
  1627. BD*(   1)Pd   1 -Cl  63          0.18592     0.19267  1628(g),1625(g),215(v)
                                                    202(g),208(g),209(g),1631(v)
                                                    1629(v),243(v),197(g)
                                                    1411(g),198(g),204(g),480(r)
                                                    226(v),1104(r),251(v),196(g)
                                                    1413(g),1666(r),195(g)
                                                    1644(r),223(v),254(v),220(v)
                                                    193(g),206(g),636(r),201(g)
                                                    214(g),1408(g),1406(g)
                                                    199(g),635(r),211(g),1438(v)
                                                    1439(v),949(r),210(g),482(r)
                                                    324(r),1410(g)
  1628. BD*(   1)Pd   1 -Cl  64          0.18605     0.19289  1627(g),1626(g),243(v)
                                                    202(g),208(g),209(g),1632(v)
                                                    1633(v),215(v),1439(g)
                                                    197(g),196(g),204(g),1104(r)
                                                    198(g),254(v),480(r),223(v)
                                                    199(g),1711(r),195(g),251(v)
                                                    1697(r),226(v),1441(g)
                                                    922(r),248(v),193(g),206(g)
                                                    1436(g),214(g),921(r)
                                                    1434(g),1410(v),211(g)
                                                    201(g),1106(r),1411(v)
                                                    325(r),210(g),948(r),1412(v)
  1629. BD*(   1) P   2 - C   6          0.07012     0.21237   
  1630. BD*(   1) P   2 - C  12          0.06785     0.21549   
  1631. BD*(   1) P   2 - C  18          0.07787     0.20213   
  1632. BD*(   1) P   3 - C  29          0.07819     0.20207   
  1633. BD*(   1) P   3 - C  30          0.07000     0.21243   
  1634. BD*(   1) P   3 - C  36          0.06792     0.21536   
  1635. BD*(   1) O   4 - C  22          0.02940     0.33362   
  1636. BD*(   1) O   4 - C  66          0.04126     0.24143   
  1637. BD*(   1) O   5 - C  25          0.02724     0.33954   
  1638. BD*(   1) O   5 - C  42          0.04196     0.23709   
  1639. BD*(   1) C   6 - C   7          0.02365     0.51990   
  1640. BD*(   1) C   6 - C  11          0.02628     0.52486   
  1641. BD*(   2) C   6 - C  11          0.37286     0.02128  1648(v),1643(v),1631(v)
                                                    455(g),454(g),326(g)
  1642. BD*(   1) C   7 - C   8          0.01617     0.54907   
  1643. BD*(   2) C   7 - C   8          0.29971     0.03294  1648(v),1641(v),377(g)
  1644. BD*(   1) C   7 - H  43          0.01415     0.43594   
  1645. BD*(   1) C   8 - C   9          0.01449     0.53536   
  1646. BD*(   1) C   8 - H  80          0.01340     0.40539   
  1647. BD*(   1) C   9 - C  10          0.01440     0.53584   
  1648. BD*(   2) C   9 - C  10          0.32324     0.02506  1641(v),1643(v),403(g)
                                                    429(g)
  1649. BD*(   1) C   9 - H  44          0.01290     0.40407   
  1650. BD*(   1) C  10 - C  11          0.01511     0.53808   
  1651. BD*(   1) C  10 - H  77          0.01335     0.40135   
  1652. BD*(   1) C  11 - H  45          0.01598     0.40695   
  1653. BD*(   1) C  12 - C  13          0.02730     0.51780   
  1654. BD*(   2) C  12 - C  13          0.38340     0.01543  1659(v),1664(v),1669(r)
                                                    1681(r),1690(r),1629(v)
                                                    506(g),482(g),1631(v),533(v)
  1655. BD*(   1) C  12 - C  17          0.02359     0.51694   
  1656. BD*(   1) C  13 - C  14          0.01585     0.53604   
  1657. BD*(   1) C  13 - H  46          0.01535     0.41475   
  1658. BD*(   1) C  14 - C  15          0.01475     0.52998   
  1659. BD*(   2) C  14 - C  15          0.32575     0.02037  1654(v),1664(v),559(g)
                                                    533(g),1681(r)
  1660. BD*(   1) C  14 - H  78          0.01384     0.39523   
  1661. BD*(   1) C  15 - C  16          0.01443     0.53001   
  1662. BD*(   1) C  15 - H  47          0.01300     0.39808   
  1663. BD*(   1) C  16 - C  17          0.01548     0.54101   
  1664. BD*(   2) C  16 - C  17          0.29514     0.02827  1659(v),1654(v),585(g)
  1665. BD*(   1) C  16 - H  79          0.01326     0.40183   
  1666. BD*(   1) C  17 - H  48          0.01623     0.42589   
  1667. BD*(   1) C  18 - C  19          0.02167     0.51259   
  1668. BD*(   1) C  18 - C  23          0.03245     0.50774   
  1669. BD*(   2) C  18 - C  23          0.40481     0.01537  1676(v),1671(v),1681(v)
                                                    1654(r),1630(v),1680(v)
                                                    1682(v),662(v),767(g),766(g)
                                                    1708(r)
  1670. BD*(   1) C  19 - C  20          0.01512     0.53516   
  1671. BD*(   2) C  19 - C  20          0.32386     0.01856  1669(v),1676(v),689(g)
                                                    662(g)
  1672. BD*(   1) C  19 - H  49          0.01590     0.40902   
  1673. BD*(   1) C  20 - C  21          0.01272     0.53295   
  1674. BD*(   1) C  20 - H  50          0.01340     0.39274   
  1675. BD*(   1) C  21 - C  22          0.03199     0.51132   
  1676. BD*(   2) C  21 - C  22          0.36216     0.01228  1669(v),1671(v),1708(r)
                                                    715(g),1636(v)
  1677. BD*(   1) C  21 - H  51          0.01415     0.38278   
  1678. BD*(   1) C  22 - C  23          0.04128     0.49203   
  1679. BD*(   1) C  23 - C  24          0.02944     0.41999   
  1680. BD*(   1) C  24 - C  25          0.04394     0.49446   
  1681. BD*(   2) C  24 - C  25          0.37808     0.01726  1685(v),1690(v),1669(v)
                                                    1654(r),1678(v),1668(v)
                                                    1638(v),819(g),1659(r)
                                                    845(v)
  1682. BD*(   1) C  24 - C  29          0.03269     0.50720   
  1683. BD*(   1) C  25 - C  26          0.03249     0.51241   
  1684. BD*(   1) C  26 - C  27          0.01298     0.53391   
  1685. BD*(   2) C  26 - C  27          0.34005     0.01333  1690(v),1681(v),871(g)
                                                    845(g)
  1686. BD*(   1) C  26 - H  52          0.01346     0.38073   
  1687. BD*(   1) C  27 - C  28          0.01509     0.53441   
  1688. BD*(   1) C  27 - H  53          0.01340     0.39297   
  1689. BD*(   1) C  28 - C  29          0.02168     0.51276   
  1690. BD*(   2) C  28 - C  29          0.37763     0.01325  1685(v),1681(v),896(g)
                                                    1654(r),1708(r),1634(v)
  1691. BD*(   1) C  28 - H  54          0.01585     0.40908   
  1692. BD*(   1) C  30 - C  31          0.02362     0.51974   
  1693. BD*(   1) C  30 - C  35          0.02630     0.52500   
  1694. BD*(   2) C  30 - C  35          0.37279     0.02130  1701(v),1696(v),1632(v)
                                                    1079(g),1078(g),950(g)
  1695. BD*(   1) C  31 - C  32          0.01616     0.54914   
  1696. BD*(   2) C  31 - C  32          0.29944     0.03294  1701(v),1694(v),1001(g)
  1697. BD*(   1) C  31 - H  55          0.01413     0.43572   
  1698. BD*(   1) C  32 - C  33          0.01449     0.53532   
  1699. BD*(   1) C  32 - H  84          0.01340     0.40541   
  1700. BD*(   1) C  33 - C  34          0.01439     0.53589   
  1701. BD*(   2) C  33 - C  34          0.32308     0.02508  1694(v),1696(v),1027(g)
                                                    1053(g)
  1702. BD*(   1) C  33 - H  56          0.01290     0.40409   
  1703. BD*(   1) C  34 - C  35          0.01512     0.53803   
  1704. BD*(   1) C  34 - H  83          0.01335     0.40134   
  1705. BD*(   1) C  35 - H  57          0.01600     0.40704   
  1706. BD*(   1) C  36 - C  37          0.02362     0.51681   
  1707. BD*(   1) C  36 - C  41          0.02733     0.51689   
  1708. BD*(   2) C  36 - C  41          0.38325     0.01491  1715(v),1710(v),1676(r)
                                                    1633(v),1690(r),1234(g)
                                                    1632(v),1106(g),1209(v)
                                                    1669(r)
  1709. BD*(   1) C  37 - C  38          0.01550     0.54056   
  1710. BD*(   2) C  37 - C  38          0.29519     0.02781  1715(v),1708(v),1157(g)
  1711. BD*(   1) C  37 - H  58          0.01609     0.42572   
  1712. BD*(   1) C  38 - C  39          0.01441     0.52950   
  1713. BD*(   1) C  38 - H  81          0.01326     0.40131   
  1714. BD*(   1) C  39 - C  40          0.01477     0.52910   
  1715. BD*(   2) C  39 - C  40          0.32675     0.01950  1708(v),1710(v),1183(g)
                                                    1209(g)
  1716. BD*(   1) C  39 - H  59          0.01299     0.39749   
  1717. BD*(   1) C  40 - C  41          0.01586     0.53533   
  1718. BD*(   1) C  40 - H  82          0.01392     0.39338   
  1719. BD*(   1) C  41 - H  60          0.01529     0.41384   
  1720. BD*(   1) C  42 - C  61          0.01759     0.32166   
  1721. BD*(   1) C  42 - H  62          0.03177     0.32109   
  1722. BD*(   1) C  42 - C  65          0.03182     0.31324   
  1723. BD*(   1) C  61 - H  71          0.00501     0.34794   
  1724. BD*(   1) C  61 - H  72          0.00556     0.35203   
  1725. BD*(   1) C  61 - H  73          0.00873     0.34731   
  1726. BD*(   1) C  65 - C  66          0.03235     0.31491   
  1727. BD*(   1) C  65 - H  69          0.01390     0.34185   
  1728. BD*(   1) C  65 - H  70          0.01006     0.33381   
  1729. BD*(   1) C  66 - H  67          0.03441     0.31738   
  1730. BD*(   1) C  66 - C  68          0.01555     0.32156   
  1731. BD*(   1) C  68 - H  74          0.00394     0.34841   
  1732. BD*(   1) C  68 - H  75          0.00569     0.35271   
  1733. BD*(   1) C  68 - H  76          0.00958     0.34938   
       -------------------------------
              Total Lewis  398.32132  ( 97.6278%)
        Valence non-Lewis    8.96056  (  2.1962%)
        Rydberg non-Lewis    0.71812  (  0.1760%)
       -------------------------------
            Total unit  1  408.00000  (100.0000%)
           Charge unit  1    0.00000
 1\1\GINC-NOTCH077\SP\RPBE1PBE\Gen\C41H36Cl2O2P2Pd1\U1010977\02-Nov-202
 1\0\\# PBE1PBE gen pseudo=read int=(grid=ultrafine) empiricaldispersio
 n=GD3BJ pop=nbo guess=read geom=check\\title\\0,1\Pd,0,-0.3097166008,-
 2.145674845,-0.0491621894\P,0,1.5685735993,-0.8438814061,0.0312132922\
 P,0,-1.7553343146,-0.3736733644,-0.0416088963\O,0,-0.3263755888,3.9172
 276135,-0.9995616806\O,0,1.3671325778,3.6182833351,1.2668774025\C,0,3.
 0312829588,-1.6653795776,-0.7164288737\C,0,2.8388577032,-2.5868846382,
 -1.764426831\C,0,3.9457363592,-3.1466023084,-2.4128065241\C,0,5.245972
 8781,-2.8056556427,-2.0101304162\C,0,5.4381240526,-1.8994732414,-0.958
 5195579\C,0,4.3344423816,-1.3246986942,-0.3129625655\C,0,2.1060722099,
 -0.2948098143,1.690585408\C,0,2.8049958633,0.9110987537,1.888769732\C,
 0,3.2024691332,1.2808847407,3.1798716389\C,0,2.9148496944,0.4468718348
 ,4.2699979807\C,0,2.2282270693,-0.7604753423,4.069942964\C,0,1.8185863
 498,-1.1351204571,2.7840888406\C,0,1.4101753174,0.6879472908,-0.998601
 1156\C,0,2.0660154583,0.7374991911,-2.2456187702\C,0,1.9342741446,1.85
 72621075,-3.0733897026\C,0,1.1594858101,2.9500202041,-2.6728290869\C,0
 ,0.5075414647,2.9096331133,-1.4334263977\C,0,0.6061566841,1.7777831377
 ,-0.5871211799\C,0,-0.110707628,1.8402771529,0.7187023513\C,0,0.281873
 7343,2.8543963256,1.624545781\C,0,-0.3628354904,3.0222444554,2.8574110
 637\C,0,-1.4215412025,2.1747804405,3.196423016\C,0,-1.8362783427,1.171
 9598516,2.3128733323\C,0,-1.1940940593,0.9983151295,1.0698819709\C,0,-
 3.3943718448,-0.8039170339,0.6667752705\C,0,-3.468503304,-1.7945137687
 ,1.6657455986\C,0,-4.6916301755,-2.0659927373,2.2893798415\C,0,-5.8474
 834699,-1.3667145069,1.9097567795\C,0,-5.77737805,-0.3912339793,0.9060
 744062\C,0,-4.5531416252,-0.1044528546,0.2861045422\C,0,-2.1042658988,
 0.3964275714,-1.6631101747\C,0,-2.0317070586,-0.4209135717,-2.80797878
 \C,0,-2.3113302393,0.1259567348,-4.0666963681\C,0,-2.6572679533,1.4803
 909019,-4.1883615937\C,0,-2.7320063371,2.291881082,-3.0470024795\C,0,-
 2.4607429451,1.7531830007,-1.7829967722\C,0,1.2197127594,5.0638172838,
 1.2593628396\H,0,1.8229491515,-2.878287408,-2.0482030794\H,0,6.1099201
 97,-3.2554697763,-2.5102373173\H,0,4.4879998117,-0.6218242816,0.511525
 9109\H,0,3.0014893552,1.5791742737,1.0448981424\H,0,3.2230749709,0.740
 0372731,5.2791127401\H,0,1.2889149557,-2.0788467933,2.6093307655\H,0,2
 .6858955295,-0.1015180689,-2.5681182955\H,0,2.4400771895,1.8759532054,
 -4.0439689086\H,0,1.0421191125,3.8179423956,-3.3278810843\H,0,-0.01357
 96839,3.7948013242,3.5495095714\H,0,-1.9253087175,2.2890833819,4.16145
 38801\H,0,-2.6697490652,0.5226664513,2.5886772877\H,0,-2.5719754278,-2
 .3635942772,1.9302322248\H,0,-6.805670119,-1.5906538155,2.3899317935\H
 ,0,-4.5034062107,0.6537735951,-0.5012656493\H,0,-1.7703465894,-1.47934
 69271,-2.6940530968\H,0,-2.8658555268,1.9050828166,-5.1759609426\H,0,-
 2.4869997652,2.3957606475,-0.8977661168\C,0,2.3033390023,5.64916665,2.
 1622078724\H,0,0.2194551761,5.3154244135,1.6579517451\Cl,0,1.033363816
 7,-4.0237984994,0.5497239359\Cl,0,-2.1149797345,-3.5411502793,-0.74427
 1006\C,0,1.3584103927,5.533976473,-0.1986275568\C,0,0.1326557165,5.285
 8323631,-1.098586331\H,0,0.4239397361,5.5047164993,-2.1451181969\C,0,-
 1.0829359672,6.1370485867,-0.7434315193\H,0,2.2384488075,5.0187180882,
 -0.624926382\H,0,1.5800269473,6.6172316371,-0.2206272964\H,0,2.2343282
 473,6.7495896208,2.1982239157\H,0,2.2055524566,5.2565261429,3.18777316
 3\H,0,3.3034696461,5.3750574072,1.7843567006\H,0,-0.8405960761,7.20920
 98132,-0.8271796502\H,0,-1.9153114448,5.909931706,-1.429061165\H,0,-1.
 4254403045,5.9303906121,0.2841799582\H,0,6.4508701313,-1.6406302276,-0
 .6323949063\H,0,3.7249691694,2.2312411367,3.3318043055\H,0,2.004581729
 6,-1.4132960319,4.9198444305\H,0,3.7899749215,-3.8675517831,-3.2215797
 075\H,0,-2.2543206814,-0.5091387042,-4.9565890206\H,0,-2.9900324774,3.
 3523857371,-3.1379539618\H,0,-6.6793679214,0.147379877,0.5973278181\H,
 0,-4.7442965325,-2.8416687234,3.0598909325\\Version=ES64L-G16RevB.01\S
 tate=1-A\HF=-3463.8111005\RMSD=1.891e-09\Dipole=0.7807943,5.7827688,0.
 1122372\Quadrupole=4.0196073,-17.7881903,13.7685831,-3.2939269,-6.7967
 823,-0.5705737\PG=C01 [X(C41H36Cl2O2P2Pd1)]\\@


 "THE TIME HAS COME", THE WALRUS SAID,
 "TO TALK OF MANY THINGS,
 OF SHOES AND SHIPS AND SEALING WAX,
 OF CABBAGES AND KINGS,
 AND WHY THE SEA IS BOILING HOT,
 AND WHETHER PIGS HAVE WINGS."
 Job cpu time:       0 days  3 hours 19 minutes 35.5 seconds.
 Elapsed time:       0 days  0 hours  6 minutes 16.3 seconds.
 File lengths (MBytes):  RWF=   1544 Int=      0 D2E=      0 Chk=    231 Scr=      1
 Normal termination of Gaussian 16 at Tue Nov  2 11:51:54 2021.
