 Entering Gaussian System, Link 0=/uufs/chpc.utah.edu/sys/installdir/gaussian16/B01/E6B/g16/g16
 Input=RSS-C3-Tunephos_1_SPE_NoPd.com
 Output=RSS-C3-Tunephos_1_SPE_NoPd.log
 Initial command:
 /uufs/chpc.utah.edu/sys/installdir/gaussian16/B01/E6B/g16/l1.exe "/scratch/general/lustre/u1010977/3356295/notchpeak.peaks/Gau-25682.inp" -scrdir="/scratch/general/lustre/u1010977/3356295/notchpeak.peaks/"
 Entering Link 1 = /uufs/chpc.utah.edu/sys/installdir/gaussian16/B01/E6B/g16/l1.exe PID=     25684.
  
 Copyright (c) 1988-2017, Gaussian, Inc.  All Rights Reserved.
  
 This is part of the Gaussian(R) 16 program.  It is based on
 the Gaussian(R) 09 system (copyright 2009, Gaussian, Inc.),
 the Gaussian(R) 03 system (copyright 2003, Gaussian, Inc.),
 the Gaussian(R) 98 system (copyright 1998, Gaussian, Inc.),
 the Gaussian(R) 94 system (copyright 1995, Gaussian, Inc.),
 the Gaussian 92(TM) system (copyright 1992, Gaussian, Inc.),
 the Gaussian 90(TM) system (copyright 1990, Gaussian, Inc.),
 the Gaussian 88(TM) system (copyright 1988, Gaussian, Inc.),
 the Gaussian 86(TM) system (copyright 1986, Carnegie Mellon
 University), and the Gaussian 82(TM) system (copyright 1983,
 Carnegie Mellon University). Gaussian is a federally registered
 trademark of Gaussian, Inc.
  
 This software contains proprietary and confidential information,
 including trade secrets, belonging to Gaussian, Inc.
  
 This software is provided under written license and may be
 used, copied, transmitted, or stored only in accord with that
 written license.
  
 The following legend is applicable only to US Government
 contracts under FAR:
  
                    RESTRICTED RIGHTS LEGEND
  
 Use, reproduction and disclosure by the US Government is
 subject to restrictions as set forth in subparagraphs (a)
 and (c) of the Commercial Computer Software - Restricted
 Rights clause in FAR 52.227-19.
  
 Gaussian, Inc.
 340 Quinnipiac St., Bldg. 40, Wallingford CT 06492
  
  
 ---------------------------------------------------------------
 Warning -- This program may not be used in any manner that
 competes with the business of Gaussian, Inc. or will provide
 assistance to any competitor of Gaussian, Inc.  The licensee
 of this program is prohibited from giving any competitor of
 Gaussian, Inc. access to this program.  By using this program,
 the user acknowledges that Gaussian, Inc. is engaged in the
 business of creating and licensing software in the field of
 computational chemistry and represents and warrants to the
 licensee that it is not a competitor of Gaussian, Inc. and that
 it will not use this program in any manner prohibited above.
 ---------------------------------------------------------------
  

 Cite this work as:
 Gaussian 16, Revision B.01,
 M. J. Frisch, G. W. Trucks, H. B. Schlegel, G. E. Scuseria, 
 M. A. Robb, J. R. Cheeseman, G. Scalmani, V. Barone, 
 G. A. Petersson, H. Nakatsuji, X. Li, M. Caricato, A. V. Marenich, 
 J. Bloino, B. G. Janesko, R. Gomperts, B. Mennucci, H. P. Hratchian, 
 J. V. Ortiz, A. F. Izmaylov, J. L. Sonnenberg, D. Williams-Young, 
 F. Ding, F. Lipparini, F. Egidi, J. Goings, B. Peng, A. Petrone, 
 T. Henderson, D. Ranasinghe, V. G. Zakrzewski, J. Gao, N. Rega, 
 G. Zheng, W. Liang, M. Hada, M. Ehara, K. Toyota, R. Fukuda, 
 J. Hasegawa, M. Ishida, T. Nakajima, Y. Honda, O. Kitao, H. Nakai, 
 T. Vreven, K. Throssell, J. A. Montgomery, Jr., J. E. Peralta, 
 F. Ogliaro, M. J. Bearpark, J. J. Heyd, E. N. Brothers, K. N. Kudin, 
 V. N. Staroverov, T. A. Keith, R. Kobayashi, J. Normand, 
 K. Raghavachari, A. P. Rendell, J. C. Burant, S. S. Iyengar, 
 J. Tomasi, M. Cossi, J. M. Millam, M. Klene, C. Adamo, R. Cammi, 
 J. W. Ochterski, R. L. Martin, K. Morokuma, O. Farkas, 
 J. B. Foresman, and D. J. Fox, Gaussian, Inc., Wallingford CT, 2016.
 
 ******************************************
 Gaussian 16:  ES64L-G16RevB.01 20-Dec-2017
                 2-Nov-2021 
 ******************************************
 %NProcShared=52
 Will use up to   52 processors via shared memory.
 %mem=18GB
 %chk=RSS-C3-Tunephos_1_SPE_NoPd.chk
 ----------------------------------------------------------------------
 # PBE1PBE/def2TZVP int=(grid=ultrafine) empiricaldispersion=GD3BJ nmr=
 giao
 ----------------------------------------------------------------------
 1/38=1,172=1/1;
 2/12=2,17=6,18=5,40=1/2;
 3/5=44,7=101,11=2,25=1,30=1,74=-13,75=-5,124=41/1,2,3,8;
 4//1;
 5/5=2,38=5/2;
 8/6=1,10=90,11=11/1;
 10/13=100,45=16/2;
 6/7=2,8=2,9=2,10=2,28=1/1;
 99/9=1/99;
 -----
 title
 -----
 Symbolic Z-matrix:
 Charge =  0 Multiplicity = 1
 P                     1.56857  -0.84388   0.03121 
 P                    -1.75533  -0.37367  -0.04161 
 O                    -0.32638   3.91723  -0.99956 
 O                     1.36713   3.61828   1.26688 
 C                     3.03128  -1.66538  -0.71643 
 C                     2.83886  -2.58688  -1.76443 
 C                     3.94574  -3.1466   -2.41281 
 C                     5.24597  -2.80566  -2.01013 
 C                     5.43812  -1.89947  -0.95852 
 C                     4.33444  -1.3247   -0.31296 
 C                     2.10607  -0.29481   1.69059 
 C                     2.805     0.9111    1.88877 
 C                     3.20247   1.28088   3.17987 
 C                     2.91485   0.44687   4.27 
 C                     2.22823  -0.76048   4.06994 
 C                     1.81859  -1.13512   2.78409 
 C                     1.41018   0.68795  -0.9986 
 C                     2.06602   0.7375   -2.24562 
 C                     1.93427   1.85726  -3.07339 
 C                     1.15949   2.95002  -2.67283 
 C                     0.50754   2.90963  -1.43343 
 C                     0.60616   1.77778  -0.58712 
 C                    -0.11071   1.84028   0.7187 
 C                     0.28187   2.8544    1.62455 
 C                    -0.36284   3.02224   2.85741 
 C                    -1.42154   2.17478   3.19642 
 C                    -1.83628   1.17196   2.31287 
 C                    -1.19409   0.99832   1.06988 
 C                    -3.39437  -0.80392   0.66678 
 C                    -3.4685   -1.79451   1.66575 
 C                    -4.69163  -2.06599   2.28938 
 C                    -5.84748  -1.36671   1.90976 
 C                    -5.77738  -0.39123   0.90607 
 C                    -4.55314  -0.10445   0.2861 
 C                    -2.10427   0.39643  -1.66311 
 C                    -2.03171  -0.42091  -2.80798 
 C                    -2.31133   0.12596  -4.0667 
 C                    -2.65727   1.48039  -4.18836 
 C                    -2.73201   2.29188  -3.047 
 C                    -2.46074   1.75318  -1.783 
 C                     1.21971   5.06382   1.25936 
 H                     1.82295  -2.87829  -2.0482 
 H                     6.10992  -3.25547  -2.51024 
 H                     4.488    -0.62182   0.51153 
 H                     3.00149   1.57917   1.0449 
 H                     3.22307   0.74004   5.27911 
 H                     1.28891  -2.07885   2.60933 
 H                     2.6859   -0.10152  -2.56812 
 H                     2.44008   1.87595  -4.04397 
 H                     1.04212   3.81794  -3.32788 
 H                    -0.01358   3.7948    3.54951 
 H                    -1.92531   2.28908   4.16145 
 H                    -2.66975   0.52267   2.58868 
 H                    -2.57198  -2.36359   1.93023 
 H                    -6.80567  -1.59065   2.38993 
 H                    -4.50341   0.65377  -0.50127 
 H                    -1.77035  -1.47935  -2.69405 
 H                    -2.86586   1.90508  -5.17596 
 H                    -2.487     2.39576  -0.89777 
 C                     2.30334   5.64917   2.16221 
 H                     0.21946   5.31542   1.65795 
 C                     1.35841   5.53398  -0.19863 
 C                     0.13266   5.28583  -1.09859 
 H                     0.42394   5.50472  -2.14512 
 C                    -1.08294   6.13705  -0.74343 
 H                     2.23845   5.01872  -0.62493 
 H                     1.58003   6.61723  -0.22063 
 H                     2.23433   6.74959   2.19822 
 H                     2.20555   5.25653   3.18777 
 H                     3.30347   5.37506   1.78436 
 H                    -0.8406    7.20921  -0.82718 
 H                    -1.91531   5.90993  -1.42906 
 H                    -1.42544   5.93039   0.28418 
 H                     6.45087  -1.64063  -0.63239 
 H                     3.72497   2.23124   3.3318 
 H                     2.00458  -1.4133    4.91984 
 H                     3.78997  -3.86755  -3.22158 
 H                    -2.25432  -0.50914  -4.95659 
 H                    -2.99003   3.35239  -3.13795 
 H                    -6.67937   0.14738   0.59733 
 H                    -4.7443   -2.84167   3.05989 
 
 Stoichiometry    C41H36O2P2
 Framework group  C1[X(C41H36O2P2)]
 Deg. of freedom   237
 Full point group                 C1      NOp   1
 Largest Abelian subgroup         C1      NOp   1
 Largest concise Abelian subgroup C1      NOp   1
                         Standard orientation:                         
 ---------------------------------------------------------------------
 Center     Atomic      Atomic             Coordinates (Angstroms)
 Number     Number       Type             X           Y           Z
 ---------------------------------------------------------------------
      1         15           0        1.678268   -1.604198    0.129532
      2         15           0       -1.678553   -1.606401    0.048842
      3          8           0       -0.855437    2.732549   -1.317693
      4          8           0        0.857936    2.882966    0.948540
      5          6           0        3.242371   -2.281906   -0.554310
      6          6           0        3.181835   -3.314808   -1.510316
      7          6           0        4.357054   -3.774284   -2.115795
      8          6           0        5.596611   -3.220993   -1.760302
      9          6           0        5.658988   -2.202900   -0.799276
     10          6           0        4.484857   -1.728400   -0.198037
     11          6           0        2.130724   -0.833867    1.725080
     12          6           0        2.655442    0.470184    1.803235
     13          6           0        2.994900    1.010063    3.050219
     14          6           0        2.823053    0.249620    4.215927
     15          6           0        2.310721   -1.054325    4.135911
     16          6           0        1.959874   -1.600186    2.894732
     17          6           0        1.311613   -0.211669   -1.036031
     18          6           0        1.957137   -0.188495   -2.289186
     19          6           0        1.673487    0.820246   -3.215692
     20          6           0        0.753904    1.828070   -2.909873
     21          6           0        0.110987    1.813760   -1.665191
     22          6           0        0.363461    0.790254   -0.718759
     23          6           0       -0.358151    0.874613    0.583214
     24          6           0       -0.111889    2.013224    1.386974
     25          6           0       -0.776466    2.204628    2.605778
     26          6           0       -1.708375    1.254405    3.033098
     27          6           0       -1.978196    0.125954    2.250723
     28          6           0       -1.315294   -0.072459    1.022402
     29          6           0       -3.243834   -2.190947    0.811446
     30          6           0       -3.182355   -3.084799    1.898630
     31          6           0       -4.357527   -3.463261    2.557718
     32          6           0       -5.598212   -2.968780    2.127264
     33          6           0       -5.661574   -2.090828    1.036833
     34          6           0       -4.487431   -1.696783    0.379964
     35          6           0       -2.127047   -1.046428   -1.633228
     36          6           0       -1.939356   -1.949058   -2.698153
     37          6           0       -2.289128   -1.565801   -3.999076
     38          6           0       -2.819034   -0.289421   -4.242016
     39          6           0       -3.008065    0.606812   -3.180019
     40          6           0       -2.667717    0.230951   -1.874500
     41          6           0        0.511754    4.287231    0.808700
     42          1           0        2.216730   -3.768896   -1.755044
     43          1           0        6.515677   -3.591828   -2.225750
     44          1           0        4.537693   -0.937278    0.556103
     45          1           0        2.759456    1.077382    0.899053
     46          1           0        3.085383    0.675335    5.190201
     47          1           0        1.566412   -2.620162    2.813808
     48          1           0        2.687984   -0.960241   -2.539144
     49          1           0        2.174059    0.818043   -4.189157
     50          1           0        0.518972    2.606579   -3.641233
     51          1           0       -0.539164    3.079143    3.219566
     52          1           0       -2.225337    1.387507    3.988695
     53          1           0       -2.714343   -0.603656    2.594353
     54          1           0       -2.216263   -3.497450    2.205146
     55          1           0       -6.517252   -3.277153    2.636293
     56          1           0       -4.541375   -1.015695   -0.474753
     57          1           0       -1.534189   -2.945978   -2.489443
     58          1           0       -3.082158    0.008453   -5.262438
     59          1           0       -2.784751    0.943449   -1.052382
     60          6           0        1.501790    5.098224    1.641844
     61          1           0       -0.514624    4.434341    1.192887
     62          6           0        0.587354    4.634044   -0.687973
     63          6           0       -0.590148    4.136183   -1.547972
     64          1           0       -0.329579    4.294667   -2.613323
     65          6           0       -1.912729    4.840731   -1.260291
     66          1           0        1.531250    4.207783   -1.074043
     67          1           0        0.656859    5.730711   -0.812598
     68          1           0        1.280958    6.177090    1.576484
     69          1           0        1.456966    4.793182    2.700358
     70          1           0        2.531112    4.930843    1.280390
     71          1           0       -1.821022    5.923563   -1.445588
     72          1           0       -2.704049    4.437912   -1.913031
     73          1           0       -2.225674    4.685464   -0.214366
     74          1           0        6.625373   -1.777406   -0.509334
     75          1           0        3.380394    2.033458    3.107879
     76          1           0        2.177690   -1.649669    5.044973
     77          1           0        4.304502   -4.582068   -2.852590
     78          1           0       -2.142663   -2.267109   -4.826856
     79          1           0       -3.410270    1.608377   -3.366083
     80          1           0       -6.628754   -1.713098    0.689130
     81          1           0       -4.304031   -4.163532    3.397297
 ---------------------------------------------------------------------
 Rotational constants (GHZ):           0.0795595           0.0671617           0.0606999
 Standard basis: def2TZVP (5D, 7F)
 There are  1848 symmetry adapted cartesian basis functions of A   symmetry.
 There are  1623 symmetry adapted basis functions of A   symmetry.
  1623 basis functions,  2619 primitive gaussians,  1848 cartesian basis functions
   164 alpha electrons      164 beta electrons
       nuclear repulsion energy      6110.5674376623 Hartrees.
 NAtoms=   81 NActive=   81 NUniq=   81 SFac= 1.00D+00 NAtFMM=   60 NAOKFM=T Big=T
 Integral buffers will be    131072 words long.
 Raffenetti 2 integral format.
 Two-electron integral symmetry is turned on.
 Nuclear repulsion after empirical dispersion term =     6110.4341928279 Hartrees.
 One-electron integrals computed using PRISM.
   1 Symmetry operations used in ECPInt.
 ECPInt:  NShTT=  207046 NPrTT=  640141 LenC2=  162986 LenP2D=  331065.
 LDataN:  DoStor=T MaxTD1= 6 Len=  172
 Number of processors reduced to  23 by ecpmxn.
 NBasis=  1623 RedAO= T EigKep=  3.58D-06  NBF=  1623
 NBsUse=  1623 1.00D-06 EigRej= -1.00D+00 NBFU=  1623
 ExpMin= 9.04D-02 ExpMax= 5.24D+04 ExpMxC= 1.79D+03 IAcc=3 IRadAn=         5 AccDes= 0.00D+00
 Harris functional with IExCor= 1009 and IRadAn=       5 diagonalized for initial guess.
 HarFok:  IExCor= 1009 AccDes= 0.00D+00 IRadAn=         5 IDoV= 1 UseB2=F ITyADJ=14
 ICtDFT=  3500011 ScaDFX=  1.000000  1.000000  1.000000  1.000000
 FoFCou: FMM=F IPFlag=           0 FMFlag=      100000 FMFlg1=        2001
         NFxFlg=           0 DoJE=T BraDBF=F KetDBF=T FulRan=T
         wScrn=  0.000000 ICntrl=       500 IOpCl=  0 I1Cent=   200000004 NGrid=           0
         NMat0=    1 NMatS0=      1 NMatT0=    0 NMatD0=    1 NMtDS0=    0 NMtDT0=    0
 Petite list used in FoFCou.
 Requested convergence on RMS density matrix=1.00D-08 within 128 cycles.
 Requested convergence on MAX density matrix=1.00D-06.
 Requested convergence on             energy=1.00D-06.
 No special actions if energy rises.
 Integral accuracy reduced to 1.0D-05 until final iterations.
 Problem detected with inexpensive integrals.
 Switching to full accuracy and repeating last cycle.
 SCF Done:  E(RPBE1PBE) =  -2415.61899095     A.U. after   15 cycles
            NFock= 15  Conv=0.40D-08     -V/T= 2.0048
 DoSCS=F DFT=T ScalE2(SS,OS)=  1.000000  1.000000
 Range of M.O.s used for correlation:     1  1623
 NBasis=  1623 NAE=   164 NBE=   164 NFC=     0 NFV=     0
 NROrb=   1623 NOA=   164 NOB=   164 NVA=  1459 NVB=  1459

 **** Warning!!: The largest alpha MO coefficient is  0.59432305D+02

          Differentiating once with respect to magnetic field using GIAOs.
          Electric field/nuclear overlap derivatives assumed to be zero.
 FoFCou: FMM=F IPFlag=           0 FMFlag=      100000 FMFlg1=        2001
         NFxFlg=           0 DoJE=F BraDBF=F KetDBF=T FulRan=T
         wScrn=  0.000000 ICntrl=      6100 IOpCl=  0 I1Cent=           7 NGrid=          81
         NMat0=    1 NMatS0=      1 NMatT0=    0 NMatD0=    1 NMtDS0=    0 NMtDT0=    0
 Symmetry not used in FoFCou.
   1 Symmetry operations used in ECPInt.
 ECPInt:  NShTT=  207046 NPrTT=  640141 LenC2=  207047 LenP2D=  640141.
 LDataN:  DoStor=T MaxTD1= 7 Len=  274
 Number of processors reduced to  15 by ecpmxn.
 FoFJK:  IHMeth= 1 ICntrl=    6127 DoSepK=F KAlg= 0 I1Cent=           0 FoldK=F
 IRaf=         1 NMat=       1 IRICut=       1 DoRegI=T DoRafI=F ISym2E= 0 IDoP0=0 IntGTp=1.
          There are     3 degrees of freedom in the 1st order CPHF.  IDoFFX=0 NUNeed=     3.
      3 vectors produced by pass  0 Test12= 7.98D-12 3.33D-08 XBig12= 1.90D+02 1.77D+00.
 AX will form     3 AO Fock derivatives at one time.
      3 vectors produced by pass  1 Test12= 7.98D-12 3.33D-08 XBig12= 7.86D-01 1.71D-01.
      3 vectors produced by pass  2 Test12= 7.98D-12 3.33D-08 XBig12= 3.53D-03 9.98D-03.
      3 vectors produced by pass  3 Test12= 7.98D-12 3.33D-08 XBig12= 1.05D-05 8.81D-04.
      3 vectors produced by pass  4 Test12= 7.98D-12 3.33D-08 XBig12= 6.17D-08 7.89D-05.
      3 vectors produced by pass  5 Test12= 7.98D-12 3.33D-08 XBig12= 3.40D-10 4.66D-06.
      3 vectors produced by pass  6 Test12= 7.98D-12 3.33D-08 XBig12= 1.89D-12 3.98D-07.
      1 vectors produced by pass  7 Test12= 7.98D-12 3.33D-08 XBig12= 1.46D-13 4.24D-08.
 InvSVY:  IOpt=1 It=  1 EMax= 3.55D-15
 Solved reduced A of dimension    22 with     3 vectors.
 Calculating GIAO nuclear magnetic shielding tensors.
 SCF GIAO Magnetic shielding tensor (ppm):
      1  P    Isotropic =   291.7083   Anisotropy =    50.6016
   XX=   281.4647   YX=    38.3687   ZX=    -3.0204
   XY=     3.4962   YY=   308.4744   ZY=   -23.9185
   XZ=    20.2450   YZ=   -17.1546   ZZ=   285.1858
   Eigenvalues:   257.6693   292.0128   325.4427
      2  P    Isotropic =   292.7923   Anisotropy =    49.3093
   XX=   281.5246   YX=   -39.1197   ZX=     2.6569
   XY=    -1.1873   YY=   313.6714   ZY=    19.4994
   XZ=    18.9305   YZ=    11.4521   ZZ=   283.1808
   Eigenvalues:   259.6424   293.0693   325.6652
      3  O    Isotropic =   192.7483   Anisotropy =    98.9965
   XX=   235.5052   YX=    46.9768   ZX=    -0.8961
   XY=     9.2138   YY=   188.6509   ZY=    31.2294
   XZ=    13.1287   YZ=    76.0198   ZZ=   154.0889
   Eigenvalues:   113.8657   205.6333   258.7460
      4  O    Isotropic =   193.0826   Anisotropy =   111.4466
   XX=   239.2122   YX=   -50.7541   ZX=    19.2511
   XY=   -19.2347   YY=   178.2756   ZY=   -23.4461
   XZ=    17.1198   YZ=   -62.2689   ZZ=   161.7601
   Eigenvalues:   125.6663   186.2012   267.3803
      5  C    Isotropic =    39.9519   Anisotropy =   205.6370
   XX=   -35.1500   YX=     6.2671   ZX=    24.8233
   XY=     2.9064   YY=    72.0820   ZY=   -91.1466
   XZ=    32.6762   YZ=  -104.6327   ZZ=    82.9238
   Eigenvalues:   -52.9670    -4.2205   177.0433
      6  C    Isotropic =    43.3578   Anisotropy =   183.7582
   XX=   -44.1111   YX=   -46.9899   ZX=    -9.3155
   XY=   -46.6438   YY=    69.9655   ZY=   -83.2141
   XZ=   -22.9191   YZ=   -67.6719   ZZ=   104.2192
   Eigenvalues:   -71.9226    36.1328   165.8633
      7  C    Isotropic =    52.7736   Anisotropy =   182.9570
   XX=    43.0167   YX=   -12.9596   ZX=     7.3674
   XY=   -13.1105   YY=    49.0042   ZY=  -115.9525
   XZ=     6.7090   YZ=  -114.5967   ZZ=    66.2997
   Eigenvalues:   -58.1732    41.7489   174.7449
      8  C    Isotropic =    51.9464   Anisotropy =   186.4476
   XX=   -27.6456   YX=    17.3754   ZX=    43.0922
   XY=    16.2578   YY=    92.9181   ZY=   -80.8623
   XZ=    46.3223   YZ=   -84.2107   ZZ=    90.5668
   Eigenvalues:   -57.7295    37.3239   176.2448
      9  C    Isotropic =    50.6093   Anisotropy =   185.6859
   XX=   -36.8213   YX=   -46.8008   ZX=   -15.5523
   XY=   -45.7982   YY=    83.8386   ZY=   -80.4502
   XZ=   -12.5121   YZ=   -74.3069   ZZ=   104.8106
   Eigenvalues:   -63.0347    40.4628   174.3999
     10  C    Isotropic =    43.2805   Anisotropy =   196.5210
   XX=    24.0365   YX=   -19.0518   ZX=     2.7674
   XY=    -6.1640   YY=    39.6152   ZY=  -128.0980
   XZ=    -2.1223   YZ=  -112.2227   ZZ=    66.1898
   Eigenvalues:   -68.8995    24.4465   174.2945
     11  C    Isotropic =    42.5069   Anisotropy =   204.2685
   XX=   149.8237   YX=   -67.5747   ZX=   -26.4693
   XY=   -63.9638   YY=    20.6373   ZY=   -11.7540
   XZ=   -20.4210   YZ=   -13.6906   ZZ=   -42.9404
   Eigenvalues:   -53.4535     2.2882   178.6859
     12  C    Isotropic =    41.4281   Anisotropy =   201.9001
   XX=   155.1284   YX=   -57.9564   ZX=     8.5912
   XY=   -57.1501   YY=     8.1261   ZY=    52.6562
   XZ=    -3.8941   YZ=    50.1985   ZZ=   -38.9701
   Eigenvalues:   -77.1078    25.3640   176.0282
     13  C    Isotropic =    51.5165   Anisotropy =   187.9507
   XX=   145.6094   YX=   -79.4104   ZX=    -7.5458
   XY=   -79.6593   YY=   -30.8100   ZY=    -0.1694
   XZ=   -12.7829   YZ=    -0.3005   ZZ=    39.7501
   Eigenvalues:   -61.5202    39.2527   176.8170
     14  C    Isotropic =    51.6216   Anisotropy =   188.6775
   XX=   152.2306   YX=   -55.7884   ZX=   -36.9367
   XY=   -56.2695   YY=    39.6425   ZY=   -28.3028
   XZ=   -31.2119   YZ=   -29.5532   ZZ=   -37.0083
   Eigenvalues:   -59.5534    37.0116   177.4066
     15  C    Isotropic =    52.5766   Anisotropy =   185.5798
   XX=   156.2109   YX=   -51.8407   ZX=    -1.5464
   XY=   -52.7246   YY=    26.9511   ZY=    49.2423
   XZ=    -0.5221   YZ=    48.7742   ZZ=   -25.4323
   Eigenvalues:   -58.2472    39.6805   176.2964
     16  C    Isotropic =    44.0515   Anisotropy =   185.9354
   XX=   134.5388   YX=   -86.4547   ZX=     3.6178
   XY=   -78.9204   YY=   -36.7808   ZY=    -8.4592
   XZ=   -12.0619   YZ=     4.0289   ZZ=    34.3963
   Eigenvalues:   -70.3053    34.4513   168.0084
     17  C    Isotropic =    36.4835   Anisotropy =   191.2367
   XX=    80.6752   YX=    77.9134   ZX=    32.6187
   XY=    81.8789   YY=    33.5700   ZY=    57.4467
   XZ=    43.3630   YZ=    50.1586   ZZ=    -4.7947
   Eigenvalues:   -46.3295    -8.1946   163.9747
     18  C    Isotropic =    54.0541   Anisotropy =   183.0041
   XX=    67.8626   YX=   104.7894   ZX=    53.5336
   XY=    93.6901   YY=    43.5831   ZY=    14.9615
   XZ=    59.5490   YZ=     7.3364   ZZ=    50.7167
   Eigenvalues:   -53.4442    39.5497   176.0568
     19  C    Isotropic =    52.7509   Anisotropy =   181.5997
   XX=    92.5156   YX=    58.9112   ZX=    73.3265
   XY=    51.7804   YY=    85.1591   ZY=    26.8424
   XZ=    79.1638   YZ=    26.9114   ZZ=   -19.4219
   Eigenvalues:   -58.0441    42.4795   173.8174
     20  C    Isotropic =    67.2934   Anisotropy =   168.6060
   XX=   109.1498   YX=    77.9938   ZX=    25.0174
   XY=    62.6169   YY=    52.0349   ZY=    59.4837
   XZ=    22.7035   YZ=    66.6426   ZZ=    40.6955
   Eigenvalues:   -25.7766    47.9593   179.6974
     21  C    Isotropic =    22.4981   Anisotropy =   140.5842
   XX=    29.4988   YX=    86.3387   ZX=    42.6775
   XY=    78.9331   YY=     1.9153   ZY=    12.3359
   XZ=    31.7555   YZ=    12.2805   ZZ=    36.0803
   Eigenvalues:   -70.2528    21.5262   116.2210
     22  C    Isotropic =    46.2411   Anisotropy =   162.6973
   XX=    82.8553   YX=    48.3056   ZX=    68.4618
   XY=    59.6011   YY=    63.8216   ZY=    11.7340
   XZ=    64.5727   YZ=    31.0776   ZZ=    -7.9537
   Eigenvalues:   -43.5387    27.5560   154.7060
     23  C    Isotropic =    46.3717   Anisotropy =   163.5799
   XX=    82.1087   YX=   -39.4156   ZX=    76.5750
   XY=   -50.3635   YY=    57.2169   ZY=   -19.8793
   XZ=    72.9615   YZ=   -38.4233   ZZ=    -0.2106
   Eigenvalues:   -44.4596    28.1497   155.4249
     24  C    Isotropic =    18.4950   Anisotropy =   142.9353
   XX=    29.6413   YX=   -82.8156   ZX=    45.2936
   XY=   -74.6643   YY=    -0.3238   ZY=    -8.3328
   XZ=    42.8210   YZ=   -11.3777   ZZ=    26.1676
   Eigenvalues:   -70.3401    12.0399   113.7852
     25  C    Isotropic =    64.8233   Anisotropy =   156.5827
   XX=   108.9558   YX=   -65.5663   ZX=    23.8611
   XY=   -55.5397   YY=    33.0498   ZY=   -56.8594
   XZ=    33.5402   YZ=   -61.6693   ZZ=    52.4641
   Eigenvalues:   -24.5857    49.8438   169.2117
     26  C    Isotropic =    52.0881   Anisotropy =   182.3936
   XX=    89.4392   YX=   -47.0612   ZX=    82.8074
   XY=   -38.9191   YY=    74.8537   ZY=   -42.7926
   XZ=    87.4308   YZ=   -41.9077   ZZ=    -8.0286
   Eigenvalues:   -59.3211    41.9016   173.6839
     27  C    Isotropic =    53.5604   Anisotropy =   184.1513
   XX=    63.3061   YX=   -97.9430   ZX=    70.1111
   XY=   -83.8559   YY=    40.8480   ZY=   -15.5017
   XZ=    71.2280   YZ=    -8.1735   ZZ=    56.5272
   Eigenvalues:   -55.0019    39.3552   176.3280
     28  C    Isotropic =    37.4970   Anisotropy =   190.1087
   XX=    78.5418   YX=   -71.9628   ZX=    44.8248
   XY=   -74.2849   YY=    20.0045   ZY=   -61.3283
   XZ=    54.0306   YZ=   -53.9763   ZZ=    13.9446
   Eigenvalues:   -44.3001    -7.4450   164.2361
     29  C    Isotropic =    40.1033   Anisotropy =   205.7090
   XX=   -35.2017   YX=    -3.8403   ZX=    24.6413
   XY=     0.4613   YY=    98.8546   ZY=    88.9588
   XZ=    31.9313   YZ=   102.8616   ZZ=    56.6570
   Eigenvalues:   -52.8515    -4.0812   177.2426
     30  C    Isotropic =    43.3568   Anisotropy =   183.6963
   XX=   -44.3458   YX=    44.4525   ZX=   -16.1912
   XY=    42.2770   YY=    91.1227   ZY=    85.1568
   XZ=   -29.8299   YZ=    69.3987   ZZ=    83.2934
   Eigenvalues:   -71.8926    36.1419   165.8209
     31  C    Isotropic =    52.7413   Anisotropy =   182.9941
   XX=    42.8179   YX=    13.3852   ZX=     5.0288
   XY=    13.4957   YY=    80.3596   ZY=   114.1248
   XZ=     4.3111   YZ=   112.7574   ZZ=    35.0465
   Eigenvalues:   -58.2190    41.7055   174.7374
     32  C    Isotropic =    51.9474   Anisotropy =   186.3044
   XX=   -27.7853   YX=   -12.2257   ZX=    44.4312
   XY=   -10.6454   YY=   114.9956   ZY=    77.5360
   XZ=    47.5319   YZ=    80.9692   ZZ=    68.6320
   Eigenvalues:   -57.7109    37.4029   176.1504
     33  C    Isotropic =    50.6723   Anisotropy =   185.8486
   XX=   -37.1464   YX=    43.3812   ZX=   -22.4742
   XY=    42.7950   YY=   105.6161   ZY=    80.4530
   XZ=   -19.2986   YZ=    74.3957   ZZ=    83.5472
   Eigenvalues:   -63.0457    40.4912   174.5713
     34  C    Isotropic =    43.4835   Anisotropy =   196.4751
   XX=    24.2014   YX=    18.6925   ZX=    -0.5294
   XY=     5.3351   YY=    72.5581   ZY=   127.3794
   XZ=    -3.4794   YZ=   111.3390   ZZ=    33.6910
   Eigenvalues:   -68.7414    24.7250   174.4669
     35  C    Isotropic =    42.2754   Anisotropy =   204.4708
   XX=   148.2891   YX=    65.6133   ZX=   -33.6235
   XY=    62.7016   YY=    23.9798   ZY=     3.1810
   XZ=   -27.3212   YZ=     5.3910   ZZ=   -45.4428
   Eigenvalues:   -53.4691     1.7060   178.5892
     36  C    Isotropic =    43.8961   Anisotropy =   186.0048
   XX=   132.4829   YX=    88.1710   ZX=    -7.1023
   XY=    79.1145   YY=   -33.4350   ZY=    17.3538
   XZ=   -21.2037   YZ=     5.1389   ZZ=    32.6403
   Eigenvalues:   -70.7127    34.5016   167.8993
     37  C    Isotropic =    52.5648   Anisotropy =   185.7772
   XX=   154.9706   YX=    53.2257   ZX=    -6.6303
   XY=    54.5560   YY=    15.4720   ZY=   -54.0539
   XZ=    -5.5791   YZ=   -53.5901   ZZ=   -12.7483
   Eigenvalues:   -58.3326    39.6106   176.4163
     38  C    Isotropic =    51.6697   Anisotropy =   188.9873
   XX=   151.2511   YX=    52.2520   ZX=   -43.2264
   XY=    53.4729   YY=    47.0802   ZY=    17.4329
   XZ=   -37.5929   YZ=    18.7573   ZZ=   -43.3223
   Eigenvalues:   -59.5953    36.9431   177.6612
     39  C    Isotropic =    52.0371   Anisotropy =   187.0208
   XX=   143.3885   YX=    80.1770   ZX=   -17.4158
   XY=    79.7261   YY=   -27.0787   ZY=     8.8060
   XZ=   -22.3382   YZ=     9.0623   ZZ=    39.8016
   Eigenvalues:   -61.1488    40.5425   176.7177
     40  C    Isotropic =    41.1810   Anisotropy =   201.2982
   XX=   152.9010   YX=    61.0691   ZX=     2.9912
   XY=    58.3948   YY=    -3.7950   ZY=   -56.7098
   XZ=    -9.2865   YZ=   -54.6340   ZZ=   -25.5629
   Eigenvalues:   -77.3933    25.5565   175.3798
     41  C    Isotropic =   103.8299   Anisotropy =    86.8307
   XX=    74.3015   YX=   -15.9468   ZX=    -0.6524
   XY=   -15.8886   YY=   158.0880   ZY=    -5.0414
   XZ=     2.3995   YZ=   -10.1770   ZZ=    79.1001
   Eigenvalues:    71.3421    78.4305   161.7170
     42  H    Isotropic =    23.1844   Anisotropy =    10.1000
   XX=    22.0798   YX=    -3.1434   ZX=    -3.0425
   XY=    -2.6330   YY=    25.5828   ZY=     4.2004
   XZ=    -3.0832   YZ=     2.9951   ZZ=    21.8906
   Eigenvalues:    18.8243    20.8112    29.9177
     43  H    Isotropic =    23.8697   Anisotropy =     3.7821
   XX=    25.1540   YX=     0.4819   ZX=     0.0750
   XY=     0.8065   YY=    23.6382   ZY=     2.8781
   XZ=     0.7189   YZ=     2.4817   ZZ=    22.8168
   Eigenvalues:    20.5133    24.7047    26.3911
     44  H    Isotropic =    23.9889   Anisotropy =    14.6348
   XX=    32.1504   YX=    -2.4692   ZX=    -5.3887
   XY=    -2.7350   YY=    19.1035   ZY=     3.4003
   XZ=    -1.4119   YZ=     1.0144   ZZ=    20.7127
   Eigenvalues:    17.5556    20.6656    33.7454
     45  H    Isotropic =    23.6235   Anisotropy =     9.6899
   XX=    24.5737   YX=    -0.6108   ZX=     4.9709
   XY=    -0.1773   YY=    24.8464   ZY=     6.9000
   XZ=     4.5119   YZ=     3.5177   ZZ=    21.4504
   Eigenvalues:    15.6998    25.0872    30.0834
     46  H    Isotropic =    24.0951   Anisotropy =     4.0796
   XX=    22.1558   YX=     1.4728   ZX=     1.1475
   XY=     1.3528   YY=    24.9894   ZY=    -1.9393
   XZ=     0.9412   YZ=    -1.5315   ZZ=    25.1402
   Eigenvalues:    20.8977    24.5728    26.8149
     47  H    Isotropic =    23.6182   Anisotropy =     8.3152
   XX=    21.4060   YX=    -1.2177   ZX=     0.4091
   XY=     0.2823   YY=    20.7800   ZY=    -1.7097
   XZ=     0.2712   YZ=    -2.2464   ZZ=    28.6686
   Eigenvalues:    20.1927    21.5002    29.1616
     48  H    Isotropic =    25.2709   Anisotropy =    12.5595
   XX=    22.2518   YX=    -2.6673   ZX=    -0.3763
   XY=    -4.7726   YY=    25.8322   ZY=    -4.9241
   XZ=     3.2112   YZ=    -6.4560   ZZ=    27.7287
   Eigenvalues:    19.2460    22.9229    33.6439
     49  H    Isotropic =    24.6300   Anisotropy =     4.7627
   XX=    24.0395   YX=    -2.1315   ZX=    -1.0314
   XY=    -2.5711   YY=    25.7138   ZY=    -2.0349
   XZ=    -0.6042   YZ=    -1.9360   ZZ=    24.1365
   Eigenvalues:    21.1818    24.9030    27.8051
     50  H    Isotropic =    24.8748   Anisotropy =     6.7372
   XX=    23.7150   YX=    -0.1177   ZX=    -3.7638
   XY=    -2.1787   YY=    24.6266   ZY=     1.8050
   XZ=    -3.2120   YZ=     0.8737   ZZ=    26.2827
   Eigenvalues:    21.2717    23.9864    29.3662
     51  H    Isotropic =    24.9921   Anisotropy =     6.4000
   XX=    23.9985   YX=    -0.2328   ZX=    -2.9103
   XY=     1.9569   YY=    24.2329   ZY=    -1.6557
   XZ=    -3.6116   YZ=    -0.3771   ZZ=    26.7449
   Eigenvalues:    21.8221    23.8954    29.2588
     52  H    Isotropic =    24.6016   Anisotropy =     4.9195
   XX=    24.1553   YX=     2.0539   ZX=    -1.3883
   XY=     2.5342   YY=    26.2060   ZY=     1.6838
   XZ=    -0.8114   YZ=     1.7502   ZZ=    23.4436
   Eigenvalues:    21.1151    24.8085    27.8813
     53  H    Isotropic =    25.2701   Anisotropy =    12.6195
   XX=    22.0529   YX=     2.3954   ZX=    -0.6829
   XY=     5.1788   YY=    27.5399   ZY=     4.9531
   XZ=     2.3908   YZ=     6.5487   ZZ=    26.2176
   Eigenvalues:    19.2580    22.8692    33.6831
     54  H    Isotropic =    23.2010   Anisotropy =    10.1291
   XX=    22.1169   YX=     2.7072   ZX=    -3.4302
   XY=     2.1940   YY=    24.6029   ZY=    -4.5792
   XZ=    -3.4213   YZ=    -3.3875   ZZ=    22.8832
   Eigenvalues:    18.8097    20.8396    29.9537
     55  H    Isotropic =    23.8795   Anisotropy =     3.7676
   XX=    25.1646   YX=    -0.4485   ZX=     0.1539
   XY=    -0.6862   YY=    22.9071   ZY=    -2.8777
   XZ=     0.8229   YZ=    -2.4922   ZZ=    23.5668
   Eigenvalues:    20.5295    24.7178    26.3912
     56  H    Isotropic =    23.9847   Anisotropy =    14.6528
   XX=    32.1479   YX=     1.8294   ZX=    -5.6316
   XY=     2.6148   YY=    18.5959   ZY=    -3.1688
   XZ=    -1.7301   YZ=    -0.7230   ZZ=    21.2103
   Eigenvalues:    17.5539    20.6469    33.7532
     57  H    Isotropic =    23.6088   Anisotropy =     8.2574
   XX=    21.4477   YX=     1.3166   ZX=     0.2386
   XY=    -0.2619   YY=    21.3872   ZY=     2.6556
   XZ=     0.2879   YZ=     3.1602   ZZ=    27.9913
   Eigenvalues:    20.1626    21.5500    29.1137
     58  H    Isotropic =    24.0974   Anisotropy =     3.9761
   XX=    22.2538   YX=    -1.4278   ZX=     1.3224
   XY=    -1.3160   YY=    25.3022   ZY=     1.8788
   XZ=     1.0676   YZ=     1.4891   ZZ=    24.7361
   Eigenvalues:    20.8998    24.6442    26.7481
     59  H    Isotropic =    23.6225   Anisotropy =     9.7762
   XX=    24.5518   YX=     1.1488   ZX=     4.9681
   XY=     0.5697   YY=    23.5005   ZY=    -7.0663
   XZ=     4.4738   YZ=    -3.7046   ZZ=    22.8153
   Eigenvalues:    15.7882    24.9394    30.1400
     60  C    Isotropic =   160.6603   Anisotropy =    38.1312
   XX=   152.1308   YX=    14.0346   ZX=    20.4099
   XY=     9.8465   YY=   168.9478   ZY=     8.6874
   XZ=    13.4723   YZ=     8.8115   ZZ=   160.9023
   Eigenvalues:   138.3470   157.5529   186.0811
     61  H    Isotropic =    27.0348   Anisotropy =     3.4874
   XX=    25.1185   YX=    -1.4144   ZX=     1.7613
   XY=    -1.4215   YY=    28.8838   ZY=     1.2711
   XZ=    -0.1125   YZ=    -0.5947   ZZ=    27.1022
   Eigenvalues:    24.3563    27.3885    29.3597
     62  C    Isotropic =   143.3757   Anisotropy =    33.6947
   XX=   130.8885   YX=     5.0816   ZX=    12.9739
   XY=     3.8213   YY=   139.5057   ZY=    -4.9058
   XZ=    14.5167   YZ=    -7.0906   ZZ=   159.7329
   Eigenvalues:   122.8967   141.3916   165.8389
     63  C    Isotropic =   108.6699   Anisotropy =    63.2539
   XX=    94.0928   YX=     9.6695   ZX=     4.3296
   XY=     6.5239   YY=   148.8980   ZY=    -8.9198
   XZ=     4.1746   YZ=    -6.8600   ZZ=    83.0188
   Eigenvalues:    80.0626    95.1079   150.8391
     64  H    Isotropic =    26.6771   Anisotropy =     5.8628
   XX=    22.9084   YX=    -0.3857   ZX=    -0.6574
   XY=    -0.9845   YY=    27.8129   ZY=    -3.0926
   XZ=    -1.3174   YZ=    -0.6133   ZZ=    29.3099
   Eigenvalues:    22.5704    26.8752    30.5856
     65  C    Isotropic =   165.1193   Anisotropy =    32.2894
   XX=   176.4601   YX=   -13.3387   ZX=     1.4935
   XY=    -9.0920   YY=   174.0443   ZY=     1.3265
   XZ=    -4.2821   YZ=     2.0751   ZZ=   144.8533
   Eigenvalues:   144.7345   163.9778   186.6455
     66  H    Isotropic =    29.1069   Anisotropy =     3.6463
   XX=    29.0004   YX=     2.7052   ZX=    -0.2996
   XY=     1.2383   YY=    29.6589   ZY=     1.1299
   XZ=    -1.5316   YZ=     2.1723   ZZ=    28.6616
   Eigenvalues:    26.0811    29.7019    31.5378
     67  H    Isotropic =    30.2794   Anisotropy =     9.1471
   XX=    26.9708   YX=     2.9230   ZX=     2.7804
   XY=     2.3983   YY=    35.2706   ZY=    -2.1414
   XZ=     1.3145   YZ=    -2.2409   ZZ=    28.5967
   Eigenvalues:    24.4867    29.9740    36.3774
     68  H    Isotropic =    30.4372   Anisotropy =    11.5507
   XX=    25.9546   YX=     1.2431   ZX=     1.4311
   XY=     0.6541   YY=    37.4413   ZY=     2.4629
   XZ=     0.8945   YZ=     2.3735   ZZ=    27.9157
   Eigenvalues:    25.4116    27.7624    38.1377
     69  H    Isotropic =    29.7374   Anisotropy =     8.1306
   XX=    26.0662   YX=     0.9603   ZX=     2.7464
   XY=     1.9740   YY=    28.5393   ZY=     1.3008
   XZ=     0.7297   YZ=     0.5025   ZZ=    34.6065
   Eigenvalues:    25.2212    28.8331    35.1578
     70  H    Isotropic =    29.9727   Anisotropy =     6.1111
   XX=    33.0237   YX=     1.6306   ZX=     0.6035
   XY=     2.2619   YY=    28.8848   ZY=     1.4458
   XZ=     0.9370   YZ=     1.2685   ZZ=    28.0095
   Eigenvalues:    26.9624    28.9089    34.0468
     71  H    Isotropic =    30.6212   Anisotropy =    11.9877
   XX=    27.8673   YX=    -3.1016   ZX=     1.3564
   XY=    -2.6653   YY=    37.2473   ZY=    -2.6097
   XZ=     1.1155   YZ=    -1.9955   ZZ=    26.7491
   Eigenvalues:    25.9301    27.3206    38.6130
     72  H    Isotropic =    29.9403   Anisotropy =     8.5056
   XX=    32.5068   YX=    -0.4004   ZX=     5.4471
   XY=    -0.9966   YY=    28.8295   ZY=     0.1133
   XZ=     3.8632   YZ=     0.0256   ZZ=    28.4846
   Eigenvalues:    25.3679    28.8423    35.6107
     73  H    Isotropic =    30.0089   Anisotropy =     3.3639
   XX=    29.7387   YX=    -2.8858   ZX=    -1.1399
   XY=    -2.7350   YY=    28.5221   ZY=    -0.8486
   XZ=    -0.9983   YZ=    -1.2745   ZZ=    31.7658
   Eigenvalues:    25.8741    31.9011    32.2515
     74  H    Isotropic =    23.9660   Anisotropy =     7.1932
   XX=    25.8747   YX=    -2.1713   ZX=    -2.4932
   XY=    -2.1474   YY=    22.7549   ZY=     3.1101
   XZ=    -1.2762   YZ=     2.7234   ZZ=    23.2685
   Eigenvalues:    20.0606    23.0760    28.7615
     75  H    Isotropic =    24.0146   Anisotropy =     6.8730
   XX=    22.8353   YX=     0.3484   ZX=     2.6718
   XY=    -0.3620   YY=    21.9198   ZY=    -0.1852
   XZ=     2.8177   YZ=     0.1077   ZZ=    27.2887
   Eigenvalues:    21.5274    21.9199    28.5966
     76  H    Isotropic =    24.1115   Anisotropy =     4.8922
   XX=    22.0011   YX=     0.9833   ZX=     2.6196
   XY=     1.5809   YY=    24.5453   ZY=     0.6474
   XZ=     1.7825   YZ=     0.9267   ZZ=    25.7880
   Eigenvalues:    20.7906    24.1709    27.3729
     77  H    Isotropic =    23.7039   Anisotropy =     5.7728
   XX=    26.9940   YX=    -0.8526   ZX=    -1.4353
   XY=    -0.5872   YY=    22.4092   ZY=     1.7448
   XZ=    -1.2361   YZ=     1.4959   ZZ=    21.7086
   Eigenvalues:    20.3442    23.2151    27.5525
     78  H    Isotropic =    24.1109   Anisotropy =     4.9179
   XX=    22.0658   YX=    -0.6758   ZX=     2.7448
   XY=    -1.3766   YY=    24.2915   ZY=    -0.4485
   XZ=     1.9710   YZ=    -0.7135   ZZ=    25.9755
   Eigenvalues:    20.8181    24.1252    27.3895
     79  H    Isotropic =    24.0102   Anisotropy =     7.0741
   XX=    22.8426   YX=    -0.2892   ZX=     2.7153
   XY=     0.4648   YY=    21.8301   ZY=     0.9078
   XZ=     2.7581   YZ=     0.6335   ZZ=    27.3579
   Eigenvalues:    21.3851    21.9192    28.7263
     80  H    Isotropic =    23.9711   Anisotropy =     7.1865
   XX=    25.8716   YX=     1.8424   ZX=    -2.7384
   XY=     2.0091   YY=    22.0021   ZY=    -2.9220
   XZ=    -1.5223   YZ=    -2.5497   ZZ=    24.0395
   Eigenvalues:    20.0712    23.0800    28.7621
     81  H    Isotropic =    23.7091   Anisotropy =     5.7714
   XX=    26.9965   YX=     0.6780   ZX=    -1.5199
   XY=     0.4542   YY=    21.9757   ZY=    -1.7776
   XZ=    -1.2851   YZ=    -1.5417   ZZ=    22.1551
   Eigenvalues:    20.3527    23.2179    27.5567
 End of Minotr F.D. properties file   721 does not exist.
 End of Minotr F.D. properties file   722 does not exist.
 End of Minotr F.D. properties file   788 does not exist.

 **********************************************************************

            Population analysis using the SCF Density.

 **********************************************************************

 Orbital symmetries:
       Occupied  (A) (A) (A) (A) (A) (A) (A) (A) (A) (A) (A) (A)
                 (A) (A) (A) (A) (A) (A) (A) (A) (A) (A) (A) (A)
                 (A) (A) (A) (A) (A) (A) (A) (A) (A) (A) (A) (A)
                 (A) (A) (A) (A) (A) (A) (A) (A) (A) (A) (A) (A)
                 (A) (A) (A) (A) (A) (A) (A) (A) (A) (A) (A) (A)
                 (A) (A) (A) (A) (A) (A) (A) (A) (A) (A) (A) (A)
                 (A) (A) (A) (A) (A) (A) (A) (A) (A) (A) (A) (A)
                 (A) (A) (A) (A) (A) (A) (A) (A) (A) (A) (A) (A)
                 (A) (A) (A) (A) (A) (A) (A) (A) (A) (A) (A) (A)
                 (A) (A) (A) (A) (A) (A) (A) (A) (A) (A) (A) (A)
                 (A) (A) (A) (A) (A) (A) (A) (A) (A) (A) (A) (A)
                 (A) (A) (A) (A) (A) (A) (A) (A) (A) (A) (A) (A)
                 (A) (A) (A) (A) (A) (A) (A) (A) (A) (A) (A) (A)
                 (A) (A) (A) (A) (A) (A) (A) (A)
       Virtual   (A) (A) (A) (A) (A) (A) (A) (A) (A) (A) (A) (A)
                 (A) (A) (A) (A) (A) (A) (A) (A) (A) (A) (A) (A)
                 (A) (A) (A) (A) (A) (A) (A) (A) (A) (A) (A) (A)
                 (A) (A) (A) (A) (A) (A) (A) (A) (A) (A) (A) (A)
                 (A) (A) (A) (A) (A) (A) (A) (A) (A) (A) (A) (A)
                 (A) (A) (A) (A) (A) (A) (A) (A) (A) (A) (A) (A)
                 (A) (A) (A) (A) (A) (A) (A) (A) (A) (A) (A) (A)
                 (A) (A) (A) (A) (A) (A) (A) (A) (A) (A) (A) (A)
                 (A) (A) (A) (A) (A) (A) (A) (A) (A) (A) (A) (A)
                 (A) (A) (A) (A) (A) (A) (A) (A) (A) (A) (A) (A)
                 (A) (A) (A) (A) (A) (A) (A) (A) (A) (A) (A) (A)
                 (A) (A) (A) (A) (A) (A) (A) (A) (A) (A) (A) (A)
                 (A) (A) (A) (A) (A) (A) (A) (A) (A) (A) (A) (A)
                 (A) (A) (A) (A) (A) (A) (A) (A) (A) (A) (A) (A)
                 (A) (A) (A) (A) (A) (A) (A) (A) (A) (A) (A) (A)
                 (A) (A) (A) (A) (A) (A) (A) (A) (A) (A) (A) (A)
                 (A) (A) (A) (A) (A) (A) (A) (A) (A) (A) (A) (A)
                 (A) (A) (A) (A) (A) (A) (A) (A) (A) (A) (A) (A)
                 (A) (A) (A) (A) (A) (A) (A) (A) (A) (A) (A) (A)
                 (A) (A) (A) (A) (A) (A) (A) (A) (A) (A) (A) (A)
                 (A) (A) (A) (A) (A) (A) (A) (A) (A) (A) (A) (A)
                 (A) (A) (A) (A) (A) (A) (A) (A) (A) (A) (A) (A)
                 (A) (A) (A) (A) (A) (A) (A) (A) (A) (A) (A) (A)
                 (A) (A) (A) (A) (A) (A) (A) (A) (A) (A) (A) (A)
                 (A) (A) (A) (A) (A) (A) (A) (A) (A) (A) (A) (A)
                 (A) (A) (A) (A) (A) (A) (A) (A) (A) (A) (A) (A)
                 (A) (A) (A) (A) (A) (A) (A) (A) (A) (A) (A) (A)
                 (A) (A) (A) (A) (A) (A) (A) (A) (A) (A) (A) (A)
                 (A) (A) (A) (A) (A) (A) (A) (A) (A) (A) (A) (A)
                 (A) (A) (A) (A) (A) (A) (A) (A) (A) (A) (A) (A)
                 (A) (A) (A) (A) (A) (A) (A) (A) (A) (A) (A) (A)
                 (A) (A) (A) (A) (A) (A) (A) (A) (A) (A) (A) (A)
                 (A) (A) (A) (A) (A) (A) (A) (A) (A) (A) (A) (A)
                 (A) (A) (A) (A) (A) (A) (A) (A) (A) (A) (A) (A)
                 (A) (A) (A) (A) (A) (A) (A) (A) (A) (A) (A) (A)
                 (A) (A) (A) (A) (A) (A) (A) (A) (A) (A) (A) (A)
                 (A) (A) (A) (A) (A) (A) (A) (A) (A) (A) (A) (A)
                 (A) (A) (A) (A) (A) (A) (A) (A) (A) (A) (A) (A)
                 (A) (A) (A) (A) (A) (A) (A) (A) (A) (A) (A) (A)
                 (A) (A) (A) (A) (A) (A) (A) (A) (A) (A) (A) (A)
                 (A) (A) (A) (A) (A) (A) (A) (A) (A) (A) (A) (A)
                 (A) (A) (A) (A) (A) (A) (A) (A) (A) (A) (A) (A)
                 (A) (A) (A) (A) (A) (A) (A) (A) (A) (A) (A) (A)
                 (A) (A) (A) (A) (A) (A) (A) (A) (A) (A) (A) (A)
                 (A) (A) (A) (A) (A) (A) (A) (A) (A) (A) (A) (A)
                 (A) (A) (A) (A) (A) (A) (A) (A) (A) (A) (A) (A)
                 (A) (A) (A) (A) (A) (A) (A) (A) (A) (A) (A) (A)
                 (A) (A) (A) (A) (A) (A) (A) (A) (A) (A) (A) (A)
                 (A) (A) (A) (A) (A) (A) (A) (A) (A) (A) (A) (A)
                 (A) (A) (A) (A) (A) (A) (A) (A) (A) (A) (A) (A)
                 (A) (A) (A) (A) (A) (A) (A) (A) (A) (A) (A) (A)
                 (A) (A) (A) (A) (A) (A) (A) (A) (A) (A) (A) (A)
                 (A) (A) (A) (A) (A) (A) (A) (A) (A) (A) (A) (A)
                 (A) (A) (A) (A) (A) (A) (A) (A) (A) (A) (A) (A)
                 (A) (A) (A) (A) (A) (A) (A) (A) (A) (A) (A) (A)
                 (A) (A) (A) (A) (A) (A) (A) (A) (A) (A) (A) (A)
                 (A) (A) (A) (A) (A) (A) (A) (A) (A) (A) (A) (A)
                 (A) (A) (A) (A) (A) (A) (A) (A) (A) (A) (A) (A)
                 (A) (A) (A) (A) (A) (A) (A) (A) (A) (A) (A) (A)
                 (A) (A) (A) (A) (A) (A) (A) (A) (A) (A) (A) (A)
                 (A) (A) (A) (A) (A) (A) (A) (A) (A) (A) (A) (A)
                 (A) (A) (A) (A) (A) (A) (A) (A) (A) (A) (A) (A)
                 (A) (A) (A) (A) (A) (A) (A) (A) (A) (A) (A) (A)
                 (A) (A) (A) (A) (A) (A) (A) (A) (A) (A) (A) (A)
                 (A) (A) (A) (A) (A) (A) (A) (A) (A) (A) (A) (A)
                 (A) (A) (A) (A) (A) (A) (A) (A) (A) (A) (A) (A)
                 (A) (A) (A) (A) (A) (A) (A) (A) (A) (A) (A) (A)
                 (A) (A) (A) (A) (A) (A) (A) (A) (A) (A) (A) (A)
                 (A) (A) (A) (A) (A) (A) (A) (A) (A) (A) (A) (A)
                 (A) (A) (A) (A) (A) (A) (A) (A) (A) (A) (A) (A)
                 (A) (A) (A) (A) (A) (A) (A) (A) (A) (A) (A) (A)
                 (A) (A) (A) (A) (A) (A) (A) (A) (A) (A) (A) (A)
                 (A) (A) (A) (A) (A) (A) (A) (A) (A) (A) (A) (A)
                 (A) (A) (A) (A) (A) (A) (A) (A) (A) (A) (A) (A)
                 (A) (A) (A) (A) (A) (A) (A) (A) (A) (A) (A) (A)
                 (A) (A) (A) (A) (A) (A) (A) (A) (A) (A) (A) (A)
                 (A) (A) (A) (A) (A) (A) (A) (A) (A) (A) (A) (A)
                 (A) (A) (A) (A) (A) (A) (A) (A) (A) (A) (A) (A)
                 (A) (A) (A) (A) (A) (A) (A) (A) (A) (A) (A) (A)
                 (A) (A) (A) (A) (A) (A) (A) (A) (A) (A) (A) (A)
                 (A) (A) (A) (A) (A) (A) (A) (A) (A) (A) (A) (A)
                 (A) (A) (A) (A) (A) (A) (A) (A) (A) (A) (A) (A)
                 (A) (A) (A) (A) (A) (A) (A) (A) (A) (A) (A) (A)
                 (A) (A) (A) (A) (A) (A) (A) (A) (A) (A) (A) (A)
                 (A) (A) (A) (A) (A) (A) (A) (A) (A) (A) (A) (A)
                 (A) (A) (A) (A) (A) (A) (A) (A) (A) (A) (A) (A)
                 (A) (A) (A) (A) (A) (A) (A) (A) (A) (A) (A) (A)
                 (A) (A) (A) (A) (A) (A) (A) (A) (A) (A) (A) (A)
                 (A) (A) (A) (A) (A) (A) (A) (A) (A) (A) (A) (A)
                 (A) (A) (A) (A) (A) (A) (A) (A) (A) (A) (A) (A)
                 (A) (A) (A) (A) (A) (A) (A) (A) (A) (A) (A) (A)
                 (A) (A) (A) (A) (A) (A) (A) (A) (A) (A) (A) (A)
                 (A) (A) (A) (A) (A) (A) (A) (A) (A) (A) (A) (A)
                 (A) (A) (A) (A) (A) (A) (A) (A) (A) (A) (A) (A)
                 (A) (A) (A) (A) (A) (A) (A) (A) (A) (A) (A) (A)
                 (A) (A) (A) (A) (A) (A) (A) (A) (A) (A) (A) (A)
                 (A) (A) (A) (A) (A) (A) (A) (A) (A) (A) (A) (A)
                 (A) (A) (A) (A) (A) (A) (A) (A) (A) (A) (A) (A)
                 (A) (A) (A) (A) (A) (A) (A) (A) (A) (A) (A) (A)
                 (A) (A) (A) (A) (A) (A) (A) (A) (A) (A) (A) (A)
                 (A) (A) (A) (A) (A) (A) (A) (A) (A) (A) (A) (A)
                 (A) (A) (A) (A) (A) (A) (A) (A) (A) (A) (A) (A)
                 (A) (A) (A) (A) (A) (A) (A) (A) (A) (A) (A) (A)
                 (A) (A) (A) (A) (A) (A) (A) (A) (A) (A) (A) (A)
                 (A) (A) (A) (A) (A) (A) (A) (A) (A) (A) (A) (A)
                 (A) (A) (A) (A) (A) (A) (A) (A) (A) (A) (A) (A)
                 (A) (A) (A) (A) (A) (A) (A) (A) (A) (A) (A) (A)
                 (A) (A) (A) (A) (A) (A) (A) (A) (A) (A) (A) (A)
                 (A) (A) (A) (A) (A) (A) (A) (A) (A) (A) (A) (A)
                 (A) (A) (A) (A) (A) (A) (A) (A) (A) (A) (A) (A)
                 (A) (A) (A) (A) (A) (A) (A) (A) (A) (A) (A) (A)
                 (A) (A) (A) (A) (A) (A) (A) (A) (A) (A) (A) (A)
                 (A) (A) (A) (A) (A) (A) (A) (A) (A) (A) (A) (A)
                 (A) (A) (A) (A) (A) (A) (A) (A) (A) (A) (A) (A)
                 (A) (A) (A) (A) (A) (A) (A) (A) (A) (A) (A) (A)
                 (A) (A) (A) (A) (A) (A) (A) (A) (A) (A) (A) (A)
                 (A) (A) (A) (A) (A) (A) (A) (A) (A) (A) (A) (A)
                 (A) (A) (A) (A) (A) (A) (A) (A) (A) (A) (A) (A)
                 (A) (A) (A) (A) (A) (A) (A) (A) (A) (A) (A) (A)
                 (A) (A) (A) (A) (A) (A) (A) (A) (A) (A) (A) (A)
                 (A) (A) (A) (A) (A) (A) (A) (A) (A) (A) (A) (A)
                 (A) (A) (A) (A) (A) (A) (A)
 The electronic state is 1-A.
 Alpha  occ. eigenvalues --  -77.19065 -77.19060 -19.22630 -19.22170 -10.29145
 Alpha  occ. eigenvalues --  -10.29005 -10.28104 -10.27950 -10.23757 -10.23735
 Alpha  occ. eigenvalues --  -10.23539 -10.23479 -10.23388 -10.23386 -10.23201
 Alpha  occ. eigenvalues --  -10.23170 -10.23134 -10.23056 -10.23054 -10.23021
 Alpha  occ. eigenvalues --  -10.23017 -10.22946 -10.22943 -10.22827 -10.22824
 Alpha  occ. eigenvalues --  -10.22793 -10.22769 -10.22733 -10.22724 -10.22673
 Alpha  occ. eigenvalues --  -10.22671 -10.22620 -10.22571 -10.22550 -10.22530
 Alpha  occ. eigenvalues --  -10.22509 -10.22447 -10.22409 -10.22351 -10.22342
 Alpha  occ. eigenvalues --  -10.22334 -10.22269 -10.22199 -10.21743 -10.21731
 Alpha  occ. eigenvalues --   -6.58688  -6.58682  -4.72277  -4.72271  -4.72271
 Alpha  occ. eigenvalues --   -4.72266  -4.71826  -4.71819  -1.08631  -1.07314
 Alpha  occ. eigenvalues --   -0.88794  -0.87736  -0.87537  -0.87076  -0.87014
 Alpha  occ. eigenvalues --   -0.86235  -0.83323  -0.79698  -0.79463  -0.78205
 Alpha  occ. eigenvalues --   -0.78015  -0.76515  -0.76513  -0.76180  -0.76118
 Alpha  occ. eigenvalues --   -0.75796  -0.75741  -0.75065  -0.74916  -0.72853
 Alpha  occ. eigenvalues --   -0.71620  -0.66843  -0.65922  -0.64899  -0.63853
 Alpha  occ. eigenvalues --   -0.63132  -0.62041  -0.62005  -0.61597  -0.61500
 Alpha  occ. eigenvalues --   -0.60967  -0.60837  -0.59762  -0.59443  -0.58549
 Alpha  occ. eigenvalues --   -0.56363  -0.55939  -0.54229  -0.53310  -0.52614
 Alpha  occ. eigenvalues --   -0.52562  -0.50960  -0.50747  -0.50370  -0.49564
 Alpha  occ. eigenvalues --   -0.48490  -0.48189  -0.47583  -0.46451  -0.46393
 Alpha  occ. eigenvalues --   -0.46044  -0.45980  -0.45963  -0.45910  -0.45611
 Alpha  occ. eigenvalues --   -0.45352  -0.45180  -0.44490  -0.43999  -0.43523
 Alpha  occ. eigenvalues --   -0.43075  -0.43052  -0.42719  -0.42593  -0.41992
 Alpha  occ. eigenvalues --   -0.41692  -0.41372  -0.41252  -0.41172  -0.40907
 Alpha  occ. eigenvalues --   -0.40066  -0.39309  -0.39036  -0.38586  -0.38328
 Alpha  occ. eigenvalues --   -0.37915  -0.37679  -0.37584  -0.37157  -0.36931
 Alpha  occ. eigenvalues --   -0.36572  -0.36299  -0.36062  -0.35327  -0.35287
 Alpha  occ. eigenvalues --   -0.35208  -0.35004  -0.34696  -0.34177  -0.33781
 Alpha  occ. eigenvalues --   -0.33167  -0.32632  -0.32474  -0.30733  -0.29319
 Alpha  occ. eigenvalues --   -0.28747  -0.27915  -0.26723  -0.26624  -0.26466
 Alpha  occ. eigenvalues --   -0.26448  -0.26044  -0.26015  -0.25719  -0.25224
 Alpha  occ. eigenvalues --   -0.24000  -0.22398  -0.21852  -0.18657
 Alpha virt. eigenvalues --   -0.03063  -0.02641  -0.02416  -0.01721  -0.01534
 Alpha virt. eigenvalues --   -0.01104  -0.00775  -0.00581   0.00119   0.00375
 Alpha virt. eigenvalues --    0.00921   0.01725   0.03335   0.04527   0.05167
 Alpha virt. eigenvalues --    0.05434   0.05611   0.06364   0.06740   0.06801
 Alpha virt. eigenvalues --    0.07597   0.07674   0.07840   0.08298   0.08562
 Alpha virt. eigenvalues --    0.09215   0.09306   0.09496   0.09632   0.09874
 Alpha virt. eigenvalues --    0.09975   0.10334   0.10349   0.10738   0.10852
 Alpha virt. eigenvalues --    0.11173   0.11420   0.11657   0.11782   0.12055
 Alpha virt. eigenvalues --    0.12260   0.12317   0.12745   0.12854   0.12981
 Alpha virt. eigenvalues --    0.13158   0.13230   0.13704   0.13997   0.14218
 Alpha virt. eigenvalues --    0.14393   0.14594   0.14774   0.14982   0.15478
 Alpha virt. eigenvalues --    0.15820   0.16049   0.16270   0.16493   0.16571
 Alpha virt. eigenvalues --    0.17128   0.17356   0.17827   0.18023   0.18535
 Alpha virt. eigenvalues --    0.18774   0.19033   0.19365   0.19658   0.19891
 Alpha virt. eigenvalues --    0.20356   0.20685   0.21000   0.21338   0.21658
 Alpha virt. eigenvalues --    0.21883   0.21920   0.22058   0.22167   0.22659
 Alpha virt. eigenvalues --    0.22720   0.23011   0.23157   0.23371   0.23418
 Alpha virt. eigenvalues --    0.23751   0.23798   0.24099   0.24131   0.24272
 Alpha virt. eigenvalues --    0.24636   0.24824   0.24929   0.25011   0.25132
 Alpha virt. eigenvalues --    0.25536   0.25613   0.26045   0.26237   0.26388
 Alpha virt. eigenvalues --    0.26650   0.26748   0.27123   0.27294   0.27455
 Alpha virt. eigenvalues --    0.27627   0.27848   0.28063   0.28173   0.28821
 Alpha virt. eigenvalues --    0.29098   0.29185   0.29631   0.29978   0.30089
 Alpha virt. eigenvalues --    0.30218   0.30484   0.30964   0.31019   0.31366
 Alpha virt. eigenvalues --    0.31558   0.31727   0.32280   0.32424   0.32608
 Alpha virt. eigenvalues --    0.32967   0.33166   0.33476   0.33723   0.34000
 Alpha virt. eigenvalues --    0.34318   0.34387   0.34473   0.34812   0.35079
 Alpha virt. eigenvalues --    0.35401   0.35653   0.35909   0.35953   0.36199
 Alpha virt. eigenvalues --    0.36476   0.36516   0.36728   0.37027   0.37248
 Alpha virt. eigenvalues --    0.37404   0.37602   0.37889   0.38325   0.38537
 Alpha virt. eigenvalues --    0.38644   0.38911   0.39039   0.39262   0.39599
 Alpha virt. eigenvalues --    0.39789   0.39818   0.39930   0.40194   0.40482
 Alpha virt. eigenvalues --    0.40799   0.40997   0.41227   0.41261   0.41654
 Alpha virt. eigenvalues --    0.41848   0.41881   0.42242   0.42384   0.42727
 Alpha virt. eigenvalues --    0.43027   0.43105   0.43228   0.43361   0.43418
 Alpha virt. eigenvalues --    0.43563   0.44017   0.44182   0.44340   0.44398
 Alpha virt. eigenvalues --    0.44695   0.44898   0.45019   0.45201   0.45337
 Alpha virt. eigenvalues --    0.45524   0.45715   0.45949   0.46044   0.46071
 Alpha virt. eigenvalues --    0.46276   0.46342   0.46577   0.46830   0.47188
 Alpha virt. eigenvalues --    0.47314   0.47414   0.47570   0.47747   0.47967
 Alpha virt. eigenvalues --    0.48030   0.48430   0.48577   0.48817   0.49133
 Alpha virt. eigenvalues --    0.49259   0.49478   0.49557   0.49870   0.50015
 Alpha virt. eigenvalues --    0.50394   0.50550   0.50700   0.50873   0.50978
 Alpha virt. eigenvalues --    0.51168   0.51537   0.51727   0.51779   0.52033
 Alpha virt. eigenvalues --    0.52156   0.52557   0.52767   0.52946   0.53248
 Alpha virt. eigenvalues --    0.53485   0.53760   0.53907   0.54210   0.54585
 Alpha virt. eigenvalues --    0.54752   0.55048   0.55216   0.55512   0.55847
 Alpha virt. eigenvalues --    0.56105   0.56266   0.56511   0.56837   0.57238
 Alpha virt. eigenvalues --    0.57403   0.57759   0.58257   0.58454   0.58635
 Alpha virt. eigenvalues --    0.59403   0.59527   0.59722   0.60522   0.60650
 Alpha virt. eigenvalues --    0.60858   0.61226   0.61514   0.61617   0.62084
 Alpha virt. eigenvalues --    0.62910   0.63269   0.63689   0.64104   0.64456
 Alpha virt. eigenvalues --    0.64620   0.64834   0.65568   0.65931   0.66363
 Alpha virt. eigenvalues --    0.66370   0.66857   0.67201   0.67404   0.67599
 Alpha virt. eigenvalues --    0.67811   0.67988   0.68116   0.68453   0.68820
 Alpha virt. eigenvalues --    0.68944   0.69275   0.69420   0.69552   0.69634
 Alpha virt. eigenvalues --    0.69924   0.70416   0.70557   0.71003   0.71091
 Alpha virt. eigenvalues --    0.71916   0.71992   0.72092   0.72229   0.72891
 Alpha virt. eigenvalues --    0.73017   0.73266   0.73608   0.73797   0.73843
 Alpha virt. eigenvalues --    0.74139   0.74488   0.74713   0.75057   0.75332
 Alpha virt. eigenvalues --    0.75668   0.76080   0.76305   0.76656   0.76755
 Alpha virt. eigenvalues --    0.77231   0.77472   0.77822   0.78105   0.78402
 Alpha virt. eigenvalues --    0.78742   0.78974   0.79232   0.79455   0.79746
 Alpha virt. eigenvalues --    0.79863   0.80006   0.80507   0.80720   0.80785
 Alpha virt. eigenvalues --    0.81045   0.81908   0.82249   0.82768   0.82815
 Alpha virt. eigenvalues --    0.83317   0.83594   0.83908   0.84195   0.84263
 Alpha virt. eigenvalues --    0.84419   0.84937   0.85071   0.85669   0.85786
 Alpha virt. eigenvalues --    0.86163   0.86573   0.86826   0.86976   0.87718
 Alpha virt. eigenvalues --    0.87805   0.88486   0.88831   0.89071   0.89509
 Alpha virt. eigenvalues --    0.89965   0.90250   0.90691   0.90906   0.91167
 Alpha virt. eigenvalues --    0.91429   0.91679   0.92055   0.92113   0.92400
 Alpha virt. eigenvalues --    0.92590   0.93354   0.93641   0.93732   0.93943
 Alpha virt. eigenvalues --    0.94100   0.94738   0.95157   0.95398   0.95940
 Alpha virt. eigenvalues --    0.96239   0.96396   0.96584   0.97163   0.97280
 Alpha virt. eigenvalues --    0.97737   0.97785   0.97896   0.98682   0.99235
 Alpha virt. eigenvalues --    0.99858   1.00137   1.00555   1.00799   1.00901
 Alpha virt. eigenvalues --    1.01643   1.02114   1.02684   1.02836   1.03407
 Alpha virt. eigenvalues --    1.03500   1.04495   1.04697   1.05190   1.05959
 Alpha virt. eigenvalues --    1.06157   1.06806   1.07053   1.07296   1.07365
 Alpha virt. eigenvalues --    1.08017   1.08467   1.08843   1.08910   1.09718
 Alpha virt. eigenvalues --    1.10096   1.10319   1.11078   1.11271   1.11447
 Alpha virt. eigenvalues --    1.11594   1.11941   1.12466   1.13354   1.13738
 Alpha virt. eigenvalues --    1.13818   1.14208   1.14568   1.14630   1.14719
 Alpha virt. eigenvalues --    1.15222   1.15377   1.15744   1.16329   1.16915
 Alpha virt. eigenvalues --    1.17188   1.17303   1.17777   1.18141   1.18156
 Alpha virt. eigenvalues --    1.18707   1.18896   1.19664   1.19784   1.20059
 Alpha virt. eigenvalues --    1.20720   1.21120   1.21337   1.21573   1.21911
 Alpha virt. eigenvalues --    1.22578   1.22799   1.22873   1.23275   1.23577
 Alpha virt. eigenvalues --    1.23768   1.23942   1.24197   1.24473   1.24978
 Alpha virt. eigenvalues --    1.25046   1.25722   1.25976   1.26077   1.26448
 Alpha virt. eigenvalues --    1.26767   1.26942   1.27165   1.27407   1.27613
 Alpha virt. eigenvalues --    1.27964   1.28091   1.28249   1.28691   1.28881
 Alpha virt. eigenvalues --    1.29301   1.29713   1.29973   1.30178   1.30366
 Alpha virt. eigenvalues --    1.30808   1.31155   1.31402   1.31679   1.32239
 Alpha virt. eigenvalues --    1.32320   1.32500   1.32627   1.32861   1.33432
 Alpha virt. eigenvalues --    1.33870   1.34275   1.34505   1.34646   1.35309
 Alpha virt. eigenvalues --    1.35871   1.35950   1.36705   1.37264   1.37603
 Alpha virt. eigenvalues --    1.37988   1.38191   1.38334   1.39037   1.39556
 Alpha virt. eigenvalues --    1.40256   1.40506   1.41078   1.41177   1.41876
 Alpha virt. eigenvalues --    1.42169   1.42895   1.43368   1.43689   1.43983
 Alpha virt. eigenvalues --    1.44791   1.45249   1.45720   1.45887   1.46247
 Alpha virt. eigenvalues --    1.46525   1.47097   1.47491   1.47904   1.48142
 Alpha virt. eigenvalues --    1.48404   1.48999   1.49148   1.49665   1.50022
 Alpha virt. eigenvalues --    1.50280   1.50472   1.50866   1.51242   1.51487
 Alpha virt. eigenvalues --    1.51734   1.51991   1.52646   1.52709   1.52830
 Alpha virt. eigenvalues --    1.53424   1.53637   1.53868   1.54011   1.54362
 Alpha virt. eigenvalues --    1.54961   1.55338   1.55703   1.55922   1.56241
 Alpha virt. eigenvalues --    1.56426   1.56755   1.57552   1.57678   1.57951
 Alpha virt. eigenvalues --    1.58264   1.58445   1.59171   1.59464   1.59599
 Alpha virt. eigenvalues --    1.59820   1.60252   1.60837   1.61104   1.61446
 Alpha virt. eigenvalues --    1.61850   1.62003   1.62090   1.62479   1.62848
 Alpha virt. eigenvalues --    1.63200   1.63312   1.63916   1.64145   1.64363
 Alpha virt. eigenvalues --    1.64802   1.65000   1.65269   1.65958   1.66685
 Alpha virt. eigenvalues --    1.66944   1.67105   1.67325   1.67755   1.67985
 Alpha virt. eigenvalues --    1.68513   1.68810   1.69051   1.69567   1.69583
 Alpha virt. eigenvalues --    1.69898   1.70292   1.70468   1.70626   1.70775
 Alpha virt. eigenvalues --    1.71300   1.71486   1.71671   1.72145   1.72157
 Alpha virt. eigenvalues --    1.72212   1.72464   1.73164   1.73384   1.73640
 Alpha virt. eigenvalues --    1.73799   1.73955   1.74362   1.74444   1.74612
 Alpha virt. eigenvalues --    1.74809   1.75304   1.75668   1.75915   1.76448
 Alpha virt. eigenvalues --    1.76526   1.76788   1.77314   1.78161   1.78541
 Alpha virt. eigenvalues --    1.78817   1.78934   1.79205   1.79346   1.79583
 Alpha virt. eigenvalues --    1.80156   1.80368   1.80816   1.81149   1.81258
 Alpha virt. eigenvalues --    1.82015   1.82689   1.82882   1.83367   1.84005
 Alpha virt. eigenvalues --    1.84048   1.84649   1.85683   1.85849   1.86012
 Alpha virt. eigenvalues --    1.86251   1.87102   1.87223   1.87585   1.87977
 Alpha virt. eigenvalues --    1.88393   1.88617   1.88755   1.89227   1.89359
 Alpha virt. eigenvalues --    1.89564   1.90257   1.91195   1.91698   1.92293
 Alpha virt. eigenvalues --    1.92483   1.92697   1.93519   1.93755   1.94105
 Alpha virt. eigenvalues --    1.94323   1.94759   1.95425   1.95680   1.96125
 Alpha virt. eigenvalues --    1.96644   1.96859   1.97789   1.98754   1.98928
 Alpha virt. eigenvalues --    1.99398   1.99507   2.00380   2.01049   2.01177
 Alpha virt. eigenvalues --    2.01335   2.02186   2.02530   2.02994   2.03328
 Alpha virt. eigenvalues --    2.03768   2.04156   2.04386   2.04684   2.04760
 Alpha virt. eigenvalues --    2.05246   2.05693   2.06049   2.06411   2.08152
 Alpha virt. eigenvalues --    2.08562   2.08920   2.08965   2.09596   2.09782
 Alpha virt. eigenvalues --    2.10458   2.10722   2.11394   2.11748   2.12134
 Alpha virt. eigenvalues --    2.12335   2.12402   2.12703   2.13555   2.13710
 Alpha virt. eigenvalues --    2.13908   2.14332   2.14607   2.15214   2.15390
 Alpha virt. eigenvalues --    2.15573   2.16062   2.16676   2.16954   2.16996
 Alpha virt. eigenvalues --    2.17195   2.17519   2.18097   2.18196   2.18451
 Alpha virt. eigenvalues --    2.19165   2.19351   2.19833   2.19940   2.20224
 Alpha virt. eigenvalues --    2.21288   2.22010   2.22416   2.22743   2.23289
 Alpha virt. eigenvalues --    2.23615   2.24044   2.24242   2.24747   2.24974
 Alpha virt. eigenvalues --    2.25751   2.25978   2.26440   2.26849   2.27245
 Alpha virt. eigenvalues --    2.27435   2.27631   2.28279   2.28513   2.28850
 Alpha virt. eigenvalues --    2.29196   2.30642   2.31099   2.31790   2.32522
 Alpha virt. eigenvalues --    2.32774   2.33420   2.33551   2.34269   2.34743
 Alpha virt. eigenvalues --    2.34981   2.35647   2.35973   2.37191   2.37332
 Alpha virt. eigenvalues --    2.37613   2.38746   2.38973   2.40115   2.40419
 Alpha virt. eigenvalues --    2.40973   2.41345   2.41748   2.41877   2.42229
 Alpha virt. eigenvalues --    2.42690   2.43224   2.43648   2.44335   2.45127
 Alpha virt. eigenvalues --    2.45430   2.45967   2.46032   2.46950   2.47365
 Alpha virt. eigenvalues --    2.47572   2.47909   2.48542   2.48930   2.49475
 Alpha virt. eigenvalues --    2.49632   2.50099   2.50649   2.51552   2.51970
 Alpha virt. eigenvalues --    2.52260   2.52429   2.52899   2.53109   2.53761
 Alpha virt. eigenvalues --    2.54961   2.55411   2.55692   2.55879   2.56077
 Alpha virt. eigenvalues --    2.56462   2.56548   2.57258   2.57286   2.57830
 Alpha virt. eigenvalues --    2.58372   2.58551   2.58676   2.59356   2.59694
 Alpha virt. eigenvalues --    2.60554   2.60878   2.61128   2.61651   2.62034
 Alpha virt. eigenvalues --    2.62160   2.62401   2.62490   2.62912   2.63114
 Alpha virt. eigenvalues --    2.63422   2.63883   2.64072   2.64525   2.64807
 Alpha virt. eigenvalues --    2.64993   2.65119   2.65292   2.65709   2.65888
 Alpha virt. eigenvalues --    2.66326   2.66397   2.66714   2.66885   2.67255
 Alpha virt. eigenvalues --    2.67351   2.67478   2.67644   2.68001   2.68316
 Alpha virt. eigenvalues --    2.68484   2.68601   2.68662   2.68924   2.69140
 Alpha virt. eigenvalues --    2.69630   2.69854   2.70221   2.70381   2.70939
 Alpha virt. eigenvalues --    2.71176   2.71324   2.71745   2.71900   2.72162
 Alpha virt. eigenvalues --    2.72558   2.72567   2.72958   2.73173   2.73658
 Alpha virt. eigenvalues --    2.74021   2.74461   2.74477   2.74935   2.75125
 Alpha virt. eigenvalues --    2.75283   2.75915   2.76248   2.76256   2.76742
 Alpha virt. eigenvalues --    2.77077   2.77254   2.77277   2.77840   2.78076
 Alpha virt. eigenvalues --    2.78196   2.78455   2.78519   2.78757   2.79755
 Alpha virt. eigenvalues --    2.80042   2.80125   2.80486   2.80702   2.80988
 Alpha virt. eigenvalues --    2.81078   2.81246   2.81676   2.81726   2.81972
 Alpha virt. eigenvalues --    2.82547   2.82826   2.83170   2.83681   2.83773
 Alpha virt. eigenvalues --    2.83996   2.84301   2.84741   2.85015   2.85411
 Alpha virt. eigenvalues --    2.85520   2.85710   2.86315   2.86555   2.86628
 Alpha virt. eigenvalues --    2.87225   2.87414   2.87651   2.88089   2.88404
 Alpha virt. eigenvalues --    2.88701   2.89169   2.89428   2.89883   2.90130
 Alpha virt. eigenvalues --    2.90332   2.90584   2.91118   2.91442   2.91548
 Alpha virt. eigenvalues --    2.91798   2.92416   2.92640   2.92997   2.93345
 Alpha virt. eigenvalues --    2.93525   2.93722   2.94560   2.94709   2.94822
 Alpha virt. eigenvalues --    2.95310   2.95787   2.95987   2.96554   2.96833
 Alpha virt. eigenvalues --    2.97622   2.97718   2.98706   2.99519   2.99648
 Alpha virt. eigenvalues --    2.99874   3.00851   3.00932   3.01643   3.02209
 Alpha virt. eigenvalues --    3.02705   3.03273   3.03639   3.04135   3.04288
 Alpha virt. eigenvalues --    3.04714   3.05083   3.05538   3.06429   3.07060
 Alpha virt. eigenvalues --    3.08225   3.08678   3.08940   3.09288   3.09442
 Alpha virt. eigenvalues --    3.09938   3.10061   3.10559   3.11007   3.11397
 Alpha virt. eigenvalues --    3.12323   3.12792   3.13207   3.13466   3.13585
 Alpha virt. eigenvalues --    3.13867   3.14061   3.14094   3.14331   3.14626
 Alpha virt. eigenvalues --    3.15106   3.15174   3.15502   3.15709   3.16216
 Alpha virt. eigenvalues --    3.16440   3.16754   3.16970   3.17246   3.17503
 Alpha virt. eigenvalues --    3.17659   3.17931   3.18132   3.18237   3.18559
 Alpha virt. eigenvalues --    3.18870   3.18950   3.19152   3.19536   3.19645
 Alpha virt. eigenvalues --    3.19746   3.20527   3.20534   3.21450   3.21576
 Alpha virt. eigenvalues --    3.21941   3.22188   3.22541   3.22991   3.23084
 Alpha virt. eigenvalues --    3.23568   3.23829   3.23993   3.24112   3.24735
 Alpha virt. eigenvalues --    3.24942   3.25291   3.25666   3.25992   3.26155
 Alpha virt. eigenvalues --    3.26467   3.26799   3.27200   3.27348   3.27943
 Alpha virt. eigenvalues --    3.28283   3.28744   3.28986   3.29214   3.29448
 Alpha virt. eigenvalues --    3.29632   3.29989   3.30176   3.30677   3.30738
 Alpha virt. eigenvalues --    3.30964   3.31649   3.31821   3.32290   3.32353
 Alpha virt. eigenvalues --    3.32519   3.32540   3.33133   3.33402   3.33762
 Alpha virt. eigenvalues --    3.34073   3.34644   3.34910   3.35150   3.35335
 Alpha virt. eigenvalues --    3.35898   3.36252   3.36616   3.36689   3.37214
 Alpha virt. eigenvalues --    3.37370   3.37648   3.37978   3.38062   3.38313
 Alpha virt. eigenvalues --    3.38888   3.39074   3.39419   3.39742   3.39787
 Alpha virt. eigenvalues --    3.40293   3.40567   3.40602   3.40799   3.41095
 Alpha virt. eigenvalues --    3.41583   3.41919   3.42128   3.42179   3.42271
 Alpha virt. eigenvalues --    3.42641   3.42872   3.42987   3.43265   3.43454
 Alpha virt. eigenvalues --    3.43674   3.43852   3.44347   3.44601   3.44713
 Alpha virt. eigenvalues --    3.44787   3.45305   3.45380   3.46130   3.46362
 Alpha virt. eigenvalues --    3.46768   3.47004   3.47302   3.47584   3.47942
 Alpha virt. eigenvalues --    3.48216   3.48334   3.48659   3.48900   3.49110
 Alpha virt. eigenvalues --    3.49522   3.49794   3.50042   3.50544   3.50872
 Alpha virt. eigenvalues --    3.51320   3.51468   3.52216   3.52461   3.52551
 Alpha virt. eigenvalues --    3.52969   3.53230   3.53750   3.54044   3.54207
 Alpha virt. eigenvalues --    3.54446   3.54801   3.54979   3.55226   3.55514
 Alpha virt. eigenvalues --    3.55601   3.55909   3.56339   3.56648   3.56756
 Alpha virt. eigenvalues --    3.57348   3.57763   3.57797   3.58299   3.58681
 Alpha virt. eigenvalues --    3.58798   3.59063   3.59476   3.59810   3.59893
 Alpha virt. eigenvalues --    3.60325   3.60476   3.60913   3.61508   3.61595
 Alpha virt. eigenvalues --    3.62070   3.62721   3.63083   3.63276   3.63816
 Alpha virt. eigenvalues --    3.64588   3.65007   3.65672   3.65943   3.66492
 Alpha virt. eigenvalues --    3.67462   3.68172   3.68846   3.69254   3.69629
 Alpha virt. eigenvalues --    3.70092   3.70847   3.71015   3.71400   3.71510
 Alpha virt. eigenvalues --    3.71822   3.71976   3.72495   3.72843   3.73800
 Alpha virt. eigenvalues --    3.74060   3.74557   3.75118   3.75517   3.75787
 Alpha virt. eigenvalues --    3.76062   3.77006   3.77394   3.77834   3.78127
 Alpha virt. eigenvalues --    3.78688   3.79042   3.79264   3.80674   3.81685
 Alpha virt. eigenvalues --    3.82058   3.83349   3.84050   3.84599   3.86516
 Alpha virt. eigenvalues --    3.87615   3.88732   3.89000   3.89441   3.89951
 Alpha virt. eigenvalues --    3.90174   3.91552   3.92637   3.93160   3.93281
 Alpha virt. eigenvalues --    3.93987   3.94754   3.95076   3.95486   3.95781
 Alpha virt. eigenvalues --    3.96076   3.96429   3.97509   3.97529   3.98668
 Alpha virt. eigenvalues --    3.99390   3.99813   4.00624   4.02667   4.03121
 Alpha virt. eigenvalues --    4.03324   4.03503   4.03981   4.04278   4.04958
 Alpha virt. eigenvalues --    4.05290   4.05597   4.06249   4.06774   4.07058
 Alpha virt. eigenvalues --    4.07805   4.07924   4.08293   4.08619   4.09294
 Alpha virt. eigenvalues --    4.11050   4.11301   4.11486   4.12016   4.12248
 Alpha virt. eigenvalues --    4.12511   4.13265   4.13273   4.13641   4.14085
 Alpha virt. eigenvalues --    4.14402   4.15036   4.15504   4.16156   4.16363
 Alpha virt. eigenvalues --    4.17575   4.18144   4.18660   4.19536   4.19745
 Alpha virt. eigenvalues --    4.19947   4.20257   4.20516   4.20604   4.20683
 Alpha virt. eigenvalues --    4.21102   4.21174   4.21451   4.21935   4.22174
 Alpha virt. eigenvalues --    4.22330   4.22825   4.22990   4.23100   4.23304
 Alpha virt. eigenvalues --    4.23393   4.23984   4.24163   4.24463   4.24945
 Alpha virt. eigenvalues --    4.25149   4.25657   4.26097   4.26543   4.26792
 Alpha virt. eigenvalues --    4.27094   4.27560   4.27713   4.28185   4.28636
 Alpha virt. eigenvalues --    4.28964   4.29859   4.30274   4.30358   4.31325
 Alpha virt. eigenvalues --    4.31478   4.32166   4.33057   4.34106   4.34571
 Alpha virt. eigenvalues --    4.35002   4.35194   4.35655   4.35852   4.37069
 Alpha virt. eigenvalues --    4.37213   4.37943   4.38221   4.38588   4.39220
 Alpha virt. eigenvalues --    4.40075   4.40706   4.41313   4.41822   4.42755
 Alpha virt. eigenvalues --    4.43230   4.44605   4.45348   4.47532   4.49909
 Alpha virt. eigenvalues --    4.50636   4.52937   4.54444   4.57644   4.58484
 Alpha virt. eigenvalues --    4.59616   4.60135   4.61594   4.61619   4.62493
 Alpha virt. eigenvalues --    4.62668   4.64088   4.64453   4.64674   4.64905
 Alpha virt. eigenvalues --    4.65433   4.65672   4.65859   4.66172   4.66321
 Alpha virt. eigenvalues --    4.66928   4.68084   4.69011   4.69983   4.70431
 Alpha virt. eigenvalues --    4.71884   4.73063   4.73232   4.73969   4.74555
 Alpha virt. eigenvalues --    4.76000   4.76523   4.77536   4.78627   4.78760
 Alpha virt. eigenvalues --    4.79896   4.81896   4.83089   4.85094   4.86016
 Alpha virt. eigenvalues --    4.86080   4.86292   4.87256   4.87792   4.88978
 Alpha virt. eigenvalues --    4.92271   4.92844   4.93206   4.95083   4.95324
 Alpha virt. eigenvalues --    4.96179   4.96681   4.97068   4.98757   4.99239
 Alpha virt. eigenvalues --    5.01268   5.02876   5.04887   5.07111   5.09224
 Alpha virt. eigenvalues --    5.10103   5.10895   5.12805   5.14065   5.14304
 Alpha virt. eigenvalues --    5.14520   5.14798   5.14840   5.15113   5.15550
 Alpha virt. eigenvalues --    5.15881   5.16116   5.19198   5.22463   5.23115
 Alpha virt. eigenvalues --    5.27258   5.27428   5.28142   5.28298   5.28725
 Alpha virt. eigenvalues --    5.35365   5.35387   5.36258   5.36299   5.38185
 Alpha virt. eigenvalues --    5.38417   5.41765   5.42209   5.43158   5.43794
 Alpha virt. eigenvalues --    5.44415   5.47720   5.50822   5.51671   5.54039
 Alpha virt. eigenvalues --    5.57810   5.58451   5.58601   5.60001   5.62298
 Alpha virt. eigenvalues --    5.64419   5.67645   5.68136   5.93998   5.96527
 Alpha virt. eigenvalues --    5.98187   6.04626   6.09229   6.13788   6.36287
 Alpha virt. eigenvalues --    6.41130   6.44582   6.48141   6.81950   6.86928
 Alpha virt. eigenvalues --    6.90812   6.93129   7.09217   7.15714   7.34508
 Alpha virt. eigenvalues --    7.38845   7.53648   7.58458   7.83421   7.84044
 Alpha virt. eigenvalues --    8.08282   8.08794   8.11880   8.13314  16.03044
 Alpha virt. eigenvalues --   16.13379  22.21581  22.22019  22.25881  22.28313
 Alpha virt. eigenvalues --   22.39385  22.42795  22.44783  22.47931  22.62678
 Alpha virt. eigenvalues --   22.63060  22.63392  22.63607  22.64109  22.65004
 Alpha virt. eigenvalues --   22.65253  22.66588  22.66696  22.69562  22.73278
 Alpha virt. eigenvalues --   22.74440  22.76898  22.77289  22.78605  22.79454
 Alpha virt. eigenvalues --   22.80591  22.81256  22.83296  22.84492  22.85327
 Alpha virt. eigenvalues --   22.88654  22.91223  22.97185  23.07755  23.11441
 Alpha virt. eigenvalues --   23.13644  23.14997  23.18473  23.18532  23.21358
 Alpha virt. eigenvalues --   23.42376  23.67831  44.70601  44.75746
          Condensed to atoms (all electrons):
 Mulliken charges:
               1
     1  P    0.034811
     2  P    0.034569
     3  O   -0.270565
     4  O   -0.286655
     5  C    0.057254
     6  C   -0.207755
     7  C   -0.111591
     8  C   -0.100816
     9  C   -0.149663
    10  C   -0.119882
    11  C    0.145734
    12  C   -0.145875
    13  C   -0.139997
    14  C   -0.110238
    15  C   -0.114863
    16  C   -0.202144
    17  C   -0.031626
    18  C   -0.175555
    19  C   -0.172465
    20  C   -0.238372
    21  C    0.238221
    22  C    0.090165
    23  C    0.047590
    24  C    0.239775
    25  C   -0.225748
    26  C   -0.181792
    27  C   -0.162263
    28  C   -0.046428
    29  C    0.057137
    30  C   -0.207896
    31  C   -0.111187
    32  C   -0.101482
    33  C   -0.149199
    34  C   -0.120411
    35  C    0.151084
    36  C   -0.202148
    37  C   -0.113986
    38  C   -0.111537
    39  C   -0.138236
    40  C   -0.156736
    41  C   -0.024739
    42  H    0.125240
    43  H    0.117538
    44  H    0.139684
    45  H    0.152460
    46  H    0.113043
    47  H    0.122164
    48  H    0.139851
    49  H    0.109093
    50  H    0.105267
    51  H    0.118171
    52  H    0.108623
    53  H    0.139961
    54  H    0.125187
    55  H    0.117504
    56  H    0.139932
    57  H    0.122564
    58  H    0.113201
    59  H    0.157737
    60  C   -0.358131
    61  H    0.094044
    62  C   -0.140367
    63  C    0.082035
    64  H    0.079254
    65  C   -0.408344
    66  H    0.124837
    67  H    0.115904
    68  H    0.122524
    69  H    0.131496
    70  H    0.125694
    71  H    0.122114
    72  H    0.133699
    73  H    0.134730
    74  H    0.115659
    75  H    0.109478
    76  H    0.113429
    77  H    0.117231
    78  H    0.113552
    79  H    0.106557
    80  H    0.115602
    81  H    0.117289
 Sum of Mulliken charges =  -0.00000
 Mulliken charges with hydrogens summed into heavy atoms:
               1
     1  P    0.034811
     2  P    0.034569
     3  O   -0.270565
     4  O   -0.286655
     5  C    0.057254
     6  C   -0.082514
     7  C    0.005640
     8  C    0.016723
     9  C   -0.034004
    10  C    0.019802
    11  C    0.145734
    12  C    0.006586
    13  C   -0.030519
    14  C    0.002805
    15  C   -0.001434
    16  C   -0.079980
    17  C   -0.031626
    18  C   -0.035704
    19  C   -0.063372
    20  C   -0.133105
    21  C    0.238221
    22  C    0.090165
    23  C    0.047590
    24  C    0.239775
    25  C   -0.107577
    26  C   -0.073169
    27  C   -0.022302
    28  C   -0.046428
    29  C    0.057137
    30  C   -0.082709
    31  C    0.006102
    32  C    0.016022
    33  C   -0.033597
    34  C    0.019522
    35  C    0.151084
    36  C   -0.079583
    37  C   -0.000434
    38  C    0.001664
    39  C   -0.031679
    40  C    0.001002
    41  C    0.069305
    60  C    0.021584
    62  C    0.100374
    63  C    0.161289
    65  C   -0.017801
 Electronic spatial extent (au):  <R**2>=          22267.6887
 Charge=             -0.0000 electrons
 Dipole moment (field-independent basis, Debye):
    X=             -0.0759    Y=              3.9200    Z=             -0.4070  Tot=              3.9418
 Quadrupole moment (field-independent basis, Debye-Ang):
   XX=           -267.3842   YY=           -251.3915   ZZ=           -255.3183
   XY=             -0.6751   XZ=             -4.3023   YZ=             -0.8922
 Traceless Quadrupole moment (field-independent basis, Debye-Ang):
   XX=             -9.3528   YY=              6.6398   ZZ=              2.7130
   XY=             -0.6751   XZ=             -4.3023   YZ=             -0.8922
[...]
  1419. RY*(   7) C  65                  0.00013     1.82148   
  1420. RY*(   8) C  65                  0.00007     1.47811   
  1421. RY*(   9) C  65                  0.00003     1.98264   
  1422. RY*(  10) C  65                  0.00003     1.52137   
  1423. RY*(  11) C  65                  0.00001     1.48564   
  1424. RY*(  12) C  65                  0.00001     2.20690   
  1425. RY*(  13) C  65                  0.00000     2.92419   
  1426. RY*(  14) C  65                  0.00000    21.01313   
  1427. RY*(  15) C  65                  0.00000     3.06663   
  1428. RY*(  16) C  65                  0.00000     1.83372   
  1429. RY*(  17) C  65                  0.00000     2.97806   
  1430. RY*(  18) C  65                  0.00000     3.16688   
  1431. RY*(  19) C  65                  0.00000     3.19072   
  1432. RY*(  20) C  65                  0.00000     3.49740   
  1433. RY*(  21) C  65                  0.00000     3.51408   
  1434. RY*(  22) C  65                  0.00000     3.40361   
  1435. RY*(  23) C  65                  0.00000     3.32199   
  1436. RY*(  24) C  65                  0.00000     3.44595   
  1437. RY*(  25) C  65                  0.00000     3.33302   
  1438. RY*(  26) C  65                  0.00000     3.39414   
  1439. RY*(   1) H  66                  0.00092     0.77035   
  1440. RY*(   2) H  66                  0.00019     2.38366   
  1441. RY*(   3) H  66                  0.00010     2.61194   
  1442. RY*(   4) H  66                  0.00005     2.45532   
  1443. RY*(   5) H  66                  0.00001     2.95673   
  1444. RY*(   1) H  67                  0.00046     1.13815   
  1445. RY*(   2) H  67                  0.00016     2.14388   
  1446. RY*(   3) H  67                  0.00013     2.38229   
  1447. RY*(   4) H  67                  0.00011     2.06839   
  1448. RY*(   5) H  67                  0.00000     2.98941   
  1449. RY*(   1) H  68                  0.00032     1.09421   
  1450. RY*(   2) H  68                  0.00013     1.55569   
  1451. RY*(   3) H  68                  0.00011     2.18019   
  1452. RY*(   4) H  68                  0.00008     2.30814   
  1453. RY*(   5) H  68                  0.00001     2.90716   
  1454. RY*(   1) H  69                  0.00049     1.08196   
  1455. RY*(   2) H  69                  0.00015     1.65762   
  1456. RY*(   3) H  69                  0.00010     2.19236   
  1457. RY*(   4) H  69                  0.00008     2.35341   
  1458. RY*(   5) H  69                  0.00001     2.94963   
  1459. RY*(   1) H  70                  0.00065     1.16052   
  1460. RY*(   2) H  70                  0.00012     1.45251   
  1461. RY*(   3) H  70                  0.00011     2.18893   
  1462. RY*(   4) H  70                  0.00008     2.39175   
  1463. RY*(   5) H  70                  0.00001     2.94270   
  1464. RY*(   1) H  71                  0.00027     1.34663   
  1465. RY*(   2) H  71                  0.00011     1.28612   
  1466. RY*(   3) H  71                  0.00012     2.18957   
  1467. RY*(   4) H  71                  0.00007     2.31803   
  1468. RY*(   5) H  71                  0.00001     2.90934   
  1469. RY*(   1) H  72                  0.00059     0.79428   
  1470. RY*(   2) H  72                  0.00014     1.96445   
  1471. RY*(   3) H  72                  0.00010     2.18786   
  1472. RY*(   4) H  72                  0.00007     2.30440   
  1473. RY*(   5) H  72                  0.00001     2.95790   
  1474. RY*(   1) H  73                  0.00063     1.47329   
  1475. RY*(   2) H  73                  0.00015     1.66710   
  1476. RY*(   3) H  73                  0.00010     2.12863   
  1477. RY*(   4) H  73                  0.00007     2.05318   
  1478. RY*(   5) H  73                  0.00001     2.97651   
  1479. RY*(   1) H  74                  0.00045     0.98983   
  1480. RY*(   2) H  74                  0.00019     1.85832   
  1481. RY*(   3) H  74                  0.00012     2.47528   
  1482. RY*(   4) H  74                  0.00012     2.38628   
  1483. RY*(   5) H  74                  0.00002     3.08717   
  1484. RY*(   1) H  75                  0.00046     1.22852   
  1485. RY*(   2) H  75                  0.00018     1.84711   
  1486. RY*(   3) H  75                  0.00017     2.19578   
  1487. RY*(   4) H  75                  0.00012     2.70451   
  1488. RY*(   5) H  75                  0.00001     3.07273   
  1489. RY*(   1) H  76                  0.00035     0.89876   
  1490. RY*(   2) H  76                  0.00020     1.88001   
  1491. RY*(   3) H  76                  0.00011     2.16268   
  1492. RY*(   4) H  76                  0.00008     2.76938   
  1493. RY*(   5) H  76                  0.00002     3.09654   
  1494. RY*(   1) H  77                  0.00035     0.89526   
  1495. RY*(   2) H  77                  0.00021     1.88995   
  1496. RY*(   3) H  77                  0.00012     2.67687   
  1497. RY*(   4) H  77                  0.00012     2.15736   
  1498. RY*(   5) H  77                  0.00002     3.10202   
  1499. RY*(   1) H  78                  0.00035     0.89884   
  1500. RY*(   2) H  78                  0.00020     1.88082   
  1501. RY*(   3) H  78                  0.00011     2.16259   
  1502. RY*(   4) H  78                  0.00008     2.76893   
  1503. RY*(   5) H  78                  0.00002     3.09460   
  1504. RY*(   1) H  79                  0.00051     1.21435   
  1505. RY*(   2) H  79                  0.00018     1.86645   
  1506. RY*(   3) H  79                  0.00017     2.19427   
  1507. RY*(   4) H  79                  0.00012     2.69352   
  1508. RY*(   5) H  79                  0.00001     3.07065   
  1509. RY*(   1) H  80                  0.00045     0.98954   
  1510. RY*(   2) H  80                  0.00019     1.85837   
  1511. RY*(   3) H  80                  0.00012     2.40349   
  1512. RY*(   4) H  80                  0.00012     2.45845   
  1513. RY*(   5) H  80                  0.00002     3.08692   
  1514. RY*(   1) H  81                  0.00035     0.89573   
  1515. RY*(   2) H  81                  0.00021     1.89048   
  1516. RY*(   3) H  81                  0.00012     2.67671   
  1517. RY*(   4) H  81                  0.00011     2.15710   
  1518. RY*(   5) H  81                  0.00002     3.10210   
  1519. BD*(   1) P   1 - C   5          0.04510     0.24389   
  1520. BD*(   1) P   1 - C  11          0.03585     0.24636   
  1521. BD*(   1) P   1 - C  17          0.04482     0.23223   
  1522. BD*(   1) P   2 - C  28          0.04502     0.23219   
  1523. BD*(   1) P   2 - C  29          0.04502     0.24398   
  1524. BD*(   1) P   2 - C  35          0.03587     0.24627   
  1525. BD*(   1) O   3 - C  21          0.02959     0.35648   
  1526. BD*(   1) O   3 - C  63          0.04100     0.26030   
  1527. BD*(   1) O   4 - C  24          0.02745     0.36235   
  1528. BD*(   1) O   4 - C  41          0.04165     0.25606   
  1529. BD*(   1) C   5 - C   6          0.02322     0.52804   
  1530. BD*(   1) C   5 - C  10          0.03043     0.53664   
  1531. BD*(   2) C   5 - C  10          0.35959     0.03275  1533(v),1538(v),1521(v)
                                                    405(g)
  1532. BD*(   1) C   6 - C   7          0.01612     0.54673   
  1533. BD*(   2) C   6 - C   7          0.32198     0.03215  1531(v),1538(v),327(g)
                                                    301(g)
  1534. BD*(   1) C   6 - H  42          0.01581     0.41426   
  1535. BD*(   1) C   7 - C   8          0.01484     0.53944   
  1536. BD*(   1) C   7 - H  77          0.01355     0.40770   
  1537. BD*(   1) C   8 - C   9          0.01462     0.54227   
  1538. BD*(   2) C   8 - C   9          0.33082     0.03067  1533(v),1531(v),353(g)
                                                    379(g)
  1539. BD*(   1) C   8 - H  43          0.01307     0.40793   
  1540. BD*(   1) C   9 - C  10          0.01708     0.54798   
  1541. BD*(   1) C   9 - H  74          0.01402     0.40830   
  1542. BD*(   1) C  10 - H  44          0.01676     0.42211   
  1543. BD*(   1) C  11 - C  12          0.03160     0.53791   
  1544. BD*(   2) C  11 - C  12          0.36875     0.03642  1554(v),1549(v),1574(r)
                                                    1519(v),1559(r),432(g)
                                                    457(g),561(v),456(g),483(v)
  1545. BD*(   1) C  11 - C  16          0.02370     0.53370   
  1546. BD*(   1) C  12 - C  13          0.01743     0.55407   
  1547. BD*(   1) C  12 - H  45          0.01575     0.43558   
  1548. BD*(   1) C  13 - C  14          0.01485     0.54541   
  1549. BD*(   2) C  13 - C  14          0.33192     0.03519  1544(v),1554(v),509(g)
                                                    483(g)
  1550. BD*(   1) C  13 - H  75          0.01431     0.41068   
  1551. BD*(   1) C  14 - C  15          0.01464     0.54305   
  1552. BD*(   1) C  14 - H  46          0.01309     0.41015   
  1553. BD*(   1) C  15 - C  16          0.01596     0.54881   
  1554. BD*(   2) C  15 - C  16          0.31702     0.03737  1544(v),1549(v),535(g)
                                                    561(g)
  1555. BD*(   1) C  15 - H  76          0.01346     0.41058   
  1556. BD*(   1) C  16 - H  47          0.01576     0.41105   
  1557. BD*(   1) C  17 - C  18          0.02197     0.54128   
  1558. BD*(   1) C  17 - C  22          0.03160     0.53341   
  1559. BD*(   2) C  17 - C  22          0.40519     0.04189  1561(v),1572(v),1566(v)
                                                    1520(v),1570(v),1571(v)
                                                    587(g),1544(r),612(v),716(g)
                                                    717(g),1600(r)
  1560. BD*(   1) C  18 - C  19          0.01598     0.55935   
  1561. BD*(   2) C  18 - C  19          0.33043     0.04118  1559(v),1566(v),639(g)
                                                    612(g)
  1562. BD*(   1) C  18 - H  48          0.01684     0.42819   
  1563. BD*(   1) C  19 - C  20          0.01283     0.55705   
  1564. BD*(   1) C  19 - H  49          0.01378     0.41328   
  1565. BD*(   1) C  20 - C  21          0.03207     0.53724   
  1566. BD*(   2) C  20 - C  21          0.37117     0.03571  1561(v),1559(v),1598(r)
                                                    1574(r),665(g),1526(v)
  1567. BD*(   1) C  20 - H  50          0.01434     0.40906   
  1568. BD*(   1) C  21 - C  22          0.04130     0.51687   
  1569. BD*(   1) C  22 - C  23          0.03053     0.44572   
  1570. BD*(   1) C  23 - C  24          0.04384     0.51974   
  1571. BD*(   1) C  23 - C  28          0.03177     0.53275   
  1572. BD*(   2) C  23 - C  28          0.40690     0.04205  1578(v),1559(v),1574(v)
                                                    1524(v),1568(v),873(g)
                                                    1558(v),846(v),1598(r)
                                                    742(g),1554(r)
  1573. BD*(   1) C  24 - C  25          0.03254     0.53654   
  1574. BD*(   2) C  24 - C  25          0.36855     0.03612  1578(v),1572(v),1544(r)
                                                    1566(r),795(g),1528(v)
  1575. BD*(   1) C  25 - C  26          0.01310     0.55736   
  1576. BD*(   1) C  25 - H  51          0.01373     0.40144   
  1577. BD*(   1) C  26 - C  27          0.01594     0.55812   
  1578. BD*(   2) C  26 - C  27          0.33171     0.04099  1572(v),1574(v),821(g)
                                                    846(g)
  1579. BD*(   1) C  26 - H  52          0.01380     0.41342   
  1580. BD*(   1) C  27 - C  28          0.02197     0.54142   
  1581. BD*(   1) C  27 - H  53          0.01679     0.42829   
  1582. BD*(   1) C  29 - C  30          0.02317     0.52791   
  1583. BD*(   1) C  29 - C  34          0.03042     0.53677   
  1584. BD*(   2) C  29 - C  34          0.35981     0.03270  1586(v),1591(v),1522(v)
                                                    1029(g)
  1585. BD*(   1) C  30 - C  31          0.01612     0.54687   
  1586. BD*(   2) C  30 - C  31          0.32158     0.03222  1584(v),1591(v),951(g)
                                                    925(g)
  1587. BD*(   1) C  30 - H  54          0.01580     0.41430   
  1588. BD*(   1) C  31 - C  32          0.01485     0.53942   
  1589. BD*(   1) C  31 - H  81          0.01355     0.40777   
  1590. BD*(   1) C  32 - C  33          0.01462     0.54232   
  1591. BD*(   2) C  32 - C  33          0.33074     0.03067  1586(v),1584(v),977(g)
                                                    1003(g)
  1592. BD*(   1) C  32 - H  55          0.01307     0.40795   
  1593. BD*(   1) C  33 - C  34          0.01708     0.54792   
  1594. BD*(   1) C  33 - H  80          0.01401     0.40827   
  1595. BD*(   1) C  34 - H  56          0.01680     0.42218   
  1596. BD*(   1) C  35 - C  36          0.02376     0.53366   
  1597. BD*(   1) C  35 - C  40          0.03168     0.53696   
  1598. BD*(   2) C  35 - C  40          0.36847     0.03590  1600(v),1605(v),1566(r)
                                                    1523(v),1572(r),1056(g)
                                                    1185(g),1081(v),1184(g)
                                                    1159(v),1522(v)
  1599. BD*(   1) C  36 - C  37          0.01598     0.54838   
  1600. BD*(   2) C  36 - C  37          0.31679     0.03703  1598(v),1605(v),1107(g)
                                                    1081(g)
  1601. BD*(   1) C  36 - H  57          0.01577     0.41089   
  1602. BD*(   1) C  37 - C  38          0.01463     0.54257   
  1603. BD*(   1) C  37 - H  78          0.01346     0.41015   
  1604. BD*(   1) C  38 - C  39          0.01488     0.54454   
  1605. BD*(   2) C  38 - C  39          0.33288     0.03435  1598(v),1600(v),1133(g)
                                                    1159(g)
  1606. BD*(   1) C  38 - H  58          0.01308     0.40958   
  1607. BD*(   1) C  39 - C  40          0.01746     0.55336   
  1608. BD*(   1) C  39 - H  79          0.01441     0.40880   
  1609. BD*(   1) C  40 - H  59          0.01570     0.43468   
  1610. BD*(   1) C  41 - C  60          0.01786     0.33763   
  1611. BD*(   1) C  41 - H  61          0.03205     0.33828   
  1612. BD*(   1) C  41 - C  62          0.03211     0.33040   
  1613. BD*(   1) C  60 - H  68          0.00520     0.36176   
  1614. BD*(   1) C  60 - H  69          0.00565     0.36688   
  1615. BD*(   1) C  60 - H  70          0.00890     0.36173   
  1616. BD*(   1) C  62 - C  63          0.03264     0.33197   
  1617. BD*(   1) C  62 - H  66          0.01401     0.35916   
  1618. BD*(   1) C  62 - H  67          0.01028     0.34923   
  1619. BD*(   1) C  63 - H  64          0.03479     0.33403   
  1620. BD*(   1) C  63 - C  65          0.01574     0.33764   
  1621. BD*(   1) C  65 - H  71          0.00406     0.36237   
  1622. BD*(   1) C  65 - H  72          0.00578     0.36729   
  1623. BD*(   1) C  65 - H  73          0.00974     0.36482   
       -------------------------------
              Total Lewis  319.26629  ( 97.3373%)
        Valence non-Lewis    8.08956  (  2.4663%)
        Rydberg non-Lewis    0.64415  (  0.1964%)
       -------------------------------
            Total unit  1  328.00000  (100.0000%)
           Charge unit  1    0.00000
 1\1\GINC-NOTCH207\SP\RPBE1PBE\def2TZVP\C41H36O2P2\U1010977\02-Nov-2021
 \0\\# PBE1PBE/def2TZVP int=(grid=ultrafine) empiricaldispersion=GD3BJ 
 pop=nbo guess=read geom=check\\title\\0,1\P,0,1.5685735993,-0.84388140
 61,0.0312132922\P,0,-1.7553343146,-0.3736733644,-0.0416088963\O,0,-0.3
 263755888,3.9172276135,-0.9995616806\O,0,1.3671325778,3.6182833351,1.2
 668774025\C,0,3.0312829588,-1.6653795776,-0.7164288737\C,0,2.838857703
 2,-2.5868846382,-1.764426831\C,0,3.9457363592,-3.1466023084,-2.4128065
 241\C,0,5.2459728781,-2.8056556427,-2.0101304162\C,0,5.4381240526,-1.8
 994732414,-0.9585195579\C,0,4.3344423816,-1.3246986942,-0.3129625655\C
 ,0,2.1060722099,-0.2948098143,1.690585408\C,0,2.8049958633,0.911098753
 7,1.888769732\C,0,3.2024691332,1.2808847407,3.1798716389\C,0,2.9148496
 944,0.4468718348,4.2699979807\C,0,2.2282270693,-0.7604753423,4.0699429
 64\C,0,1.8185863498,-1.1351204571,2.7840888406\C,0,1.4101753174,0.6879
 472908,-0.9986011156\C,0,2.0660154583,0.7374991911,-2.2456187702\C,0,1
 .9342741446,1.8572621075,-3.0733897026\C,0,1.1594858101,2.9500202041,-
 2.6728290869\C,0,0.5075414647,2.9096331133,-1.4334263977\C,0,0.6061566
 841,1.7777831377,-0.5871211799\C,0,-0.110707628,1.8402771529,0.7187023
 513\C,0,0.2818737343,2.8543963256,1.624545781\C,0,-0.3628354904,3.0222
 444554,2.8574110637\C,0,-1.4215412025,2.1747804405,3.196423016\C,0,-1.
 8362783427,1.1719598516,2.3128733323\C,0,-1.1940940593,0.9983151295,1.
 0698819709\C,0,-3.3943718448,-0.8039170339,0.6667752705\C,0,-3.4685033
 04,-1.7945137687,1.6657455986\C,0,-4.6916301755,-2.0659927373,2.289379
 8415\C,0,-5.8474834699,-1.3667145069,1.9097567795\C,0,-5.77737805,-0.3
 912339793,0.9060744062\C,0,-4.5531416252,-0.1044528546,0.2861045422\C,
 0,-2.1042658988,0.3964275714,-1.6631101747\C,0,-2.0317070586,-0.420913
 5717,-2.80797878\C,0,-2.3113302393,0.1259567348,-4.0666963681\C,0,-2.6
 572679533,1.4803909019,-4.1883615937\C,0,-2.7320063371,2.291881082,-3.
 0470024795\C,0,-2.4607429451,1.7531830007,-1.7829967722\C,0,1.21971275
 94,5.0638172838,1.2593628396\H,0,1.8229491515,-2.878287408,-2.04820307
 94\H,0,6.109920197,-3.2554697763,-2.5102373173\H,0,4.4879998117,-0.621
 8242816,0.5115259109\H,0,3.0014893552,1.5791742737,1.0448981424\H,0,3.
 2230749709,0.7400372731,5.2791127401\H,0,1.2889149557,-2.0788467933,2.
 6093307655\H,0,2.6858955295,-0.1015180689,-2.5681182955\H,0,2.44007718
 95,1.8759532054,-4.0439689086\H,0,1.0421191125,3.8179423956,-3.3278810
 843\H,0,-0.0135796839,3.7948013242,3.5495095714\H,0,-1.9253087175,2.28
 90833819,4.1614538801\H,0,-2.6697490652,0.5226664513,2.5886772877\H,0,
 -2.5719754278,-2.3635942772,1.9302322248\H,0,-6.805670119,-1.590653815
 5,2.3899317935\H,0,-4.5034062107,0.6537735951,-0.5012656493\H,0,-1.770
 3465894,-1.4793469271,-2.6940530968\H,0,-2.8658555268,1.9050828166,-5.
 1759609426\H,0,-2.4869997652,2.3957606475,-0.8977661168\C,0,2.30333900
 23,5.64916665,2.1622078724\H,0,0.2194551761,5.3154244135,1.6579517451\
 C,0,1.3584103927,5.533976473,-0.1986275568\C,0,0.1326557165,5.28583236
 31,-1.098586331\H,0,0.4239397361,5.5047164993,-2.1451181969\C,0,-1.082
 9359672,6.1370485867,-0.7434315193\H,0,2.2384488075,5.0187180882,-0.62
 4926382\H,0,1.5800269473,6.6172316371,-0.2206272964\H,0,2.2343282473,6
 .7495896208,2.1982239157\H,0,2.2055524566,5.2565261429,3.187773163\H,0
 ,3.3034696461,5.3750574072,1.7843567006\H,0,-0.8405960761,7.2092098132
 ,-0.8271796502\H,0,-1.9153114448,5.909931706,-1.429061165\H,0,-1.42544
 03045,5.9303906121,0.2841799582\H,0,6.4508701313,-1.6406302276,-0.6323
 949063\H,0,3.7249691694,2.2312411367,3.3318043055\H,0,2.0045817296,-1.
 4132960319,4.9198444305\H,0,3.7899749215,-3.8675517831,-3.2215797075\H
 ,0,-2.2543206814,-0.5091387042,-4.9565890206\H,0,-2.9900324774,3.35238
 57371,-3.1379539618\H,0,-6.6793679214,0.147379877,0.5973278181\H,0,-4.
 7442965325,-2.8416687234,3.0598909325\\Version=ES64L-G16RevB.01\State=
 1-A\HF=-2415.618991\RMSD=2.739e-09\Dipole=0.185114,1.5396431,-0.015598
 2\Quadrupole=-6.7937657,4.8596276,1.9341381,1.451752,-3.2328378,0.0680
 766\PG=C01 [X(C41H36O2P2)]\\@


 FOR THE NATURE OF THE CHEMICAL BOND
 IS THE PROBLEM AT THE HEART OF ALL CHEMISTRY.

                     -- BRYCE CRAWFORD, JR., 1953
 Job cpu time:       0 days  1 hours 58 minutes  4.0 seconds.
 Elapsed time:       0 days  0 hours  2 minutes 17.4 seconds.
 File lengths (MBytes):  RWF=   1345 Int=      0 D2E=      0 Chk=    203 Scr=      1
 Normal termination of Gaussian 16 at Tue Nov  2 10:24:59 2021.
