 Entering Gaussian System, Link 0=/uufs/chpc.utah.edu/sys/installdir/gaussian16/B01/E6B/g16/g16
 Input=RSS-C3-Tunephos_1.com
 Output=RSS-C3-Tunephos_1.log
 Initial command:
 /uufs/chpc.utah.edu/sys/installdir/gaussian16/B01/E6B/g16/l1.exe "/scratch/general/lustre/u1010977/3352294/notchpeak.peaks/Gau-12403.inp" -scrdir="/scratch/general/lustre/u1010977/3352294/notchpeak.peaks/"
 Entering Link 1 = /uufs/chpc.utah.edu/sys/installdir/gaussian16/B01/E6B/g16/l1.exe PID=     12405.
  
 Copyright (c) 1988-2017, Gaussian, Inc.  All Rights Reserved.
  
 This is part of the Gaussian(R) 16 program.  It is based on
 the Gaussian(R) 09 system (copyright 2009, Gaussian, Inc.),
 the Gaussian(R) 03 system (copyright 2003, Gaussian, Inc.),
 the Gaussian(R) 98 system (copyright 1998, Gaussian, Inc.),
 the Gaussian(R) 94 system (copyright 1995, Gaussian, Inc.),
 the Gaussian 92(TM) system (copyright 1992, Gaussian, Inc.),
 the Gaussian 90(TM) system (copyright 1990, Gaussian, Inc.),
 the Gaussian 88(TM) system (copyright 1988, Gaussian, Inc.),
 the Gaussian 86(TM) system (copyright 1986, Carnegie Mellon
 University), and the Gaussian 82(TM) system (copyright 1983,
 Carnegie Mellon University). Gaussian is a federally registered
 trademark of Gaussian, Inc.
  
 This software contains proprietary and confidential information,
 including trade secrets, belonging to Gaussian, Inc.
  
 This software is provided under written license and may be
 used, copied, transmitted, or stored only in accord with that
 written license.
  
 The following legend is applicable only to US Government
 contracts under FAR:
  
                    RESTRICTED RIGHTS LEGEND
  
 Use, reproduction and disclosure by the US Government is
 subject to restrictions as set forth in subparagraphs (a)
 and (c) of the Commercial Computer Software - Restricted
 Rights clause in FAR 52.227-19.
  
 Gaussian, Inc.
 340 Quinnipiac St., Bldg. 40, Wallingford CT 06492
  
  
 ---------------------------------------------------------------
 Warning -- This program may not be used in any manner that
 competes with the business of Gaussian, Inc. or will provide
 assistance to any competitor of Gaussian, Inc.  The licensee
 of this program is prohibited from giving any competitor of
 Gaussian, Inc. access to this program.  By using this program,
 the user acknowledges that Gaussian, Inc. is engaged in the
 business of creating and licensing software in the field of
 computational chemistry and represents and warrants to the
 licensee that it is not a competitor of Gaussian, Inc. and that
 it will not use this program in any manner prohibited above.
 ---------------------------------------------------------------
  

 Cite this work as:
 Gaussian 16, Revision B.01,
 M. J. Frisch, G. W. Trucks, H. B. Schlegel, G. E. Scuseria, 
 M. A. Robb, J. R. Cheeseman, G. Scalmani, V. Barone, 
 G. A. Petersson, H. Nakatsuji, X. Li, M. Caricato, A. V. Marenich, 
 J. Bloino, B. G. Janesko, R. Gomperts, B. Mennucci, H. P. Hratchian, 
 J. V. Ortiz, A. F. Izmaylov, J. L. Sonnenberg, D. Williams-Young, 
 F. Ding, F. Lipparini, F. Egidi, J. Goings, B. Peng, A. Petrone, 
 T. Henderson, D. Ranasinghe, V. G. Zakrzewski, J. Gao, N. Rega, 
 G. Zheng, W. Liang, M. Hada, M. Ehara, K. Toyota, R. Fukuda, 
 J. Hasegawa, M. Ishida, T. Nakajima, Y. Honda, O. Kitao, H. Nakai, 
 T. Vreven, K. Throssell, J. A. Montgomery, Jr., J. E. Peralta, 
 F. Ogliaro, M. J. Bearpark, J. J. Heyd, E. N. Brothers, K. N. Kudin, 
 V. N. Staroverov, T. A. Keith, R. Kobayashi, J. Normand, 
 K. Raghavachari, A. P. Rendell, J. C. Burant, S. S. Iyengar, 
 J. Tomasi, M. Cossi, J. M. Millam, M. Klene, C. Adamo, R. Cammi, 
 J. W. Ochterski, R. L. Martin, K. Morokuma, O. Farkas, 
 J. B. Foresman, and D. J. Fox, Gaussian, Inc., Wallingford CT, 2016.
 
 ******************************************
 Gaussian 16:  ES64L-G16RevB.01 20-Dec-2017
                31-Oct-2021 
 ******************************************
 %NProcShared=40
 Will use up to   40 processors via shared memory.
 %mem=18GB
 %chk=RSS-C3-Tunephos_1.chk
 ----------------------------------------------------------------------
 # PBEPBE gen 6D pseudo=read scf=maxcycles=500 denfit int=(grid=ultrafi
 ne) empiricaldispersion=GD3BJ opt freq=noraman
 ----------------------------------------------------------------------
 1/18=20,19=15,26=4,38=1/1,3;
 2/9=110,12=2,17=6,18=5,40=1/2;
 3/5=7,8=2,11=2,16=1,17=8,25=1,30=1,71=1,74=1009,75=-5,82=47,124=41/1,2,3;
 4//1;
 5/5=2,7=500,38=5/2;
 6/7=2,8=2,9=2,10=2,28=1/1;
 7//1,2,3,16;
 1/18=20,19=15,26=4/3(2);
 2/9=110/2;
 99//99;
 2/9=110/2;
 3/5=7,6=1,8=2,11=2,16=1,17=8,25=1,30=1,71=1,74=1009,75=-5,82=7,124=41/1,2,3;
 4/5=5,16=3,69=1/1;
 5/5=2,7=500,38=5/2;
 7//1,2,3,16;
 1/18=20,19=15,26=4/3(-5);
 2/9=110/2;
 6/7=2,8=2,9=2,10=2,19=2,28=1/1;
 99/9=1/99;
 -----
 title
 -----
 Symbolic Z-matrix:
 Charge =  0 Multiplicity = 1
 Pd                   -0.3274   -2.2796   -0.053 
 P                     1.6101   -0.8526   -0.0292 
 P                    -1.798    -0.3761    0.0164 
 O                    -0.3907    3.9761   -1.008 
 O                     1.4462    3.6564    1.272 
 C                     3.1563   -1.638    -0.7663 
 C                     3.0418   -2.4638   -1.9071 
 C                     4.1775   -3.06     -2.4883 
 C                     5.4502   -2.8351   -1.9335 
 C                     5.5811   -2.0144   -0.7984 
 C                     4.4417   -1.4211   -0.2208 
 C                     2.1614   -0.3569    1.6871 
 C                     2.8897    0.8303    1.9139 
 C                     3.2857    1.1918    3.2156 
 C                     2.964     0.3602    4.3045 
 C                     2.2481   -0.8322    4.0872 
 C                     1.8502   -1.1876    2.7836 
 C                     1.3786    0.7252   -1.0412 
 C                     2.0012    0.8067   -2.3085 
 C                     1.8421    1.9299   -3.1347 
 C                     1.0484    3.0017   -2.7063 
 C                     0.4227    2.9526   -1.444 
 C                     0.5759    1.8169   -0.6038 
 C                    -0.0732    1.8692    0.7274 
 C                     0.377     2.8692    1.6298 
 C                    -0.2204    3.0238    2.8951 
 C                    -1.2826    2.1916    3.2711 
 C                    -1.7364    1.2009    2.3858 
 C                    -1.1495    1.0193    1.1111 
 C                    -3.5062   -0.7461    0.7208 
 C                    -3.6312   -1.6309    1.8153 
 C                    -4.8914   -1.9238    2.3713 
 C                    -6.0496   -1.3307    1.8374 
 C                    -5.9418   -0.4469    0.7483 
 C                    -4.6789   -0.1579    0.1956 
 C                    -2.1774    0.3472   -1.6653 
 C                    -2.0937   -0.4734   -2.8094 
 C                    -2.3682    0.0501   -4.088 
 C                    -2.7317    1.4023   -4.2321 
 C                    -2.8251    2.2271   -3.0955 
 C                    -2.5533    1.6986   -1.8192 
 C                     1.2278    5.062     1.2558 
 H                     2.0708   -2.6458   -2.3435 
 H                     6.3235   -3.293    -2.3751 
 H                     4.5714   -0.7977    0.6502 
 H                     3.1313    1.4801    1.0844 
 H                     3.2666    0.6365    5.3041 
 H                     1.3076   -2.1084    2.6271 
 H                     2.6148    0.0017   -2.6785 
 H                     2.3204    1.9629   -4.1027 
 H                     0.9088    3.8447   -3.3642 
 H                     0.1462    3.7714    3.582 
 H                    -1.7434    2.3053    4.2414 
 H                    -2.5514    0.5776    2.7153 
 H                    -2.7505   -2.0942    2.2351 
 H                    -7.0184   -1.5552    2.2598 
 H                    -4.6262    0.522    -0.6403 
 H                    -1.8232   -1.5143   -2.7092 
 H                    -2.9393    1.8063   -5.2123 
 H                    -2.6168    2.3414   -0.9523 
 C                     2.3065    5.6779    2.1545 
 H                     0.2518    5.3378    1.6568 
 Cl                    1.0384   -4.1679    0.0099 
 Cl                   -2.1592   -3.7133   -0.2087 
 C                     1.3414    5.5455   -0.2071 
 C                     0.0965    5.3101   -1.0983 
 H                     0.3607    5.5463   -2.1285 
 C                    -1.0782    6.2267   -0.7317 
 H                     2.2085    5.0672   -0.6642 
 H                     1.5628    6.6129   -0.2169 
 H                     2.213     6.763     2.1986 
 H                     2.227     5.296     3.1724 
 H                     3.3055    5.4393    1.7888 
 H                    -0.7916    7.2774   -0.7742 
 H                    -1.907     6.0817   -1.425 
 H                    -1.4543    6.018     0.2695 
 H                     6.5561   -1.8403   -0.3669 
 H                     3.8295    2.1114    3.3752 
 H                     2.0046   -1.4748    4.9208 
 H                     4.0711   -3.6926   -3.3576 
 H                    -2.3011   -0.5864   -4.9584 
 H                    -3.0981    3.2671   -3.199 
 H                    -6.8285    0.0095    0.3328 
 H                    -4.9691   -2.6064    3.2052 
 

 GradGradGradGradGradGradGradGradGradGradGradGradGradGradGradGradGradGrad
 Berny optimization.
 Initialization pass.
                           ----------------------------
                           !    Initial Parameters    !
                           ! (Angstroms and Degrees)  !
 --------------------------                            --------------------------
 ! Name  Definition              Value          Derivative Info.                !
 --------------------------------------------------------------------------------
 ! R1    R(1,2)                  2.4064         estimate D2E/DX2                !
 ! R2    R(1,3)                  2.4064         estimate D2E/DX2                !
 ! R3    R(1,63)                 2.3313         estimate D2E/DX2                !
 ! R4    R(1,64)                 2.3314         estimate D2E/DX2                !
 ! R5    R(2,6)                  1.8844         estimate D2E/DX2                !
 ! R6    R(2,12)                 1.8696         estimate D2E/DX2                !
 ! R7    R(2,18)                 1.8887         estimate D2E/DX2                !
 ! R8    R(3,29)                 1.8884         estimate D2E/DX2                !
 ! R9    R(3,30)                 1.8844         estimate D2E/DX2                !
 ! R10   R(3,36)                 1.8696         estimate D2E/DX2                !
 ! R11   R(4,22)                 1.3781         estimate D2E/DX2                !
 ! R12   R(4,66)                 1.4231         estimate D2E/DX2                !
 ! R13   R(5,25)                 1.3751         estimate D2E/DX2                !
 ! R14   R(5,42)                 1.4226         estimate D2E/DX2                !
 ! R15   R(6,7)                  1.413          estimate D2E/DX2                !
 ! R16   R(6,11)                 1.4131         estimate D2E/DX2                !
 ! R17   R(7,8)                  1.4082         estimate D2E/DX2                !
 ! R18   R(7,43)                 1.08           estimate D2E/DX2                !
 ! R19   R(8,9)                  1.4065         estimate D2E/DX2                !
 ! R20   R(8,80)                 1.0804         estimate D2E/DX2                !
 ! R21   R(9,10)                 1.4068         estimate D2E/DX2                !
 ! R22   R(9,44)                 1.0804         estimate D2E/DX2                !
 ! R23   R(10,11)                1.4085         estimate D2E/DX2                !
 ! R24   R(10,77)                1.0803         estimate D2E/DX2                !
 ! R25   R(11,45)                1.0789         estimate D2E/DX2                !
 ! R26   R(12,13)                1.4111         estimate D2E/DX2                !
 ! R27   R(12,17)                1.4104         estimate D2E/DX2                !
 ! R28   R(13,14)                1.4078         estimate D2E/DX2                !
 ! R29   R(13,46)                1.0811         estimate D2E/DX2                !
 ! R30   R(14,15)                1.4074         estimate D2E/DX2                !
 ! R31   R(14,78)                1.0802         estimate D2E/DX2                !
 ! R32   R(15,16)                1.4077         estimate D2E/DX2                !
 ! R33   R(15,47)                1.0803         estimate D2E/DX2                !
 ! R34   R(16,17)                1.4085         estimate D2E/DX2                !
 ! R35   R(16,79)                1.0803         estimate D2E/DX2                !
 ! R36   R(17,48)                1.0802         estimate D2E/DX2                !
 ! R37   R(18,19)                1.4143         estimate D2E/DX2                !
 ! R38   R(18,23)                1.4239         estimate D2E/DX2                !
 ! R39   R(19,20)                1.4034         estimate D2E/DX2                !
 ! R40   R(19,49)                1.0777         estimate D2E/DX2                !
 ! R41   R(20,21)                1.4008         estimate D2E/DX2                !
 ! R42   R(20,50)                1.0802         estimate D2E/DX2                !
 ! R43   R(21,22)                1.4097         estimate D2E/DX2                !
 ! R44   R(21,51)                1.0784         estimate D2E/DX2                !
 ! R45   R(22,23)                1.421          estimate D2E/DX2                !
 ! R46   R(23,24)                1.4819         estimate D2E/DX2                !
 ! R47   R(24,25)                1.4202         estimate D2E/DX2                !
 ! R48   R(24,29)                1.4241         estimate D2E/DX2                !
 ! R49   R(25,26)                1.4078         estimate D2E/DX2                !
 ! R50   R(26,27)                1.4008         estimate D2E/DX2                !
 ! R51   R(26,52)                1.0794         estimate D2E/DX2                !
 ! R52   R(27,28)                1.404          estimate D2E/DX2                !
 ! R53   R(27,53)                1.0802         estimate D2E/DX2                !
 ! R54   R(28,29)                1.415          estimate D2E/DX2                !
 ! R55   R(28,54)                1.0776         estimate D2E/DX2                !
 ! R56   R(30,31)                1.4129         estimate D2E/DX2                !
 ! R57   R(30,35)                1.4132         estimate D2E/DX2                !
 ! R58   R(31,32)                1.4082         estimate D2E/DX2                !
 ! R59   R(31,55)                1.0801         estimate D2E/DX2                !
 ! R60   R(32,33)                1.4065         estimate D2E/DX2                !
 ! R61   R(32,84)                1.0804         estimate D2E/DX2                !
 ! R62   R(33,34)                1.4067         estimate D2E/DX2                !
 ! R63   R(33,56)                1.0805         estimate D2E/DX2                !
 ! R64   R(34,35)                1.4085         estimate D2E/DX2                !
 ! R65   R(34,83)                1.0804         estimate D2E/DX2                !
 ! R66   R(35,57)                1.0788         estimate D2E/DX2                !
 ! R67   R(36,37)                1.4104         estimate D2E/DX2                !
 ! R68   R(36,41)                1.4111         estimate D2E/DX2                !
 ! R69   R(37,38)                1.4086         estimate D2E/DX2                !
 ! R70   R(37,58)                1.0801         estimate D2E/DX2                !
 ! R71   R(38,39)                1.4076         estimate D2E/DX2                !
 ! R72   R(38,81)                1.0804         estimate D2E/DX2                !
 ! R73   R(39,40)                1.4074         estimate D2E/DX2                !
 ! R74   R(39,59)                1.0803         estimate D2E/DX2                !
 ! R75   R(40,41)                1.4079         estimate D2E/DX2                !
 ! R76   R(40,82)                1.0802         estimate D2E/DX2                !
 ! R77   R(41,60)                1.0811         estimate D2E/DX2                !
 ! R78   R(42,61)                1.5332         estimate D2E/DX2                !
 ! R79   R(42,62)                1.0906         estimate D2E/DX2                !
 ! R80   R(42,65)                1.5449         estimate D2E/DX2                !
 ! R81   R(61,71)                1.09           estimate D2E/DX2                !
 ! R82   R(61,72)                1.0901         estimate D2E/DX2                !
 ! R83   R(61,73)                1.0903         estimate D2E/DX2                !
 ! R84   R(65,66)                1.549          estimate D2E/DX2                !
 ! R85   R(65,69)                1.0907         estimate D2E/DX2                !
 ! R86   R(65,70)                1.0902         estimate D2E/DX2                !
 ! R87   R(66,67)                1.0895         estimate D2E/DX2                !
 ! R88   R(66,68)                1.5344         estimate D2E/DX2                !
 ! R89   R(68,74)                1.0899         estimate D2E/DX2                !
 ! R90   R(68,75)                1.0902         estimate D2E/DX2                !
 ! R91   R(68,76)                1.0897         estimate D2E/DX2                !
 ! A1    A(2,1,3)               91.2996         estimate D2E/DX2                !
 ! A2    A(2,1,63)              90.4787         estimate D2E/DX2                !
 ! A3    A(3,1,64)              90.4699         estimate D2E/DX2                !
 ! A4    A(63,1,64)             87.9377         estimate D2E/DX2                !
 ! A5    A(1,2,6)              114.1808         estimate D2E/DX2                !
 ! A6    A(1,2,12)             113.8113         estimate D2E/DX2                !
 ! A7    A(1,2,18)             113.0416         estimate D2E/DX2                !
 ! A8    A(6,2,12)             103.1583         estimate D2E/DX2                !
 ! A9    A(6,2,18)             103.8374         estimate D2E/DX2                !
 ! A10   A(12,2,18)            107.8506         estimate D2E/DX2                !
 ! A11   A(1,3,29)             113.039          estimate D2E/DX2                !
 ! A12   A(1,3,30)             114.1696         estimate D2E/DX2                !
 ! A13   A(1,3,36)             113.8352         estimate D2E/DX2                !
 ! A14   A(29,3,30)            103.8685         estimate D2E/DX2                !
 ! A15   A(29,3,36)            107.7737         estimate D2E/DX2                !
 ! A16   A(30,3,36)            103.1939         estimate D2E/DX2                !
 ! A17   A(22,4,66)            118.2975         estimate D2E/DX2                !
 ! A18   A(25,5,42)            116.6945         estimate D2E/DX2                !
 ! A19   A(2,6,7)              119.5324         estimate D2E/DX2                !
 ! A20   A(2,6,11)             122.1004         estimate D2E/DX2                !
 ! A21   A(7,6,11)             118.3652         estimate D2E/DX2                !
 ! A22   A(6,7,8)              121.018          estimate D2E/DX2                !
 ! A23   A(6,7,43)             119.8403         estimate D2E/DX2                !
 ! A24   A(8,7,43)             119.1416         estimate D2E/DX2                !
 ! A25   A(7,8,9)              119.9522         estimate D2E/DX2                !
 ! A26   A(7,8,80)             120.0376         estimate D2E/DX2                !
 ! A27   A(9,8,80)             120.0099         estimate D2E/DX2                !
 ! A28   A(8,9,10)             119.7197         estimate D2E/DX2                !
 ! A29   A(8,9,44)             120.16           estimate D2E/DX2                !
 ! A30   A(10,9,44)            120.1201         estimate D2E/DX2                !
 ! A31   A(9,10,11)            120.0888         estimate D2E/DX2                !
 ! A32   A(9,10,77)            120.0169         estimate D2E/DX2                !
 ! A33   A(11,10,77)           119.8941         estimate D2E/DX2                !
 ! A34   A(6,11,10)            120.856          estimate D2E/DX2                !
 ! A35   A(6,11,45)            120.6417         estimate D2E/DX2                !
 ! A36   A(10,11,45)           118.5021         estimate D2E/DX2                !
 ! A37   A(2,12,13)            121.5201         estimate D2E/DX2                !
 ! A38   A(2,12,17)            119.5033         estimate D2E/DX2                !
 ! A39   A(13,12,17)           118.976          estimate D2E/DX2                !
 ! A40   A(12,13,14)           120.6516         estimate D2E/DX2                !
 ! A41   A(12,13,46)           119.8488         estimate D2E/DX2                !
 ! A42   A(14,13,46)           119.4894         estimate D2E/DX2                !
 ! A43   A(13,14,15)           119.9578         estimate D2E/DX2                !
 ! A44   A(13,14,78)           119.79           estimate D2E/DX2                !
 ! A45   A(15,14,78)           120.2506         estimate D2E/DX2                !
 ! A46   A(14,15,16)           119.8235         estimate D2E/DX2                !
 ! A47   A(14,15,47)           120.0489         estimate D2E/DX2                !
 ! A48   A(16,15,47)           120.1275         estimate D2E/DX2                !
 ! A49   A(15,16,17)           120.0173         estimate D2E/DX2                !
 ! A50   A(15,16,79)           119.9582         estimate D2E/DX2                !
 ! A51   A(17,16,79)           120.0245         estimate D2E/DX2                !
 ! A52   A(12,17,16)           120.5689         estimate D2E/DX2                !
 ! A53   A(12,17,48)           120.0185         estimate D2E/DX2                !
 ! A54   A(16,17,48)           119.4115         estimate D2E/DX2                !
 ! A55   A(2,18,19)            118.3137         estimate D2E/DX2                !
 ! A56   A(2,18,23)            123.0245         estimate D2E/DX2                !
 ! A57   A(19,18,23)           118.6355         estimate D2E/DX2                !
 ! A58   A(18,19,20)           121.5829         estimate D2E/DX2                !
 ! A59   A(18,19,49)           121.0128         estimate D2E/DX2                !
 ! A60   A(20,19,49)           117.4037         estimate D2E/DX2                !
 ! A61   A(19,20,21)           119.773          estimate D2E/DX2                !
 ! A62   A(19,20,50)           120.1198         estimate D2E/DX2                !
 ! A63   A(21,20,50)           120.1032         estimate D2E/DX2                !
 ! A64   A(20,21,22)           119.9127         estimate D2E/DX2                !
 ! A65   A(20,21,51)           119.0048         estimate D2E/DX2                !
 ! A66   A(22,21,51)           121.0669         estimate D2E/DX2                !
 ! A67   A(4,22,21)            121.2909         estimate D2E/DX2                !
 ! A68   A(4,22,23)            118.043          estimate D2E/DX2                !
 ! A69   A(21,22,23)           120.6258         estimate D2E/DX2                !
 ! A70   A(18,23,22)           119.4667         estimate D2E/DX2                !
 ! A71   A(18,23,24)           123.3614         estimate D2E/DX2                !
 ! A72   A(22,23,24)           117.1102         estimate D2E/DX2                !
 ! A73   A(23,24,25)           117.1788         estimate D2E/DX2                !
 ! A74   A(23,24,29)           123.505          estimate D2E/DX2                !
 ! A75   A(25,24,29)           119.249          estimate D2E/DX2                !
 ! A76   A(5,25,24)            118.9623         estimate D2E/DX2                !
 ! A77   A(5,25,26)            120.0637         estimate D2E/DX2                !
 ! A78   A(24,25,26)           120.9243         estimate D2E/DX2                !
 ! A79   A(25,26,27)           119.8549         estimate D2E/DX2                !
 ! A80   A(25,26,52)           120.2586         estimate D2E/DX2                !
 ! A81   A(27,26,52)           119.8805         estimate D2E/DX2                !
 ! A82   A(26,27,28)           119.6733         estimate D2E/DX2                !
 ! A83   A(26,27,53)           120.1372         estimate D2E/DX2                !
 ! A84   A(28,27,53)           120.1866         estimate D2E/DX2                !
 ! A85   A(27,28,29)           121.6366         estimate D2E/DX2                !
 ! A86   A(27,28,54)           117.3731         estimate D2E/DX2                !
 ! A87   A(29,28,54)           120.9901         estimate D2E/DX2                !
 ! A88   A(3,29,24)            122.9807         estimate D2E/DX2                !
 ! A89   A(3,29,28)            118.3338         estimate D2E/DX2                !
 ! A90   A(24,29,28)           118.6594         estimate D2E/DX2                !
 ! A91   A(3,30,31)            119.5185         estimate D2E/DX2                !
 ! A92   A(3,30,35)            122.1129         estimate D2E/DX2                !
 ! A93   A(31,30,35)           118.367          estimate D2E/DX2                !
 ! A94   A(30,31,32)           121.0149         estimate D2E/DX2                !
 ! A95   A(30,31,55)           119.839          estimate D2E/DX2                !
 ! A96   A(32,31,55)           119.146          estimate D2E/DX2                !
 ! A97   A(31,32,33)           119.9559         estimate D2E/DX2                !
 ! A98   A(31,32,84)           120.0328         estimate D2E/DX2                !
 ! A99   A(33,32,84)           120.0109         estimate D2E/DX2                !
 ! A100  A(32,33,34)           119.7169         estimate D2E/DX2                !
 ! A101  A(32,33,56)           120.1551         estimate D2E/DX2                !
 ! A102  A(34,33,56)           120.1277         estimate D2E/DX2                !
 ! A103  A(33,34,35)           120.0939         estimate D2E/DX2                !
 ! A104  A(33,34,83)           120.0182         estimate D2E/DX2                !
 ! A105  A(35,34,83)           119.8877         estimate D2E/DX2                !
 ! A106  A(30,35,34)           120.8513         estimate D2E/DX2                !
 ! A107  A(30,35,57)           120.6479         estimate D2E/DX2                !
 ! A108  A(34,35,57)           118.5006         estimate D2E/DX2                !
 ! A109  A(3,36,37)            119.5066         estimate D2E/DX2                !
 ! A110  A(3,36,41)            121.5117         estimate D2E/DX2                !
 ! A111  A(37,36,41)           118.981          estimate D2E/DX2                !
 ! A112  A(36,37,38)           120.5642         estimate D2E/DX2                !
 ! A113  A(36,37,58)           120.0188         estimate D2E/DX2                !
 ! A114  A(38,37,58)           119.416          estimate D2E/DX2                !
 ! A115  A(37,38,39)           120.0171         estimate D2E/DX2                !
 ! A116  A(37,38,81)           120.0147         estimate D2E/DX2                !
 ! A117  A(39,38,81)           119.9681         estimate D2E/DX2                !
 ! A118  A(38,39,40)           119.83           estimate D2E/DX2                !
 ! A119  A(38,39,59)           120.1159         estimate D2E/DX2                !
 ! A120  A(40,39,59)           120.054          estimate D2E/DX2                !
 ! A121  A(39,40,41)           119.9532         estimate D2E/DX2                !
 ! A122  A(39,40,82)           120.2393         estimate D2E/DX2                !
 ! A123  A(41,40,82)           119.8061         estimate D2E/DX2                !
 ! A124  A(36,41,40)           120.6502         estimate D2E/DX2                !
 ! A125  A(36,41,60)           119.8424         estimate D2E/DX2                !
 ! A126  A(40,41,60)           119.4982         estimate D2E/DX2                !
 ! A127  A(5,42,61)            106.3937         estimate D2E/DX2                !
 ! A128  A(5,42,62)            112.5243         estimate D2E/DX2                !
 ! A129  A(5,42,65)            107.9825         estimate D2E/DX2                !
 ! A130  A(61,42,62)           108.2114         estimate D2E/DX2                !
 ! A131  A(61,42,65)           112.185          estimate D2E/DX2                !
 ! A132  A(62,42,65)           109.5619         estimate D2E/DX2                !
 ! A133  A(42,61,71)           111.3012         estimate D2E/DX2                !
 ! A134  A(42,61,72)           110.8123         estimate D2E/DX2                !
 ! A135  A(42,61,73)           111.1096         estimate D2E/DX2                !
 ! A136  A(71,61,72)           107.7416         estimate D2E/DX2                !
 ! A137  A(71,61,73)           108.061          estimate D2E/DX2                !
 ! A138  A(72,61,73)           107.66           estimate D2E/DX2                !
 ! A139  A(42,65,66)           115.9851         estimate D2E/DX2                !
 ! A140  A(42,65,69)           108.5458         estimate D2E/DX2                !
 ! A141  A(42,65,70)           109.2611         estimate D2E/DX2                !
 ! A142  A(66,65,69)           109.3396         estimate D2E/DX2                !
 ! A143  A(66,65,70)           107.8689         estimate D2E/DX2                !
 ! A144  A(69,65,70)           105.3166         estimate D2E/DX2                !
 ! A145  A(4,66,65)            112.4018         estimate D2E/DX2                !
 ! A146  A(4,66,67)            110.2593         estimate D2E/DX2                !
 ! A147  A(4,66,68)            106.4223         estimate D2E/DX2                !
 ! A148  A(65,66,67)           108.4333         estimate D2E/DX2                !
 ! A149  A(65,66,68)           112.7696         estimate D2E/DX2                !
 ! A150  A(67,66,68)           106.3836         estimate D2E/DX2                !
 ! A151  A(66,68,74)           111.4222         estimate D2E/DX2                !
 ! A152  A(66,68,75)           110.5244         estimate D2E/DX2                !
 ! A153  A(66,68,76)           111.6749         estimate D2E/DX2                !
 ! A154  A(74,68,75)           107.657          estimate D2E/DX2                !
 ! A155  A(74,68,76)           108.1327         estimate D2E/DX2                !
 ! A156  A(75,68,76)           107.2432         estimate D2E/DX2                !
 ! A157  L(2,1,64,63,-1)       178.4164         estimate D2E/DX2                !
 ! A158  L(3,1,63,64,-1)       178.4076         estimate D2E/DX2                !
 ! A159  L(2,1,64,63,-2)       183.3092         estimate D2E/DX2                !
 ! A160  L(3,1,63,64,-2)       183.3136         estimate D2E/DX2                !
 ! D1    D(3,1,2,6)           -155.9922         estimate D2E/DX2                !
 ! D2    D(3,1,2,12)            85.915          estimate D2E/DX2                !
 ! D3    D(3,1,2,18)           -37.5755         estimate D2E/DX2                !
 ! D4    D(63,1,2,6)            27.2247         estimate D2E/DX2                !
 ! D5    D(63,1,2,12)          -90.868          estimate D2E/DX2                !
 ! D6    D(63,1,2,18)          145.6414         estimate D2E/DX2                !
 ! D7    D(2,1,3,29)           -37.5608         estimate D2E/DX2                !
 ! D8    D(2,1,3,30)          -156.0083         estimate D2E/DX2                !
 ! D9    D(2,1,3,36)            85.8425         estimate D2E/DX2                !
 ! D10   D(64,1,3,29)          145.6521         estimate D2E/DX2                !
 ! D11   D(64,1,3,30)           27.2046         estimate D2E/DX2                !
 ! D12   D(64,1,3,36)          -90.9446         estimate D2E/DX2                !
 ! D13   D(1,2,6,7)             38.4385         estimate D2E/DX2                !
 ! D14   D(1,2,6,11)          -142.0697         estimate D2E/DX2                !
 ! D15   D(12,2,6,7)           162.4571         estimate D2E/DX2                !
 ! D16   D(12,2,6,11)          -18.0511         estimate D2E/DX2                !
 ! D17   D(18,2,6,7)           -85.098          estimate D2E/DX2                !
 ! D18   D(18,2,6,11)           94.3938         estimate D2E/DX2                !
 ! D19   D(1,2,12,13)         -154.6776         estimate D2E/DX2                !
 ! D20   D(1,2,12,17)           25.6042         estimate D2E/DX2                !
 ! D21   D(6,2,12,13)           81.0613         estimate D2E/DX2                !
 ! D22   D(6,2,12,17)          -98.657          estimate D2E/DX2                !
 ! D23   D(18,2,12,13)         -28.4094         estimate D2E/DX2                !
 ! D24   D(18,2,12,17)         151.8723         estimate D2E/DX2                !
 ! D25   D(1,2,18,19)         -103.8624         estimate D2E/DX2                !
 ! D26   D(1,2,18,23)           74.244          estimate D2E/DX2                !
 ! D27   D(6,2,18,19)           20.415          estimate D2E/DX2                !
 ! D28   D(6,2,18,23)         -161.4786         estimate D2E/DX2                !
 ! D29   D(12,2,18,19)         129.4186         estimate D2E/DX2                !
 ! D30   D(12,2,18,23)         -52.475          estimate D2E/DX2                !
 ! D31   D(1,3,29,24)           74.1679         estimate D2E/DX2                !
 ! D32   D(1,3,29,28)         -103.9468         estimate D2E/DX2                !
 ! D33   D(30,3,29,24)        -161.5489         estimate D2E/DX2                !
 ! D34   D(30,3,29,28)          20.3364         estimate D2E/DX2                !
 ! D35   D(36,3,29,24)         -52.5211         estimate D2E/DX2                !
 ! D36   D(36,3,29,28)         129.3643         estimate D2E/DX2                !
 ! D37   D(1,3,30,31)           38.576          estimate D2E/DX2                !
 ! D38   D(1,3,30,35)         -141.8874         estimate D2E/DX2                !
 ! D39   D(29,3,30,31)         -84.9724         estimate D2E/DX2                !
 ! D40   D(29,3,30,35)          94.5642         estimate D2E/DX2                !
 ! D41   D(36,3,30,31)         162.6425         estimate D2E/DX2                !
 ! D42   D(36,3,30,35)         -17.8209         estimate D2E/DX2                !
 ! D43   D(1,3,36,37)           25.4361         estimate D2E/DX2                !
 ! D44   D(1,3,36,41)         -154.8625         estimate D2E/DX2                !
 ! D45   D(29,3,36,37)         151.6578         estimate D2E/DX2                !
 ! D46   D(29,3,36,41)         -28.6408         estimate D2E/DX2                !
 ! D47   D(30,3,36,37)         -98.8497         estimate D2E/DX2                !
 ! D48   D(30,3,36,41)          80.8517         estimate D2E/DX2                !
 ! D49   D(66,4,22,21)         -49.602          estimate D2E/DX2                !
 ! D50   D(66,4,22,23)         132.6944         estimate D2E/DX2                !
 ! D51   D(22,4,66,65)         -63.744          estimate D2E/DX2                !
 ! D52   D(22,4,66,67)          57.3679         estimate D2E/DX2                !
 ! D53   D(22,4,66,68)         172.3443         estimate D2E/DX2                !
 ! D54   D(42,5,25,24)         122.6993         estimate D2E/DX2                !
 ! D55   D(42,5,25,26)         -59.8403         estimate D2E/DX2                !
 ! D56   D(25,5,42,61)         125.5005         estimate D2E/DX2                !
 ! D57   D(25,5,42,62)           7.1622         estimate D2E/DX2                !
 ! D58   D(25,5,42,65)        -113.8819         estimate D2E/DX2                !
 ! D59   D(2,6,7,8)            179.617          estimate D2E/DX2                !
 ! D60   D(2,6,7,43)            -0.4986         estimate D2E/DX2                !
 ! D61   D(11,6,7,8)             0.1063         estimate D2E/DX2                !
 ! D62   D(11,6,7,43)          179.9907         estimate D2E/DX2                !
 ! D63   D(2,6,11,10)         -179.5742         estimate D2E/DX2                !
 ! D64   D(2,6,11,45)            0.551          estimate D2E/DX2                !
 ! D65   D(7,6,11,10)           -0.0767         estimate D2E/DX2                !
 ! D66   D(7,6,11,45)         -179.9515         estimate D2E/DX2                !
 ! D67   D(6,7,8,9)             -0.0808         estimate D2E/DX2                !
 ! D68   D(6,7,8,80)           179.6992         estimate D2E/DX2                !
 ! D69   D(43,7,8,9)          -179.966          estimate D2E/DX2                !
 ! D70   D(43,7,8,80)           -0.186          estimate D2E/DX2                !
 ! D71   D(7,8,9,10)             0.0234         estimate D2E/DX2                !
 ! D72   D(7,8,9,44)           179.8342         estimate D2E/DX2                !
 ! D73   D(80,8,9,10)         -179.7567         estimate D2E/DX2                !
 ! D74   D(80,8,9,44)            0.0542         estimate D2E/DX2                !
 ! D75   D(8,9,10,11)            0.0057         estimate D2E/DX2                !
 ! D76   D(8,9,10,77)          179.8541         estimate D2E/DX2                !
 ! D77   D(44,9,10,11)        -179.8052         estimate D2E/DX2                !
 ! D78   D(44,9,10,77)           0.0432         estimate D2E/DX2                !
 ! D79   D(9,10,11,6)            0.0218         estimate D2E/DX2                !
 ! D80   D(9,10,11,45)         179.8992         estimate D2E/DX2                !
 ! D81   D(77,10,11,6)        -179.8268         estimate D2E/DX2                !
 ! D82   D(77,10,11,45)          0.0507         estimate D2E/DX2                !
 ! D83   D(2,12,13,14)         179.4461         estimate D2E/DX2                !
 ! D84   D(2,12,13,46)           0.6093         estimate D2E/DX2                !
 ! D85   D(17,12,13,14)         -0.8342         estimate D2E/DX2                !
 ! D86   D(17,12,13,46)       -179.671          estimate D2E/DX2                !
 ! D87   D(2,12,17,16)        -179.65           estimate D2E/DX2                !
 ! D88   D(2,12,17,48)           0.7325         estimate D2E/DX2                !
 ! D89   D(13,12,17,16)          0.6245         estimate D2E/DX2                !
 ! D90   D(13,12,17,48)       -178.9929         estimate D2E/DX2                !
 ! D91   D(12,13,14,15)          0.4861         estimate D2E/DX2                !
 ! D92   D(12,13,14,78)       -179.0545         estimate D2E/DX2                !
 ! D93   D(46,13,14,15)        179.327          estimate D2E/DX2                !
 ! D94   D(46,13,14,78)         -0.2136         estimate D2E/DX2                !
 ! D95   D(13,14,15,16)          0.0826         estimate D2E/DX2                !
 ! D96   D(13,14,15,47)       -179.9607         estimate D2E/DX2                !
 ! D97   D(78,14,15,16)        179.621          estimate D2E/DX2                !
 ! D98   D(78,14,15,47)         -0.4222         estimate D2E/DX2                !
 ! D99   D(14,15,16,17)         -0.29           estimate D2E/DX2                !
 ! D100  D(14,15,16,79)        179.6731         estimate D2E/DX2                !
 ! D101  D(47,15,16,17)        179.7533         estimate D2E/DX2                !
 ! D102  D(47,15,16,79)         -0.2836         estimate D2E/DX2                !
 ! D103  D(15,16,17,12)         -0.0678         estimate D2E/DX2                !
 ! D104  D(15,16,17,48)        179.552          estimate D2E/DX2                !
 ! D105  D(79,16,17,12)        179.9692         estimate D2E/DX2                !
 ! D106  D(79,16,17,48)         -0.4111         estimate D2E/DX2                !
 ! D107  D(2,18,19,20)         178.064          estimate D2E/DX2                !
 ! D108  D(2,18,19,49)          -1.6486         estimate D2E/DX2                !
 ! D109  D(23,18,19,20)         -0.1271         estimate D2E/DX2                !
 ! D110  D(23,18,19,49)       -179.8396         estimate D2E/DX2                !
 ! D111  D(2,18,23,22)        -178.1678         estimate D2E/DX2                !
 ! D112  D(2,18,23,24)           4.773          estimate D2E/DX2                !
 ! D113  D(19,18,23,22)         -0.0672         estimate D2E/DX2                !
 ! D114  D(19,18,23,24)       -177.1264         estimate D2E/DX2                !
 ! D115  D(18,19,20,21)         -0.105          estimate D2E/DX2                !
 ! D116  D(18,19,20,50)       -179.3752         estimate D2E/DX2                !
 ! D117  D(49,19,20,21)        179.6175         estimate D2E/DX2                !
 ! D118  D(49,19,20,50)          0.3473         estimate D2E/DX2                !
 ! D119  D(19,20,21,22)          0.5326         estimate D2E/DX2                !
 ! D120  D(19,20,21,51)       -178.0468         estimate D2E/DX2                !
 ! D121  D(50,20,21,22)        179.8029         estimate D2E/DX2                !
 ! D122  D(50,20,21,51)          1.2235         estimate D2E/DX2                !
 ! D123  D(20,21,22,4)        -178.3763         estimate D2E/DX2                !
 ! D124  D(20,21,22,23)         -0.7316         estimate D2E/DX2                !
 ! D125  D(51,21,22,4)           0.1732         estimate D2E/DX2                !
 ! D126  D(51,21,22,23)        177.8179         estimate D2E/DX2                !
 ! D127  D(4,22,23,18)         178.2151         estimate D2E/DX2                !
 ! D128  D(4,22,23,24)          -4.5441         estimate D2E/DX2                !
 ! D129  D(21,22,23,18)          0.4956         estimate D2E/DX2                !
 ! D130  D(21,22,23,24)        177.7363         estimate D2E/DX2                !
 ! D131  D(18,23,24,25)        114.2489         estimate D2E/DX2                !
 ! D132  D(18,23,24,29)        -68.7601         estimate D2E/DX2                !
 ! D133  D(22,23,24,25)        -62.8748         estimate D2E/DX2                !
 ! D134  D(22,23,24,29)        114.1163         estimate D2E/DX2                !
 ! D135  D(23,24,25,5)          -5.0762         estimate D2E/DX2                !
 ! D136  D(23,24,25,26)        177.4861         estimate D2E/DX2                !
 ! D137  D(29,24,25,5)         177.7993         estimate D2E/DX2                !
 ! D138  D(29,24,25,26)          0.3616         estimate D2E/DX2                !
 ! D139  D(23,24,29,3)           4.9287         estimate D2E/DX2                !
 ! D140  D(23,24,29,28)       -176.9625         estimate D2E/DX2                !
 ! D141  D(25,24,29,3)        -178.1392         estimate D2E/DX2                !
 ! D142  D(25,24,29,28)         -0.0304         estimate D2E/DX2                !
 ! D143  D(5,25,26,27)        -178.0239         estimate D2E/DX2                !
 ! D144  D(5,25,26,52)           1.0856         estimate D2E/DX2                !
 ! D145  D(24,25,26,27)         -0.6141         estimate D2E/DX2                !
 ! D146  D(24,25,26,52)        178.4953         estimate D2E/DX2                !
 ! D147  D(25,26,27,28)          0.5282         estimate D2E/DX2                !
 ! D148  D(25,26,27,53)        179.9119         estimate D2E/DX2                !
 ! D149  D(52,26,27,28)       -178.5847         estimate D2E/DX2                !
 ! D150  D(52,26,27,53)          0.7991         estimate D2E/DX2                !
 ! D151  D(26,27,28,29)         -0.2011         estimate D2E/DX2                !
 ! D152  D(26,27,28,54)        179.6234         estimate D2E/DX2                !
 ! D153  D(53,27,28,29)       -179.5845         estimate D2E/DX2                !
 ! D154  D(53,27,28,54)          0.24           estimate D2E/DX2                !
 ! D155  D(27,28,29,3)         178.1494         estimate D2E/DX2                !
 ! D156  D(27,28,29,24)         -0.0483         estimate D2E/DX2                !
 ! D157  D(54,28,29,3)          -1.6688         estimate D2E/DX2                !
 ! D158  D(54,28,29,24)       -179.8665         estimate D2E/DX2                !
 ! D159  D(3,30,31,32)         179.6369         estimate D2E/DX2                !
 ! D160  D(3,30,31,55)          -0.4773         estimate D2E/DX2                !
 ! D161  D(35,30,31,32)          0.083          estimate D2E/DX2                !
 ! D162  D(35,30,31,55)        179.9688         estimate D2E/DX2                !
 ! D163  D(3,30,35,34)        -179.5945         estimate D2E/DX2                !
 ! D164  D(3,30,35,57)           0.5305         estimate D2E/DX2                !
 ! D165  D(31,30,35,34)         -0.0528         estimate D2E/DX2                !
 ! D166  D(31,30,35,57)       -179.9278         estimate D2E/DX2                !
 ! D167  D(30,31,32,33)         -0.0714         estimate D2E/DX2                !
 ! D168  D(30,31,32,84)        179.7094         estimate D2E/DX2                !
 ! D169  D(55,31,32,33)       -179.9581         estimate D2E/DX2                !
 ! D170  D(55,31,32,84)         -0.1772         estimate D2E/DX2                !
 ! D171  D(31,32,33,34)          0.0279         estimate D2E/DX2                !
 ! D172  D(31,32,33,56)        179.8361         estimate D2E/DX2                !
 ! D173  D(84,32,33,34)       -179.753          estimate D2E/DX2                !
 ! D174  D(84,32,33,56)          0.0552         estimate D2E/DX2                !
 ! D175  D(32,33,34,35)          0.0017         estimate D2E/DX2                !
 ! D176  D(32,33,34,83)        179.8478         estimate D2E/DX2                !
 ! D177  D(56,33,34,35)       -179.8065         estimate D2E/DX2                !
 ! D178  D(56,33,34,83)          0.0396         estimate D2E/DX2                !
 ! D179  D(33,34,35,30)          0.0113         estimate D2E/DX2                !
 ! D180  D(33,34,35,57)        179.8889         estimate D2E/DX2                !
 ! D181  D(83,34,35,30)       -179.835          estimate D2E/DX2                !
 ! D182  D(83,34,35,57)          0.0426         estimate D2E/DX2                !
 ! D183  D(3,36,37,38)        -179.6784         estimate D2E/DX2                !
 ! D184  D(3,36,37,58)           0.703          estimate D2E/DX2                !
 ! D185  D(41,36,37,38)          0.6126         estimate D2E/DX2                !
 ! D186  D(41,36,37,58)       -179.006          estimate D2E/DX2                !
 ! D187  D(3,36,41,40)         179.5129         estimate D2E/DX2                !
 ! D188  D(3,36,41,60)           0.6192         estimate D2E/DX2                !
 ! D189  D(37,36,41,40)         -0.7841         estimate D2E/DX2                !
 ! D190  D(37,36,41,60)       -179.6779         estimate D2E/DX2                !
 ! D191  D(36,37,38,39)         -0.0985         estimate D2E/DX2                !
 ! D192  D(36,37,38,81)        179.9821         estimate D2E/DX2                !
 ! D193  D(58,37,38,39)        179.5224         estimate D2E/DX2                !
 ! D194  D(58,37,38,81)         -0.397          estimate D2E/DX2                !
 ! D195  D(37,38,39,40)         -0.2546         estimate D2E/DX2                !
 ! D196  D(37,38,39,59)        179.7919         estimate D2E/DX2                !
 ! D197  D(81,38,39,40)        179.6649         estimate D2E/DX2                !
 ! D198  D(81,38,39,59)         -0.2886         estimate D2E/DX2                !
 ! D199  D(38,39,40,41)          0.085          estimate D2E/DX2                !
 ! D200  D(38,39,40,82)        179.6566         estimate D2E/DX2                !
 ! D201  D(59,39,40,41)       -179.9614         estimate D2E/DX2                !
 ! D202  D(59,39,40,82)         -0.3898         estimate D2E/DX2                !
 ! D203  D(39,40,41,36)          0.4405         estimate D2E/DX2                !
 ! D204  D(39,40,41,60)        179.338          estimate D2E/DX2                !
 ! D205  D(82,40,41,36)       -179.133          estimate D2E/DX2                !
 ! D206  D(82,40,41,60)         -0.2355         estimate D2E/DX2                !
 ! D207  D(5,42,61,71)         179.9413         estimate D2E/DX2                !
 ! D208  D(5,42,61,72)         -60.1837         estimate D2E/DX2                !
 ! D209  D(5,42,61,73)          59.4619         estimate D2E/DX2                !
 ! D210  D(62,42,61,71)        -58.917          estimate D2E/DX2                !
 ! D211  D(62,42,61,72)         60.9579         estimate D2E/DX2                !
 ! D212  D(62,42,61,73)       -179.3964         estimate D2E/DX2                !
 ! D213  D(65,42,61,71)         62.0687         estimate D2E/DX2                !
 ! D214  D(65,42,61,72)       -178.0564         estimate D2E/DX2                !
 ! D215  D(65,42,61,73)        -58.4107         estimate D2E/DX2                !
 ! D216  D(5,42,65,66)          79.5223         estimate D2E/DX2                !
 ! D217  D(5,42,65,69)         -43.9895         estimate D2E/DX2                !
 ! D218  D(5,42,65,70)        -158.3434         estimate D2E/DX2                !
 ! D219  D(61,42,65,66)       -163.5533         estimate D2E/DX2                !
 ! D220  D(61,42,65,69)         72.935          estimate D2E/DX2                !
 ! D221  D(61,42,65,70)        -41.419          estimate D2E/DX2                !
 ! D222  D(62,42,65,66)        -43.349          estimate D2E/DX2                !
 ! D223  D(62,42,65,69)       -166.8608         estimate D2E/DX2                !
 ! D224  D(62,42,65,70)         78.7853         estimate D2E/DX2                !
 ! D225  D(42,65,66,4)         -48.9651         estimate D2E/DX2                !
 ! D226  D(42,65,66,67)       -171.1178         estimate D2E/DX2                !
 ! D227  D(42,65,66,68)         71.3433         estimate D2E/DX2                !
 ! D228  D(69,65,66,4)          74.132          estimate D2E/DX2                !
 ! D229  D(69,65,66,67)        -48.0207         estimate D2E/DX2                !
 ! D230  D(69,65,66,68)       -165.5595         estimate D2E/DX2                !
 ! D231  D(70,65,66,4)        -171.8333         estimate D2E/DX2                !
 ! D232  D(70,65,66,67)         66.0139         estimate D2E/DX2                !
 ! D233  D(70,65,66,68)        -51.5249         estimate D2E/DX2                !
 ! D234  D(4,66,68,74)         179.9436         estimate D2E/DX2                !
 ! D235  D(4,66,68,75)         -60.4003         estimate D2E/DX2                !
 ! D236  D(4,66,68,76)          58.9004         estimate D2E/DX2                !
 ! D237  D(65,66,68,74)         56.2604         estimate D2E/DX2                !
 ! D238  D(65,66,68,75)        175.9165         estimate D2E/DX2                !
 ! D239  D(65,66,68,76)        -64.7828         estimate D2E/DX2                !
 ! D240  D(67,66,68,74)        -62.4802         estimate D2E/DX2                !
 ! D241  D(67,66,68,75)         57.176          estimate D2E/DX2                !
 ! D242  D(67,66,68,76)        176.4767         estimate D2E/DX2                !
 --------------------------------------------------------------------------------
 Trust Radius=3.00D-01 FncErr=1.00D-07 GrdErr=1.00D-06 EigMax=2.50D+02 EigMin=1.00D-04
 Number of steps in this run=    503 maximum allowed number of steps=    504.
 GradGradGradGradGradGradGradGradGradGradGradGradGradGradGradGradGradGrad

 Stoichiometry    C41H36Cl2O2P2Pd
 Framework group  C1[X(C41H36Cl2O2P2Pd)]
 Deg. of freedom   246
 Full point group                 C1      NOp   1
 Largest Abelian subgroup         C1      NOp   1
 Largest concise Abelian subgroup C1      NOp   1
                         Standard orientation:                         
 ---------------------------------------------------------------------
 Center     Atomic      Atomic             Coordinates (Angstroms)
 Number     Number       Type             X           Y           Z
 ---------------------------------------------------------------------
      1         46           0        2.512185    0.006256   -0.041880
      2         15           0        0.835895   -1.717602    0.053866
      3         15           0        0.824946    1.721936   -0.063330
      4          8           0       -3.621686    0.945752    1.200212
      5          8           0       -3.668140   -0.964926   -1.040761
      6          6           0        1.439715   -3.341039    0.795997
      7          6           0        2.329098   -3.316881    1.893674
      8          6           0        2.793700   -4.511125    2.477615
      9          6           0        2.370754   -5.752354    1.969073
     10          6           0        1.484474   -5.793334    0.877302
     11          6           0        1.023422   -4.595747    0.296720
     12          6           0        0.185216   -2.231602   -1.621770
     13          6           0       -1.099681   -2.795016   -1.773123
     14          6           0       -1.575870   -3.164920   -3.045262
     15          6           0       -0.763460   -2.983009   -4.180009
     16          6           0        0.524427   -2.432787   -4.038042
     17          6           0        0.994932   -2.060126   -2.763775
     18          6           0       -0.643572   -1.251053    1.131223
     19          6           0       -0.745759   -1.829968    2.417589
     20          6           0       -1.794474   -1.501274    3.290318
     21          6           0       -2.768523   -0.577392    2.890429
     22          6           0       -2.697726    0.009135    1.610473
     23          6           0       -1.636538   -0.315721    0.723022
     24          6           0       -1.666322    0.306427   -0.621672
     25          6           0       -2.761809   -0.021346   -1.463979
     26          6           0       -2.896562    0.564992   -2.736701
     27          6           0       -1.947559    1.495095   -3.179987
     28          6           0       -0.861636    1.827349   -2.354423
     29          6           0       -0.698273    1.247909   -1.073856
     30          6           0        1.388006    3.348243   -0.830869
     31          6           0        2.226068    3.327947   -1.968264
     32          6           0        2.659379    4.524241   -2.571715
     33          6           0        2.256336    5.763676   -2.042943
     34          6           0        1.421331    5.800756   -0.911460
     35          6           0        0.991348    4.601185   -0.311410
     36          6           0        0.244375    2.231933    1.639040
     37          6           0        1.101862    2.060585    2.745707
     38          6           0        0.684705    2.430893    4.039180
     39          6           0       -0.596755    2.979109    4.235802
     40          6           0       -1.456707    3.160796    3.136552
     41          6           0       -1.034123    2.792525    1.845070
     42          6           0       -5.028502   -0.555772   -0.965383
     43          1           0        2.662739   -2.371043    2.294280
     44          1           0        2.727203   -6.670708    2.412815
     45          1           0        0.345661   -4.657036   -0.540522
     46          1           0       -1.734221   -2.927928   -0.908037
     47          1           0       -1.127642   -3.265762   -5.157009
     48          1           0        1.987517   -1.645604   -2.665151
     49          1           0       -0.014152   -2.540166    2.766586
     50          1           0       -1.843955   -1.950186    4.271600
     51          1           0       -3.550998   -0.309909    3.582640
     52          1           0       -3.720236    0.289952   -3.377831
     53          1           0       -2.045727    1.946721   -4.156278
     54          1           0       -0.150594    2.542222   -2.734784
     55          1           0        2.544031    2.383501   -2.384715
     56          1           0        2.589037    6.683544   -2.501798
     57          1           0        0.352994    4.659608    0.556266
     58          1           0        2.090106    1.648028    2.604804
     59          1           0       -0.919587    3.260551    5.227606
     60          1           0       -1.704640    2.925315    1.007506
     61          6           0       -5.829091   -1.558515   -1.804522
     62          1           0       -5.188801    0.440199   -1.379857
     63         17           0        4.192038   -1.606321   -0.154715
     64         17           0        4.187308    1.627276   -0.003320
     65          6           0       -5.449619   -0.571443    0.520944
     66          6           0       -5.003334    0.647855    1.365674
     67          1           0       -5.221713    0.440111    2.412602
     68          6           0       -5.769004    1.929098    1.009812
     69          1           0       -5.071372   -1.486126    0.979046
     70          1           0       -6.535377   -0.644304    0.586342
     71          1           0       -6.892280   -1.318216   -1.800789
     72          1           0       -5.491013   -1.553388   -2.840845
     73          1           0       -5.710479   -2.572907   -1.422938
     74          1           0       -6.845467    1.790062    1.108881
     75          1           0       -5.478513    2.744550    1.672573
     76          1           0       -5.561199    2.252036   -0.009960
     77          1           0        1.158350   -6.744112    0.481333
     78          1           0       -2.567584   -3.580860   -3.147004
     79          1           0        1.151897   -2.297093   -4.906940
     80          1           0        3.477316   -4.474207    3.313374
     81          1           0        1.348674    2.295473    4.880629
     82          1           0       -2.443557    3.575774    3.280640
     83          1           0        1.110796    6.750109   -0.499787
     84          1           0        3.303898    4.490249   -3.438207
 ---------------------------------------------------------------------
 Rotational constants (GHZ):           0.0627867           0.0583857           0.0458401
 General basis read from cards:  (6D, 7F)
 ======================================================================================================
                                       Pseudopotential Parameters
 ======================================================================================================
  Center     Atomic      Valence      Angular      Power
  Number     Number     Electrons     Momentum     of R      Exponent        Coefficient   SO-Coeffient
 ======================================================================================================
    1         46           18
                                      F and up 
                                                     0      598.3336444       -0.05631770    0.00000000
                                                     1      162.4298290      -20.12880360    0.00000000
                                                     2       51.5714771     -105.81979230    0.00000000
                                                     2       16.4888260      -42.57333450    0.00000000
                                                     2        5.8287656       -3.61650860    0.00000000
                                      S - F
                                                     0       73.3806304        3.00036510    0.00000000
                                                     1       14.7550438       32.43500930    0.00000000
                                                     2       17.8350204      459.08303830    0.00000000
                                                     2       12.7111477     -868.06290290    0.00000000
                                                     2        9.3292063      514.47260980    0.00000000
                                      P - F
                                                     0       55.6689877        4.95930990    0.00000000
                                                     1       64.2337771       21.17110290    0.00000000
                                                     2       17.6254952      605.05600920    0.00000000
                                                     2       11.9058155     -726.96418460    0.00000000
                                                     2        8.5100832      396.32748830    0.00000000
                                      D - F
                                                     0       49.9994728        3.05087450    0.00000000
                                                     1       39.7477547       22.25065800    0.00000000
                                                     2       11.4321366      674.83576980    0.00000000
                                                     2        9.1790080    -1040.85540480    0.00000000
                                                     2        7.5624429      505.93751470    0.00000000
    2         15
                                   No pseudopotential on this center.
    3         15
                                   No pseudopotential on this center.
    4          8
                                   No pseudopotential on this center.
    5          8
                                   No pseudopotential on this center.
    6          6
                                   No pseudopotential on this center.
    7          6
                                   No pseudopotential on this center.
    8          6
                                   No pseudopotential on this center.
    9          6
                                   No pseudopotential on this center.
   10          6
                                   No pseudopotential on this center.
   11          6
                                   No pseudopotential on this center.
   12          6
                                   No pseudopotential on this center.
   13          6
                                   No pseudopotential on this center.
   14          6
                                   No pseudopotential on this center.
   15          6
                                   No pseudopotential on this center.
   16          6
                                   No pseudopotential on this center.
   17          6
                                   No pseudopotential on this center.
   18          6
                                   No pseudopotential on this center.
   19          6
                                   No pseudopotential on this center.
   20          6
                                   No pseudopotential on this center.
   21          6
                                   No pseudopotential on this center.
   22          6
                                   No pseudopotential on this center.
   23          6
                                   No pseudopotential on this center.
   24          6
                                   No pseudopotential on this center.
   25          6
                                   No pseudopotential on this center.
   26          6
                                   No pseudopotential on this center.
   27          6
                                   No pseudopotential on this center.
   28          6
                                   No pseudopotential on this center.
   29          6
                                   No pseudopotential on this center.
   30          6
                                   No pseudopotential on this center.
   31          6
                                   No pseudopotential on this center.
   32          6
                                   No pseudopotential on this center.
   33          6
                                   No pseudopotential on this center.
   34          6
                                   No pseudopotential on this center.
   35          6
                                   No pseudopotential on this center.
   36          6
                                   No pseudopotential on this center.
   37          6
                                   No pseudopotential on this center.
   38          6
                                   No pseudopotential on this center.
   39          6
                                   No pseudopotential on this center.
   40          6
                                   No pseudopotential on this center.
   41          6
                                   No pseudopotential on this center.
   42          6
                                   No pseudopotential on this center.
   43          1
                                   No pseudopotential on this center.
   44          1
                                   No pseudopotential on this center.
   45          1
                                   No pseudopotential on this center.
   46          1
                                   No pseudopotential on this center.
   47          1
                                   No pseudopotential on this center.
   48          1
                                   No pseudopotential on this center.
   49          1
                                   No pseudopotential on this center.
   50          1
                                   No pseudopotential on this center.
   51          1
                                   No pseudopotential on this center.
   52          1
                                   No pseudopotential on this center.
   53          1
                                   No pseudopotential on this center.
   54          1
                                   No pseudopotential on this center.
   55          1
                                   No pseudopotential on this center.
   56          1
                                   No pseudopotential on this center.
   57          1
                                   No pseudopotential on this center.
   58          1
                                   No pseudopotential on this center.
   59          1
                                   No pseudopotential on this center.
   60          1
                                   No pseudopotential on this center.
   61          6
                                   No pseudopotential on this center.
   62          1
                                   No pseudopotential on this center.
   63         17
                                   No pseudopotential on this center.
   64         17
                                   No pseudopotential on this center.
   65          6
                                   No pseudopotential on this center.
   66          6
                                   No pseudopotential on this center.
   67          1
                                   No pseudopotential on this center.
   68          6
                                   No pseudopotential on this center.
   69          1
                                   No pseudopotential on this center.
   70          1
                                   No pseudopotential on this center.
   71          1
                                   No pseudopotential on this center.
   72          1
                                   No pseudopotential on this center.
   73          1
                                   No pseudopotential on this center.
   74          1
                                   No pseudopotential on this center.
   75          1
                                   No pseudopotential on this center.
   76          1
                                   No pseudopotential on this center.
   77          1
                                   No pseudopotential on this center.
   78          1
                                   No pseudopotential on this center.
   79          1
                                   No pseudopotential on this center.
   80          1
                                   No pseudopotential on this center.
   81          1
                                   No pseudopotential on this center.
   82          1
                                   No pseudopotential on this center.
   83          1
                                   No pseudopotential on this center.
   84          1
                                   No pseudopotential on this center.
 ======================================================================================================
 There are   817 symmetry adapted cartesian basis functions of A   symmetry.
 There are   817 symmetry adapted basis functions of A   symmetry.
   817 basis functions,  1605 primitive gaussians,   817 cartesian basis functions
   190 alpha electrons      190 beta electrons
       nuclear repulsion energy      7894.3688024680 Hartrees.
 NAtoms=   84 NActive=   84 NUniq=   84 SFac= 1.00D+00 NAtFMM=   60 NAOKFM=T Big=T
 Integral buffers will be    131072 words long.
 Raffenetti 2 integral format.
 Two-electron integral symmetry is turned on.
 Nuclear repulsion after empirical dispersion term =     7894.2031941603 Hartrees.
 Standard density basis: Auto (5D, 7F)
  3545 Density fitting functions
 There are  3545 symmetry adapted density basis functions of A   symmetry.
 One-electron integrals computed using PRISM.
   1 Symmetry operations used in ECPInt.
 ECPInt:  NShTT=   37128 NPrTT=  247780 LenC2=   28594 LenP2D=   94181.
 LDataN:  DoStor=T MaxTD1= 5 Len=  102
 NBasis=   817 RedAO= T EigKep=  3.42D-04  NBF=   817
 NBsUse=   817 1.00D-06 EigRej= -1.00D+00 NBFU=   817
 NBasis=      817 NBas6D=      817 NTT=      334153   NTT6D=   334153
 NDBShl=      709 NDBF=       3545 NDBF6D=     4178  NNucDB=        0
 IDenFi=        2 ISolve=        0 FullAP=F BlkAPC=T NucTyp=        0
 TolInv= 1.00D-06 TolIt=  1.00D-10 IR12=0.
 FoFCou: FMM=F IPFlag=           0 FMFlag=           0 FMFlg1=           0
         NFxFlg=           0 DoJE=F BraDBF=T KetDBF=T FulRan=T
         wScrn=  0.000000 ICntrl=       600 IOpCl=  3 I1Cent=           6 NGrid=           0
         NMat0=    1 NMatS0=   4178 NMatT0=    0 NMatD0=    1 NMtDS0=    0 NMtDT0=    0
 Petite list used in FoFCou.
 DBF EigKep=  1.11D-06 EigRej= -1.00D+00
 NDBF=   3545  NBFD=  3545
 NRank=  3545 NBFDU=  3545
 S*AI*S=  12.8797593357    
 Defaulting to unpruned grid for atomic number  46.
 ExpMin= 2.62D-02 ExpMax= 2.52D+04 ExpMxC= 3.78D+03 IAcc=3 IRadAn=         5 AccDes= 0.00D+00
 Harris functional with IExCor= 1009 and IRadAn=       5 diagonalized for initial guess.
 HarFok:  IExCor= 1009 AccDes= 0.00D+00 IRadAn=         5 IDoV= 1 UseB2=F ITyADJ=14
 ICtDFT=  3500011 ScaDFX=  1.000000  1.000000  1.000000  1.000000
 Defaulting to unpruned grid for atomic number  46.
 FoFCou: FMM=F IPFlag=           0 FMFlag=      100000 FMFlg1=        2001
         NFxFlg=           0 DoJE=T BraDBF=F KetDBF=T FulRan=T
         wScrn=  0.000000 ICntrl=       500 IOpCl=  0 I1Cent=   200000004 NGrid=           0
         NMat0=    1 NMatS0=      1 NMatT0=    0 NMatD0=    1 NMtDS0=    0 NMtDT0=    0
 Petite list used in FoFCou.
 Requested convergence on RMS density matrix=1.00D-08 within 500 cycles.
 Requested convergence on MAX density matrix=1.00D-06.
 Requested convergence on             energy=1.00D-06.
 No special actions if energy rises.
 FoFCou: FMM=F IPFlag=           0 FMFlag=      100000 FMFlg1=        2001
         NFxFlg=           0 DoJE=T BraDBF=T KetDBF=F FulRan=T
         wScrn=  0.000000 ICntrl=       500 IOpCl=  0 I1Cent=           5 NGrid=           0
         NMat0=    1 NMatS0=      1 NMatT0=    0 NMatD0=    1 NMtDS0=    0 NMtDT0=    0
 Symmetry not used in FoFCou.
 Defaulting to unpruned grid for atomic number  46.
 Defaulting to unpruned grid for atomic number  46.
 Defaulting to unpruned grid for atomic number  46.
 Defaulting to unpruned grid for atomic number  46.
 Defaulting to unpruned grid for atomic number  46.
 Defaulting to unpruned grid for atomic number  46.
 Defaulting to unpruned grid for atomic number  46.
 Defaulting to unpruned grid for atomic number  46.
 Defaulting to unpruned grid for atomic number  46.
 Defaulting to unpruned grid for atomic number  46.
 Defaulting to unpruned grid for atomic number  46.
 Defaulting to unpruned grid for atomic number  46.
 Defaulting to unpruned grid for atomic number  46.
 Defaulting to unpruned grid for atomic number  46.
 Defaulting to unpruned grid for atomic number  46.
 Defaulting to unpruned grid for atomic number  46.
 Defaulting to unpruned grid for atomic number  46.
 Defaulting to unpruned grid for atomic number  46.
 Defaulting to unpruned grid for atomic number  46.
 Defaulting to unpruned grid for atomic number  46.
 Defaulting to unpruned grid for atomic number  46.
 Defaulting to unpruned grid for atomic number  46.
 Defaulting to unpruned grid for atomic number  46.
 Defaulting to unpruned grid for atomic number  46.
 Defaulting to unpruned grid for atomic number  46.
 Defaulting to unpruned grid for atomic number  46.
 Defaulting to unpruned grid for atomic number  46.
 Defaulting to unpruned grid for atomic number  46.
 Defaulting to unpruned grid for atomic number  46.
 Defaulting to unpruned grid for atomic number  46.
 Defaulting to unpruned grid for atomic number  46.
 Defaulting to unpruned grid for atomic number  46.
 Defaulting to unpruned grid for atomic number  46.
 Defaulting to unpruned grid for atomic number  46.
 Defaulting to unpruned grid for atomic number  46.
 Defaulting to unpruned grid for atomic number  46.
 Defaulting to unpruned grid for atomic number  46.
 Defaulting to unpruned grid for atomic number  46.
 Defaulting to unpruned grid for atomic number  46.
 Defaulting to unpruned grid for atomic number  46.
 EnCoef did     3 forward-backward iterations
 EnCoef did   100 forward-backward iterations
 EnCoef did   100 forward-backward iterations
 EnCoef did   100 forward-backward iterations
 EnCoef did     8 forward-backward iterations
 EnCoef did     2 forward-backward iterations
 EnCoef did   100 forward-backward iterations
 Initial convergence to 1.0D-05 achieved.  Increase integral accuracy.
 SCF Done:  E(RPBE-PBE) =  -3461.67559590     A.U. after   28 cycles
            NFock= 28  Conv=0.42D-08     -V/T= 2.0310

 **********************************************************************

            Population analysis using the SCF Density.

 **********************************************************************

 Orbital symmetries:
       Occupied  (A) (A) (A) (A) (A) (A) (A) (A) (A) (A) (A) (A)
                 (A) (A) (A) (A) (A) (A) (A) (A) (A) (A) (A) (A)
                 (A) (A) (A) (A) (A) (A) (A) (A) (A) (A) (A) (A)
                 (A) (A) (A) (A) (A) (A) (A) (A) (A) (A) (A) (A)
                 (A) (A) (A) (A) (A) (A) (A) (A) (A) (A) (A) (A)
                 (A) (A) (A) (A) (A) (A) (A) (A) (A) (A) (A) (A)
                 (A) (A) (A) (A) (A) (A) (A) (A) (A) (A) (A) (A)
                 (A) (A) (A) (A) (A) (A) (A) (A) (A) (A) (A) (A)
                 (A) (A) (A) (A) (A) (A) (A) (A) (A) (A) (A) (A)
                 (A) (A) (A) (A) (A) (A) (A) (A) (A) (A) (A) (A)
                 (A) (A) (A) (A) (A) (A) (A) (A) (A) (A) (A) (A)
                 (A) (A) (A) (A) (A) (A) (A) (A) (A) (A) (A) (A)
                 (A) (A) (A) (A) (A) (A) (A) (A) (A) (A) (A) (A)
                 (A) (A) (A) (A) (A) (A) (A) (A) (A) (A) (A) (A)
                 (A) (A) (A) (A) (A) (A) (A) (A) (A) (A) (A) (A)
                 (A) (A) (A) (A) (A) (A) (A) (A) (A) (A)
       Virtual   (A) (A) (A) (A) (A) (A) (A) (A) (A) (A) (A) (A)
                 (A) (A) (A) (A) (A) (A) (A) (A) (A) (A) (A) (A)
                 (A) (A) (A) (A) (A) (A) (A) (A) (A) (A) (A) (A)
                 (A) (A) (A) (A) (A) (A) (A) (A) (A) (A) (A) (A)
                 (A) (A) (A) (A) (A) (A) (A) (A) (A) (A) (A) (A)
                 (A) (A) (A) (A) (A) (A) (A) (A) (A) (A) (A) (A)
                 (A) (A) (A) (A) (A) (A) (A) (A) (A) (A) (A) (A)
                 (A) (A) (A) (A) (A) (A) (A) (A) (A) (A) (A) (A)
                 (A) (A) (A) (A) (A) (A) (A) (A) (A) (A) (A) (A)
                 (A) (A) (A) (A) (A) (A) (A) (A) (A) (A) (A) (A)
                 (A) (A) (A) (A) (A) (A) (A) (A) (A) (A) (A) (A)
                 (A) (A) (A) (A) (A) (A) (A) (A) (A) (A) (A) (A)
                 (A) (A) (A) (A) (A) (A) (A) (A) (A) (A) (A) (A)
                 (A) (A) (A) (A) (A) (A) (A) (A) (A) (A) (A) (A)
                 (A) (A) (A) (A) (A) (A) (A) (A) (A) (A) (A) (A)
                 (A) (A) (A) (A) (A) (A) (A) (A) (A) (A) (A) (A)
                 (A) (A) (A) (A) (A) (A) (A) (A) (A) (A) (A) (A)
                 (A) (A) (A) (A) (A) (A) (A) (A) (A) (A) (A) (A)
                 (A) (A) (A) (A) (A) (A) (A) (A) (A) (A) (A) (A)
                 (A) (A) (A) (A) (A) (A) (A) (A) (A) (A) (A) (A)
                 (A) (A) (A) (A) (A) (A) (A) (A) (A) (A) (A) (A)
                 (A) (A) (A) (A) (A) (A) (A) (A) (A) (A) (A) (A)
                 (A) (A) (A) (A) (A) (A) (A) (A) (A) (A) (A) (A)
                 (A) (A) (A) (A) (A) (A) (A) (A) (A) (A) (A) (A)
                 (A) (A) (A) (A) (A) (A) (A) (A) (A) (A) (A) (A)
                 (A) (A) (A) (A) (A) (A) (A) (A) (A) (A) (A) (A)
                 (A) (A) (A) (A) (A) (A) (A) (A) (A) (A) (A) (A)
                 (A) (A) (A) (A) (A) (A) (A) (A) (A) (A) (A) (A)
                 (A) (A) (A) (A) (A) (A) (A) (A) (A) (A) (A) (A)
                 (A) (A) (A) (A) (A) (A) (A) (A) (A) (A) (A) (A)
                 (A) (A) (A) (A) (A) (A) (A) (A) (A) (A) (A) (A)
                 (A) (A) (A) (A) (A) (A) (A) (A) (A) (A) (A) (A)
                 (A) (A) (A) (A) (A) (A) (A) (A) (A) (A) (A) (A)
                 (A) (A) (A) (A) (A) (A) (A) (A) (A) (A) (A) (A)
                 (A) (A) (A) (A) (A) (A) (A) (A) (A) (A) (A) (A)
                 (A) (A) (A) (A) (A) (A) (A) (A) (A) (A) (A) (A)
                 (A) (A) (A) (A) (A) (A) (A) (A) (A) (A) (A) (A)
                 (A) (A) (A) (A) (A) (A) (A) (A) (A) (A) (A) (A)
                 (A) (A) (A) (A) (A) (A) (A) (A) (A) (A) (A) (A)
                 (A) (A) (A) (A) (A) (A) (A) (A) (A) (A) (A) (A)
                 (A) (A) (A) (A) (A) (A) (A) (A) (A) (A) (A) (A)
                 (A) (A) (A) (A) (A) (A) (A) (A) (A) (A) (A) (A)
                 (A) (A) (A) (A) (A) (A) (A) (A) (A) (A) (A) (A)
                 (A) (A) (A) (A) (A) (A) (A) (A) (A) (A) (A) (A)
                 (A) (A) (A) (A) (A) (A) (A) (A) (A) (A) (A) (A)
                 (A) (A) (A) (A) (A) (A) (A) (A) (A) (A) (A) (A)
                 (A) (A) (A) (A) (A) (A) (A) (A) (A) (A) (A) (A)
                 (A) (A) (A) (A) (A) (A) (A) (A) (A) (A) (A) (A)
                 (A) (A) (A) (A) (A) (A) (A) (A) (A) (A) (A) (A)
                 (A) (A) (A) (A) (A) (A) (A) (A) (A) (A) (A) (A)
                 (A) (A) (A) (A) (A) (A) (A) (A) (A) (A) (A) (A)
                 (A) (A) (A) (A) (A) (A) (A) (A) (A) (A) (A) (A)
                 (A) (A) (A)
 The electronic state is 1-A.
 Alpha  occ. eigenvalues -- -100.58510-100.58508 -76.37564 -76.37556 -18.80913
 Alpha  occ. eigenvalues --  -18.80472  -9.97101  -9.96999  -9.96897  -9.96776
 Alpha  occ. eigenvalues --   -9.93385  -9.93363  -9.92882  -9.92824  -9.92350
 Alpha  occ. eigenvalues --   -9.92327  -9.91826  -9.91824  -9.91435  -9.91390
 Alpha  occ. eigenvalues --   -9.91338  -9.91239  -9.91095  -9.91058  -9.91047
 Alpha  occ. eigenvalues --   -9.91008  -9.91005  -9.90980  -9.90936  -9.90907
 Alpha  occ. eigenvalues --   -9.90848  -9.90774  -9.90743  -9.90677  -9.90642
 Alpha  occ. eigenvalues --   -9.90368  -9.90367  -9.90282  -9.90136  -9.90134
 Alpha  occ. eigenvalues --   -9.90103  -9.90103  -9.90022  -9.90008  -9.90006
 Alpha  occ. eigenvalues --   -9.89841  -9.89838  -9.08035  -9.08033  -6.90388
 Alpha  occ. eigenvalues --   -6.90387  -6.89645  -6.89644  -6.89547  -6.89545
 Alpha  occ. eigenvalues --   -6.35255  -6.35248  -4.57082  -4.57074  -4.57054
 Alpha  occ. eigenvalues --   -4.57048  -4.56775  -4.56768  -3.19505  -1.96358
 Alpha  occ. eigenvalues --   -1.96224  -1.92437  -0.98669  -0.97650  -0.79797
 Alpha  occ. eigenvalues --   -0.77699  -0.77489  -0.77371  -0.76589  -0.76532
 Alpha  occ. eigenvalues --   -0.74353  -0.71545  -0.71054  -0.69550  -0.69447
 Alpha  occ. eigenvalues --   -0.67412  -0.67350  -0.67330  -0.67289  -0.66599
 Alpha  occ. eigenvalues --   -0.66562  -0.66490  -0.66486  -0.65171  -0.63871
 Alpha  occ. eigenvalues --   -0.63666  -0.62942  -0.60221  -0.59295  -0.58134
 Alpha  occ. eigenvalues --   -0.57567  -0.56498  -0.54644  -0.54577  -0.54122
 Alpha  occ. eigenvalues --   -0.53872  -0.53424  -0.53309  -0.53249  -0.52873
 Alpha  occ. eigenvalues --   -0.52299  -0.50486  -0.50000  -0.48660  -0.47820
 Alpha  occ. eigenvalues --   -0.46338  -0.46234  -0.45547  -0.44854  -0.44664
 Alpha  occ. eigenvalues --   -0.44078  -0.42978  -0.42833  -0.42513  -0.40679
 Alpha  occ. eigenvalues --   -0.40677  -0.40570  -0.40142  -0.39986  -0.39902
 Alpha  occ. eigenvalues --   -0.39633  -0.39186  -0.39154  -0.39022  -0.39017
 Alpha  occ. eigenvalues --   -0.38457  -0.37556  -0.37274  -0.37128  -0.37110
[...]
 1379054,-0.00867622,-0.00003884,-0.00003660,-0.00003258,0.00002463,-0.
 00004883,0.00000454,0.00001736,-0.00000712,-0.00000026,0.00001312,-0.0
 0001004,0.00003350,0.00003806,-0.00000150,0.00000083,-0.00001944,0.000
 06243,0.00006719,-0.00000921,0.00005474,0.00000326,0.00000450,-0.00000
 449,-0.00001085,-0.00000338,0.00000104,0.00000127,0.00000168,-0.000001
 47,-0.00000075,-0.00000113,0.00000204,0.00000226,-0.00000217,-0.000001
 67,-0.00000358,0.00000167,0.00000368,0.00001134,-0.00000183,0.00000094
 ,-0.00000215,-0.00000086,-0.00000188,0.00000365,-0.00000092,-0.0000029
 4,0.00000336,-0.00000707,-0.00000316,-0.00000361,-0.00000668,-0.000003
 39,-0.00002200,0.00000242,0.00002805,0.00003715,-0.00003526,-0.0000846
 5,-0.00024748,0.00054364,-0.00039543,-0.00071944,0.00083619,-0.0005589
 3,-0.00059011,-0.00001269,-0.00000181,-0.00001898,-0.00000645,-0.00000
 581,0.00000884,-0.00002698,-0.00000046,-0.00001632,0.00000117,-0.00000
 814,-0.00000089,0.00000325,-0.00000099,-0.00000458,-0.00005116,0.00011
 259,-0.00005254,0.00002990,0.00001414,0.00002474,-0.00000095,-0.000014
 64,-0.00000241,-0.00000833,0.00005985,-0.00000563,0.00000080,-0.000004
 87,0.00000095,-0.00000037,-0.00000725,-0.00000052,0.00000724,0.0000023
 5,0.00000154,-0.00000353,-0.00000622,0.00000117,-0.00000268,-0.0000055
 6,-0.00000044,0.00000011,0.00000312,0.00000229,0.00000166,0.00000183,-
 0.00000052,0.00000233,-0.00000281,-0.00000167,-0.00000059,0.00000246,0
 .00000935,-0.00000710,0.00000160,-0.00000625,-0.00000485,0.00000049,0.
 00000027,-0.00000157,-0.00000358,-0.00000263,0.00000008,0.00000151,-0.
 00000157,0.00000003,0.00000210,0.00000139,-0.00000358,-0.00000172,0.00
 001180,-0.00001148,-0.00002489,0.00001759,0.25128871,-0.00012600,-0.00
 002027,0.00001376,-0.00000895,0.00000734,0.00000344,-0.00036508,0.0002
 1462,0.00030110,0.00001179,-0.00000259,-0.00000662,0.00003528,0.000030
 52,-0.00000618,0.00000188,-0.00000041,-0.00000076,0.00000382,-0.000000
 22,0.00000139,-0.00000005,0.00000156,0.00000151,0.00000031,-0.00000006
 ,0.00000004,-0.00000060,-0.00000116,-0.00000108,0.00000034,-0.00000138
 ,-0.00000232,-0.00000009,-0.00000278,0.00000356,0.00000096,0.00000073,
 -0.00000067,0.00000114,-0.00000261,-0.00000038,-0.00000008,-0.00000208
 ,-0.00000280,0.00000111,0.00000035,0.00000037,-0.00000080,-0.00000085,
 -0.00000232,0.00000056,0.00000332,-0.00000369,0.00000216,-0.00000040,-
 0.00000626,0.00000211,-0.00000393,0.00000247,-0.00000075,-0.00000026,0
 .00000235,-0.00000222,0.00001139,-0.00000129,-0.00000499,-0.00000360,0
 .00001068,-0.00001428,0.00002753,0.00001982,-0.00002168,-0.00001490,0.
 00000479,0.00000365,-0.00000646,-0.00000968,0.00000591,-0.00000382,0.0
 0000044,0.00000413,0.00000097,-0.00002112,0.00005875,0.00002333,-0.000
 01436,-0.00041450,0.00356916,0.00323452,-0.00058174,-0.00047448,0.0000
 7869,-0.00082178,0.00097927,0.00602742,0.01847770,-0.00711202,0.004367
 91,0.11252375,-0.10908760,0.04856014,-0.00667478,0.00548368,-0.0018462
 6,0.00004181,0.00003401,-0.00006150,0.00000695,0.00002045,0.00000598,-
 0.00000967,-0.00000297,0.00000031,-0.00000914,0.00000352,0.00000266,0.
 00000291,-0.00000424,-0.00000056,0.00003027,-0.00002507,0.00001904,-0.
 00000573,-0.00001950,-0.00000178,-0.00000159,0.00000204,0.00000083,0.0
 0000107,-0.00000033,-0.00000043,-0.00000190,0.00000010,0.00000005,-0.0
 0000211,0.00000066,0.00000031,-0.00000068,0.00000048,0.00000062,-0.000
 00257,0.00000095,0.00000282,-0.00000016,0.00000008,-0.00000157,0.00000
 096,-0.00000025,-0.00000113,-0.00000098,0.00000046,0.00000003,0.000000
 62,0.00000249,0.00000029,-0.00000346,-0.00000149,-0.00000542,-0.000003
 30,-0.00001123,-0.00000985,-0.00013528,-0.00049943,-0.00067321,-0.0006
 9345,-0.00124696,-0.00224969,-0.00039202,-0.00147017,-0.00218557,0.000
 00669,0.00000133,0.00000240,0.00000337,0.00000280,-0.00000406,-0.00000
 874,-0.00000443,-0.00000626,0.00000027,0.00000167,0.00000041,0.0000008
 6,-0.00000011,-0.00000051,0.00001088,0.00000554,-0.00000270,-0.0000090
 6,0.00002272,-0.00003484,0.00000138,0.00000184,0.00000076,-0.00000444,
 -0.00000415,0.00000272,0.00000174,0.00000029,-0.00000268,-0.00000099,-
 0.00000083,0.00000115,0.00000065,-0.00000119,0.00000020,-0.00000036,0.
 00000212,-0.00000131,0.00000030,0.00000185,0.00000037,-0.00000087,-0.0
 0000072,-0.00000058,0.00000103,-0.00000072,-0.00000043,0.00000218,0.00
 000174,-0.00000043,-0.00000067,-0.00000157,0.00000395,-0.00000226,-0.0
 0000168,-0.00000373,0.00000090,0.00000013,0.00000008,-0.00000108,0.000
 00083,-0.00000073,-0.00000170,0.00000035,-0.00000090,0.00000033,-0.000
 00075,-0.00000093,0.00000546,-0.00000189,-0.00000744,-0.00000405,-0.00
 000263,0.00000290,-0.12197221,0.10989359,0.00010424,0.00010557,-0.0000
 5936,-0.00006014,-0.00002082,-0.00001070,0.00054904,-0.00019507,0.0004
 5665,-0.00000496,-0.00000228,-0.00000646,0.00002314,0.00001019,-0.0000
 0132,0.00000185,0.00000186,0.00000149,0.00000183,-0.00000041,0.0000000
 3,-0.00000055,0.00000152,0.00000091,0.00000060,-0.00000003,0.00000010,
 0.00000076,-0.00000051,-0.00000036,-0.00000042,-0.00000114,-0.00000229
 ,-0.00000118,-0.00000153,0.00000052,-0.00000104,-0.00000290,-0.0000004
 3,0.00000093,-0.00000173,0.00000136,0.00000093,0.00000130,0.00000067,-
 0.00000029,0.00000077,-0.00000309,0.00000087,0.00000466,0.00000305,0.0
 0000781,0.00000641,-0.00000546,-0.00000051,0.00000111,0.00000420,-0.00
 000149,-0.00000055,-0.00000194,-0.00000132,0.00000113,-0.00000277,0.00
 000467,-0.00000217,0.00000089,-0.00000584,-0.00000131,0.00000491,-0.00
 001802,0.00006180,0.00001459,-0.00000410,-0.00000683,-0.00000938,-0.00
 000419,-0.00001295,-0.00000634,0.00000023,-0.00000119,0.00002469,0.000
 03145,0.00000580,-0.00002075,0.00004091,0.00000623,-0.00006990,0.00324
 373,0.00327508,0.00248200,0.00060716,0.00008163,-0.00082295,0.00220720
 ,0.00575855,0.00037154,-0.01932730,0.00979095,-0.00286176,-0.06018472,
 0.04862627,-0.06583598,0.01204137,-0.00717821,0.00608637,-0.00003444,0
 .00000089,-0.00000114,-0.00001700,0.00001568,-0.00000100,-0.00000189,-
 0.00000590,0.00000155,-0.00001134,0.00001300,-0.00001261,-0.00002186,0
 .00000969,-0.00002157,-0.00000612,-0.00002559,0.00001291,-0.00000312,-
 0.00000800,0.00000342,-0.00000086,-0.00000094,0.00000429,0.00000052,-0
 .00000014,0.00000002,-0.00000025,0.,0.00000004,-0.00000094,0.00000006,
 0.00000042,-0.00000037,0.00000016,-0.00000041,0.00000269,-0.00000152,-
 0.00000428,0.00000144,0.00000006,0.00000010,0.00000091,0.00000041,-0.0
 0000077,0.00000118,0.00000160,0.00000013,-0.00000359,0.00000024,0.0000
 0045,-0.00000532,0.00000268,-0.00000821,0.00001114,0.00003325,-0.00000
 681,-0.00030110,-0.00062513,-0.00051182,-0.00040378,-0.00233083,-0.001
 18797,-0.00085648,-0.00220679,-0.00126794,0.00001281,0.00000064,0.0000
 0478,0.00000519,0.00000299,-0.00000327,0.00001055,0.00000914,0.0000107
 7,0.00000002,0.00000163,-0.00000062,0.00000067,0.00000037,0.00000024,0
 .00001386,-0.00004600,0.00004130,-0.00008325,0.00000492,-0.00002198,0.
 00000044,0.,0.00000011,0.00000077,0.00000507,0.00000285,0.00000120,-0.
 00000065,-0.00000172,0.00000221,-0.00000119,0.00000442,0.00000007,-0.0
 0000010,-0.00000033,-0.00000065,0.00000023,-0.00000073,0.00000002,0.00
 000023,0.00000083,-0.00000095,0.00000038,-0.00000072,0.00000057,-0.000
 00033,-0.00000043,-0.00000057,-0.00000032,-0.00000032,-0.00000138,0.00
 000111,0.00000005,-0.00000137,0.00000054,-0.00000205,0.00000022,-0.000
 00013,-0.00000001,-0.00000103,-0.00000014,0.00000012,0.00000116,-0.000
 00008,0.00000199,0.00000059,-0.00000066,-0.00000048,0.00000510,0.00000
 108,-0.00000550,0.00000713,0.00000679,-0.00000238,0.06346487,-0.055878
 57,0.06331422,-0.00004639,-0.00004421,-0.00002231,0.00008143,-0.000016
 86,0.00005419,0.00045117,-0.00058143,0.00071154,-0.00000688,-0.0000155
 6,-0.00000365,-0.00001132,-0.00001663,-0.00000992,-0.00000336,0.000002
 18,-0.00001140,0.00000383,-0.00000007,-0.00000382,-0.00000119,-0.00000
 104,-0.00000175,0.00000081,0.00000085,-0.00000024,-0.00000037,-0.00000
 076,-0.00000132,0.00000056,0.00000470,0.00000237,-0.00000762,0.0000047
 3,0.00000206,0.00000164,0.00001138,-0.00000505,0.00000101,0.00000256,-
 0.00000670,-0.00000396,-0.00000718,-0.00000645,0.00000671,-0.00000344,
 0.00001142,-0.00000643,-0.00002011,-0.00001627,-0.00000420,-0.00000887
 ,-0.00000595,-0.00000345,0.00000321,-0.00000459,0.00000195,-0.00000459
 ,-0.00000081,-0.00000476,0.00000303,-0.00000147,0.00000564,0.00000980,
 -0.00000006,0.00000046,0.00000251,-0.00000541,0.00000607,-0.00002634,-
 0.00006110,0.00000787,-0.00000037,0.00001740,-0.00000673,-0.00001014,-
 0.00000795,0.00000461,0.00000560,-0.00000462,-0.00005272,-0.00001986,-
 0.00001431,-0.00010469,0.00004185,0.00008514,-0.00375305,0.00020705,0.
 00274365,0.00176049,-0.01979002,0.01951482,-0.05447181,-0.00623749,0.0
 1206241,0.00500073,0.01838378,-0.01869205,-0.00392815,0.00280018,0.000
 01998,-0.00124933,0.00021308,0.00008722,-0.00045609,-0.00012147,0.0000
 7659,0.00002429,-0.00006049,0.00003497,0.00003581,0.00002342,-0.000014
 92,0.00000054,-0.00003597,0.00001547,0.00005295,0.00001536,0.00003336,
 0.00001799,0.00004085,0.00001986,-0.00000215,0.00000418,0.00000378,0.0
 0000051,-0.00000265,0.00000154,-0.00000023,-0.00000050,0.00000044,-0.0
 0000169,-0.00000104,0.00000127,0.00000373,0.00000248,0.00000050,-0.000
 00113,-0.00000030,0.,-0.00001011,0.00000351,0.00001918,-0.00000020,-0.
 00000263,0.00000199,0.00000094,0.00000082,0.00000022,0.00000133,0.0000
 0141,0.00000081,0.00000047,-0.00000223,-0.00000079,0.00000056,-0.00001
 332,-0.00001097,0.00003166,0.00001032,0.00003271,0.00076016,-0.0004674
 7,-0.00084108,0.00079450,-0.00088391,-0.00031784,0.00014349,-0.0002338
 3,-0.00016837,-0.00001846,-0.00001246,0.00001023,-0.00000695,-0.000003
 60,0.00000413,-0.00002759,-0.00000771,-0.00000008,0.00000085,-0.000001
 14,0.00000014,-0.00000011,0.00000036,0.00000017,-0.00002132,0.00007283
 ,-0.00005556,0.00005415,0.00000888,-0.00010176,-0.00000069,-0.00000388
 ,-0.00000087,0.00000284,0.00001831,0.00000123,-0.00000035,-0.00000152,
 -0.00000029,0.00000064,-0.00000175,0.00000107,0.00000060,0.00000080,0.
 00000026,-0.00000113,-0.00000128,-0.00000065,-0.00000095,-0.00000051,-
 0.00000038,0.00000027,0.00000003,-0.00000140,-0.00000049,-0.00000032,0
 .00000065,-0.00000040,-0.00000132,-0.00000035,-0.00000168,0.00000199,0
 .00000004,-0.00000025,0.00000085,-0.00000078,-0.00000067,-0.00000039,0
 .00000073,0.00000171,0.00000122,-0.00000137,-0.00000865,0.00000175,-0.
 00001069,0.00000032,-0.00000053,0.00000060,0.00000042,-0.00000032,0.00
 001107,0.00000534,-0.00000949,0.00000826,0.00014413,0.00105089,-0.0010
 4029,0.05481258,-0.00002726,-0.00004852,-0.00000089,0.00008468,0.00004
 248,0.00004507,0.00040098,0.00021854,0.00014311,-0.00000481,-0.0000200
 8,-0.00000740,-0.00000604,-0.00001065,-0.00001284,-0.00001354,-0.00001
 277,-0.00001239,0.00000718,0.00000308,-0.00000199,-0.00000139,-0.00000
 271,-0.00000286,-0.00000102,-0.00000065,-0.00000059,-0.00000231,0.0000
 0035,-0.00000139,0.00000022,0.00000667,0.00000797,-0.00002685,-0.00001
 054,0.00000202,0.00000122,0.00001068,-0.00001221,0.00000038,-0.0000033
 7,-0.00000603,-0.00000128,-0.00000488,-0.00000391,0.00000459,-0.000007
 75,0.00000887,-0.00000305,-0.00000681,-0.00000696,-0.00002016,-0.00001
 041,-0.00001121,0.00000038,-0.00000482,-0.00000599,0.00000362,-0.00000
 131,-0.00000094,-0.00000356,-0.00000129,-0.00000260,0.00000194,0.00000
 928,0.00000196,-0.00000524,-0.00000099,0.00001154,0.00003363,-0.000028
 40,-0.00002882,-0.00000172,0.00000835,0.00001510,-0.00000145,-0.000015
 69,-0.00001580,-0.00001274,0.00002393,0.00001287,-0.00005226,-0.000049
 70,-0.00001732,0.00000142,0.00003089,0.00003390,-0.00022627,0.00408735
 ,0.00269869,0.00100859,-0.00140452,0.00342904,-0.00601730,-0.18177335,
 0.14670546,-0.00276501,-0.00726312,0.00988675,0.00361105,0.00278259,0.
 00272567,0.00023244,0.00002245,-0.00052902,-0.00012042,-0.00008420,0.0
 0000996,-0.00001629,-0.00001785,0.00001921,0.00000667,0.00001848,-0.00
 002869,0.00000564,-0.00003311,-0.00000704,0.00001563,0.00000867,0.0000
 3559,-0.00001623,0.00001937,-0.00000932,-0.00000013,0.00000774,0.00000
 469,0.00000096,-0.00000241,-0.00000274,-0.00000079,0.00000008,0.000000
 48,-0.00000134,-0.00000146,0.00000066,0.00000133,0.00000248,0.00000101
 ,-0.00000388,-0.00000197,-0.00000251,0.00000021,0.00000626,0.00001428,
 0.00000012,-0.00000052,-0.00000065,0.00000144,0.00000032,0.00000090,0.
 00000210,0.00000116,0.00000046,-0.00000064,-0.00000402,0.00000161,-0.0
 0000187,-0.00002446,-0.00001410,0.00004143,0.00003575,0.00006344,-0.00
 086004,-0.00127637,-0.00217577,-0.00056543,-0.00122587,-0.00211532,-0.
 00019468,-0.00063177,-0.00057642,-0.00000008,-0.00000352,0.00000058,-0
 .00000197,-0.00000213,0.00000270,-0.00000732,0.00000088,0.00001090,0.0
 0000026,-0.00000141,0.00000004,0.00000075,-0.00000041,0.00000081,-0.00
 002104,0.00003165,-0.00002320,-0.00004001,-0.00001984,-0.00003001,-0.0
 0000151,-0.00000265,-0.00000029,0.00000652,0.00001950,0.00000231,-0.00
 000083,-0.00000122,-0.00000081,0.00000091,-0.00000164,0.00000224,0.000
 00067,0.00000126,-0.00000027,-0.00000119,-0.00000179,-0.00000086,-0.00
 000055,-0.00000099,0.00000016,-0.00000059,0.00000100,-0.00000179,0.000
 00012,0.00000017,0.,-0.00000114,-0.00000208,-0.00000009,-0.00000170,0.
 00000247,-0.00000198,0.00000100,0.00000164,0.,-0.00000220,-0.00000011,
 0.00000049,-0.00000019,-0.00000053,-0.00000181,-0.00000725,0.00000475,
 -0.00000605,0.00000037,-0.00000012,0.00000048,-0.00000095,0.00000157,0
 .00000284,0.00000705,-0.00000265,0.00000237,-0.00014220,-0.00031162,0.
 00070895,0.00572021,0.18692722,0.00008771,0.00003574,-0.00002285,-0.00
 008004,0.00002603,-0.00002357,-0.00069922,0.00043091,0.00009531,0.0000
 0629,0.00001580,-0.00000372,0.00003718,0.00005257,-0.00000414,0.000002
 86,-0.00000376,0.00000281,0.00000586,0.00000042,0.00000378,0.00000041,
 0.00000122,0.00000361,0.00000027,-0.00000033,0.00000004,-0.00000144,-0
 .00000134,-0.00000053,-0.00000044,-0.00000551,-0.00000297,0.00000462,-
 0.00000955,0.00000282,0.00000116,-0.00000336,-0.00000036,0.00000058,-0
 .00000412,0.00000170,0.00000198,-0.00000055,-0.00000115,-0.00000122,-0
 .00000031,-0.00000228,0.00000434,0.00000871,0.00000241,0.00000528,0.00
 000809,-0.00000386,0.00000412,-0.00000098,-0.00000259,0.00000122,-0.00
 000236,0.00000085,0.00000075,0.00000038,0.00000181,0.00000087,-0.00000
 662,-0.00000435,-0.00000537,-0.00000640,0.00002179,0.00001337,0.000016
 74,0.00008015,-0.00003297,-0.00001190,-0.00000236,0.00001460,0.0000083
 1,-0.00000259,-0.00000509,0.00000603,-0.00001574,0.00001636,-0.0000072
 8,0.00001769,0.00019565,0.00002708,-0.00007172,0.00353577,0.00301788,0
 .00303590,-0.00068031,0.00903882,-0.00619910,0.01209484,0.14588484,-0.
 17893565,0.00172290,0.00460224,-0.00275347,-0.00086058,0.00289726,0.00
 398002,0.00015093,-0.00056444,0.00008635,0.00019168,0.00000632,-0.0000
 7465,-0.00003075,0.00006950,0.00001890,-0.00001991,0.00000667,-0.00002
 263,0.00000793,-0.00001386,-0.00001063,-0.00001140,-0.00000298,0.00001
 137,0.00001186,-0.00004539,-0.00004304,-0.00000163,-0.00002618,-0.0000
 0319,-0.00000125,0.00000214,0.00000107,0.00000126,-0.00000002,-0.00000
 089,-0.00000189,0.00000104,-0.00000053,-0.00000447,-0.00000001,0.00000
 022,-0.00000099,0.00000071,0.00000071,-0.00000063,0.00000099,-0.000000
 56,0.00000034,0.00000171,-0.00000333,0.00000041,-0.00000021,-0.0000011
 0,-0.00000074,0.00000027,-0.00000113,0.00000465,0.00000325,0.00000264,
 -0.00000225,0.00000135,0.00000327,0.00000810,0.00000544,-0.00003725,-0
 .00088409,-0.00202426,-0.00142724,-0.00063351,-0.00207229,-0.00138581,
 -0.00016369,-0.00061357,-0.00063534,0.00001306,0.00000636,-0.00000598,
 0.00000147,0.00000176,-0.00000389,-0.00000436,-0.00000300,0.00000685,-
 0.00000039,0.00000326,0.00000056,0.00000069,-0.00000070,0.00000048,0.0
 0003465,-0.00007728,0.00003686,-0.00010906,-0.00012535,-0.00000696,0.0
 0000103,0.00000546,0.00000212,-0.00000258,-0.00001916,0.00000205,0.000
 00104,0.00000172,-0.00000236,-0.00000156,0.00000092,0.00000043,-0.0000
 0062,-0.00000176,-0.00000048,0.00000052,0.00000316,-0.00000140,0.00000
 128,0.00000285,0.00000052,-0.00000122,-0.00000112,-0.00000064,0.000001
 13,-0.00000064,-0.00000075,0.00000133,0.00000222,0.00000004,0.00000047
 ,-0.00000218,0.00000086,0.00000014,-0.00000187,-0.00000118,0.00000147,
 0.00000053,-0.00000041,-0.00000197,0.00000079,-0.00000024,-0.00000022,
 0.00000129,0.00000302,0.00000048,-0.00000052,-0.00000219,-0.00000370,0
 .00000136,-0.00001163,-0.00000408,0.00000494,-0.00000489,0.00019662,0.
 00038034,-0.00007274,-0.01413789,-0.16093424,0.18438707\\-0.00000257,-
 0.00000013,-0.00000020,0.00000180,-0.00000005,0.00000376,-0.00000678,-
 0.00000250,-0.00000122,-0.00000396,0.00000618,-0.00000161,-0.00000346,
 0.00000790,0.00000081,-0.00000399,-0.00000215,0.00000085,-0.00000066,-
 0.00000023,0.00000130,0.00000138,-0.00000080,0.00000184,-0.00000129,-0
 .00000027,0.00000076,-0.00000071,0.00000065,0.00000049,0.00000091,-0.0
 0000128,0.00000056,0.00000010,0.00000444,-0.00000309,0.00000157,-0.000
 00153,0.00000148,-0.00000075,0.00000014,-0.00000123,-0.00000014,0.0000
 0077,-0.00000027,-0.00000055,0.00000205,-0.00000120,0.00000009,-0.0000
 0078,0.00000403,0.00000372,-0.00000147,0.00000293,-0.00000171,0.000001
 75,-0.00000205,0.00000072,0.00000034,0.00000083,0.00000087,-0.00000187
 ,-0.00000319,0.00000638,-0.00000900,0.00000432,-0.00000080,0.00000549,
 -0.00000183,0.00000083,0.00000022,0.00000232,-0.00000030,-0.00000364,-
 0.00000340,0.00000075,0.00000072,0.00000047,-0.00000178,-0.00000001,-0
 .00000111,0.00000099,0.00000230,0.00000426,0.00000599,-0.00000124,-0.0
 0000595,0.00000219,0.00000296,-0.00000332,0.00000028,-0.00000038,-0.00
 000029,-0.00000208,0.00000068,0.00000059,0.00000102,0.00000086,0.00000
 059,0.00000095,0.00000020,0.00000084,-0.00000184,-0.00000090,0.0000001
 3,-0.00000037,0.00000152,0.00000408,-0.00000136,-0.00000166,-0.0000013
 7,0.00000057,-0.00000076,0.00000139,0.00000007,-0.00000163,0.00000020,
 0.00000018,-0.00000076,0.00000052,-0.00000120,-0.00000242,-0.00000280,
 0.00000145,-0.00001011,-0.00000217,-0.00000060,-0.00000038,0.00000060,
 0.00000049,-0.00000063,0.00000170,-0.00000130,0.00000109,0.00000136,-0
 .00000047,0.00000030,-0.00000054,0.00000002,0.00000144,0.00000029,0.00
 000015,0.00000001,0.00000002,-0.00000058,-0.00000057,0.00000084,-0.000
 00038,-0.00000127,-0.00000047,-0.00000067,-0.00000011,0.00000022,0.000
 00042,0.00000115,-0.00000117,0.00000040,0.00000086,-0.00000009,-0.0000
 0062,0.00000041,-0.00000101,-0.00000026,0.00000001,0.00000137,-0.00000
 052,0.00000069,-0.00000046,0.00000116,0.00000107,-0.00000044,0.0000003
 2,-0.00000112,0.00000100,0.00000014,-0.00000078,-0.00000039,0.00000031
 ,0.00000043,0.00000094,0.00000082,0.00000249,0.00000018,-0.00000062,0.
 00000098,0.00000015,0.00000169,0.00000104,0.00000156,0.00000209,0.0000
 0118,0.00000150,-0.00000045,0.00000440,-0.00000157,0.00000026,-0.00000
 544,0.00000120,0.00000101,0.00000024,-0.00000123,-0.00000063,0.0000013
 1,-0.00000200,0.00000006,-0.00000129,-0.00000061,0.00000020,-0.0000001
 9,-0.00000210,-0.00000003,0.00000061,-0.00000160,-0.00000024,0.0000000
 3,-0.00000136,0.00000045,0.00000013,-0.00000109,0.00000009,0.,-0.00000
 134,0.00000016,-0.00000029,-0.00000086,0.00000074,-0.00000093,-0.00000
 059,0.00000029,-0.00000076,0.00000082,-0.00000039,0.00000068,0.0000000
 1,-0.00000063,0.00000060,0.00000048,-0.00000081,-0.00000032,0.00000078
 ,0.00000021,-0.00000138,0.00000033,0.00000047,-0.00000050,-0.00000049,
 -0.00000030,0.00000012,-0.00000006,0.00000105,0.00000107,0.00000106\\\
 @


 MAN IS A SINGULAR CREATURE.  HE HAS A SET OF GIFTS
 WHICH MAKE HIM UNIQUE AMONG THE ANIMALS: SO THAT, 
 UNLIKE THEM, HE IS NOT A FIGURE IN THE LANDSCAPE --
 HE IS A SHAPER OF THE LANDSCAPE.

                       -- JACOB BRONOWSKI
 Job cpu time:       0 days 11 hours 56 minutes 50.8 seconds.
 Elapsed time:       0 days  0 hours 18 minutes  3.4 seconds.
 File lengths (MBytes):  RWF=   6232 Int=      0 D2E=      0 Chk=    154 Scr=      1
 Normal termination of Gaussian 16 at Sun Oct 31 13:06:25 2021.
