 Entering Gaussian System, Link 0=g09
 Input=SS_Et_DuPhos_2_SPE_NoPd.com
 Output=SS_Et_DuPhos_2_SPE_NoPd.log
 Initial command:
 /gstore/apps/gaussian/g09.e01-foss-2017a/g09/l1.exe "/local/22791409/Gau-9992.inp" -scrdir="/local/22791409/"
 Entering Link 1 = /gstore/apps/gaussian/g09.e01-foss-2017a/g09/l1.exe PID=      9993.
  
 Copyright (c) 1988,1990,1992,1993,1995,1998,2003,2009,2015,
            Gaussian, Inc.  All Rights Reserved.
  
 This is part of the Gaussian(R) 09 program.  It is based on
 the Gaussian(R) 03 system (copyright 2003, Gaussian, Inc.),
 the Gaussian(R) 98 system (copyright 1998, Gaussian, Inc.),
 the Gaussian(R) 94 system (copyright 1995, Gaussian, Inc.),
 the Gaussian 92(TM) system (copyright 1992, Gaussian, Inc.),
 the Gaussian 90(TM) system (copyright 1990, Gaussian, Inc.),
 the Gaussian 88(TM) system (copyright 1988, Gaussian, Inc.),
 the Gaussian 86(TM) system (copyright 1986, Carnegie Mellon
 University), and the Gaussian 82(TM) system (copyright 1983,
 Carnegie Mellon University). Gaussian is a federally registered
 trademark of Gaussian, Inc.
  
 This software contains proprietary and confidential information,
 including trade secrets, belonging to Gaussian, Inc.
  
 This software is provided under written license and may be
 used, copied, transmitted, or stored only in accord with that
 written license.
  
 The following legend is applicable only to US Government
 contracts under FAR:
  
                    RESTRICTED RIGHTS LEGEND
  
 Use, reproduction and disclosure by the US Government is
 subject to restrictions as set forth in subparagraphs (a)
 and (c) of the Commercial Computer Software - Restricted
 Rights clause in FAR 52.227-19.
  
 Gaussian, Inc.
 340 Quinnipiac St., Bldg. 40, Wallingford CT 06492
  
  
 ---------------------------------------------------------------
 Warning -- This program may not be used in any manner that
 competes with the business of Gaussian, Inc. or will provide
 assistance to any competitor of Gaussian, Inc.  The licensee
 of this program is prohibited from giving any competitor of
 Gaussian, Inc. access to this program.  By using this program,
 the user acknowledges that Gaussian, Inc. is engaged in the
 business of creating and licensing software in the field of
 computational chemistry and represents and warrants to the
 licensee that it is not a competitor of Gaussian, Inc. and that
 it will not use this program in any manner prohibited above.
 ---------------------------------------------------------------
  

 Cite this work as:
 Gaussian 09, Revision E.01,
 M. J. Frisch, G. W. Trucks, H. B. Schlegel, G. E. Scuseria, 
 M. A. Robb, J. R. Cheeseman, G. Scalmani, V. Barone, B. Mennucci, 
 G. A. Petersson, H. Nakatsuji, M. Caricato, X. Li, H. P. Hratchian, 
 A. F. Izmaylov, J. Bloino, G. Zheng, J. L. Sonnenberg, M. Hada, 
 M. Ehara, K. Toyota, R. Fukuda, J. Hasegawa, M. Ishida, T. Nakajima, 
 Y. Honda, O. Kitao, H. Nakai, T. Vreven, J. A. Montgomery, Jr., 
 J. E. Peralta, F. Ogliaro, M. Bearpark, J. J. Heyd, E. Brothers, 
 K. N. Kudin, V. N. Staroverov, T. Keith, R. Kobayashi, J. Normand, 
 K. Raghavachari, A. Rendell, J. C. Burant, S. S. Iyengar, J. Tomasi, 
 M. Cossi, N. Rega, J. M. Millam, M. Klene, J. E. Knox, J. B. Cross, 
 V. Bakken, C. Adamo, J. Jaramillo, R. Gomperts, R. E. Stratmann, 
 O. Yazyev, A. J. Austin, R. Cammi, C. Pomelli, J. W. Ochterski, 
 R. L. Martin, K. Morokuma, V. G. Zakrzewski, G. A. Voth, 
 P. Salvador, J. J. Dannenberg, S. Dapprich, A. D. Daniels, 
 O. Farkas, J. B. Foresman, J. V. Ortiz, J. Cioslowski, 
 and D. J. Fox, Gaussian, Inc., Wallingford CT, 2013.
 
 ******************************************
 Gaussian 09:  ES64L-G09RevE.01 30-Nov-2015
                 5-Dec-2021 
 ******************************************
 %nprocs=14
 Will use up to   14 processors via shared memory.
 %mem=128GB
 %chk=SS_Et_DuPhos_2_SPE_NoPd.chk
 ----------------------------------------------------------------------
 # PBE1PBE/def2TZVP int=(grid=ultrafine) empiricaldispersion=GD3BJ nmr=
 giao
 ----------------------------------------------------------------------
 1/38=1/1;
 2/12=2,17=6,18=5,40=1/2;
 3/5=44,7=101,11=2,16=1,25=1,30=1,74=-13,75=-5,124=41/1,2,8,3;
 4//1;
 5/5=2,38=5/2;
 8/6=1,10=90,11=11/1;
 10/13=100,45=16/2;
 6/7=2,8=2,9=2,10=2,28=1/1;
 99/9=1/99;
 --------------------
 SS_Et_DuPhos_2 title
 --------------------
 Symbolic Z-matrix:
 Charge =  0 Multiplicity = 1
 P                    -1.53652  -0.7592    0.05573 
 P                     1.53768  -0.18097   0.36328 
 C                    -0.93134   0.94562  -0.33377 
 C                     0.43872   1.22495  -0.11143 
 C                    -2.93613  -0.69512   1.33023 
 H                    -2.5637   -1.30007   2.17532 
 C                    -2.62006  -1.23825  -1.42047 
 H                    -2.3795   -0.5246   -2.23083 
 C                     2.57944   0.39291   1.82727 
 H                     2.39408   1.48464   1.89549 
 C                     2.96833  -0.23821  -0.86144 
 H                     3.18793  -1.32312  -0.89344 
 C                    -4.06987  -1.45024   0.59642 
 H                    -3.88189  -2.53492   0.67508 
 H                    -5.04288  -1.23862   1.07503 
 C                    -4.05506  -1.02564  -0.88118 
 H                    -4.34881   0.0378   -0.96852 
 H                    -4.77638  -1.60845  -1.48149 
 C                     4.02918   0.14255   1.35908 
 H                     4.7352    0.73633   1.96647 
 H                     4.26366  -0.92628   1.51279 
 C                     4.12483   0.47966  -0.13418 
 H                     5.09394   0.16965  -0.56455 
 H                     4.0404    1.57418  -0.2882 
 C                    -3.36246   0.6952    1.83638 
 H                    -3.63677   1.35361   0.9921 
 H                    -4.29772   0.54158   2.40886 
 C                    -2.38854  -2.67495  -1.92993 
 H                    -3.1967   -2.88461  -2.65764 
 H                    -2.50497  -3.38729  -1.09495 
 C                     2.24401  -0.26895   3.17044 
 H                     2.9858    0.09431   3.90807 
 H                     2.39496  -1.35827   3.06679 
 C                     2.68798   0.2756   -2.27811 
 H                     2.44075   1.35352  -2.24216 
 H                     3.6362    0.19926  -2.84462 
 C                    -2.34052   1.39755   2.73407 
 H                    -2.74844   2.34716   3.12027 
 H                    -1.40981   1.63074   2.19145 
 H                    -2.07503   0.76497   3.59807 
 C                    -1.02917  -2.90091  -2.59118 
 H                    -0.2104   -2.7682   -1.85944 
 H                    -0.95465  -3.93057  -2.97869 
 H                    -0.8618   -2.20296  -3.43159 
 C                     0.82716   0.01259   3.6707 
 H                     0.08465  -0.44988   2.99425 
 H                     0.61642   1.09608   3.72699 
 H                     0.66963  -0.41925   4.67326 
 C                     1.58492  -0.48714  -3.01514 
 H                     1.78585  -1.57174  -3.02464 
 H                     0.60536  -0.33861  -2.52972 
 H                     1.49587  -0.1441   -4.05995 
 C                    -1.77159   1.95915  -0.83376 
 H                    -2.82315   1.74384  -1.04841 
 C                    -1.27149   3.24742  -1.06284 
 H                    -1.93504   4.02823  -1.44756 
 C                     0.07449   3.53628  -0.79577 
 H                     0.46439   4.54489  -0.96513 
 C                     0.92761   2.52684  -0.33108 
 H                     1.98356   2.75258  -0.14794 
 
 Stoichiometry    C22H36P2
 Framework group  C1[X(C22H36P2)]
 Deg. of freedom   174
 Full point group                 C1      NOp   1
 Largest Abelian subgroup         C1      NOp   1
 Largest concise Abelian subgroup C1      NOp   1
                         Standard orientation:                         
 ---------------------------------------------------------------------
 Center     Atomic      Atomic             Coordinates (Angstroms)
 Number     Number       Type             X           Y           Z
 ---------------------------------------------------------------------
      1         15           0       -1.506989    0.088157   -0.576679
      2         15           0        1.635867    0.090355   -0.622714
      3          6           0       -0.615762   -0.097150    1.034446
      4          6           0        0.797075   -0.182114    0.999587
      5          6           0       -2.742119   -1.326598   -0.822200
      6          1           0       -2.419837   -1.810570   -1.760691
      7          6           0       -2.795836    1.438959   -0.265394
      8          1           0       -2.495211    1.950110    0.668521
      9          6           0        2.901539   -1.291642   -0.837171
     10          1           0        2.942604   -1.793347    0.151513
     11          6           0        2.907248    1.462161   -0.395330
     12          1           0        2.904316    1.933816   -1.397230
     13          6           0       -4.065696   -0.558033   -1.049126
     14          1           0       -4.089188   -0.192602   -2.090267
     15          1           0       -4.929117   -1.232348   -0.906335
     16          6           0       -4.104303    0.633789   -0.078616
     17          1           0       -4.189028    0.267054    0.962126
     18          1           0       -4.978985    1.282947   -0.262628
     19          6           0        4.223526   -0.534818   -1.088580
     20          1           0        5.086099   -1.197043   -0.895232
     21          1           0        4.255495   -0.236276   -2.151995
     22          6           0        4.245075    0.717231   -0.202846
     23          1           0        5.089733    1.383778   -0.453393
     24          1           0        4.364587    0.433723    0.862125
     25          6           0       -2.836676   -2.379116    0.297708
     26          1           0       -3.052564   -1.899982    1.270016
     27          1           0       -3.726695   -2.996045    0.066824
     28          6           0       -2.900870    2.480221   -1.397644
     29          1           0       -3.798409    3.091647   -1.180321
     30          1           0       -3.077824    1.966280   -2.358241
     31          6           0        2.567935   -2.323933   -1.922423
     32          1           0        3.431962   -3.012783   -1.994918
     33          1           0        2.490486   -1.796389   -2.889811
     34          6           0        2.603860    2.516947    0.674687
     35          1           0        2.578818    2.039813    1.672710
     36          1           0        3.461663    3.216742    0.693013
     37          6           0       -1.617438   -3.295649    0.427891
     38          1           0       -1.792184   -4.070469    1.193672
     39          1           0       -0.713372   -2.736545    0.719617
     40          1           0       -1.403221   -3.803898   -0.527583
     41          6           0       -1.680160    3.389419   -1.536968
     42          1           0       -0.787093    2.804888   -1.827139
     43          1           0       -1.846712    4.141244   -2.326229
     44          1           0       -1.456845    3.921980   -0.594663
     45          6           0        1.287181   -3.116371   -1.660323
     46          1           0        0.408532   -2.446285   -1.701937
     47          1           0        1.300738   -3.608219   -0.670660
     48          1           0        1.141055   -3.895109   -2.427559
     49          6           0        1.308424    3.296298    0.437670
     50          1           0        1.289409    3.744269   -0.570190
     51          1           0        0.426778    2.638347    0.521565
     52          1           0        1.192457    4.106809    1.177180
     53          6           0       -1.281911   -0.157384    2.273743
     54          1           0       -2.370562   -0.051679    2.317183
     55          6           0       -0.560642   -0.350012    3.459015
     56          1           0       -1.089636   -0.399473    4.415940
     57          6           0        0.834715   -0.483282    3.418495
     58          1           0        1.398745   -0.643475    4.342726
     59          6           0        1.510968   -0.390281    2.195079
     60          1           0        2.603044   -0.470428    2.172992
 ---------------------------------------------------------------------
 Rotational constants (GHZ):      0.2667589      0.1696177      0.1499952
 Standard basis: def2TZVP (5D, 7F)
 There are  1092 symmetry adapted cartesian basis functions of A   symmetry.
 There are   972 symmetry adapted basis functions of A   symmetry.
   972 basis functions,  1548 primitive gaussians,  1092 cartesian basis functions
    99 alpha electrons       99 beta electrons
       nuclear repulsion energy      2632.7771746190 Hartrees.
 NAtoms=   60 NActive=   60 NUniq=   60 SFac= 1.00D+00 NAtFMM=   60 NAOKFM=T Big=T
 Integral buffers will be    131072 words long.
 Raffenetti 2 integral format.
 Two-electron integral symmetry is turned on.
 Nuclear repulsion after empirical dispersion term =     2632.6969500279 Hartrees.
 One-electron integrals computed using PRISM.
   1 Symmetry operations used in ECPInt.
 ECPInt:  NShTT=   85078 NPrTT=  253069 LenC2=   74532 LenP2D=  154956.
 LDataN:  DoStor=T MaxTD1= 6 Len=  172
 NBasis=   972 RedAO= T EigKep=  5.35D-06  NBF=   972
 NBsUse=   972 1.00D-06 EigRej= -1.00D+00 NBFU=   972
 ExpMin= 9.04D-02 ExpMax= 5.24D+04 ExpMxC= 1.79D+03 IAcc=3 IRadAn=         5 AccDes= 0.00D+00
 Harris functional with IExCor= 1009 and IRadAn=       5 diagonalized for initial guess.
 HarFok:  IExCor= 1009 AccDes= 0.00D+00 IRadAn=         5 IDoV= 1 UseB2=F ITyADJ=14
 ICtDFT=  3500011 ScaDFX=  1.000000  1.000000  1.000000  1.000000
 FoFCou: FMM=F IPFlag=           0 FMFlag=      100000 FMFlg1=        2001
         NFxFlg=           0 DoJE=T BraDBF=F KetDBF=T FulRan=T
         wScrn=  0.000000 ICntrl=     500 IOpCl=  0 I1Cent=   200000004 NGrid=           0
         NMat0=    1 NMatS0=      1 NMatT0=    0 NMatD0=    1 NMtDS0=    0 NMtDT0=    0
 Petite list used in FoFCou.
 Requested convergence on RMS density matrix=1.00D-08 within 128 cycles.
 Requested convergence on MAX density matrix=1.00D-06.
 Requested convergence on             energy=1.00D-06.
 No special actions if energy rises.
 Integral accuracy reduced to 1.0D-05 until final iterations.
 Rare condition: small coef for last iteration:  0.000D+00
 EnCoef did   100 forward-backward iterations
 Rare condition: small coef for last iteration:  0.000D+00
 Problem detected with inexpensive integrals.
 Switching to full accuracy and repeating last cycle.
 SCF Done:  E(RPBE1PBE) =  -1541.81771969     A.U. after   15 cycles
            NFock= 15  Conv=0.61D-08     -V/T= 2.0044
 DoSCS=F DFT=T ScalE2(SS,OS)=  1.000000  1.000000
 Range of M.O.s used for correlation:     1   972
 NBasis=   972 NAE=    99 NBE=    99 NFC=     0 NFV=     0
 NROrb=    972 NOA=    99 NOB=    99 NVA=   873 NVB=   873

 **** Warning!!: The largest alpha MO coefficient is  0.38390041D+02

          Differentiating once with respect to magnetic field using GIAOs.
          Electric field/nuclear overlap derivatives assumed to be zero.
 FoFCou: FMM=F IPFlag=           0 FMFlag=      100000 FMFlg1=        2001
         NFxFlg=           0 DoJE=F BraDBF=F KetDBF=T FulRan=T
         wScrn=  0.000000 ICntrl=    6100 IOpCl=  0 I1Cent=           7 NGrid=          60
         NMat0=    1 NMatS0=      1 NMatT0=    0 NMatD0=    1 NMtDS0=    0 NMtDT0=    0
 Symmetry not used in FoFCou.
   1 Symmetry operations used in ECPInt.
 ECPInt:  NShTT=   85078 NPrTT=  253069 LenC2=   85079 LenP2D=  253069.
 LDataN:  DoStor=T MaxTD1= 7 Len=  274
 FoFJK:  IHMeth= 1 ICntrl=    6127 DoSepK=F KAlg= 0 I1Cent=   0 FoldK=F
 IRaf=         1 NMat=   1 IRICut=       1 DoRegI=T DoRafI=F ISym2E= 0.
          There are     3 degrees of freedom in the 1st order CPHF.  IDoFFX=0 NUNeed=     3.
      3 vectors produced by pass  0 Test12= 2.88D-12 3.33D-08 XBig12= 8.42D+01 1.49D+00.
 AX will form     3 AO Fock derivatives at one time.
      3 vectors produced by pass  1 Test12= 2.88D-12 3.33D-08 XBig12= 1.55D-01 1.57D-01.
      3 vectors produced by pass  2 Test12= 2.88D-12 3.33D-08 XBig12= 1.11D-03 1.06D-02.
      3 vectors produced by pass  3 Test12= 2.88D-12 3.33D-08 XBig12= 3.88D-06 5.29D-04.
      3 vectors produced by pass  4 Test12= 2.88D-12 3.33D-08 XBig12= 2.07D-08 8.23D-05.
      3 vectors produced by pass  5 Test12= 2.88D-12 3.33D-08 XBig12= 1.82D-10 4.15D-06.
      3 vectors produced by pass  6 Test12= 2.88D-12 3.33D-08 XBig12= 5.49D-13 1.58D-07.
 InvSVY:  IOpt=1 It=  1 EMax= 3.55D-15
 Solved reduced A of dimension    21 with     3 vectors.
 Calculating GIAO nuclear magnetic shielding tensors.
 SCF GIAO Magnetic shielding tensor (ppm):
      1  P    Isotropic =   304.4610   Anisotropy =    45.2977
   XX=   329.2105   YX=     8.2861   ZX=     8.9592
   XY=    -9.2625   YY=   317.4130   ZY=     5.8430
   XZ=    29.1860   YZ=     6.4382   ZZ=   266.7594
   Eigenvalues:   260.7506   317.9729   334.6595
      2  P    Isotropic =   310.6915   Anisotropy =    51.5096
   XX=   314.9347   YX=     3.5450   ZX=    -7.2362
   XY=    -3.3145   YY=   303.2117   ZY=    27.4047
   XZ=   -42.4494   YZ=    14.8881   ZZ=   313.9282
   Eigenvalues:   278.6170   308.4262   345.0313
      3  C    Isotropic =    29.5126   Anisotropy =   204.6400
   XX=   -29.3055   YX=    13.2103   ZX=   -21.5091
   XY=     9.1774   YY=   161.6991   ZY=    38.4475
   XZ=   -22.2404   YZ=    18.6903   ZZ=   -43.8559
   Eigenvalues:   -63.5745   -13.8269   165.9392
      4  C    Isotropic =    31.1782   Anisotropy =   204.1219
   XX=   -27.4722   YX=     5.4899   ZX=    22.1077
   XY=    -6.5800   YY=   165.5521   ZY=     9.9573
   XZ=    21.9645   YZ=    27.9576   ZZ=   -44.5454
   Eigenvalues:   -60.7753   -12.9497   167.2594
      5  C    Isotropic =   138.8253   Anisotropy =    24.1867
   XX=   147.9193   YX=    -4.9793   ZX=     0.5166
   XY=    -3.8071   YY=   151.8494   ZY=     6.3752
   XZ=     9.7790   YZ=    -6.9398   ZZ=   116.7071
   Eigenvalues:   115.8751   145.6510   154.9497
      6  H    Isotropic =    28.9241   Anisotropy =     6.9303
   XX=    27.8825   YX=    -1.0066   ZX=    -0.7924
   XY=    -0.7465   YY=    28.0037   ZY=     3.7329
   XZ=    -1.2899   YZ=     3.2475   ZZ=    30.8861
   Eigenvalues:    25.6576    27.5704    33.5443
      7  C    Isotropic =   134.6513   Anisotropy =    13.1919
   XX=   138.8460   YX=    -7.2195   ZX=     2.7932
   XY=    -3.9416   YY=   136.0516   ZY=     8.3283
   XZ=    -6.2391   YZ=    -6.6517   ZZ=   129.0563
   Eigenvalues:   128.7588   131.7491   143.4459
      8  H    Isotropic =    29.5765   Anisotropy =     3.1551
   XX=    27.2521   YX=     1.3257   ZX=     0.7316
   XY=    -1.8603   YY=    30.4480   ZY=    -0.3279
   XZ=     1.0627   YZ=     1.9458   ZZ=    31.0295
   Eigenvalues:    26.9920    30.0577    31.6799
      9  C    Isotropic =   131.9087   Anisotropy =    24.1281
   XX=   145.5707   YX=     7.6562   ZX=     2.5173
   XY=     0.7450   YY=   139.1011   ZY=    14.2231
   XZ=    -5.4631   YZ=     6.1277   ZZ=   111.0543
   Eigenvalues:   107.5583   140.1738   147.9941
     10  H    Isotropic =    29.0033   Anisotropy =     3.1291
   XX=    27.5826   YX=    -0.5858   ZX=     0.8614
   XY=    -2.4098   YY=    29.7004   ZY=     0.3300
   XZ=     0.0809   YZ=    -1.9006   ZZ=    29.7269
   Eigenvalues:    26.8060    29.1146    31.0894
     11  C    Isotropic =   136.8940   Anisotropy =    21.8215
   XX=   147.0389   YX=    -5.8372   ZX=    -5.2816
   XY=    -1.9557   YY=   139.8961   ZY=     9.5401
   XZ=    -3.1870   YZ=    10.6256   ZZ=   123.7471
   Eigenvalues:   118.7374   140.5030   151.4417
     12  H    Isotropic =    29.2665   Anisotropy =     6.8126
   XX=    28.0032   YX=     0.9683   ZX=    -1.1433
   XY=     0.5817   YY=    29.9790   ZY=    -3.5856
   XZ=    -0.3284   YZ=    -3.8394   ZZ=    29.8172
   Eigenvalues:    26.1846    27.8066    33.8082
     13  C    Isotropic =   147.6957   Anisotropy =    34.5267
   XX=   166.3011   YX=    -5.9269   ZX=     4.3032
   XY=    -9.3468   YY=   156.7822   ZY=     4.3824
   XZ=    15.7461   YZ=    21.3872   ZZ=   120.0038
   Eigenvalues:   113.2685   159.1052   170.7136
     14  H    Isotropic =    29.3086   Anisotropy =     9.2690
   XX=    27.8065   YX=    -0.4316   ZX=     4.1560
   XY=    -0.6419   YY=    27.2267   ZY=    -1.3273
   XZ=     4.4856   YZ=    -0.3974   ZZ=    32.8927
   Eigenvalues:    25.3351    27.1027    35.4879
     15  H    Isotropic =    29.7577   Anisotropy =    10.6849
   XX=    34.5132   YX=     3.7078   ZX=     1.3608
   XY=     3.2988   YY=    29.6899   ZY=     0.9787
   XZ=     2.9992   YZ=     1.4434   ZZ=    25.0700
   Eigenvalues:    24.5428    27.8493    36.8810
     16  C    Isotropic =   145.6135   Anisotropy =    30.1097
   XX=   164.6668   YX=     2.6004   ZX=    -2.0509
   XY=     4.6790   YY=   150.6368   ZY=    -0.6464
   XZ=    -5.9311   YZ=    13.8006   ZZ=   121.5369
   Eigenvalues:   119.6330   151.5208   165.6867
     17  H    Isotropic =    29.1335   Anisotropy =     8.1800
   XX=    28.7368   YX=     0.2418   ZX=    -3.5455
   XY=     0.8516   YY=    26.4974   ZY=    -1.4908
   XZ=    -3.5601   YZ=    -0.7531   ZZ=    32.1662
   Eigenvalues:    26.2414    26.5722    34.5868
     18  H    Isotropic =    29.6694   Anisotropy =    10.6888
   XX=    34.9205   YX=    -3.9798   ZX=    -0.7904
   XY=    -3.2961   YY=    29.2858   ZY=     0.1075
   XZ=    -1.3850   YZ=     0.1933   ZZ=    24.8019
   Eigenvalues:    24.6697    27.5432    36.7953
     19  C    Isotropic =   147.6040   Anisotropy =    31.9524
   XX=   156.4709   YX=    12.2001   ZX=    -0.5830
   XY=     8.4639   YY=   154.9485   ZY=    15.9800
   XZ=   -13.3508   YZ=    22.4719   ZZ=   131.3927
   Eigenvalues:   117.4009   156.5055   168.9056
     20  H    Isotropic =    29.1866   Anisotropy =    10.4435
   XX=    34.4120   YX=    -3.6593   ZX=     0.2083
   XY=    -3.4822   YY=    28.5928   ZY=     0.7294
   XZ=    -0.6554   YZ=     1.5090   ZZ=    24.5551
   Eigenvalues:    24.2049    27.2060    36.1489
     21  H    Isotropic =    30.0102   Anisotropy =     8.1598
   XX=    29.2513   YX=     1.3854   ZX=    -3.7737
   XY=     1.9393   YY=    27.5776   ZY=     0.2118
   XZ=    -3.6342   YZ=     0.7524   ZZ=    33.2017
   Eigenvalues:    25.5991    28.9815    35.4501
     22  C    Isotropic =   144.6936   Anisotropy =    26.7973
   XX=   155.7605   YX=   -11.7097   ZX=    -1.3242
   XY=    -2.3295   YY=   150.3542   ZY=    13.5648
   XZ=     9.7366   YZ=    20.3041   ZZ=   127.9662
   Eigenvalues:   117.5529   153.9694   162.5585
     23  H    Isotropic =    29.4183   Anisotropy =    10.8001
   XX=    34.5642   YX=     3.8477   ZX=    -1.1353
   XY=     3.9647   YY=    29.0213   ZY=     0.1418
   XZ=    -0.9278   YZ=     0.9994   ZZ=    24.6694
   Eigenvalues:    24.2814    27.3550    36.6184
     24  H    Isotropic =    29.6954   Anisotropy =     6.8980
   XX=    30.2671   YX=    -1.1127   ZX=     3.2006
   XY=    -0.7648   YY=    26.8828   ZY=     0.1643
   XZ=     2.9198   YZ=     0.2993   ZZ=    31.9364
   Eigenvalues:    26.3623    28.4298    34.2941
     25  C    Isotropic =   155.2473   Anisotropy =    22.6587
   XX=   160.9249   YX=     0.5341   ZX=    -0.4481
   XY=     1.0027   YY=   160.0278   ZY=   -14.6002
   XZ=     5.6605   YZ=   -17.7596   ZZ=   144.7891
   Eigenvalues:   134.2682   161.1206   170.3531
     26  H    Isotropic =    29.5442   Anisotropy =     4.2110
   XX=    27.7560   YX=    -1.3793   ZX=    -1.9868
   XY=     2.5244   YY=    29.1171   ZY=     0.7334
   XZ=    -1.3115   YZ=    -0.2609   ZZ=    31.7594
   Eigenvalues:    26.9847    29.2964    32.3515
     27  H    Isotropic =    30.0446   Anisotropy =    10.2566
   XX=    33.3779   YX=     3.4283   ZX=     1.5344
   XY=     4.6030   YY=    32.2521   ZY=    -1.1910
   XZ=     0.2203   YZ=    -2.0055   ZZ=    24.5039
   Eigenvalues:    23.8464    29.4051    36.8824
     28  C    Isotropic =   152.1198   Anisotropy =    28.6615
   XX=   157.2324   YX=    -4.1611   ZX=     2.6010
   XY=   -10.6074   YY=   154.5785   ZY=   -15.4345
   XZ=    -1.0728   YZ=   -20.6210   ZZ=   144.5484
   Eigenvalues:   130.2762   154.8557   171.2274
     29  H    Isotropic =    29.9684   Anisotropy =     9.9242
   XX=    33.1913   YX=    -3.4559   ZX=    -1.0191
   XY=    -4.0937   YY=    32.0415   ZY=    -2.4064
   XZ=     0.0148   YZ=    -2.7457   ZZ=    24.6724
   Eigenvalues:    23.5501    29.7705    36.5846
     30  H    Isotropic =    29.9207   Anisotropy =     5.5296
   XX=    27.6476   YX=     2.2533   ZX=     2.7941
   XY=     2.1538   YY=    29.6099   ZY=    -1.2758
   XZ=     2.2781   YZ=    -1.1448   ZZ=    32.5045
   Eigenvalues:    25.1569    30.9980    33.6071
     31  C    Isotropic =   152.7827   Anisotropy =    22.8170
   XX=   145.5377   YX=     7.6241   ZX=    -0.7446
   XY=     5.4600   YY=   157.4294   ZY=    10.6047
   XZ=     1.2882   YZ=    10.1352   ZZ=   155.3811
   Eigenvalues:   141.0193   149.3348   167.9941
     32  H    Isotropic =    29.5716   Anisotropy =     9.7252
   XX=    31.9502   YX=    -2.6463   ZX=    -1.3459
   XY=    -3.2569   YY=    31.4533   ZY=     3.9981
   XZ=    -1.8680   YZ=     3.7067   ZZ=    25.3113
   Eigenvalues:    23.4518    29.2079    36.0550
     33  H    Isotropic =    30.0075   Anisotropy =     6.4821
   XX=    28.0951   YX=     1.6885   ZX=    -1.2369
   XY=     1.3608   YY=    27.7780   ZY=    -0.0459
   XZ=    -0.6733   YZ=    -0.3913   ZZ=    34.1495
   Eigenvalues:    26.3735    29.3202    34.3290
     34  C    Isotropic =   157.7602   Anisotropy =    22.8158
   XX=   154.7434   YX=   -10.1586   ZX=     1.1204
   XY=    -9.0666   YY=   164.6612   ZY=     7.6241
   XZ=    -2.9572   YZ=     7.1194   ZZ=   153.8760
   Eigenvalues:   146.9967   153.3132   172.9708
     35  H    Isotropic =    30.2843   Anisotropy =     4.7402
   XX=    27.6969   YX=    -0.6237   ZX=     1.0315
   XY=     3.4728   YY=    30.5384   ZY=    -2.1472
   XZ=     1.2201   YZ=    -0.8991   ZZ=    32.6176
   Eigenvalues:    26.6478    30.7607    33.4444
     36  H    Isotropic =    29.8977   Anisotropy =    10.2185
   XX=    32.5656   YX=     3.2345   ZX=     0.8918
   XY=     4.0054   YY=    32.4575   ZY=     2.1102
   XZ=     1.5565   YZ=     2.8891   ZZ=    24.6700
   Eigenvalues:    23.9333    29.0498    36.7101
     37  C    Isotropic =   169.4137   Anisotropy =    18.4531
   XX=   173.0598   YX=   -11.2240   ZX=     0.3733
   XY=    -7.7639   YY=   171.1945   ZY=    -0.4072
   XZ=    -1.7770   YZ=    -3.8972   ZZ=   163.9868
   Eigenvalues:   161.0918   165.4336   181.7158
     38  H    Isotropic =    31.0898   Anisotropy =    11.2873
   XX=    27.8317   YX=    -0.7622   ZX=    -0.0218
   XY=     1.0353   YY=    35.6747   ZY=    -4.9796
   XZ=    -0.4194   YZ=    -5.2119   ZZ=    29.7632
   Eigenvalues:    26.8131    27.8417    38.6147
     39  H    Isotropic =    31.9037   Anisotropy =     9.5424
   XX=    34.4455   YX=     2.3784   ZX=     1.4389
   XY=     3.5913   YY=    34.9446   ZY=     3.6620
   XZ=     1.3426   YZ=     0.8886   ZZ=    26.3210
   Eigenvalues:    25.7054    31.7404    38.2653
     40  H    Isotropic =    31.1126   Anisotropy =     8.1016
   XX=    30.4102   YX=    -1.6258   ZX=    -3.1907
   XY=    -0.7746   YY=    32.9692   ZY=     4.6600
   XZ=    -2.1261   YZ=     2.7460   ZZ=    29.9582
   Eigenvalues:    26.6864    30.1376    36.5136
     41  C    Isotropic =   168.6251   Anisotropy =    18.7758
   XX=   173.2978   YX=    11.3539   ZX=     0.8393
   XY=     8.9773   YY=   167.9684   ZY=    -3.1341
   XZ=     3.2577   YZ=    -2.0330   ZZ=   164.6090
   Eigenvalues:   158.3793   166.3536   181.1423
     42  H    Isotropic =    29.7309   Anisotropy =     7.3434
   XX=    34.1017   YX=    -1.9573   ZX=    -0.9824
   XY=    -1.3219   YY=    28.8602   ZY=    -2.2919
   XZ=    -1.3032   YZ=    -0.9454   ZZ=    26.2309
   Eigenvalues:    25.1163    29.4499    34.6265
     43  H    Isotropic =    30.3822   Anisotropy =    11.2273
   XX=    27.8595   YX=     1.0501   ZX=     0.3276
   XY=     0.3128   YY=    32.9098   ZY=    -6.3464
   XZ=     0.6169   YZ=    -5.8293   ZZ=    30.3775
   Eigenvalues:    25.1878    28.0919    37.8671
     44  H    Isotropic =    30.9073   Anisotropy =     6.5121
   XX=    30.4015   YX=     2.0061   ZX=     3.2558
   XY=     1.0682   YY=    32.7310   ZY=     1.7018
   XZ=     2.1941   YZ=     2.3594   ZZ=    29.5894
   Eigenvalues:    27.1761    30.2971    35.2487
     45  C    Isotropic =   165.8059   Anisotropy =    23.2129
   XX=   175.1149   YX=    11.2512   ZX=    -2.6418
   XY=     8.0938   YY=   163.8261   ZY=     2.6517
   XZ=    -6.1255   YZ=    -2.3067   ZZ=   158.4766
   Eigenvalues:   155.7578   160.3786   181.2812
     46  H    Isotropic =    29.9333   Anisotropy =     9.6395
   XX=    35.3776   YX=    -2.4545   ZX=    -1.3636
   XY=    -1.6557   YY=    29.0146   ZY=     3.4242
   XZ=    -1.3551   YZ=     1.3959   ZZ=    25.4077
   Eigenvalues:    24.1925    29.2478    36.3596
     47  H    Isotropic =    30.9933   Anisotropy =     5.3193
   XX=    29.8542   YX=     1.6532   ZX=    -2.5244
   XY=     0.3406   YY=    32.4150   ZY=    -1.1821
   XZ=    -1.7342   YZ=    -2.5899   ZZ=    30.7108
   Eigenvalues:    28.0571    30.3833    34.5395
     48  H    Isotropic =    30.2729   Anisotropy =    10.5590
   XX=    28.8425   YX=     2.8298   ZX=     0.6880
   XY=     2.0197   YY=    32.6402   ZY=     6.1932
   XZ=     0.1207   YZ=     4.8273   ZZ=    29.3361
   Eigenvalues:    24.8811    28.6255    37.3123
     49  C    Isotropic =   167.6542   Anisotropy =    22.9159
   XX=   175.6002   YX=   -12.0946   ZX=     2.6381
   XY=    -7.9813   YY=   167.1044   ZY=    -1.1005
   XZ=     5.1338   YZ=    -1.3632   ZZ=   160.2579
   Eigenvalues:   158.8295   161.2016   182.9314
     50  H    Isotropic =    30.7862   Anisotropy =     7.7951
   XX=    30.0987   YX=    -1.3667   ZX=     2.5587
   XY=    -0.7989   YY=    31.8195   ZY=    -4.7616
   XZ=     1.6888   YZ=    -3.1592   ZZ=    30.4402
   Eigenvalues:    26.7938    29.5818    35.9829
     51  H    Isotropic =    31.1264   Anisotropy =     9.2081
   XX=    35.6665   YX=     2.7485   ZX=     0.7805
   XY=     2.0181   YY=    33.7086   ZY=    -3.1553
   XZ=     1.1885   YZ=     0.6417   ZZ=    24.0042
   Eigenvalues:    23.7017    32.4124    37.2651
     52  H    Isotropic =    30.8680   Anisotropy =    10.5982
   XX=    28.8515   YX=    -2.5520   ZX=    -0.6972
   XY=    -1.4834   YY=    35.2734   ZY=     4.3214
   XZ=     0.0446   YZ=     4.6736   ZZ=    28.4790
   Eigenvalues:    26.0881    28.5824    37.9334
     53  C    Isotropic =    43.1355   Anisotropy =   180.4405
   XX=   -66.3821   YX=    26.0761   ZX=     9.8898
   XY=    22.8637   YY=   159.0245   ZY=    15.7658
   XZ=    10.1508   YZ=    12.2401   ZZ=    36.7641
   Eigenvalues:   -69.6879    35.6652   163.4291
     54  H    Isotropic =    23.3351   Anisotropy =    10.6109
   XX=    20.3302   YX=    -0.0019   ZX=     1.4774
   XY=    -0.2155   YY=    19.4369   ZY=    -0.3464
   XZ=     0.9420   YZ=    -0.6892   ZZ=    30.2381
   Eigenvalues:    19.4088    20.1874    30.4090
     55  C    Isotropic =    51.5433   Anisotropy =   184.4693
   XX=    16.3861   YX=    11.5321   ZX=    42.1023
   XY=     8.9549   YY=   171.8074   ZY=    15.4854
   XZ=    44.1636   YZ=    19.0682   ZZ=   -33.5636
   Eigenvalues:   -58.8568    38.9639   174.5228
     56  H    Isotropic =    23.8626   Anisotropy =     5.4348
   XX=    25.6731   YX=    -0.4733   ZX=     1.8158
   XY=    -0.5666   YY=    20.2437   ZY=    -0.3409
   XZ=     1.6879   YZ=    -0.5126   ZZ=    25.6709
   Eigenvalues:    20.1807    23.9213    27.4857
     57  C    Isotropic =    52.0221   Anisotropy =   184.0366
   XX=    14.3099   YX=    19.9433   ZX=   -40.0646
   XY=    15.5455   YY=   170.4973   ZY=    23.3234
   XZ=   -42.7480   YZ=    27.5166   ZZ=   -28.7408
   Eigenvalues:   -58.0709    39.4241   174.7132
     58  H    Isotropic =    23.8487   Anisotropy =     5.2388
   XX=    25.5984   YX=    -0.0274   ZX=    -1.7650
   XY=    -0.3819   YY=    20.3412   ZY=    -1.0373
   XZ=    -1.6571   YZ=    -0.6016   ZZ=    25.6066
   Eigenvalues:    20.1738    24.0312    27.3413
     59  C    Isotropic =    42.8484   Anisotropy =   183.0700
   XX=   -67.5883   YX=    24.6900   ZX=     1.4348
   XY=    20.9285   YY=   160.3631   ZY=    21.2966
   XZ=    -0.5243   YZ=    13.0360   ZZ=    35.7703
   Eigenvalues:   -69.8629    33.5130   164.8950
     60  H    Isotropic =    23.3869   Anisotropy =    10.5552
   XX=    20.4040   YX=     0.3790   ZX=    -1.0049
   XY=     0.1946   YY=    19.9643   ZY=    -2.8517
   XZ=    -0.1754   YZ=    -2.1083   ZZ=    29.7924
   Eigenvalues:    19.3540    20.3831    30.4237
 End of Minotr F.D. properties file   721 does not exist.
 End of Minotr F.D. properties file   722 does not exist.
 End of Minotr F.D. properties file   788 does not exist.

 **********************************************************************

            Population analysis using the SCF density.

 **********************************************************************

 Orbital symmetries:
       Occupied  (A) (A) (A) (A) (A) (A) (A) (A) (A) (A) (A) (A)
                 (A) (A) (A) (A) (A) (A) (A) (A) (A) (A) (A) (A)
                 (A) (A) (A) (A) (A) (A) (A) (A) (A) (A) (A) (A)
                 (A) (A) (A) (A) (A) (A) (A) (A) (A) (A) (A) (A)
                 (A) (A) (A) (A) (A) (A) (A) (A) (A) (A) (A) (A)
                 (A) (A) (A) (A) (A) (A) (A) (A) (A) (A) (A) (A)
                 (A) (A) (A) (A) (A) (A) (A) (A) (A) (A) (A) (A)
                 (A) (A) (A) (A) (A) (A) (A) (A) (A) (A) (A) (A)
                 (A) (A) (A)
       Virtual   (A) (A) (A) (A) (A) (A) (A) (A) (A) (A) (A) (A)
                 (A) (A) (A) (A) (A) (A) (A) (A) (A) (A) (A) (A)
                 (A) (A) (A) (A) (A) (A) (A) (A) (A) (A) (A) (A)
                 (A) (A) (A) (A) (A) (A) (A) (A) (A) (A) (A) (A)
                 (A) (A) (A) (A) (A) (A) (A) (A) (A) (A) (A) (A)
                 (A) (A) (A) (A) (A) (A) (A) (A) (A) (A) (A) (A)
                 (A) (A) (A) (A) (A) (A) (A) (A) (A) (A) (A) (A)
                 (A) (A) (A) (A) (A) (A) (A) (A) (A) (A) (A) (A)
                 (A) (A) (A) (A) (A) (A) (A) (A) (A) (A) (A) (A)
                 (A) (A) (A) (A) (A) (A) (A) (A) (A) (A) (A) (A)
                 (A) (A) (A) (A) (A) (A) (A) (A) (A) (A) (A) (A)
                 (A) (A) (A) (A) (A) (A) (A) (A) (A) (A) (A) (A)
                 (A) (A) (A) (A) (A) (A) (A) (A) (A) (A) (A) (A)
                 (A) (A) (A) (A) (A) (A) (A) (A) (A) (A) (A) (A)
                 (A) (A) (A) (A) (A) (A) (A) (A) (A) (A) (A) (A)
                 (A) (A) (A) (A) (A) (A) (A) (A) (A) (A) (A) (A)
                 (A) (A) (A) (A) (A) (A) (A) (A) (A) (A) (A) (A)
                 (A) (A) (A) (A) (A) (A) (A) (A) (A) (A) (A) (A)
                 (A) (A) (A) (A) (A) (A) (A) (A) (A) (A) (A) (A)
                 (A) (A) (A) (A) (A) (A) (A) (A) (A) (A) (A) (A)
                 (A) (A) (A) (A) (A) (A) (A) (A) (A) (A) (A) (A)
                 (A) (A) (A) (A) (A) (A) (A) (A) (A) (A) (A) (A)
                 (A) (A) (A) (A) (A) (A) (A) (A) (A) (A) (A) (A)
                 (A) (A) (A) (A) (A) (A) (A) (A) (A) (A) (A) (A)
                 (A) (A) (A) (A) (A) (A) (A) (A) (A) (A) (A) (A)
                 (A) (A) (A) (A) (A) (A) (A) (A) (A) (A) (A) (A)
                 (A) (A) (A) (A) (A) (A) (A) (A) (A) (A) (A) (A)
                 (A) (A) (A) (A) (A) (A) (A) (A) (A) (A) (A) (A)
                 (A) (A) (A) (A) (A) (A) (A) (A) (A) (A) (A) (A)
                 (A) (A) (A) (A) (A) (A) (A) (A) (A) (A) (A) (A)
                 (A) (A) (A) (A) (A) (A) (A) (A) (A) (A) (A) (A)
                 (A) (A) (A) (A) (A) (A) (A) (A) (A) (A) (A) (A)
                 (A) (A) (A) (A) (A) (A) (A) (A) (A) (A) (A) (A)
                 (A) (A) (A) (A) (A) (A) (A) (A) (A) (A) (A) (A)
                 (A) (A) (A) (A) (A) (A) (A) (A) (A) (A) (A) (A)
                 (A) (A) (A) (A) (A) (A) (A) (A) (A) (A) (A) (A)
                 (A) (A) (A) (A) (A) (A) (A) (A) (A) (A) (A) (A)
                 (A) (A) (A) (A) (A) (A) (A) (A) (A) (A) (A) (A)
                 (A) (A) (A) (A) (A) (A) (A) (A) (A) (A) (A) (A)
                 (A) (A) (A) (A) (A) (A) (A) (A) (A) (A) (A) (A)
                 (A) (A) (A) (A) (A) (A) (A) (A) (A) (A) (A) (A)
                 (A) (A) (A) (A) (A) (A) (A) (A) (A) (A) (A) (A)
                 (A) (A) (A) (A) (A) (A) (A) (A) (A) (A) (A) (A)
                 (A) (A) (A) (A) (A) (A) (A) (A) (A) (A) (A) (A)
                 (A) (A) (A) (A) (A) (A) (A) (A) (A) (A) (A) (A)
                 (A) (A) (A) (A) (A) (A) (A) (A) (A) (A) (A) (A)
                 (A) (A) (A) (A) (A) (A) (A) (A) (A) (A) (A) (A)
                 (A) (A) (A) (A) (A) (A) (A) (A) (A) (A) (A) (A)
                 (A) (A) (A) (A) (A) (A) (A) (A) (A) (A) (A) (A)
                 (A) (A) (A) (A) (A) (A) (A) (A) (A) (A) (A) (A)
                 (A) (A) (A) (A) (A) (A) (A) (A) (A) (A) (A) (A)
                 (A) (A) (A) (A) (A) (A) (A) (A) (A) (A) (A) (A)
                 (A) (A) (A) (A) (A) (A) (A) (A) (A) (A) (A) (A)
                 (A) (A) (A) (A) (A) (A) (A) (A) (A) (A) (A) (A)
                 (A) (A) (A) (A) (A) (A) (A) (A) (A) (A) (A) (A)
                 (A) (A) (A) (A) (A) (A) (A) (A) (A) (A) (A) (A)
                 (A) (A) (A) (A) (A) (A) (A) (A) (A) (A) (A) (A)
                 (A) (A) (A) (A) (A) (A) (A) (A) (A) (A) (A) (A)
                 (A) (A) (A) (A) (A) (A) (A) (A) (A) (A) (A) (A)
                 (A) (A) (A) (A) (A) (A) (A) (A) (A) (A) (A) (A)
                 (A) (A) (A) (A) (A) (A) (A) (A) (A) (A) (A) (A)
                 (A) (A) (A) (A) (A) (A) (A) (A) (A) (A) (A) (A)
                 (A) (A) (A) (A) (A) (A) (A) (A) (A) (A) (A) (A)
                 (A) (A) (A) (A) (A) (A) (A) (A) (A) (A) (A) (A)
                 (A) (A) (A) (A) (A) (A) (A) (A) (A) (A) (A) (A)
                 (A) (A) (A) (A) (A) (A) (A) (A) (A) (A) (A) (A)
                 (A) (A) (A) (A) (A) (A) (A) (A) (A) (A) (A) (A)
                 (A) (A) (A) (A) (A) (A) (A) (A) (A) (A) (A) (A)
                 (A) (A) (A) (A) (A) (A) (A) (A) (A) (A) (A) (A)
                 (A) (A) (A) (A) (A) (A) (A) (A) (A) (A) (A) (A)
                 (A) (A) (A) (A) (A) (A) (A) (A) (A) (A) (A) (A)
                 (A) (A) (A) (A) (A) (A) (A) (A) (A) (A) (A) (A)
                 (A) (A) (A) (A) (A) (A) (A) (A) (A)
 The electronic state is 1-A.
 Alpha  occ. eigenvalues --  -77.17657 -77.17446 -10.24311 -10.24160 -10.23918
 Alpha  occ. eigenvalues --  -10.23871 -10.23826 -10.23799 -10.22847 -10.22666
 Alpha  occ. eigenvalues --  -10.22576 -10.22560 -10.22129 -10.22117 -10.22100
 Alpha  occ. eigenvalues --  -10.22082 -10.21908 -10.21888 -10.21619 -10.21607
 Alpha  occ. eigenvalues --  -10.20487 -10.20454 -10.20418 -10.20177  -6.57331
 Alpha  occ. eigenvalues --   -6.57152  -4.70928  -4.70892  -4.70754  -4.70701
 Alpha  occ. eigenvalues --   -4.70440  -4.70261  -0.88459  -0.84993  -0.84876
 Alpha  occ. eigenvalues --   -0.80389  -0.80138  -0.77804  -0.77447  -0.77028
 Alpha  occ. eigenvalues --   -0.76646  -0.71214  -0.70953  -0.68285  -0.67722
 Alpha  occ. eigenvalues --   -0.64034  -0.63581  -0.62192  -0.61612  -0.60734
 Alpha  occ. eigenvalues --   -0.60080  -0.57781  -0.56090  -0.55150  -0.52576
 Alpha  occ. eigenvalues --   -0.50647  -0.48438  -0.48077  -0.47896  -0.47271
 Alpha  occ. eigenvalues --   -0.46254  -0.45703  -0.45038  -0.44852  -0.44531
 Alpha  occ. eigenvalues --   -0.44358  -0.42661  -0.42587  -0.42164  -0.41417
 Alpha  occ. eigenvalues --   -0.41214  -0.40668  -0.40200  -0.39570  -0.38948
 Alpha  occ. eigenvalues --   -0.38773  -0.37254  -0.36917  -0.36368  -0.36133
 Alpha  occ. eigenvalues --   -0.35936  -0.35174  -0.34858  -0.34515  -0.34448
 Alpha  occ. eigenvalues --   -0.33524  -0.33152  -0.33085  -0.32886  -0.32641
 Alpha  occ. eigenvalues --   -0.31965  -0.31563  -0.31108  -0.30674  -0.29853
 Alpha  occ. eigenvalues --   -0.26795  -0.26001  -0.23630  -0.17508
 Alpha virt. eigenvalues --   -0.03079  -0.02993   0.03471   0.03982   0.04151
 Alpha virt. eigenvalues --    0.04736   0.04989   0.05645   0.05695   0.06848
 Alpha virt. eigenvalues --    0.07235   0.07487   0.07650   0.08361   0.08550
 Alpha virt. eigenvalues --    0.08900   0.09209   0.09686   0.09863   0.09957
 Alpha virt. eigenvalues --    0.10359   0.10645   0.11411   0.11531   0.12039
 Alpha virt. eigenvalues --    0.12439   0.12568   0.12909   0.13138   0.13503
 Alpha virt. eigenvalues --    0.14021   0.14176   0.14714   0.14844   0.15527
 Alpha virt. eigenvalues --    0.15635   0.15852   0.16041   0.16345   0.16855
 Alpha virt. eigenvalues --    0.17118   0.17524   0.17740   0.17881   0.18314
 Alpha virt. eigenvalues --    0.18647   0.19384   0.19553   0.19746   0.20040
 Alpha virt. eigenvalues --    0.20136   0.21134   0.21273   0.21716   0.22152
 Alpha virt. eigenvalues --    0.22531   0.22837   0.23187   0.23843   0.24156
 Alpha virt. eigenvalues --    0.24545   0.24821   0.24972   0.25456   0.25638
 Alpha virt. eigenvalues --    0.25899   0.26207   0.26767   0.26853   0.27049
 Alpha virt. eigenvalues --    0.27545   0.28211   0.28392   0.28780   0.29107
 Alpha virt. eigenvalues --    0.29446   0.29955   0.30412   0.30608   0.31309
 Alpha virt. eigenvalues --    0.31540   0.31835   0.32560   0.33099   0.33491
 Alpha virt. eigenvalues --    0.33739   0.34018   0.34625   0.35195   0.35261
 Alpha virt. eigenvalues --    0.35297   0.35670   0.36144   0.36905   0.37805
 Alpha virt. eigenvalues --    0.37893   0.38319   0.38891   0.39327   0.39980
 Alpha virt. eigenvalues --    0.40541   0.41076   0.41320   0.41585   0.41848
 Alpha virt. eigenvalues --    0.41939   0.42424   0.42658   0.42828   0.43193
 Alpha virt. eigenvalues --    0.43374   0.43598   0.44007   0.44110   0.44393
 Alpha virt. eigenvalues --    0.44785   0.44911   0.45161   0.45408   0.45589
 Alpha virt. eigenvalues --    0.45824   0.46198   0.46448   0.46617   0.46823
 Alpha virt. eigenvalues --    0.47139   0.47400   0.47826   0.47973   0.48044
 Alpha virt. eigenvalues --    0.48718   0.48858   0.48935   0.49084   0.49303
 Alpha virt. eigenvalues --    0.49552   0.49983   0.50123   0.50183   0.50348
 Alpha virt. eigenvalues --    0.50904   0.51102   0.51384   0.51809   0.51951
 Alpha virt. eigenvalues --    0.52370   0.52978   0.53171   0.53287   0.53747
 Alpha virt. eigenvalues --    0.53952   0.54177   0.54290   0.54896   0.55235
 Alpha virt. eigenvalues --    0.55739   0.56066   0.56283   0.56579   0.57000
 Alpha virt. eigenvalues --    0.57711   0.58056   0.58248   0.58481   0.58895
 Alpha virt. eigenvalues --    0.59766   0.61292   0.61421   0.61830   0.62488
 Alpha virt. eigenvalues --    0.63045   0.63255   0.63501   0.64467   0.64656
 Alpha virt. eigenvalues --    0.65076   0.65233   0.65686   0.66537   0.67405
 Alpha virt. eigenvalues --    0.68201   0.69017   0.69312   0.69745   0.70088
 Alpha virt. eigenvalues --    0.71161   0.71300   0.72065   0.72495   0.73543
 Alpha virt. eigenvalues --    0.74248   0.75334   0.75832   0.76543   0.76641
 Alpha virt. eigenvalues --    0.76933   0.77428   0.78657   0.79120   0.79982
 Alpha virt. eigenvalues --    0.80376   0.80944   0.81379   0.81637   0.83012
 Alpha virt. eigenvalues --    0.83289   0.83440   0.83834   0.84306   0.84992
 Alpha virt. eigenvalues --    0.85591   0.85901   0.86340   0.87151   0.87664
 Alpha virt. eigenvalues --    0.88073   0.88654   0.89020   0.89452   0.90478
 Alpha virt. eigenvalues --    0.90642   0.91096   0.91212   0.91963   0.92607
 Alpha virt. eigenvalues --    0.93275   0.93455   0.93881   0.94322   0.94568
 Alpha virt. eigenvalues --    0.95038   0.95821   0.96023   0.96156   0.97215
 Alpha virt. eigenvalues --    0.98054   0.98635   0.99637   1.00207   1.00931
 Alpha virt. eigenvalues --    1.01894   1.02524   1.02812   1.03633   1.03830
 Alpha virt. eigenvalues --    1.04657   1.05490   1.05590   1.06077   1.07605
 Alpha virt. eigenvalues --    1.08208   1.08392   1.08678   1.08960   1.09840
 Alpha virt. eigenvalues --    1.10169   1.10643   1.11324   1.12847   1.13152
 Alpha virt. eigenvalues --    1.13154   1.14131   1.14967   1.15206   1.15791
 Alpha virt. eigenvalues --    1.16489   1.17155   1.17777   1.18050   1.18606
 Alpha virt. eigenvalues --    1.18991   1.19904   1.20331   1.20781   1.21244
 Alpha virt. eigenvalues --    1.22023   1.22362   1.23066   1.23164   1.23554
 Alpha virt. eigenvalues --    1.23772   1.24421   1.24537   1.25279   1.25904
 Alpha virt. eigenvalues --    1.26100   1.26555   1.27299   1.27911   1.28777
 Alpha virt. eigenvalues --    1.29012   1.29946   1.30386   1.30898   1.31085
 Alpha virt. eigenvalues --    1.31936   1.32300   1.32815   1.34297   1.34615
 Alpha virt. eigenvalues --    1.35010   1.36005   1.36722   1.37849   1.38391
 Alpha virt. eigenvalues --    1.40121   1.40545   1.41082   1.41659   1.42032
 Alpha virt. eigenvalues --    1.43064   1.45547   1.45889   1.46671   1.47341
 Alpha virt. eigenvalues --    1.49412   1.49899   1.50772   1.50853   1.51834
 Alpha virt. eigenvalues --    1.52353   1.52485   1.53372   1.54211   1.54687
 Alpha virt. eigenvalues --    1.54803   1.55389   1.56013   1.56767   1.57640
 Alpha virt. eigenvalues --    1.58225   1.58465   1.58640   1.59262   1.59295
 Alpha virt. eigenvalues --    1.59607   1.59983   1.60397   1.60944   1.61618
 Alpha virt. eigenvalues --    1.61675   1.62237   1.62458   1.62774   1.63029
 Alpha virt. eigenvalues --    1.63605   1.64293   1.64314   1.64636   1.65072
 Alpha virt. eigenvalues --    1.65359   1.65585   1.66006   1.66378   1.66815
 Alpha virt. eigenvalues --    1.67114   1.67157   1.67330   1.67784   1.68398
 Alpha virt. eigenvalues --    1.68838   1.69410   1.69885   1.70164   1.70919
 Alpha virt. eigenvalues --    1.71161   1.71377   1.72066   1.72218   1.72709
 Alpha virt. eigenvalues --    1.74113   1.75310   1.75676   1.76104   1.76891
 Alpha virt. eigenvalues --    1.76974   1.77209   1.78566   1.78942   1.79795
 Alpha virt. eigenvalues --    1.80126   1.80545   1.80817   1.81649   1.82915
 Alpha virt. eigenvalues --    1.83044   1.83428   1.83893   1.84295   1.84858
 Alpha virt. eigenvalues --    1.85852   1.86053   1.87291   1.87877   1.88253
 Alpha virt. eigenvalues --    1.88681   1.89017   1.89875   1.90846   1.91281
 Alpha virt. eigenvalues --    1.91895   1.92054   1.92452   1.93359   1.94072
 Alpha virt. eigenvalues --    1.95228   1.95682   1.96093   1.96644   1.97592
 Alpha virt. eigenvalues --    1.98512   1.99068   1.99665   2.00426   2.01578
 Alpha virt. eigenvalues --    2.02182   2.02443   2.03530   2.03777   2.04693
 Alpha virt. eigenvalues --    2.04965   2.05445   2.06043   2.06489   2.06976
 Alpha virt. eigenvalues --    2.08292   2.08641   2.09584   2.10485   2.10746
 Alpha virt. eigenvalues --    2.11266   2.12197   2.12435   2.13195   2.13673
 Alpha virt. eigenvalues --    2.14917   2.15174   2.16699   2.17073   2.17879
 Alpha virt. eigenvalues --    2.18514   2.19468   2.19778   2.20804   2.21304
 Alpha virt. eigenvalues --    2.22094   2.23280   2.23999   2.25011   2.25890
 Alpha virt. eigenvalues --    2.26453   2.27081   2.28572   2.28804   2.29771
 Alpha virt. eigenvalues --    2.30253   2.31417   2.31876   2.33559   2.33769
 Alpha virt. eigenvalues --    2.34052   2.34696   2.35187   2.35881   2.36450
 Alpha virt. eigenvalues --    2.36955   2.37649   2.37967   2.38056   2.38614
 Alpha virt. eigenvalues --    2.39411   2.39735   2.40445   2.41132   2.41518
 Alpha virt. eigenvalues --    2.42454   2.42664   2.43160   2.43533   2.44231
 Alpha virt. eigenvalues --    2.45382   2.45606   2.46101   2.46482   2.46978
 Alpha virt. eigenvalues --    2.48039   2.48608   2.48965   2.49588   2.50361
 Alpha virt. eigenvalues --    2.50713   2.50842   2.52050   2.52435   2.52685
 Alpha virt. eigenvalues --    2.53417   2.53617   2.54126   2.54910   2.55485
 Alpha virt. eigenvalues --    2.55732   2.56160   2.56392   2.57215   2.57861
 Alpha virt. eigenvalues --    2.58780   2.58906   2.59756   2.59881   2.60143
 Alpha virt. eigenvalues --    2.60443   2.60827   2.61094   2.61533   2.61855
 Alpha virt. eigenvalues --    2.62427   2.62992   2.63248   2.64054   2.64558
 Alpha virt. eigenvalues --    2.65453   2.65531   2.65690   2.66162   2.66454
 Alpha virt. eigenvalues --    2.66885   2.67287   2.67735   2.67897   2.68422
 Alpha virt. eigenvalues --    2.68668   2.69253   2.69365   2.69651   2.70370
 Alpha virt. eigenvalues --    2.70628   2.70956   2.71315   2.71659   2.71909
 Alpha virt. eigenvalues --    2.73099   2.73781   2.74130   2.74693   2.75443
 Alpha virt. eigenvalues --    2.75837   2.76098   2.76441   2.77357   2.77400
 Alpha virt. eigenvalues --    2.77843   2.78749   2.78886   2.79658   2.80352
 Alpha virt. eigenvalues --    2.81008   2.81341   2.82539   2.82620   2.83160
 Alpha virt. eigenvalues --    2.83789   2.84403   2.85484   2.86180   2.86465
 Alpha virt. eigenvalues --    2.87854   2.88776   2.89168   2.90356   2.90593
 Alpha virt. eigenvalues --    2.90819   2.91526   2.92941   2.93499   2.93874
 Alpha virt. eigenvalues --    2.94460   2.95035   2.95775   2.96575   2.97408
 Alpha virt. eigenvalues --    2.97655   2.98170   2.98444   2.99468   3.00640
 Alpha virt. eigenvalues --    3.01481   3.02453   3.03213   3.04449   3.04810
 Alpha virt. eigenvalues --    3.06708   3.07724   3.08592   3.09514   3.10097
 Alpha virt. eigenvalues --    3.10755   3.10832   3.11060   3.12712   3.13290
 Alpha virt. eigenvalues --    3.14169   3.14344   3.15415   3.15818   3.16324
 Alpha virt. eigenvalues --    3.17009   3.17062   3.17485   3.17761   3.18138
 Alpha virt. eigenvalues --    3.18306   3.19054   3.19345   3.20186   3.20278
 Alpha virt. eigenvalues --    3.20954   3.21884   3.22171   3.22838   3.23345
 Alpha virt. eigenvalues --    3.24144   3.24262   3.25013   3.25559   3.26334
 Alpha virt. eigenvalues --    3.27016   3.27779   3.27998   3.28353   3.29163
 Alpha virt. eigenvalues --    3.29763   3.30028   3.30886   3.31159   3.31498
 Alpha virt. eigenvalues --    3.31713   3.31862   3.32448   3.32844   3.33182
 Alpha virt. eigenvalues --    3.33964   3.34083   3.34826   3.35095   3.35387
 Alpha virt. eigenvalues --    3.36172   3.36832   3.37081   3.38116   3.38195
 Alpha virt. eigenvalues --    3.38685   3.39401   3.39734   3.40528   3.40715
 Alpha virt. eigenvalues --    3.41057   3.42154   3.42427   3.42772   3.43364
 Alpha virt. eigenvalues --    3.44055   3.44606   3.45373   3.45485   3.46167
 Alpha virt. eigenvalues --    3.46543   3.46827   3.47428   3.47759   3.48412
 Alpha virt. eigenvalues --    3.49600   3.49890   3.50157   3.50594   3.51109
 Alpha virt. eigenvalues --    3.51578   3.51771   3.52108   3.52631   3.53512
 Alpha virt. eigenvalues --    3.53919   3.54834   3.55313   3.55624   3.56044
 Alpha virt. eigenvalues --    3.57350   3.57610   3.58223   3.58846   3.59020
 Alpha virt. eigenvalues --    3.59659   3.59941   3.60558   3.61222   3.61648
 Alpha virt. eigenvalues --    3.61798   3.62110   3.63067   3.63718   3.64632
 Alpha virt. eigenvalues --    3.65426   3.65727   3.66324   3.66772   3.67509
 Alpha virt. eigenvalues --    3.67883   3.68573   3.69954   3.70416   3.71153
 Alpha virt. eigenvalues --    3.71650   3.72771   3.73401   3.73575   3.75910
 Alpha virt. eigenvalues --    3.76244   3.76458   3.77463   3.78181   3.78679
 Alpha virt. eigenvalues --    3.79532   3.79795   3.81925   3.82711   3.84075
 Alpha virt. eigenvalues --    3.84832   3.85766   3.86433   3.86693   3.89740
 Alpha virt. eigenvalues --    3.90758   3.91991   3.92874   3.94132   3.94942
 Alpha virt. eigenvalues --    3.95149   3.95687   3.96166   3.96403   3.97017
 Alpha virt. eigenvalues --    3.97217   3.97961   3.98693   3.98939   4.00825
 Alpha virt. eigenvalues --    4.01783   4.02131   4.02844   4.03641   4.04205
 Alpha virt. eigenvalues --    4.05298   4.05850   4.06950   4.09035   4.11319
 Alpha virt. eigenvalues --    4.12322   4.12625   4.13983   4.15222   4.16411
 Alpha virt. eigenvalues --    4.16714   4.17533   4.18292   4.18635   4.20011
 Alpha virt. eigenvalues --    4.20209   4.20872   4.21698   4.22510   4.22563
 Alpha virt. eigenvalues --    4.23760   4.24481   4.24767   4.26206   4.27053
 Alpha virt. eigenvalues --    4.27991   4.28580   4.29546   4.30558   4.31953
 Alpha virt. eigenvalues --    4.32665   4.33718   4.36217   4.37255   4.38571
 Alpha virt. eigenvalues --    4.39794   4.40162   4.41029   4.41840   4.42394
 Alpha virt. eigenvalues --    4.43279   4.44377   4.45176   4.45667   4.46865
 Alpha virt. eigenvalues --    4.48616   4.49613   4.53978   4.55197   4.57143
 Alpha virt. eigenvalues --    4.58481   4.58668   4.59693   4.61353   4.62061
 Alpha virt. eigenvalues --    4.63117   4.63760   4.63862   4.64627   4.65243
 Alpha virt. eigenvalues --    4.66045   4.67015   4.67947   4.69733   4.70654
 Alpha virt. eigenvalues --    4.71560   4.71832   4.73522   4.76882   4.77792
 Alpha virt. eigenvalues --    4.79000   4.84593   4.85851   4.87221   4.87558
 Alpha virt. eigenvalues --    4.89061   4.93089   4.94227   5.00011   5.02748
 Alpha virt. eigenvalues --    5.05579   5.06734   5.07776   5.10852   5.11915
 Alpha virt. eigenvalues --    5.13521   5.15964   5.16599   5.20219   5.23418
 Alpha virt. eigenvalues --    5.39020   5.47070   5.56311   7.76463   7.84971
 Alpha virt. eigenvalues --    7.90028   7.94661   7.98276   8.11619  15.52023
 Alpha virt. eigenvalues --   15.77767  22.25012  22.40857  22.43285  22.44718
 Alpha virt. eigenvalues --   22.44896  22.51330  22.53243  22.55177  22.57207
 Alpha virt. eigenvalues --   22.58312  22.59235  22.61726  22.62158  22.63330
 Alpha virt. eigenvalues --   22.68919  22.69824  22.71747  22.72879  22.79382
 Alpha virt. eigenvalues --   22.81313  22.93477  23.24690
          Condensed to atoms (all electrons):
 Mulliken charges:
               1
     1  P   -0.015503
     2  P   -0.008396
     3  C   -0.069547
     4  C    0.093064
     5  C   -0.098669
     6  H    0.102880
     7  C   -0.110313
     8  H    0.104704
     9  C   -0.137564
    10  H    0.084585
    11  C   -0.125158
    12  H    0.091194
    13  C   -0.172673
    14  H    0.120828
    15  H    0.102114
    16  C   -0.195629
    17  H    0.113276
    18  H    0.096411
    19  C   -0.146896
    20  H    0.107449
    21  H    0.098946
    22  C   -0.163985
    23  H    0.099587
    24  H    0.090400
    25  C   -0.164059
    26  H    0.089051
    27  H    0.093306
    28  C   -0.163011
    29  H    0.095554
    30  H    0.094202
    31  C   -0.134239
    32  H    0.095177
    33  H    0.096972
    34  C   -0.120863
    35  H    0.100003
    36  H    0.096132
    37  C   -0.400695
    38  H    0.119849
    39  H    0.143340
    40  H    0.126799
    41  C   -0.410413
    42  H    0.148676
    43  H    0.123736
    44  H    0.117673
    45  C   -0.399999
    46  H    0.135192
    47  H    0.115411
    48  H    0.122121
    49  C   -0.397422
    50  H    0.121580
    51  H    0.129612
    52  H    0.120256
    53  C   -0.137126
    54  H    0.127234
    55  C   -0.157738
    56  H    0.117466
    57  C   -0.114325
    58  H    0.118104
    59  C   -0.240498
    60  H    0.131837
 Sum of Mulliken charges =  -0.00000
 Mulliken charges with hydrogens summed into heavy atoms:
               1
     1  P   -0.015503
     2  P   -0.008396
     3  C   -0.069547
     4  C    0.093064
     5  C    0.004211
     7  C   -0.005609
     9  C   -0.052979
    11  C   -0.033964
    13  C    0.050270
    16  C    0.014058
    19  C    0.059499
    22  C    0.026002
    25  C    0.018298
    28  C    0.026745
    31  C    0.057910
    34  C    0.075272
    37  C   -0.010707
    41  C   -0.020327
    45  C   -0.027276
    49  C   -0.025974
    53  C   -0.009892
    55  C   -0.040273
    57  C    0.003779
    59  C   -0.108662
 Electronic spatial extent (au):  <R**2>=           8875.6687
 Charge=              0.0000 electrons
 Dipole moment (field-independent basis, Debye):
    X=              0.0936    Y=             -0.2786    Z=              1.7143  Tot=              1.7393
 Quadrupole moment (field-independent basis, Debye-Ang):
   XX=           -157.1460   YY=           -166.8695   ZZ=           -161.3317
   XY=              0.1166   XZ=              0.0743   YZ=             -0.2768
 Traceless Quadrupole moment (field-independent basis, Debye-Ang):
   XX=              4.6364   YY=             -5.0871   ZZ=              0.4507
   XY=              0.1166   XZ=              0.0743   YZ=             -0.2768
 Octapole moment (field-independent basis, Debye-Ang**2):
  XXX=              4.0832  YYY=              4.2347  ZZZ=             27.9073  XYY=              1.5269
  XXY=             -1.1881  XXZ=              1.9563  XZZ=             -0.5770  YZZ=             -5.9329
  YYZ=            -10.2495  XYZ=             -3.7352
 Hexadecapole moment (field-independent basis, Debye-Ang**3):
 XXXX=          -6510.6562 YYYY=          -3650.2517 ZZZZ=          -2195.1639 XXXY=             -0.6739
 XXXZ=              0.5951 YYYX=              5.5550 YYYZ=             15.2574 ZZZX=              3.3444
 ZZZY=            -26.5006 XXYY=          -1673.7275 XXZZ=          -1444.2678 YYZZ=          -1002.5400
 XXYZ=            -15.4497 YYXZ=             -1.6009 ZZXY=             -1.4624
 N-N= 2.632696950028D+03 E-N=-8.881305022977D+03  KE= 1.535025046688D+03
 1\1\GINC-NC040\SP\RPBE1PBE\def2TZVP\C22H36P2\MACKK4\05-Dec-2021\0\\# P
 BE1PBE/def2TZVP int=(grid=ultrafine) empiricaldispersion=GD3BJ nmr=gia
 o\\SS_Et_DuPhos_2 title\\0,1\P,0,-1.5365211016,-0.7591983605,0.0557259
 867\P,0,1.5376816173,-0.1809667343,0.3632831401\C,0,-0.9313443701,0.94
 56180788,-0.3337722666\C,0,0.4387206784,1.2249514623,-0.1114279107\C,0
 ,-2.9361285621,-0.6951197988,1.3302266656\H,0,-2.563702541,-1.30007448
 46,2.1753234763\C,0,-2.6200558702,-1.2382510818,-1.4204697324\H,0,-2.3
 794964631,-0.5245990837,-2.2308286687\C,0,2.579437794,0.3929068484,1.8
 272657496\H,0,2.3940849662,1.4846398864,1.8954865278\C,0,2.9683250372,
 -0.2382112482,-0.8614405702\H,0,3.1879310421,-1.323116799,-0.893441426
 4\C,0,-4.0698719821,-1.4502355328,0.5964223223\H,0,-3.8818859385,-2.53
 49198801,0.6750836663\H,0,-5.0428796722,-1.2386226123,1.0750257201\C,0
 ,-4.0550589047,-1.0256369163,-0.8811827655\H,0,-4.348809105,0.03780046
 14,-0.9685233861\H,0,-4.7763751484,-1.608452184,-1.4814860168\C,0,4.02
 91827972,0.1425489701,1.3590799023\H,0,4.7351993462,0.7363277699,1.966
 4716281\H,0,4.2636628026,-0.9262791362,1.5127945885\C,0,4.1248289566,0
 .479661216,-0.1341794054\H,0,5.0939443621,0.1696515266,-0.5645460715\H
 ,0,4.0403984517,1.5741802035,-0.2881981311\C,0,-3.362463886,0.69519602
 25,1.8363790949\H,0,-3.6367676747,1.3536090307,0.9920976261\H,0,-4.297
 7220992,0.5415763375,2.4088618244\C,0,-2.3885364752,-2.6749465772,-1.9
 299327438\H,0,-3.1966960356,-2.8846123933,-2.6576445013\H,0,-2.5049735
 435,-3.3872936265,-1.0949480087\C,0,2.2440090112,-0.2689492705,3.17044
 16702\H,0,2.985804119,0.0943054648,3.9080725446\H,0,2.3949551696,-1.35
 82672438,3.0667902427\C,0,2.687979347,0.2755976393,-2.2781129197\H,0,2
 .4407475211,1.3535202522,-2.242160862\H,0,3.6361993416,0.1992571952,-2
 .8446163329\C,0,-2.3405193524,1.397552607,2.7340678031\H,0,-2.74843957
 84,2.3471561447,3.1202744746\H,0,-1.4098063267,1.6307356171,2.19144840
 76\H,0,-2.0750291048,0.7649727846,3.5980666819\C,0,-1.0291724538,-2.90
 09135457,-2.5911838012\H,0,-0.2104030406,-2.7681979158,-1.8594400762\H
 ,0,-0.9546488819,-3.9305737454,-2.9786862436\H,0,-0.8618017032,-2.2029
 585461,-3.4315864143\C,0,0.827159271,0.0125888253,3.6706985084\H,0,0.0
 846507212,-0.4498757219,2.9942534961\H,0,0.6164211155,1.0960798912,3.7
 269851044\H,0,0.6696262428,-0.4192506571,4.6732634571\C,0,1.5849211156
 ,-0.4871442776,-3.0151377793\H,0,1.7858493607,-1.5717449351,-3.0246408
 209\H,0,0.6053579726,-0.3386115978,-2.5297180794\H,0,1.4958736975,-0.1
 440971132,-4.0599542715\C,0,-1.7715869593,1.9591492453,-0.8337578292\H
 ,0,-2.8231534053,1.7438429813,-1.0484062513\C,0,-1.2714914874,3.247416
 1869,-1.062838569\H,0,-1.9350396154,4.0282335453,-1.4475645406\C,0,0.0
 744866713,3.5362796905,-0.7957720142\H,0,0.464391254,4.5448858844,-0.9
 651342607\C,0,0.927605288,2.5268434768,-0.3310766894\H,0,1.9835599839,
 2.7525848275,-0.1479358594\\Version=ES64L-G09RevE.01\State=1-A\HF=-154
 1.8177197\RMSD=6.101e-09\Dipole=-0.0800222,0.6592626,-0.1649623\Quadru
 pole=3.211685,0.0244396,-3.2361245,0.8275329,0.7800758,-1.230866\PG=C0
 1 [X(C22H36P2)]\\@


 IT WAS A GAME, A VERY INTERESTING GAME ONE COULD
 PLAY.  WHENEVER ONE SOLVED ONE OF THE LITTLE PROBLEMS,
 ONE COULD WRITE A PAPER ABOUT IT.  IT WAS VERY EASY IN
 THOSE DAYS FOR ANY SECOND-RATE PHYSICIST TO DO
 FIRST-RATE WORK.  THERE HAS NOT BEEN SUCH A GLORIOUS
 TIME SINCE.  IT IS VERY DIFFICULT NOW FOR A FIRST-RATE
 PHYSICIST TO DO SECOND-RATE WORK.
     P.A.M. DIRAC, ON THE EARLY DAYS OF QUANTUM MECHANICS
                   DIRECTIONS IN PHYSICS, 1978, P. 7
 Job cpu time:       0 days  8 hours  0 minutes 54.3 seconds.
 File lengths (MBytes):  RWF=    551 Int=      0 D2E=      0 Chk=     80 Scr=      1
 Normal termination of Gaussian 09 at Sun Dec  5 09:41:14 2021.
 Initial command:
 /gstore/apps/gaussian/g09.e01-foss-2017a/g09/l1.exe "/local/22791409/Gau-9992.inp" -scrdir="/local/22791409/"
 Entering Link 1 = /gstore/apps/gaussian/g09.e01-foss-2017a/g09/l1.exe PID=     22180.
  
 Copyright (c) 1988,1990,1992,1993,1995,1998,2003,2009,2015,
            Gaussian, Inc.  All Rights Reserved.
  
 This is part of the Gaussian(R) 09 program.  It is based on
 the Gaussian(R) 03 system (copyright 2003, Gaussian, Inc.),
 the Gaussian(R) 98 system (copyright 1998, Gaussian, Inc.),
 the Gaussian(R) 94 system (copyright 1995, Gaussian, Inc.),
 the Gaussian 92(TM) system (copyright 1992, Gaussian, Inc.),
 the Gaussian 90(TM) system (copyright 1990, Gaussian, Inc.),
 the Gaussian 88(TM) system (copyright 1988, Gaussian, Inc.),
 the Gaussian 86(TM) system (copyright 1986, Carnegie Mellon
 University), and the Gaussian 82(TM) system (copyright 1983,
 Carnegie Mellon University). Gaussian is a federally registered
 trademark of Gaussian, Inc.
  
 This software contains proprietary and confidential information,
 including trade secrets, belonging to Gaussian, Inc.
  
 This software is provided under written license and may be
 used, copied, transmitted, or stored only in accord with that
 written license.
  
 The following legend is applicable only to US Government
 contracts under FAR:
  
                    RESTRICTED RIGHTS LEGEND
  
 Use, reproduction and disclosure by the US Government is
 subject to restrictions as set forth in subparagraphs (a)
 and (c) of the Commercial Computer Software - Restricted
 Rights clause in FAR 52.227-19.
  
 Gaussian, Inc.
 340 Quinnipiac St., Bldg. 40, Wallingford CT 06492
  
  
 ---------------------------------------------------------------
 Warning -- This program may not be used in any manner that
 competes with the business of Gaussian, Inc. or will provide
 assistance to any competitor of Gaussian, Inc.  The licensee
 of this program is prohibited from giving any competitor of
 Gaussian, Inc. access to this program.  By using this program,
 the user acknowledges that Gaussian, Inc. is engaged in the
 business of creating and licensing software in the field of
 computational chemistry and represents and warrants to the
 licensee that it is not a competitor of Gaussian, Inc. and that
 it will not use this program in any manner prohibited above.
 ---------------------------------------------------------------
  

 Cite this work as:
 Gaussian 09, Revision E.01,
 M. J. Frisch, G. W. Trucks, H. B. Schlegel, G. E. Scuseria, 
 M. A. Robb, J. R. Cheeseman, G. Scalmani, V. Barone, B. Mennucci, 
 G. A. Petersson, H. Nakatsuji, M. Caricato, X. Li, H. P. Hratchian, 
 A. F. Izmaylov, J. Bloino, G. Zheng, J. L. Sonnenberg, M. Hada, 
 M. Ehara, K. Toyota, R. Fukuda, J. Hasegawa, M. Ishida, T. Nakajima, 
 Y. Honda, O. Kitao, H. Nakai, T. Vreven, J. A. Montgomery, Jr., 
 J. E. Peralta, F. Ogliaro, M. Bearpark, J. J. Heyd, E. Brothers, 
 K. N. Kudin, V. N. Staroverov, T. Keith, R. Kobayashi, J. Normand, 
 K. Raghavachari, A. Rendell, J. C. Burant, S. S. Iyengar, J. Tomasi, 
 M. Cossi, N. Rega, J. M. Millam, M. Klene, J. E. Knox, J. B. Cross, 
 V. Bakken, C. Adamo, J. Jaramillo, R. Gomperts, R. E. Stratmann, 
 O. Yazyev, A. J. Austin, R. Cammi, C. Pomelli, J. W. Ochterski, 
 R. L. Martin, K. Morokuma, V. G. Zakrzewski, G. A. Voth, 
 P. Salvador, J. J. Dannenberg, S. Dapprich, A. D. Daniels, 
 O. Farkas, J. B. Foresman, J. V. Ortiz, J. Cioslowski, 
 and D. J. Fox, Gaussian, Inc., Wallingford CT, 2013.
 
 ******************************************
 Gaussian 09:  ES64L-G09RevE.01 30-Nov-2015
                 5-Dec-2021 
 ******************************************
 %nprocs=14
 Will use up to   14 processors via shared memory.
 %mem=128GB
 %chk=SS_Et_DuPhos_2_SPE_NoPd.chk
 ----------------------------------------------------------------------
 # PBE1PBE/def2TZVP int=(grid=ultrafine) empiricaldispersion=GD3BJ pop=
 nbo guess=read geom=check
 ----------------------------------------------------------------------
 1/29=2,38=1/1;
 2/12=2,40=1/2;
 3/5=44,7=101,11=2,14=-4,16=1,25=1,30=1,74=-13,75=-5,116=-2,124=41/1,2,3;
 4/5=1/1;
 5/5=2,38=6/2;
 6/7=2,8=2,9=2,10=2,28=1,40=1/1,7;
 99/5=1,9=1/99;
 --------------------
 SS_Et_DuPhos_2 title
 --------------------
 Structure from the checkpoint file:  "SS_Et_DuPhos_2_SPE_NoPd.chk"
 Charge =  0 Multiplicity = 1
 Z-Matrix found in file.
 P,0,-1.5365211016,-0.7591983605,0.0557259867
 P,0,1.5376816173,-0.1809667343,0.3632831401
 C,0,-0.9313443701,0.9456180788,-0.3337722666
 C,0,0.4387206784,1.2249514623,-0.1114279107
 C,0,-2.9361285621,-0.6951197988,1.3302266656
 H,0,-2.563702541,-1.3000744846,2.1753234763
 C,0,-2.6200558702,-1.2382510818,-1.4204697324
 H,0,-2.3794964631,-0.5245990837,-2.2308286687
 C,0,2.579437794,0.3929068484,1.8272657496
 H,0,2.3940849662,1.4846398864,1.8954865278
 C,0,2.9683250372,-0.2382112482,-0.8614405702
 H,0,3.1879310421,-1.323116799,-0.8934414264
 C,0,-4.0698719821,-1.4502355328,0.5964223223
 H,0,-3.8818859385,-2.5349198801,0.6750836663
 H,0,-5.0428796722,-1.2386226123,1.0750257201
 C,0,-4.0550589047,-1.0256369163,-0.8811827655
 H,0,-4.348809105,0.0378004614,-0.9685233861
 H,0,-4.7763751484,-1.608452184,-1.4814860168
 C,0,4.0291827972,0.1425489701,1.3590799023
 H,0,4.7351993462,0.7363277699,1.9664716281
 H,0,4.2636628026,-0.9262791362,1.5127945885
 C,0,4.1248289566,0.479661216,-0.1341794054
 H,0,5.0939443621,0.1696515266,-0.5645460715
 H,0,4.0403984517,1.5741802035,-0.2881981311
 C,0,-3.362463886,0.6951960225,1.8363790949
 H,0,-3.6367676747,1.3536090307,0.9920976261
 H,0,-4.2977220992,0.5415763375,2.4088618244
 C,0,-2.3885364752,-2.6749465772,-1.9299327438
 H,0,-3.1966960356,-2.8846123933,-2.6576445013
 H,0,-2.5049735435,-3.3872936265,-1.0949480087
 C,0,2.2440090112,-0.2689492705,3.1704416702
 H,0,2.985804119,0.0943054648,3.9080725446
 H,0,2.3949551696,-1.3582672438,3.0667902427
 C,0,2.687979347,0.2755976393,-2.2781129197
 H,0,2.4407475211,1.3535202522,-2.242160862
 H,0,3.6361993416,0.1992571952,-2.8446163329
 C,0,-2.3405193524,1.397552607,2.7340678031
 H,0,-2.7484395784,2.3471561447,3.1202744746
 H,0,-1.4098063267,1.6307356171,2.1914484076
 H,0,-2.0750291048,0.7649727846,3.5980666819
 C,0,-1.0291724538,-2.9009135457,-2.5911838012
 H,0,-0.2104030406,-2.7681979158,-1.8594400762
 H,0,-0.9546488819,-3.9305737454,-2.9786862436
 H,0,-0.8618017032,-2.2029585461,-3.4315864143
 C,0,0.827159271,0.0125888253,3.6706985084
 H,0,0.0846507212,-0.4498757219,2.9942534961
 H,0,0.6164211155,1.0960798912,3.7269851044
 H,0,0.6696262428,-0.4192506571,4.6732634571
 C,0,1.5849211156,-0.4871442776,-3.0151377793
 H,0,1.7858493607,-1.5717449351,-3.0246408209
 H,0,0.6053579726,-0.3386115978,-2.5297180794
 H,0,1.4958736975,-0.1440971132,-4.0599542715
 C,0,-1.7715869593,1.9591492453,-0.8337578292
 H,0,-2.8231534053,1.7438429813,-1.0484062513
 C,0,-1.2714914874,3.2474161869,-1.062838569
 H,0,-1.9350396154,4.0282335453,-1.4475645406
 C,0,0.0744866713,3.5362796905,-0.7957720142
 H,0,0.464391254,4.5448858844,-0.9651342607
 C,0,0.927605288,2.5268434768,-0.3310766894
 H,0,1.9835599839,2.7525848275,-0.1479358594
 Recover connectivity data from disk.
 Stoichiometry    C22H36P2
 Framework group  C1[X(C22H36P2)]
 Deg. of freedom   174
 Full point group                 C1      NOp   1
 Largest Abelian subgroup         C1      NOp   1
 Largest concise Abelian subgroup C1      NOp   1
                         Standard orientation:                         
 ---------------------------------------------------------------------
 Center     Atomic      Atomic             Coordinates (Angstroms)
 Number     Number       Type             X           Y           Z
 ---------------------------------------------------------------------
      1         15           0       -1.506989    0.088157   -0.576679
      2         15           0        1.635867    0.090355   -0.622714
      3          6           0       -0.615762   -0.097150    1.034446
      4          6           0        0.797075   -0.182114    0.999587
      5          6           0       -2.742119   -1.326598   -0.822200
      6          1           0       -2.419837   -1.810570   -1.760691
      7          6           0       -2.795836    1.438959   -0.265394
      8          1           0       -2.495211    1.950110    0.668521
      9          6           0        2.901539   -1.291642   -0.837171
     10          1           0        2.942604   -1.793347    0.151513
     11          6           0        2.907248    1.462161   -0.395330
     12          1           0        2.904316    1.933816   -1.397230
     13          6           0       -4.065696   -0.558033   -1.049126
     14          1           0       -4.089188   -0.192602   -2.090267
     15          1           0       -4.929117   -1.232348   -0.906335
     16          6           0       -4.104303    0.633789   -0.078616
     17          1           0       -4.189028    0.267054    0.962126
     18          1           0       -4.978985    1.282947   -0.262628
     19          6           0        4.223526   -0.534818   -1.088580
     20          1           0        5.086099   -1.197043   -0.895232
     21          1           0        4.255495   -0.236276   -2.151995
     22          6           0        4.245075    0.717231   -0.202846
     23          1           0        5.089733    1.383778   -0.453393
     24          1           0        4.364587    0.433723    0.862125
     25          6           0       -2.836676   -2.379116    0.297708
     26          1           0       -3.052564   -1.899982    1.270016
     27          1           0       -3.726695   -2.996045    0.066824
     28          6           0       -2.900870    2.480221   -1.397644
     29          1           0       -3.798409    3.091647   -1.180321
     30          1           0       -3.077824    1.966280   -2.358241
     31          6           0        2.567935   -2.323933   -1.922423
     32          1           0        3.431962   -3.012783   -1.994918
     33          1           0        2.490486   -1.796389   -2.889811
     34          6           0        2.603860    2.516947    0.674687
     35          1           0        2.578818    2.039813    1.672710
     36          1           0        3.461663    3.216742    0.693013
     37          6           0       -1.617438   -3.295649    0.427891
     38          1           0       -1.792184   -4.070469    1.193672
     39          1           0       -0.713372   -2.736545    0.719617
     40          1           0       -1.403221   -3.803898   -0.527583
     41          6           0       -1.680160    3.389419   -1.536968
     42          1           0       -0.787093    2.804888   -1.827139
     43          1           0       -1.846712    4.141244   -2.326229
     44          1           0       -1.456845    3.921980   -0.594663
     45          6           0        1.287181   -3.116371   -1.660323
     46          1           0        0.408532   -2.446285   -1.701937
     47          1           0        1.300738   -3.608219   -0.670660
     48          1           0        1.141055   -3.895109   -2.427559
     49          6           0        1.308424    3.296298    0.437670
     50          1           0        1.289409    3.744269   -0.570190
     51          1           0        0.426778    2.638347    0.521565
     52          1           0        1.192457    4.106809    1.177180
     53          6           0       -1.281911   -0.157384    2.273743
     54          1           0       -2.370562   -0.051679    2.317183
     55          6           0       -0.560642   -0.350012    3.459015
     56          1           0       -1.089636   -0.399473    4.415940
     57          6           0        0.834715   -0.483282    3.418495
     58          1           0        1.398745   -0.643475    4.342726
     59          6           0        1.510968   -0.390281    2.195079
     60          1           0        2.603044   -0.470428    2.172992
 ---------------------------------------------------------------------
 Rotational constants (GHZ):      0.2667589      0.1696177      0.1499952
 Standard basis: def2TZVP (5D, 7F)
 There are  1092 symmetry adapted cartesian basis functions of A   symmetry.
 There are   972 symmetry adapted basis functions of A   symmetry.
   972 basis functions,  1548 primitive gaussians,  1092 cartesian basis functions
    99 alpha electrons       99 beta electrons
       nuclear repulsion energy      2632.7771746190 Hartrees.
 NAtoms=   60 NActive=   60 NUniq=   60 SFac= 1.00D+00 NAtFMM=   60 NAOKFM=T Big=T
 Integral buffers will be    131072 words long.
 Raffenetti 2 integral format.
 Two-electron integral symmetry is turned on.
 Nuclear repulsion after empirical dispersion term =     2632.6969500279 Hartrees.
 One-electron integrals computed using PRISM.
   1 Symmetry operations used in ECPInt.
 ECPInt:  NShTT=   85078 NPrTT=  253069 LenC2=   74532 LenP2D=  154956.
 LDataN:  DoStor=T MaxTD1= 6 Len=  172
 NBasis=   972 RedAO= T EigKep=  5.35D-06  NBF=   972
 NBsUse=   972 1.00D-06 EigRej= -1.00D+00 NBFU=   972
 Initial guess from the checkpoint file:  "SS_Et_DuPhos_2_SPE_NoPd.chk"
 B after Tr=     0.000000    0.000000    0.000000
         Rot=    1.000000   -0.000000    0.000000    0.000000 Ang=   0.00 deg.
 Requested convergence on RMS density matrix=1.00D-08 within 128 cycles.
 Requested convergence on MAX density matrix=1.00D-06.
 Requested convergence on             energy=1.00D-06.
 No special actions if energy rises.
 SCF Done:  E(RPBE1PBE) =  -1541.81771969     A.U. after    2 cycles
            NFock=  2  Conv=0.26D-08     -V/T= 2.0044

 **********************************************************************

            Population analysis using the SCF density.

 **********************************************************************

 Orbital symmetries:
       Occupied  (A) (A) (A) (A) (A) (A) (A) (A) (A) (A) (A) (A)
                 (A) (A) (A) (A) (A) (A) (A) (A) (A) (A) (A) (A)
                 (A) (A) (A) (A) (A) (A) (A) (A) (A) (A) (A) (A)
                 (A) (A) (A) (A) (A) (A) (A) (A) (A) (A) (A) (A)
                 (A) (A) (A) (A) (A) (A) (A) (A) (A) (A) (A) (A)
                 (A) (A) (A) (A) (A) (A) (A) (A) (A) (A) (A) (A)
                 (A) (A) (A) (A) (A) (A) (A) (A) (A) (A) (A) (A)
                 (A) (A) (A) (A) (A) (A) (A) (A) (A) (A) (A) (A)
                 (A) (A) (A)
       Virtual   (A) (A) (A) (A) (A) (A) (A) (A) (A) (A) (A) (A)
                 (A) (A) (A) (A) (A) (A) (A) (A) (A) (A) (A) (A)
                 (A) (A) (A) (A) (A) (A) (A) (A) (A) (A) (A) (A)
                 (A) (A) (A) (A) (A) (A) (A) (A) (A) (A) (A) (A)
                 (A) (A) (A) (A) (A) (A) (A) (A) (A) (A) (A) (A)
                 (A) (A) (A) (A) (A) (A) (A) (A) (A) (A) (A) (A)
                 (A) (A) (A) (A) (A) (A) (A) (A) (A) (A) (A) (A)
                 (A) (A) (A) (A) (A) (A) (A) (A) (A) (A) (A) (A)
                 (A) (A) (A) (A) (A) (A) (A) (A) (A) (A) (A) (A)
                 (A) (A) (A) (A) (A) (A) (A) (A) (A) (A) (A) (A)
                 (A) (A) (A) (A) (A) (A) (A) (A) (A) (A) (A) (A)
                 (A) (A) (A) (A) (A) (A) (A) (A) (A) (A) (A) (A)
                 (A) (A) (A) (A) (A) (A) (A) (A) (A) (A) (A) (A)
                 (A) (A) (A) (A) (A) (A) (A) (A) (A) (A) (A) (A)
                 (A) (A) (A) (A) (A) (A) (A) (A) (A) (A) (A) (A)
                 (A) (A) (A) (A) (A) (A) (A) (A) (A) (A) (A) (A)
                 (A) (A) (A) (A) (A) (A) (A) (A) (A) (A) (A) (A)
                 (A) (A) (A) (A) (A) (A) (A) (A) (A) (A) (A) (A)
                 (A) (A) (A) (A) (A) (A) (A) (A) (A) (A) (A) (A)
                 (A) (A) (A) (A) (A) (A) (A) (A) (A) (A) (A) (A)
                 (A) (A) (A) (A) (A) (A) (A) (A) (A) (A) (A) (A)
                 (A) (A) (A) (A) (A) (A) (A) (A) (A) (A) (A) (A)
                 (A) (A) (A) (A) (A) (A) (A) (A) (A) (A) (A) (A)
                 (A) (A) (A) (A) (A) (A) (A) (A) (A) (A) (A) (A)
                 (A) (A) (A) (A) (A) (A) (A) (A) (A) (A) (A) (A)
                 (A) (A) (A) (A) (A) (A) (A) (A) (A) (A) (A) (A)
                 (A) (A) (A) (A) (A) (A) (A) (A) (A) (A) (A) (A)
                 (A) (A) (A) (A) (A) (A) (A) (A) (A) (A) (A) (A)
                 (A) (A) (A) (A) (A) (A) (A) (A) (A) (A) (A) (A)
                 (A) (A) (A) (A) (A) (A) (A) (A) (A) (A) (A) (A)
                 (A) (A) (A) (A) (A) (A) (A) (A) (A) (A) (A) (A)
                 (A) (A) (A) (A) (A) (A) (A) (A) (A) (A) (A) (A)
                 (A) (A) (A) (A) (A) (A) (A) (A) (A) (A) (A) (A)
                 (A) (A) (A) (A) (A) (A) (A) (A) (A) (A) (A) (A)
                 (A) (A) (A) (A) (A) (A) (A) (A) (A) (A) (A) (A)
                 (A) (A) (A) (A) (A) (A) (A) (A) (A) (A) (A) (A)
                 (A) (A) (A) (A) (A) (A) (A) (A) (A) (A) (A) (A)
                 (A) (A) (A) (A) (A) (A) (A) (A) (A) (A) (A) (A)
                 (A) (A) (A) (A) (A) (A) (A) (A) (A) (A) (A) (A)
                 (A) (A) (A) (A) (A) (A) (A) (A) (A) (A) (A) (A)
                 (A) (A) (A) (A) (A) (A) (A) (A) (A) (A) (A) (A)
                 (A) (A) (A) (A) (A) (A) (A) (A) (A) (A) (A) (A)
                 (A) (A) (A) (A) (A) (A) (A) (A) (A) (A) (A) (A)
                 (A) (A) (A) (A) (A) (A) (A) (A) (A) (A) (A) (A)
                 (A) (A) (A) (A) (A) (A) (A) (A) (A) (A) (A) (A)
                 (A) (A) (A) (A) (A) (A) (A) (A) (A) (A) (A) (A)
                 (A) (A) (A) (A) (A) (A) (A) (A) (A) (A) (A) (A)
                 (A) (A) (A) (A) (A) (A) (A) (A) (A) (A) (A) (A)
                 (A) (A) (A) (A) (A) (A) (A) (A) (A) (A) (A) (A)
                 (A) (A) (A) (A) (A) (A) (A) (A) (A) (A) (A) (A)
                 (A) (A) (A) (A) (A) (A) (A) (A) (A) (A) (A) (A)
                 (A) (A) (A) (A) (A) (A) (A) (A) (A) (A) (A) (A)
                 (A) (A) (A) (A) (A) (A) (A) (A) (A) (A) (A) (A)
                 (A) (A) (A) (A) (A) (A) (A) (A) (A) (A) (A) (A)
                 (A) (A) (A) (A) (A) (A) (A) (A) (A) (A) (A) (A)
                 (A) (A) (A) (A) (A) (A) (A) (A) (A) (A) (A) (A)
                 (A) (A) (A) (A) (A) (A) (A) (A) (A) (A) (A) (A)
                 (A) (A) (A) (A) (A) (A) (A) (A) (A) (A) (A) (A)
                 (A) (A) (A) (A) (A) (A) (A) (A) (A) (A) (A) (A)
                 (A) (A) (A) (A) (A) (A) (A) (A) (A) (A) (A) (A)
                 (A) (A) (A) (A) (A) (A) (A) (A) (A) (A) (A) (A)
                 (A) (A) (A) (A) (A) (A) (A) (A) (A) (A) (A) (A)
                 (A) (A) (A) (A) (A) (A) (A) (A) (A) (A) (A) (A)
[...]
   722. RY*(  21) C  45                  0.00000     3.40385   
   723. RY*(  22) C  45                  0.00000     3.67243   
   724. RY*(  23) C  45                  0.00000     3.55094   
   725. RY*(  24) C  45                  0.00000     3.18361   
   726. RY*(  25) C  45                  0.00000     3.32547   
   727. RY*(  26) C  45                  0.00000     3.37662   
   728. RY*(   1) H  46                  0.00082     1.19401   
   729. RY*(   2) H  46                  0.00021     1.82891   
   730. RY*(   3) H  46                  0.00012     2.13420   
   731. RY*(   4) H  46                  0.00007     2.16999   
   732. RY*(   5) H  46                  0.00002     2.98447   
   733. RY*(   1) H  47                  0.00061     1.39240   
   734. RY*(   2) H  47                  0.00021     1.57041   
   735. RY*(   3) H  47                  0.00009     2.09602   
   736. RY*(   4) H  47                  0.00005     1.88524   
   737. RY*(   5) H  47                  0.00002     2.85906   
   738. RY*(   1) H  48                  0.00037     1.45296   
   739. RY*(   2) H  48                  0.00014     1.38709   
   740. RY*(   3) H  48                  0.00008     2.08405   
   741. RY*(   4) H  48                  0.00007     2.09403   
   742. RY*(   5) H  48                  0.00001     2.64183   
   743. RY*(   1) C  49                  0.00107     1.10896   
   744. RY*(   2) C  49                  0.00071     1.12814   
   745. RY*(   3) C  49                  0.00064     0.96849   
   746. RY*(   4) C  49                  0.00030     1.07436   
   747. RY*(   5) C  49                  0.00026     2.00091   
   748. RY*(   6) C  49                  0.00019     1.78780   
   749. RY*(   7) C  49                  0.00012     1.81111   
   750. RY*(   8) C  49                  0.00008     1.63010   
   751. RY*(   9) C  49                  0.00006     1.70361   
   752. RY*(  10) C  49                  0.00003     1.48011   
   753. RY*(  11) C  49                  0.00002     2.08484   
   754. RY*(  12) C  49                  0.00001     2.69972   
   755. RY*(  13) C  49                  0.00002     2.11111   
   756. RY*(  14) C  49                  0.00002     1.96110   
   757. RY*(  15) C  49                  0.00001     2.23280   
   758. RY*(  16) C  49                  0.00000     2.84540   
   759. RY*(  17) C  49                  0.00000     3.37845   
   760. RY*(  18) C  49                  0.00000    21.03447   
   761. RY*(  19) C  49                  0.00000     3.35130   
   762. RY*(  20) C  49                  0.00000     3.28885   
   763. RY*(  21) C  49                  0.00000     3.41856   
   764. RY*(  22) C  49                  0.00000     3.64985   
   765. RY*(  23) C  49                  0.00000     3.49512   
   766. RY*(  24) C  49                  0.00000     3.20311   
   767. RY*(  25) C  49                  0.00000     3.35337   
   768. RY*(  26) C  49                  0.00000     3.51604   
   769. RY*(   1) H  50                  0.00073     0.95663   
   770. RY*(   2) H  50                  0.00021     1.92244   
   771. RY*(   3) H  50                  0.00011     2.17484   
   772. RY*(   4) H  50                  0.00007     2.11642   
   773. RY*(   5) H  50                  0.00002     2.99744   
   774. RY*(   1) H  51                  0.00076     0.95603   
   775. RY*(   2) H  51                  0.00026     2.47500   
   776. RY*(   3) H  51                  0.00010     2.37400   
   777. RY*(   4) H  51                  0.00007     2.22743   
   778. RY*(   5) H  51                  0.00003     3.07463   
   779. RY*(   1) H  52                  0.00032     0.97772   
   780. RY*(   2) H  52                  0.00020     1.88805   
   781. RY*(   3) H  52                  0.00012     2.04469   
   782. RY*(   4) H  52                  0.00007     2.17991   
   783. RY*(   5) H  52                  0.00002     3.02770   
   784. RY*(   1) C  53                  0.00580     1.58629   
   785. RY*(   2) C  53                  0.00185     0.93342   
   786. RY*(   3) C  53                  0.00184     1.20799   
   787. RY*(   4) C  53                  0.00121     1.68785   
   788. RY*(   5) C  53                  0.00080     1.64379   
   789. RY*(   6) C  53                  0.00050     1.60842   
   790. RY*(   7) C  53                  0.00038     2.47369   
   791. RY*(   8) C  53                  0.00025     2.10344   
   792. RY*(   9) C  53                  0.00019     1.87348   
   793. RY*(  10) C  53                  0.00014     2.02003   
   794. RY*(  11) C  53                  0.00009     2.10101   
   795. RY*(  12) C  53                  0.00006     2.73629   
   796. RY*(  13) C  53                  0.00007     1.71742   
   797. RY*(  14) C  53                  0.00006     2.95635   
   798. RY*(  15) C  53                  0.00002     1.62902   
   799. RY*(  16) C  53                  0.00002     2.27345   
   800. RY*(  17) C  53                  0.00001     3.52844   
   801. RY*(  18) C  53                  0.00000     3.14314   
   802. RY*(  19) C  53                  0.00000    21.47407   
   803. RY*(  20) C  53                  0.00001     3.27897   
   804. RY*(  21) C  53                  0.00001     3.99553   
   805. RY*(  22) C  53                  0.00000     3.41965   
   806. RY*(  23) C  53                  0.00001     3.73243   
   807. RY*(  24) C  53                  0.00000     3.47965   
   808. RY*(  25) C  53                  0.00000     3.54303   
   809. RY*(  26) C  53                  0.00000     3.18220   
   810. RY*(   1) H  54                  0.00181     0.77496   
   811. RY*(   2) H  54                  0.00037     2.37017   
   812. RY*(   3) H  54                  0.00014     2.22706   
   813. RY*(   4) H  54                  0.00009     2.72590   
   814. RY*(   5) H  54                  0.00003     3.15121   
   815. RY*(   1) C  55                  0.00477     1.56833   
   816. RY*(   2) C  55                  0.00186     1.60589   
   817. RY*(   3) C  55                  0.00136     0.58054   
   818. RY*(   4) C  55                  0.00089     1.39369   
   819. RY*(   5) C  55                  0.00054     1.79574   
   820. RY*(   6) C  55                  0.00033     3.14981   
   821. RY*(   7) C  55                  0.00023     2.34476   
   822. RY*(   8) C  55                  0.00013     1.69110   
   823. RY*(   9) C  55                  0.00008     3.07934   
   824. RY*(  10) C  55                  0.00003     1.19923   
   825. RY*(  11) C  55                  0.00004     1.88990   
   826. RY*(  12) C  55                  0.00004     2.33784   
   827. RY*(  13) C  55                  0.00001     2.17149   
   828. RY*(  14) C  55                  0.00000     1.16343   
   829. RY*(  15) C  55                  0.00001     3.37432   
   830. RY*(  16) C  55                  0.00000    20.83918   
   831. RY*(  17) C  55                  0.00000     3.21247   
   832. RY*(  18) C  55                  0.00001     1.71814   
   833. RY*(  19) C  55                  0.00000     3.10164   
   834. RY*(  20) C  55                  0.00000     3.39650   
   835. RY*(  21) C  55                  0.00000     4.00093   
   836. RY*(  22) C  55                  0.00000     3.17027   
   837. RY*(  23) C  55                  0.00000     3.38168   
   838. RY*(  24) C  55                  0.00000     3.35188   
   839. RY*(  25) C  55                  0.00000     3.58251   
   840. RY*(  26) C  55                  0.00000     3.44312   
   841. RY*(   1) H  56                  0.00042     0.96237   
   842. RY*(   2) H  56                  0.00020     1.82620   
   843. RY*(   3) H  56                  0.00012     2.73764   
   844. RY*(   4) H  56                  0.00011     2.14890   
   845. RY*(   5) H  56                  0.00002     3.08946   
   846. RY*(   1) C  57                  0.00472     1.57151   
   847. RY*(   2) C  57                  0.00188     1.62346   
   848. RY*(   3) C  57                  0.00137     0.57773   
   849. RY*(   4) C  57                  0.00092     1.38756   
   850. RY*(   5) C  57                  0.00054     1.75991   
   851. RY*(   6) C  57                  0.00032     3.19521   
   852. RY*(   7) C  57                  0.00024     2.46791   
   853. RY*(   8) C  57                  0.00013     1.67445   
   854. RY*(   9) C  57                  0.00008     2.95433   
   855. RY*(  10) C  57                  0.00005     1.85384   
   856. RY*(  11) C  57                  0.00003     1.68474   
   857. RY*(  12) C  57                  0.00002     1.48306   
   858. RY*(  13) C  57                  0.00001     2.18828   
   859. RY*(  14) C  57                  0.00002     2.03913   
   860. RY*(  15) C  57                  0.00000     2.39010   
   861. RY*(  16) C  57                  0.00001     3.13723   
   862. RY*(  17) C  57                  0.00001     3.40722   
   863. RY*(  18) C  57                  0.00000    21.26470   
   864. RY*(  19) C  57                  0.00000     1.85306   
   865. RY*(  20) C  57                  0.00000     3.19628   
   866. RY*(  21) C  57                  0.00000     3.97051   
   867. RY*(  22) C  57                  0.00000     3.25551   
   868. RY*(  23) C  57                  0.00000     3.26825   
   869. RY*(  24) C  57                  0.00000     3.34785   
   870. RY*(  25) C  57                  0.00000     3.52335   
   871. RY*(  26) C  57                  0.00000     3.45398   
   872. RY*(   1) H  58                  0.00042     0.97026   
   873. RY*(   2) H  58                  0.00021     1.81056   
   874. RY*(   3) H  58                  0.00011     2.74129   
   875. RY*(   4) H  58                  0.00011     2.14781   
   876. RY*(   5) H  58                  0.00002     3.08948   
   877. RY*(   1) C  59                  0.00587     1.56980   
   878. RY*(   2) C  59                  0.00205     0.85501   
   879. RY*(   3) C  59                  0.00180     1.23570   
   880. RY*(   4) C  59                  0.00122     1.68659   
   881. RY*(   5) C  59                  0.00080     1.68416   
   882. RY*(   6) C  59                  0.00053     1.53693   
   883. RY*(   7) C  59                  0.00038     2.74874   
   884. RY*(   8) C  59                  0.00025     2.18143   
   885. RY*(   9) C  59                  0.00019     1.65039   
   886. RY*(  10) C  59                  0.00014     2.15395   
   887. RY*(  11) C  59                  0.00007     2.19230   
   888. RY*(  12) C  59                  0.00007     2.21529   
   889. RY*(  13) C  59                  0.00007     2.28930   
   890. RY*(  14) C  59                  0.00005     2.78953   
   891. RY*(  15) C  59                  0.00004     1.67400   
   892. RY*(  16) C  59                  0.00002     2.70465   
   893. RY*(  17) C  59                  0.00001     3.50659   
   894. RY*(  18) C  59                  0.00000     3.15384   
   895. RY*(  19) C  59                  0.00000    21.24261   
   896. RY*(  20) C  59                  0.00001     3.10738   
   897. RY*(  21) C  59                  0.00000     3.58063   
   898. RY*(  22) C  59                  0.00000     3.42508   
   899. RY*(  23) C  59                  0.00001     3.73650   
   900. RY*(  24) C  59                  0.00000     3.45939   
   901. RY*(  25) C  59                  0.00000     3.58048   
   902. RY*(  26) C  59                  0.00000     3.19769   
   903. RY*(   1) H  60                  0.00212     0.76340   
   904. RY*(   2) H  60                  0.00036     2.37597   
   905. RY*(   3) H  60                  0.00014     2.18163   
   906. RY*(   4) H  60                  0.00010     2.73811   
   907. RY*(   5) H  60                  0.00003     3.16871   
   908. BD*(   1) P   1 - C   3          0.04099     0.22904   
   909. BD*(   1) P   1 - C   5          0.05194     0.19661   
   910. BD*(   1) P   1 - C   7          0.04945     0.19830   
   911. BD*(   1) P   2 - C   4          0.04280     0.22980   
   912. BD*(   1) P   2 - C   9          0.04713     0.20285   
   913. BD*(   1) P   2 - C  11          0.05167     0.20431   
   914. BD*(   1) C   3 - C   4          0.03552     0.51577   
   915. BD*(   2) C   3 - C   4          0.38028     0.02494  966(v),971(v),909(v),913(v)
                                                    185(g),912(v),159(g),910(v)
   916. BD*(   1) C   3 - C  53          0.03645     0.52566   
   917. BD*(   1) C   4 - C  59          0.03598     0.52593   
   918. BD*(   1) C   5 - H   6          0.02232     0.37607   
   919. BD*(   1) C   5 - C  13          0.01946     0.34332   
   920. BD*(   1) C   5 - C  25          0.02674     0.35688   
   921. BD*(   1) C   7 - H   8          0.02185     0.37509   
   922. BD*(   1) C   7 - C  16          0.02119     0.34453   
   923. BD*(   1) C   7 - C  28          0.02505     0.35647   
   924. BD*(   1) C   9 - H  10          0.02929     0.36120   
   925. BD*(   1) C   9 - C  19          0.01981     0.34811   
   926. BD*(   1) C   9 - C  31          0.02075     0.36519   
   927. BD*(   1) C  11 - H  12          0.02590     0.36285   
   928. BD*(   1) C  11 - C  22          0.02292     0.34858   
   929. BD*(   1) C  11 - C  34          0.01904     0.36638   
   930. BD*(   1) C  13 - H  14          0.01463     0.37071   
   931. BD*(   1) C  13 - H  15          0.01610     0.37185   
   932. BD*(   1) C  13 - C  16          0.01567     0.35013   
   933. BD*(   1) C  16 - H  17          0.01510     0.36869   
   934. BD*(   1) C  16 - H  18          0.01940     0.37510   
   935. BD*(   1) C  19 - H  20          0.01503     0.37175   
   936. BD*(   1) C  19 - H  21          0.01881     0.36308   
   937. BD*(   1) C  19 - C  22          0.00962     0.36049   
   938. BD*(   1) C  22 - H  23          0.01813     0.37189   
   939. BD*(   1) C  22 - H  24          0.01884     0.35920   
   940. BD*(   1) C  25 - H  26          0.01906     0.37354   
   941. BD*(   1) C  25 - H  27          0.02023     0.36464   
   942. BD*(   1) C  25 - C  37          0.00637     0.36951   
   943. BD*(   1) C  28 - H  29          0.01888     0.36602   
   944. BD*(   1) C  28 - H  30          0.01784     0.37115   
   945. BD*(   1) C  28 - C  41          0.00622     0.37333   
   946. BD*(   1) C  31 - H  32          0.01888     0.36553   
   947. BD*(   1) C  31 - H  33          0.01843     0.36939   
   948. BD*(   1) C  31 - C  45          0.00663     0.37202   
   949. BD*(   1) C  34 - H  35          0.01888     0.37291   
   950. BD*(   1) C  34 - H  36          0.01935     0.36443   
   951. BD*(   1) C  34 - C  49          0.00713     0.37032   
   952. BD*(   1) C  37 - H  38          0.00588     0.38302   
   953. BD*(   1) C  37 - H  39          0.00922     0.39676   
   954. BD*(   1) C  37 - H  40          0.00899     0.38073   
   955. BD*(   1) C  41 - H  42          0.00948     0.38923   
   956. BD*(   1) C  41 - H  43          0.00589     0.38679   
   957. BD*(   1) C  41 - H  44          0.00954     0.38151   
   958. BD*(   1) C  45 - H  46          0.00963     0.38871   
   959. BD*(   1) C  45 - H  47          0.00953     0.37989   
   960. BD*(   1) C  45 - H  48          0.00601     0.38531   
   961. BD*(   1) C  49 - H  50          0.00908     0.38100   
   962. BD*(   1) C  49 - H  51          0.00899     0.39488   
   963. BD*(   1) C  49 - H  52          0.00617     0.38407   
   964. BD*(   1) C  53 - H  54          0.01752     0.40369   
   965. BD*(   1) C  53 - C  55          0.01838     0.53875   
   966. BD*(   2) C  53 - C  55          0.31140     0.02517  915(v),971(v),817(g),785(g)
   967. BD*(   1) C  55 - H  56          0.01394     0.39848   
   968. BD*(   1) C  55 - C  57          0.01453     0.53181   
   969. BD*(   1) C  57 - H  58          0.01402     0.39870   
   970. BD*(   1) C  57 - C  59          0.01832     0.53782   
   971. BD*(   2) C  57 - C  59          0.31314     0.02450  915(v),966(v),848(g),878(g)
   972. BD*(   1) C  59 - H  60          0.01752     0.40227   
       -------------------------------
              Total Lewis  195.47391  ( 98.7242%)
        Valence non-Lewis    2.22298  (  1.1227%)
        Rydberg non-Lewis    0.30311  (  0.1531%)
       -------------------------------
            Total unit  1  198.00000  (100.0000%)
           Charge unit  1    0.00000
 1\1\GINC-NC040\SP\RPBE1PBE\def2TZVP\C22H36P2\MACKK4\05-Dec-2021\0\\# P
 BE1PBE/def2TZVP int=(grid=ultrafine) empiricaldispersion=GD3BJ pop=nbo
  guess=read geom=check\\SS_Et_DuPhos_2 title\\0,1\P,0,-1.5365211016,-0
 .7591983605,0.0557259867\P,0,1.5376816173,-0.1809667343,0.3632831401\C
 ,0,-0.9313443701,0.9456180788,-0.3337722666\C,0,0.4387206784,1.2249514
 623,-0.1114279107\C,0,-2.9361285621,-0.6951197988,1.3302266656\H,0,-2.
 563702541,-1.3000744846,2.1753234763\C,0,-2.6200558702,-1.2382510818,-
 1.4204697324\H,0,-2.3794964631,-0.5245990837,-2.2308286687\C,0,2.57943
 7794,0.3929068484,1.8272657496\H,0,2.3940849662,1.4846398864,1.8954865
 278\C,0,2.9683250372,-0.2382112482,-0.8614405702\H,0,3.1879310421,-1.3
 23116799,-0.8934414264\C,0,-4.0698719821,-1.4502355328,0.5964223223\H,
 0,-3.8818859385,-2.5349198801,0.6750836663\H,0,-5.0428796722,-1.238622
 6123,1.0750257201\C,0,-4.0550589047,-1.0256369163,-0.8811827655\H,0,-4
 .348809105,0.0378004614,-0.9685233861\H,0,-4.7763751484,-1.608452184,-
 1.4814860168\C,0,4.0291827972,0.1425489701,1.3590799023\H,0,4.73519934
 62,0.7363277699,1.9664716281\H,0,4.2636628026,-0.9262791362,1.51279458
 85\C,0,4.1248289566,0.479661216,-0.1341794054\H,0,5.0939443621,0.16965
 15266,-0.5645460715\H,0,4.0403984517,1.5741802035,-0.2881981311\C,0,-3
 .362463886,0.6951960225,1.8363790949\H,0,-3.6367676747,1.3536090307,0.
 9920976261\H,0,-4.2977220992,0.5415763375,2.4088618244\C,0,-2.38853647
 52,-2.6749465772,-1.9299327438\H,0,-3.1966960356,-2.8846123933,-2.6576
 445013\H,0,-2.5049735435,-3.3872936265,-1.0949480087\C,0,2.2440090112,
 -0.2689492705,3.1704416702\H,0,2.985804119,0.0943054648,3.9080725446\H
 ,0,2.3949551696,-1.3582672438,3.0667902427\C,0,2.687979347,0.275597639
 3,-2.2781129197\H,0,2.4407475211,1.3535202522,-2.242160862\H,0,3.63619
 93416,0.1992571952,-2.8446163329\C,0,-2.3405193524,1.397552607,2.73406
 78031\H,0,-2.7484395784,2.3471561447,3.1202744746\H,0,-1.4098063267,1.
 6307356171,2.1914484076\H,0,-2.0750291048,0.7649727846,3.5980666819\C,
 0,-1.0291724538,-2.9009135457,-2.5911838012\H,0,-0.2104030406,-2.76819
 79158,-1.8594400762\H,0,-0.9546488819,-3.9305737454,-2.9786862436\H,0,
 -0.8618017032,-2.2029585461,-3.4315864143\C,0,0.827159271,0.0125888253
 ,3.6706985084\H,0,0.0846507212,-0.4498757219,2.9942534961\H,0,0.616421
 1155,1.0960798912,3.7269851044\H,0,0.6696262428,-0.4192506571,4.673263
 4571\C,0,1.5849211156,-0.4871442776,-3.0151377793\H,0,1.7858493607,-1.
 5717449351,-3.0246408209\H,0,0.6053579726,-0.3386115978,-2.5297180794\
 H,0,1.4958736975,-0.1440971132,-4.0599542715\C,0,-1.7715869593,1.95914
 92453,-0.8337578292\H,0,-2.8231534053,1.7438429813,-1.0484062513\C,0,-
 1.2714914874,3.2474161869,-1.062838569\H,0,-1.9350396154,4.0282335453,
 -1.4475645406\C,0,0.0744866713,3.5362796905,-0.7957720142\H,0,0.464391
 254,4.5448858844,-0.9651342607\C,0,0.927605288,2.5268434768,-0.3310766
 894\H,0,1.9835599839,2.7525848275,-0.1479358594\\Version=ES64L-G09RevE
 .01\State=1-A\HF=-1541.8177197\RMSD=2.570e-09\Dipole=-0.0800185,0.6592
 615,-0.1649613\Quadrupole=3.2116812,0.0244443,-3.2361254,0.827547,0.78
 00639,-1.2308636\PG=C01 [X(C22H36P2)]\\@


 FROM THE ASHES OF OUR DESPAIR GROW THE FLOWERS OF TOMORROW.
 Job cpu time:       0 days  0 hours 45 minutes  8.1 seconds.
 File lengths (MBytes):  RWF=    487 Int=      0 D2E=      0 Chk=     80 Scr=      1
 Normal termination of Gaussian 09 at Sun Dec  5 09:44:37 2021.
