 Entering Gaussian System, Link 0=g09
 Input=SS_Et_DuPhos_5_SPE.com
 Output=SS_Et_DuPhos_5_SPE.log
 Initial command:
 /gstore/apps/gaussian/g09.e01-foss-2017a/g09/l1.exe "/local/22791414/Gau-27786.inp" -scrdir="/local/22791414/"
 Entering Link 1 = /gstore/apps/gaussian/g09.e01-foss-2017a/g09/l1.exe PID=     27787.
  
 Copyright (c) 1988,1990,1992,1993,1995,1998,2003,2009,2015,
            Gaussian, Inc.  All Rights Reserved.
  
 This is part of the Gaussian(R) 09 program.  It is based on
 the Gaussian(R) 03 system (copyright 2003, Gaussian, Inc.),
 the Gaussian(R) 98 system (copyright 1998, Gaussian, Inc.),
 the Gaussian(R) 94 system (copyright 1995, Gaussian, Inc.),
 the Gaussian 92(TM) system (copyright 1992, Gaussian, Inc.),
 the Gaussian 90(TM) system (copyright 1990, Gaussian, Inc.),
 the Gaussian 88(TM) system (copyright 1988, Gaussian, Inc.),
 the Gaussian 86(TM) system (copyright 1986, Carnegie Mellon
 University), and the Gaussian 82(TM) system (copyright 1983,
 Carnegie Mellon University). Gaussian is a federally registered
 trademark of Gaussian, Inc.
  
 This software contains proprietary and confidential information,
 including trade secrets, belonging to Gaussian, Inc.
  
 This software is provided under written license and may be
 used, copied, transmitted, or stored only in accord with that
 written license.
  
 The following legend is applicable only to US Government
 contracts under FAR:
  
                    RESTRICTED RIGHTS LEGEND
  
 Use, reproduction and disclosure by the US Government is
 subject to restrictions as set forth in subparagraphs (a)
 and (c) of the Commercial Computer Software - Restricted
 Rights clause in FAR 52.227-19.
  
 Gaussian, Inc.
 340 Quinnipiac St., Bldg. 40, Wallingford CT 06492
  
  
 ---------------------------------------------------------------
 Warning -- This program may not be used in any manner that
 competes with the business of Gaussian, Inc. or will provide
 assistance to any competitor of Gaussian, Inc.  The licensee
 of this program is prohibited from giving any competitor of
 Gaussian, Inc. access to this program.  By using this program,
 the user acknowledges that Gaussian, Inc. is engaged in the
 business of creating and licensing software in the field of
 computational chemistry and represents and warrants to the
 licensee that it is not a competitor of Gaussian, Inc. and that
 it will not use this program in any manner prohibited above.
 ---------------------------------------------------------------
  

 Cite this work as:
 Gaussian 09, Revision E.01,
 M. J. Frisch, G. W. Trucks, H. B. Schlegel, G. E. Scuseria, 
 M. A. Robb, J. R. Cheeseman, G. Scalmani, V. Barone, B. Mennucci, 
 G. A. Petersson, H. Nakatsuji, M. Caricato, X. Li, H. P. Hratchian, 
 A. F. Izmaylov, J. Bloino, G. Zheng, J. L. Sonnenberg, M. Hada, 
 M. Ehara, K. Toyota, R. Fukuda, J. Hasegawa, M. Ishida, T. Nakajima, 
 Y. Honda, O. Kitao, H. Nakai, T. Vreven, J. A. Montgomery, Jr., 
 J. E. Peralta, F. Ogliaro, M. Bearpark, J. J. Heyd, E. Brothers, 
 K. N. Kudin, V. N. Staroverov, T. Keith, R. Kobayashi, J. Normand, 
 K. Raghavachari, A. Rendell, J. C. Burant, S. S. Iyengar, J. Tomasi, 
 M. Cossi, N. Rega, J. M. Millam, M. Klene, J. E. Knox, J. B. Cross, 
 V. Bakken, C. Adamo, J. Jaramillo, R. Gomperts, R. E. Stratmann, 
 O. Yazyev, A. J. Austin, R. Cammi, C. Pomelli, J. W. Ochterski, 
 R. L. Martin, K. Morokuma, V. G. Zakrzewski, G. A. Voth, 
 P. Salvador, J. J. Dannenberg, S. Dapprich, A. D. Daniels, 
 O. Farkas, J. B. Foresman, J. V. Ortiz, J. Cioslowski, 
 and D. J. Fox, Gaussian, Inc., Wallingford CT, 2013.
 
 ******************************************
 Gaussian 09:  ES64L-G09RevE.01 30-Nov-2015
                 5-Dec-2021 
 ******************************************
 %nprocs=14
 Will use up to   14 processors via shared memory.
 %mem=128GB
 %chk=SS_Et_DuPhos_5_SPE.chk
 ----------------------------------------------------------------------
 # PBE1PBE gen pseudo=read int=(grid=ultrafine) empiricaldispersion=GD3
 BJ nmr=giao
 ----------------------------------------------------------------------
 1/38=1/1;
 2/12=2,17=6,18=5,40=1/2;
 3/5=7,11=2,16=1,17=8,25=1,30=1,74=-13,75=-5,124=41/1,2,8,3;
 4//1;
 5/5=2,38=5/2;
 8/6=1,10=90,11=11/1;
 10/13=100,45=16/2;
 6/7=2,8=2,9=2,10=2,28=1/1;
 99/9=1/99;
 --------------------
 SS_Et_DuPhos_5 title
 --------------------
 Symbolic Z-matrix:
 Charge =  0 Multiplicity = 1
 Cl                   -1.40429  -3.76498   1.13697 
 P                    -1.60174  -0.77521  -0.02932 
 P                     1.47692  -0.19601   0.3445 
 C                    -0.97578   0.92653  -0.42772 
 C                     0.40209   1.18992  -0.2267 
 C                    -3.04998  -0.63335   1.14464 
 H                    -3.14582  -1.69156   1.46545 
 C                    -2.66411  -1.27483  -1.51442 
 H                    -2.48269  -0.4875   -2.27144 
 C                     2.53904   0.47774   1.74189 
 H                     2.57624   1.57368   1.5656 
 C                     2.92492  -0.43421  -0.85225 
 H                     2.98109  -1.53618  -0.92837 
 C                    -4.24632  -0.30594   0.23613 
 H                    -5.19216  -0.49005   0.77746 
 H                    -4.24792   0.76561  -0.03713 
 C                    -4.13139  -1.21027  -1.00266 
 H                    -4.80659  -0.89097  -1.81563 
 H                    -4.42959  -2.23496  -0.71532 
 C                     3.9283   -0.10648   1.4259 
 H                     4.69921   0.4047    2.03015 
 H                     3.93836  -1.17948   1.68627 
 C                     4.16258   0.08027  -0.0784 
 H                     5.06859  -0.44687  -0.42538 
 H                     4.30588   1.15647  -0.30303 
 C                    -2.84631   0.24194   2.38848 
 H                    -2.33069   1.18391   2.11764 
 H                    -3.84402   0.5414    2.76315 
 C                    -2.33033  -2.65121  -2.11571 
 H                    -3.11545  -2.87242  -2.86534 
 H                    -2.41775  -3.40981  -1.31758 
 C                     2.00526   0.21989   3.15552 
 H                     2.85266   0.30534   3.86225 
 H                     1.64727  -0.82366   3.22259 
 C                     2.78511   0.17908  -2.25166 
 H                     2.6606    1.2752   -2.1668 
 H                     3.75313   0.02512  -2.76708 
 C                    -2.08711  -0.50254   3.49411 
 H                    -1.90469   0.14756   4.3658 
 H                    -1.11475  -0.87741   3.12832 
 H                    -2.6602   -1.38303   3.83111 
 C                    -0.94944  -2.75369  -2.75976 
 H                    -0.15904  -2.61017  -1.99983 
 H                    -0.80044  -3.75253  -3.20281 
 H                    -0.80882  -2.00059  -3.5559 
 C                     0.90905   1.21383   3.55198 
 H                     0.06146   1.18134   2.84577 
 H                     1.29777   2.24846   3.55601 
 H                     0.5126    0.99544   4.55709 
 C                     1.65574  -0.40785  -3.09911 
 H                     1.75233  -1.50277  -3.18956 
 H                     0.6692   -0.19716  -2.65271 
 H                     1.66093   0.02131  -4.11552 
 C                    -1.80142   1.95395  -0.9258 
 H                    -2.86128   1.76394  -1.11515 
 C                    -1.27918   3.22642  -1.1922 
 H                    -1.9364    4.01383  -1.57442 
 C                     0.07933   3.4898   -0.96921 
 H                     0.48912   4.48379  -1.17426 
 C                     0.91608   2.4735   -0.49227 
 H                     1.97889   2.6812   -0.32811 
 Cl                    2.10514  -3.18309   1.39308 
 Pd                    0.15191  -1.98989   0.6959 
 
 Stoichiometry    C22H36Cl2P2Pd
 Framework group  C1[X(C22H36Cl2P2Pd)]
 Deg. of freedom   183
 Full point group                 C1      NOp   1
 Largest Abelian subgroup         C1      NOp   1
 Largest concise Abelian subgroup C1      NOp   1
                         Standard orientation:                         
 ---------------------------------------------------------------------
 Center     Atomic      Atomic             Coordinates (Angstroms)
 Number     Number       Type             X           Y           Z
 ---------------------------------------------------------------------
      1         17           0       -1.913765   -2.876363   -0.126508
      2         15           0       -1.556458    0.317422   -0.026470
      3         15           0        1.595459    0.180262   -0.029832
      4          6           0       -0.610267    1.906255    0.137175
      5          6           0        0.804760    1.834960    0.167862
      6          6           0       -2.809021    0.207845    1.357279
      7          1           0       -3.105528   -0.858043    1.268475
      8          6           0       -2.849288    0.644443   -1.370122
      9          1           0       -2.574775    1.629304   -1.795056
     10          6           0        2.917988    0.045412    1.299627
     11          1           0        3.180799    1.096342    1.544601
     12          6           0        2.823962    0.212459   -1.470458
     13          1           0        2.624580   -0.757024   -1.964056
     14          6           0       -3.988267    1.067172    0.872771
     15          1           0       -4.891093    0.837987    1.467683
     16          1           0       -3.778406    2.141834    1.027540
     17          6           0       -4.205079    0.736694   -0.613635
     18          1           0       -4.871204    1.464266   -1.109302
     19          1           0       -4.693680   -0.252183   -0.683399
     20          6           0        4.102068   -0.580660    0.539897
     21          1           0        5.025143   -0.492543    1.140642
     22          1           0        3.898760   -1.652796    0.371330
     23          6           0        4.217523    0.158051   -0.799383
     24          1           0        4.942735   -0.324613   -1.477798
     25          1           0        4.573863    1.193344   -0.625063
     26          6           0       -2.289326    0.457717    2.779335
     27          1           0       -1.606759    1.329740    2.793400
     28          1           0       -3.151447    0.739484    3.414028
     29          6           0       -2.894362   -0.404814   -2.494591
     30          1           0       -3.781278   -0.170923   -3.115850
     31          1           0       -3.067138   -1.395958   -2.038624
     32          6           0        2.487074   -0.671224    2.584343
     33          1           0        3.399673   -1.020085    3.104264
     34          1           0        1.913847   -1.578007    2.318248
     35          6           0        2.682711    1.353865   -2.485977
     36          1           0        2.815423    2.325794   -1.974195
     37          1           0        3.534188    1.264854   -3.188466
     38          6           0       -1.606887   -0.784606    3.365799
     39          1           0       -1.196016   -0.583027    4.368942
     40          1           0       -0.785276   -1.133621    2.715444
     41          1           0       -2.324706   -1.618674    3.445426
     42          6           0       -1.644264   -0.463368   -3.369793
     43          1           0       -0.768533   -0.772165   -2.769342
     44          1           0       -1.768032   -1.206756   -4.174925
     45          1           0       -1.420946    0.513280   -3.835706
     46          6           0        1.686767    0.242513    3.517817
     47          1           0        0.785858    0.638824    3.018318
     48          1           0        2.295036    1.107415    3.839569
     49          1           0        1.356147   -0.295767    4.421174
     50          6           0        1.370438    1.355110   -3.270883
     51          1           0        1.210360    0.391120   -3.782207
     52          1           0        0.506643    1.526146   -2.606408
     53          1           0        1.367682    2.151922   -4.034030
     54          6           0       -1.231995    3.167907    0.221180
     55          1           0       -2.321161    3.248135    0.170748
     56          6           0       -0.468751    4.334272    0.362294
     57          1           0       -0.968997    5.305425    0.430673
     58          6           0        0.929742    4.257263    0.416468
     59          1           0        1.528054    5.166835    0.529134
     60          6           0        1.562576    3.012345    0.315419
     61          1           0        2.655982    2.957750    0.349072
     62         17           0        1.644334   -3.034320   -0.314280
     63         46           0       -0.053762   -1.357368   -0.143498
 ---------------------------------------------------------------------
 Rotational constants (GHZ):      0.1671881      0.1380234      0.1203089
 General basis read from cards:  (5D, 7F)
 ======================================================================================================
                                       Pseudopotential Parameters
 ======================================================================================================
  Center     Atomic      Valence      Angular      Power
  Number     Number     Electrons     Momentum     of R      Exponent        Coefficient   SO-Coeffient
 ======================================================================================================
    1         17
                                   No pseudopotential on this center.
    2         15
                                   No pseudopotential on this center.
    3         15
                                   No pseudopotential on this center.
    4          6
                                   No pseudopotential on this center.
    5          6
                                   No pseudopotential on this center.
    6          6
                                   No pseudopotential on this center.
    7          1
                                   No pseudopotential on this center.
    8          6
                                   No pseudopotential on this center.
    9          1
                                   No pseudopotential on this center.
   10          6
                                   No pseudopotential on this center.
   11          1
                                   No pseudopotential on this center.
   12          6
                                   No pseudopotential on this center.
   13          1
                                   No pseudopotential on this center.
   14          6
                                   No pseudopotential on this center.
   15          1
                                   No pseudopotential on this center.
   16          1
                                   No pseudopotential on this center.
   17          6
                                   No pseudopotential on this center.
   18          1
                                   No pseudopotential on this center.
   19          1
                                   No pseudopotential on this center.
   20          6
                                   No pseudopotential on this center.
   21          1
                                   No pseudopotential on this center.
   22          1
                                   No pseudopotential on this center.
   23          6
                                   No pseudopotential on this center.
   24          1
                                   No pseudopotential on this center.
   25          1
                                   No pseudopotential on this center.
   26          6
                                   No pseudopotential on this center.
   27          1
                                   No pseudopotential on this center.
   28          1
                                   No pseudopotential on this center.
   29          6
                                   No pseudopotential on this center.
   30          1
                                   No pseudopotential on this center.
   31          1
                                   No pseudopotential on this center.
   32          6
                                   No pseudopotential on this center.
   33          1
                                   No pseudopotential on this center.
   34          1
                                   No pseudopotential on this center.
   35          6
                                   No pseudopotential on this center.
   36          1
                                   No pseudopotential on this center.
   37          1
                                   No pseudopotential on this center.
   38          6
                                   No pseudopotential on this center.
   39          1
                                   No pseudopotential on this center.
   40          1
                                   No pseudopotential on this center.
   41          1
                                   No pseudopotential on this center.
   42          6
                                   No pseudopotential on this center.
   43          1
                                   No pseudopotential on this center.
   44          1
                                   No pseudopotential on this center.
   45          1
                                   No pseudopotential on this center.
   46          6
                                   No pseudopotential on this center.
   47          1
                                   No pseudopotential on this center.
   48          1
                                   No pseudopotential on this center.
   49          1
                                   No pseudopotential on this center.
   50          6
                                   No pseudopotential on this center.
   51          1
                                   No pseudopotential on this center.
   52          1
                                   No pseudopotential on this center.
   53          1
                                   No pseudopotential on this center.
   54          6
                                   No pseudopotential on this center.
   55          1
                                   No pseudopotential on this center.
   56          6
                                   No pseudopotential on this center.
   57          1
                                   No pseudopotential on this center.
   58          6
                                   No pseudopotential on this center.
   59          1
                                   No pseudopotential on this center.
   60          6
                                   No pseudopotential on this center.
   61          1
                                   No pseudopotential on this center.
   62         17
                                   No pseudopotential on this center.
   63         46           18
                                      G and up 
                                                     2        1.0000000        0.00000000    0.00000000
                                      S - G
                                                     2       12.4300000      240.22904000    0.00000000
                                                     2        6.1707590       35.17194300    0.00000000
                                      P - G
                                                     2       11.0800000      170.41727600    0.00000000
                                                     2        5.8295540       28.47213300    0.00000000
                                      D - G
                                                     2        9.5100000       69.01384500    0.00000000
                                                     2        4.1397810       11.75086200    0.00000000
                                      F - G
                                                     2       13.2700000      -31.92955400    0.00000000
                                                     2        6.6300000       -5.39821700    0.00000000
 ======================================================================================================
 There are  1215 symmetry adapted cartesian basis functions of A   symmetry.
 There are  1082 symmetry adapted basis functions of A   symmetry.
  1082 basis functions,  1751 primitive gaussians,  1215 cartesian basis functions
   125 alpha electrons      125 beta electrons
       nuclear repulsion energy      4031.9391443302 Hartrees.
 NAtoms=   63 NActive=   63 NUniq=   63 SFac= 1.00D+00 NAtFMM=   60 NAOKFM=T Big=T
 Integral buffers will be    131072 words long.
 Raffenetti 2 integral format.
 Two-electron integral symmetry is turned on.
 Nuclear repulsion after empirical dispersion term =     4031.8350949449 Hartrees.
 One-electron integrals computed using PRISM.
   1 Symmetry operations used in ECPInt.
 ECPInt:  NShTT=  102378 NPrTT=  309252 LenC2=   90207 LenP2D=  189756.
 LDataN:  DoStor=T MaxTD1= 7 Len=  274
 NBasis=  1082 RedAO= T EigKep=  5.29D-06  NBF=  1082
 NBsUse=  1082 1.00D-06 EigRej= -1.00D+00 NBFU=  1082
 Defaulting to unpruned grid for atomic number  46.
 ExpMin= 1.60D-02 ExpMax= 6.95D+04 ExpMxC= 2.37D+03 IAcc=3 IRadAn=         5 AccDes= 0.00D+00
 Harris functional with IExCor= 1009 and IRadAn=       5 diagonalized for initial guess.
 HarFok:  IExCor= 1009 AccDes= 0.00D+00 IRadAn=         5 IDoV= 1 UseB2=F ITyADJ=14
 ICtDFT=  3500011 ScaDFX=  1.000000  1.000000  1.000000  1.000000
 Defaulting to unpruned grid for atomic number  46.
 Defaulting to unpruned grid for atomic number  46.
 Defaulting to unpruned grid for atomic number  46.
 Defaulting to unpruned grid for atomic number  46.
 Defaulting to unpruned grid for atomic number  46.
 Defaulting to unpruned grid for atomic number  46.
 Defaulting to unpruned grid for atomic number  46.
 Defaulting to unpruned grid for atomic number  46.
 Defaulting to unpruned grid for atomic number  46.
 Defaulting to unpruned grid for atomic number  46.
 Defaulting to unpruned grid for atomic number  46.
 Defaulting to unpruned grid for atomic number  46.
 Defaulting to unpruned grid for atomic number  46.
 Defaulting to unpruned grid for atomic number  46.
 FoFCou: FMM=F IPFlag=           0 FMFlag=      100000 FMFlg1=        2001
         NFxFlg=           0 DoJE=T BraDBF=F KetDBF=T FulRan=T
         wScrn=  0.000000 ICntrl=     500 IOpCl=  0 I1Cent=   200000004 NGrid=           0
         NMat0=    1 NMatS0=      1 NMatT0=    0 NMatD0=    1 NMtDS0=    0 NMtDT0=    0
 Petite list used in FoFCou.
 Requested convergence on RMS density matrix=1.00D-08 within 128 cycles.
 Requested convergence on MAX density matrix=1.00D-06.
 Requested convergence on             energy=1.00D-06.
 No special actions if energy rises.
 Defaulting to unpruned grid for atomic number  46.
 Defaulting to unpruned grid for atomic number  46.
 Defaulting to unpruned grid for atomic number  46.
 Defaulting to unpruned grid for atomic number  46.
 Defaulting to unpruned grid for atomic number  46.
 Defaulting to unpruned grid for atomic number  46.
 Defaulting to unpruned grid for atomic number  46.
 Defaulting to unpruned grid for atomic number  46.
 Defaulting to unpruned grid for atomic number  46.
 Defaulting to unpruned grid for atomic number  46.
 Defaulting to unpruned grid for atomic number  46.
 Defaulting to unpruned grid for atomic number  46.
 Defaulting to unpruned grid for atomic number  46.
 Defaulting to unpruned grid for atomic number  46.
 EnCoef did     2 forward-backward iterations
 EnCoef did   100 forward-backward iterations
 SCF Done:  E(RPBE1PBE) =  -2590.03845139     A.U. after   17 cycles
            NFock= 17  Conv=0.94D-08     -V/T= 2.0353
 DoSCS=F DFT=T ScalE2(SS,OS)=  1.000000  1.000000
 Range of M.O.s used for correlation:     1  1082
 NBasis=  1082 NAE=   125 NBE=   125 NFC=     0 NFV=     0
 NROrb=   1082 NOA=   125 NOB=   125 NVA=   957 NVB=   957

 **** Warning!!: The largest alpha MO coefficient is  0.41818691D+02

          Differentiating once with respect to magnetic field using GIAOs.
          Electric field/nuclear overlap derivatives assumed to be zero.
 Defaulting to unpruned grid for atomic number  46.
 FoFCou: FMM=F IPFlag=           0 FMFlag=      100000 FMFlg1=        2001
         NFxFlg=           0 DoJE=F BraDBF=F KetDBF=T FulRan=T
         wScrn=  0.000000 ICntrl=    6100 IOpCl=  0 I1Cent=           7 NGrid=          63
         NMat0=    1 NMatS0=      1 NMatT0=    0 NMatD0=    1 NMtDS0=    0 NMtDT0=    0
 Symmetry not used in FoFCou.
   1 Symmetry operations used in ECPInt.
 ECPInt:  NShTT=  102378 NPrTT=  309252 LenC2=  102379 LenP2D=  309252.
 LDataN:  DoStor=T MaxTD1= 8 Len=  415
 FoFJK:  IHMeth= 1 ICntrl=    6127 DoSepK=F KAlg= 0 I1Cent=   0 FoldK=F
 IRaf=         1 NMat=   1 IRICut=       1 DoRegI=T DoRafI=F ISym2E= 0.
 Defaulting to unpruned grid for atomic number  46.
 Defaulting to unpruned grid for atomic number  46.
 Defaulting to unpruned grid for atomic number  46.
 Defaulting to unpruned grid for atomic number  46.
 Defaulting to unpruned grid for atomic number  46.
 Defaulting to unpruned grid for atomic number  46.
 Defaulting to unpruned grid for atomic number  46.
 Defaulting to unpruned grid for atomic number  46.
 Defaulting to unpruned grid for atomic number  46.
 Defaulting to unpruned grid for atomic number  46.
 Defaulting to unpruned grid for atomic number  46.
 Defaulting to unpruned grid for atomic number  46.
 Defaulting to unpruned grid for atomic number  46.
 Defaulting to unpruned grid for atomic number  46.
          There are     3 degrees of freedom in the 1st order CPHF.  IDoFFX=0 NUNeed=     3.
      3 vectors produced by pass  0 Test12= 3.99D-12 3.33D-08 XBig12= 8.76D+01 1.75D+00.
 AX will form     3 AO Fock derivatives at one time.
      3 vectors produced by pass  1 Test12= 3.99D-12 3.33D-08 XBig12= 3.43D-01 1.64D-01.
      3 vectors produced by pass  2 Test12= 3.99D-12 3.33D-08 XBig12= 5.27D-03 3.66D-02.
      3 vectors produced by pass  3 Test12= 3.99D-12 3.33D-08 XBig12= 9.27D-05 4.70D-03.
      3 vectors produced by pass  4 Test12= 3.99D-12 3.33D-08 XBig12= 4.88D-07 1.47D-04.
      3 vectors produced by pass  5 Test12= 3.99D-12 3.33D-08 XBig12= 1.49D-09 1.13D-05.
      3 vectors produced by pass  6 Test12= 3.99D-12 3.33D-08 XBig12= 8.67D-12 1.42D-06.
      3 vectors produced by pass  7 Test12= 3.99D-12 3.33D-08 XBig12= 7.37D-14 1.27D-07.
 InvSVY:  IOpt=1 It=  1 EMax= 3.55D-15
 Solved reduced A of dimension    24 with     3 vectors.
 Calculating GIAO nuclear magnetic shielding tensors.
 SCF GIAO Magnetic shielding tensor (ppm):
      1  Cl   Isotropic =   957.7258   Anisotropy =   471.5407
   XX=   762.7426   YX=    98.6532   ZX=   -59.1163
   XY=   158.6199   YY=   840.6460   ZY=   -33.2033
   XZ=     4.9536   YZ=    83.8772   ZZ=  1269.7888
   Eigenvalues:   665.0445   936.0467  1272.0863
      2  P    Isotropic =   189.8291   Anisotropy =   141.7481
   XX=   232.2640   YX=   -50.1969   ZX=     0.4564
   XY=   -29.5922   YY=   245.1883   ZY=    41.1852
   XZ=     3.4675   YZ=    42.9953   ZZ=    92.0351
   Eigenvalues:    80.2578   204.9017   284.3279
      3  P    Isotropic =   183.0535   Anisotropy =   164.3016
   XX=   232.0765   YX=    47.2106   ZX=    10.5750
   XY=    67.8911   YY=   237.0210   ZY=   -24.6505
   XZ=    -2.0049   YZ=   -10.0697   ZZ=    80.0629
   Eigenvalues:    77.3460   179.2266   292.5879
      4  C    Isotropic =    30.2312   Anisotropy =   177.8513
   XX=   -22.3147   YX=   -29.7569   ZX=    -5.4495
   XY=   -29.9335   YY=   -32.1815   ZY=   -18.0185
   XZ=     6.1917   YZ=   -32.2199   ZZ=   145.1897
   Eigenvalues:   -59.2865     1.1813   148.7987
      5  C    Isotropic =    32.0300   Anisotropy =   180.2147
   XX=   -14.3245   YX=    30.3891   ZX=     1.5289
   XY=    27.8248   YY=   -40.5085   ZY=   -20.8510
   XZ=    15.9287   YZ=    -6.5867   ZZ=   150.9230
   Eigenvalues:   -60.5823     4.4992   152.1731
      6  C    Isotropic =   131.6474   Anisotropy =    18.2534
   XX=   139.6296   YX=    -9.1096   ZX=     3.7496
   XY=    -9.6826   YY=   114.2938   ZY=    -7.2118
   XZ=    -2.8404   YZ=    -0.3772   ZZ=   141.0189
   Eigenvalues:   110.7922   140.3337   143.8164
      7  H    Isotropic =    27.5108   Anisotropy =     4.8895
   XX=    26.5495   YX=    -0.5497   ZX=    -1.7038
   XY=    -1.2692   YY=    30.4426   ZY=    -0.0279
   XZ=    -1.5560   YZ=     0.8834   ZZ=    25.5402
   Eigenvalues:    24.3321    27.4298    30.7704
      8  C    Isotropic =   128.0217   Anisotropy =    31.0633
   XX=   139.8070   YX=   -10.0854   ZX=     8.8344
   XY=   -11.3674   YY=   109.1651   ZY=     6.3255
   XZ=    11.2292   YZ=     1.9241   ZZ=   135.0932
   Eigenvalues:   104.1285   131.2061   148.7306
      9  H    Isotropic =    29.0275   Anisotropy =     4.7075
   XX=    28.0502   YX=    -0.4399   ZX=    -0.2198
   XY=    -0.6103   YY=    30.6966   ZY=    -3.0867
   XZ=     2.9840   YZ=    -0.9056   ZZ=    28.3356
   Eigenvalues:    26.5129    28.4037    32.1658
     10  C    Isotropic =   124.6370   Anisotropy =    18.4064
   XX=   131.6092   YX=    -0.4125   ZX=    -7.5055
   XY=    -8.4415   YY=   108.4801   ZY=     8.4489
   XZ=     1.5991   YZ=    -1.4479   ZZ=   133.8218
   Eigenvalues:   107.3369   129.6663   136.9080
     11  H    Isotropic =    29.0919   Anisotropy =     5.2509
   XX=    28.5859   YX=     1.8868   ZX=     0.8339
   XY=     1.6616   YY=    30.1081   ZY=     2.6300
   XZ=     2.2470   YZ=     0.8254   ZZ=    28.5816
   Eigenvalues:    27.0424    27.6407    32.5925
     12  C    Isotropic =   132.9827   Anisotropy =    26.3910
   XX=   146.6359   YX=    -5.3675   ZX=    -4.7271
   XY=    -5.1879   YY=   111.0141   ZY=   -14.4193
   XZ=    -6.7576   YZ=   -11.8436   ZZ=   141.2980
   Eigenvalues:   104.9454   143.4260   150.5766
     13  H    Isotropic =    27.6439   Anisotropy =     3.4324
   XX=    27.0230   YX=     1.5687   ZX=    -1.5283
   XY=     2.4362   YY=    28.5230   ZY=     0.9213
   XZ=    -2.0866   YZ=     1.1475   ZZ=    27.3857
   Eigenvalues:    24.2566    28.7429    29.9322
     14  C    Isotropic =   147.4785   Anisotropy =    26.1574
   XX=   153.7345   YX=   -13.2518   ZX=     9.1923
   XY=   -17.0710   YY=   125.9196   ZY=     0.1277
   XZ=    -1.8046   YZ=     1.6728   ZZ=   162.7814
   Eigenvalues:   119.1302   158.3886   164.9168
     15  H    Isotropic =    29.3029   Anisotropy =    11.5722
   XX=    34.5007   YX=    -0.9496   ZX=    -4.1062
   XY=    -1.2135   YY=    24.4764   ZY=     0.4080
   XZ=    -4.7349   YZ=    -0.2621   ZZ=    28.9315
   Eigenvalues:    24.3039    26.5871    37.0176
     16  H    Isotropic =    29.3130   Anisotropy =     8.3474
   XX=    28.6605   YX=    -2.1765   ZX=    -0.2062
   XY=    -2.3511   YY=    33.5736   ZY=     2.1393
   XZ=    -0.9629   YZ=     1.6194   ZZ=    25.7047
   Eigenvalues:    25.2771    27.7838    34.8779
     17  C    Isotropic =   148.1588   Anisotropy =    28.0566
   XX=   161.4931   YX=    -4.2227   ZX=    -9.4347
   XY=     0.2546   YY=   123.7473   ZY=    13.0376
   XZ=    -0.8548   YZ=     4.5489   ZZ=   159.2361
   Eigenvalues:   121.6733   155.9399   166.8632
     18  H    Isotropic =    29.0712   Anisotropy =    11.5195
   XX=    32.6314   YX=    -5.0799   ZX=     2.7427
   XY=    -4.7795   YY=    26.9645   ZY=    -1.4289
   XZ=     3.1665   YZ=    -1.9429   ZZ=    27.6178
   Eigenvalues:    24.1118    26.3509    36.7509
     19  H    Isotropic =    29.5381   Anisotropy =     7.8821
   XX=    33.0980   YX=     3.4060   ZX=     0.1507
   XY=     2.9837   YY=    28.1720   ZY=     2.0467
   XZ=    -0.0392   YZ=     1.9639   ZZ=    27.3442
   Eigenvalues:    25.1223    28.6992    34.7928
     20  C    Isotropic =   148.2246   Anisotropy =    23.0316
   XX=   158.4946   YX=    -7.6293   ZX=    -8.5372
   XY=   -15.5911   YY=   127.7888   ZY=   -10.0476
   XZ=    -1.5510   YZ=   -10.3710   ZZ=   158.3905
   Eigenvalues:   120.5257   160.5692   163.5790
     21  H    Isotropic =    29.5422   Anisotropy =    11.8367
   XX=    35.6707   YX=    -0.8743   ZX=     3.7611
   XY=    -1.2220   YY=    24.5118   ZY=    -1.3062
   XZ=     3.7998   YZ=    -0.7821   ZZ=    28.4443
   Eigenvalues:    24.2504    26.9430    37.4334
     22  H    Isotropic =    27.9912   Anisotropy =     5.7062
   XX=    29.4005   YX=     0.3080   ZX=     0.6285
   XY=     0.3045   YY=    31.6834   ZY=     0.6113
   XZ=     0.3400   YZ=     0.8666   ZZ=    22.8898
   Eigenvalues:    22.7964    29.3819    31.7954
     23  C    Isotropic =   145.4210   Anisotropy =    24.6148
   XX=   155.1954   YX=    -2.7088   ZX=    10.7650
   XY=     4.5332   YY=   129.0290   ZY=   -17.9150
   XZ=    -0.6824   YZ=   -11.3869   ZZ=   152.0385
   Eigenvalues:   121.6293   152.8028   161.8308
     24  H    Isotropic =    29.0564   Anisotropy =    11.1041
   XX=    33.5100   YX=    -2.4724   ZX=    -4.1610
   XY=    -2.1322   YY=    25.1576   ZY=     0.3132
   XZ=    -4.4288   YZ=     1.0267   ZZ=    28.5017
   Eigenvalues:    24.4794    26.2307    36.4592
     25  H    Isotropic =    29.9180   Anisotropy =     9.0260
   XX=    32.4521   YX=     4.5061   ZX=     0.7443
   XY=     4.1738   YY=    30.5113   ZY=    -1.3103
   XZ=     0.6522   YZ=    -1.2036   ZZ=    26.7905
   Eigenvalues:    25.4868    28.3318    35.9353
     26  C    Isotropic =   161.0282   Anisotropy =    21.2156
   XX=   156.4076   YX=    -6.4488   ZX=     7.0844
   XY=    -6.3138   YY=   154.9286   ZY=     0.1251
   XZ=     7.0235   YZ=    -2.7967   ZZ=   171.7485
   Eigenvalues:   148.5740   159.3387   175.1720
     27  H    Isotropic =    30.4077   Anisotropy =     2.9601
   XX=    28.8331   YX=     2.0474   ZX=     0.6239
   XY=     2.3485   YY=    30.9699   ZY=     1.3160
   XZ=    -2.3066   YZ=    -0.6622   ZZ=    31.4201
   Eigenvalues:    27.2681    31.5739    32.3811
     28  H    Isotropic =    29.8593   Anisotropy =    11.0036
   XX=    30.5736   YX=    -3.8329   ZX=    -3.5008
   XY=    -4.3613   YY=    25.9361   ZY=     1.6395
   XZ=    -4.7500   YZ=     0.6252   ZZ=    33.0682
   Eigenvalues:    23.3938    28.9891    37.1950
     29  C    Isotropic =   155.0506   Anisotropy =    22.1417
   XX=   156.8780   YX=     3.9259   ZX=    -5.2919
   XY=     1.1404   YY=   147.3293   ZY=    12.4431
   XZ=    -7.1219   YZ=    12.7450   ZZ=   160.9445
   Eigenvalues:   138.2370   157.1031   169.8118
     30  H    Isotropic =    29.8861   Anisotropy =    11.0033
   XX=    33.3527   YX=    -1.4443   ZX=     4.3223
   XY=    -0.8234   YY=    24.1439   ZY=     1.6268
   XZ=     4.5142   YZ=     1.8188   ZZ=    32.1617
   Eigenvalues:    23.3026    29.1341    37.2216
     31  H    Isotropic =    28.2607   Anisotropy =     5.7160
   XX=    26.3333   YX=     1.4507   ZX=     1.7970
   XY=     0.7728   YY=    30.4574   ZY=    -2.4666
   XZ=     2.8979   YZ=    -2.6206   ZZ=    27.9913
   Eigenvalues:    23.7801    28.9306    32.0714
     32  C    Isotropic =   157.8282   Anisotropy =    20.9257
   XX=   152.7214   YX=    -1.8770   ZX=    -4.3439
   XY=    -1.4009   YY=   151.8037   ZY=    -5.6622
   XZ=    -3.5462   YZ=    -7.6207   ZZ=   168.9596
   Eigenvalues:   147.7648   153.9411   171.7787
     33  H    Isotropic =    29.6670   Anisotropy =    10.6813
   XX=    31.5315   YX=    -3.7780   ZX=     2.9666
   XY=    -4.1548   YY=    25.5788   ZY=    -2.1066
   XZ=     3.6732   YZ=    -2.4765   ZZ=    31.8907
   Eigenvalues:    23.5488    28.6644    36.7879
     34  H    Isotropic =    28.4487   Anisotropy =     6.1071
   XX=    26.6257   YX=     1.9498   ZX=     2.3455
   XY=     2.5741   YY=    28.9848   ZY=     1.6852
   XZ=     2.5273   YZ=     0.7996   ZZ=    29.7356
   Eigenvalues:    24.7405    28.0855    32.5201
     35  C    Isotropic =   156.1909   Anisotropy =    25.4071
   XX=   156.3320   YX=     1.3732   ZX=     9.4795
   XY=    -2.5971   YY=   151.7738   ZY=   -11.6019
   XZ=    10.1507   YZ=   -11.9948   ZZ=   160.4669
   Eigenvalues:   141.4254   154.0183   173.1290
     36  H    Isotropic =    30.1289   Anisotropy =     5.4923
   XX=    28.0493   YX=     2.2876   ZX=     0.6166
   XY=     2.5670   YY=    32.7464   ZY=     0.2638
   XZ=    -3.4167   YZ=     1.4448   ZZ=    29.5909
   Eigenvalues:    26.2343    30.3618    33.7904
     37  H    Isotropic =    29.7311   Anisotropy =    11.0821
   XX=    32.6853   YX=     0.1480   ZX=    -4.0850
   XY=     0.9689   YY=    24.5762   ZY=    -3.2838
   XZ=    -4.5925   YZ=    -2.4770   ZZ=    31.9318
   Eigenvalues:    23.4742    28.6000    37.1191
     38  C    Isotropic =   166.1114   Anisotropy =    15.3538
   XX=   163.3645   YX=    -1.3864   ZX=     8.4575
   XY=    -4.9547   YY=   165.9055   ZY=    -5.4033
   XZ=     3.8654   YZ=    -4.5704   ZZ=   169.0641
   Eigenvalues:   159.4257   162.5612   176.3472
     39  H    Isotropic =    30.5932   Anisotropy =    10.7471
   XX=    29.3349   YX=     0.1275   ZX=     2.9924
   XY=    -0.3695   YY=    25.6608   ZY=    -1.4409
   XZ=     2.1421   YZ=    -1.5294   ZZ=    36.7840
   Eigenvalues:    25.4521    28.5696    37.7579
     40  H    Isotropic =    29.3861   Anisotropy =     9.1271
   XX=    30.9811   YX=    -2.4075   ZX=    -3.3990
   XY=    -2.6950   YY=    24.4689   ZY=     1.3828
   XZ=    -3.0343   YZ=    -0.8555   ZZ=    32.7084
   Eigenvalues:    23.5087    29.1788    35.4709
     41  H    Isotropic =    30.2358   Anisotropy =     8.8935
   XX=    28.8184   YX=     2.8857   ZX=    -1.8326
   XY=     3.5216   YY=    31.7919   ZY=    -2.6281
   XZ=    -2.2311   YZ=    -3.6953   ZZ=    30.0971
   Eigenvalues:    26.7732    27.7694    36.1648
     42  C    Isotropic =   165.3603   Anisotropy =    17.3038
   XX=   171.3725   YX=    -1.3621   ZX=    -8.6271
   XY=     1.7410   YY=   157.5799   ZY=    -0.1989
   XZ=    -6.0513   YZ=     1.8201   ZZ=   167.1284
   Eigenvalues:   157.4351   161.7495   176.8961
     43  H    Isotropic =    29.1669   Anisotropy =    10.5410
   XX=    31.7019   YX=    -1.4913   ZX=     4.1267
   XY=    -1.4572   YY=    22.9463   ZY=    -2.2370
   XZ=     3.0253   YZ=    -0.4439   ZZ=    32.8525
   Eigenvalues:    22.6410    28.6654    36.1943
     44  H    Isotropic =    30.1439   Anisotropy =    11.5155
   XX=    27.2138   YX=     0.0206   ZX=    -0.3785
   XY=     0.2619   YY=    28.1650   ZY=     4.8090
   XZ=     0.3470   YZ=     5.5302   ZZ=    35.0528
   Eigenvalues:    25.3877    27.2231    37.8209
     45  H    Isotropic =    31.0362   Anisotropy =     7.1527
   XX=    30.4741   YX=     2.8950   ZX=    -1.2051
   XY=     1.9039   YY=    29.5045   ZY=    -3.7723
   XZ=    -0.3164   YZ=    -2.8628   ZZ=    33.1298
   Eigenvalues:    26.6997    30.6042    35.8046
     46  C    Isotropic =   166.5413   Anisotropy =    20.3920
   XX=   165.5168   YX=     1.2316   ZX=   -11.8625
   XY=    -3.9337   YY=   161.4359   ZY=     5.8317
   XZ=    -6.9899   YZ=     2.5774   ZZ=   172.6712
   Eigenvalues:   158.2981   161.1898   180.1360
     47  H    Isotropic =    31.1850   Anisotropy =     7.7377
   XX=    34.7706   YX=    -1.7439   ZX=     1.7727
   XY=    -2.1826   YY=    26.2075   ZY=     0.6880
   XZ=     2.2678   YZ=    -1.6461   ZZ=    32.5769
   Eigenvalues:    25.7786    31.4329    36.3434
     48  H    Isotropic =    31.0097   Anisotropy =     9.6385
   XX=    29.0599   YX=     2.2012   ZX=     1.7357
   XY=     2.8495   YY=    31.3097   ZY=     4.1500
   XZ=     3.2675   YZ=     3.6391   ZZ=    32.6595
   Eigenvalues:    27.4199    28.1738    37.4354
     49  H    Isotropic =    30.4325   Anisotropy =    10.7925
   XX=    28.9335   YX=     1.2389   ZX=    -2.6169
   XY=     0.5482   YY=    25.7266   ZY=    -1.1743
   XZ=    -1.7214   YZ=    -2.9844   ZZ=    36.6375
   Eigenvalues:    25.2703    28.3997    37.6275
     50  C    Isotropic =   168.1113   Anisotropy =    19.3772
   XX=   175.5958   YX=     0.4871   ZX=    10.7318
   XY=     2.7703   YY=   161.2132   ZY=    -2.9303
   XZ=     6.3830   YZ=    -0.7396   ZZ=   167.5249
   Eigenvalues:   159.1900   164.1145   181.0294
     51  H    Isotropic =    30.6141   Anisotropy =     6.6046
   XX=    29.7846   YX=     3.2002   ZX=     1.4598
   XY=     2.3415   YY=    29.1957   ZY=     1.4539
   XZ=     0.6246   YZ=     3.2665   ZZ=    32.8621
   Eigenvalues:    26.4967    30.3285    35.0172
     52  H    Isotropic =    31.6203   Anisotropy =     8.3716
   XX=    34.5965   YX=     0.0458   ZX=    -2.7171
   XY=     0.5226   YY=    25.5878   ZY=    -2.3429
   XZ=    -2.3510   YZ=     1.2335   ZZ=    34.6766
   Eigenvalues:    25.5521    32.1074    37.2014
     53  H    Isotropic =    30.9203   Anisotropy =    11.7975
   XX=    28.1115   YX=    -0.5406   ZX=     1.7184
   XY=     0.2187   YY=    29.6717   ZY=    -6.0528
   XZ=     0.3728   YZ=    -5.5362   ZZ=    34.9776
   Eigenvalues:    25.8669    28.1088    38.7853
     54  C    Isotropic =    45.0668   Anisotropy =   183.3977
   XX=   -61.2838   YX=    13.1988   ZX=   -13.9925
   XY=    11.8321   YY=    30.3069   ZY=   -12.9607
   XZ=   -13.4147   YZ=     0.9818   ZZ=   166.1774
   Eigenvalues:   -63.6763    31.5448   167.3320
     55  H    Isotropic =    23.3390   Anisotropy =    12.2290
   XX=    21.1057   YX=     1.7235   ZX=    -0.4703
   XY=     0.8956   YY=    31.3260   ZY=     0.6552
   XZ=    -0.2692   YZ=    -0.7422   ZZ=    17.5854
   Eigenvalues:    17.5463    20.9790    31.4917
     56  C    Isotropic =    48.9755   Anisotropy =   190.1657
   XX=    12.6573   YX=    38.4391   ZX=    -3.8473
   XY=    41.6832   YY=   -39.8370   ZY=   -18.8305
   XZ=    -4.6919   YZ=   -14.6101   ZZ=   174.1063
   Eigenvalues:   -62.1683    33.3422   175.7526
     57  H    Isotropic =    23.6075   Anisotropy =     5.6078
   XX=    25.4975   YX=     1.6760   ZX=     0.2834
   XY=     1.7118   YY=    25.6948   ZY=     0.5959
   XZ=     0.2025   YZ=     0.7032   ZZ=    19.6301
   Eigenvalues:    19.5606    23.9158    27.3460
     58  C    Isotropic =    49.7694   Anisotropy =   189.9501
   XX=     4.7321   YX=   -41.7577   ZX=   -11.0441
   XY=   -43.8801   YY=   -29.1811   ZY=   -21.4177
   XZ=    -9.6373   YZ=   -23.4508   ZZ=   173.7572
   Eigenvalues:   -60.8119    33.7173   176.4028
     59  H    Isotropic =    23.5975   Anisotropy =     5.5158
   XX=    25.0208   YX=    -1.6253   ZX=    -0.0287
   XY=    -1.5902   YY=    26.0683   ZY=     0.6731
   XZ=    -0.0122   YZ=     0.6402   ZZ=    19.7034
   Eigenvalues:    19.6323    23.8856    27.2747
     60  C    Isotropic =    46.0206   Anisotropy =   185.0569
   XX=   -63.4784   YX=     0.7073   ZX=   -12.0539
   XY=    -2.2811   YY=    34.6808   ZY=   -12.5934
   XZ=    -9.9593   YZ=   -20.4096   ZZ=   166.8593
   Eigenvalues:   -64.0284    32.6984   169.3918
     61  H    Isotropic =    23.5398   Anisotropy =    11.2118
   XX=    20.3279   YX=     0.5452   ZX=     0.2205
   XY=     1.0524   YY=    30.6311   ZY=     1.4825
   XZ=     0.3172   YZ=     2.3090   ZZ=    19.6602
   Eigenvalues:    19.3232    20.2818    31.0143
     62  Cl   Isotropic =  1001.4011   Anisotropy =   547.0639
   XX=   760.1563   YX=   -94.7938   ZX=   -51.3841
   XY=  -135.9410   YY=   887.3135   ZY=   -19.6284
   XZ=    -0.8914   YZ=  -113.1032   ZZ=  1356.7333
   Eigenvalues:   687.2299   950.8630  1366.1103
     63  Pd   Isotropic =  -121.3915   Anisotropy =   218.5791
   XX=   -15.9160   YX=    -3.8118   ZX=    20.9299
   XY=    -6.4620   YY=    22.4469   ZY=    22.8117
   XZ=    -2.7557   YZ=    23.3942   ZZ=  -370.7056
   Eigenvalues:  -372.3050   -16.1975    24.3278
 End of Minotr F.D. properties file   721 does not exist.
 End of Minotr F.D. properties file   722 does not exist.
 End of Minotr F.D. properties file   788 does not exist.

 **********************************************************************

            Population analysis using the SCF density.

 **********************************************************************

 Orbital symmetries:
       Occupied  (A) (A) (A) (A) (A) (A) (A) (A) (A) (A) (A) (A)
                 (A) (A) (A) (A) (A) (A) (A) (A) (A) (A) (A) (A)
                 (A) (A) (A) (A) (A) (A) (A) (A) (A) (A) (A) (A)
                 (A) (A) (A) (A) (A) (A) (A) (A) (A) (A) (A) (A)
                 (A) (A) (A) (A) (A) (A) (A) (A) (A) (A) (A) (A)
                 (A) (A) (A) (A) (A) (A) (A) (A) (A) (A) (A) (A)
                 (A) (A) (A) (A) (A) (A) (A) (A) (A) (A) (A) (A)
                 (A) (A) (A) (A) (A) (A) (A) (A) (A) (A) (A) (A)
                 (A) (A) (A) (A) (A) (A) (A) (A) (A) (A) (A) (A)
                 (A) (A) (A) (A) (A) (A) (A) (A) (A) (A) (A) (A)
                 (A) (A) (A) (A) (A)
       Virtual   (A) (A) (A) (A) (A) (A) (A) (A) (A) (A) (A) (A)
                 (A) (A) (A) (A) (A) (A) (A) (A) (A) (A) (A) (A)
                 (A) (A) (A) (A) (A) (A) (A) (A) (A) (A) (A) (A)
                 (A) (A) (A) (A) (A) (A) (A) (A) (A) (A) (A) (A)
                 (A) (A) (A) (A) (A) (A) (A) (A) (A) (A) (A) (A)
                 (A) (A) (A) (A) (A) (A) (A) (A) (A) (A) (A) (A)
                 (A) (A) (A) (A) (A) (A) (A) (A) (A) (A) (A) (A)
                 (A) (A) (A) (A) (A) (A) (A) (A) (A) (A) (A) (A)
                 (A) (A) (A) (A) (A) (A) (A) (A) (A) (A) (A) (A)
                 (A) (A) (A) (A) (A) (A) (A) (A) (A) (A) (A) (A)
                 (A) (A) (A) (A) (A) (A) (A) (A) (A) (A) (A) (A)
                 (A) (A) (A) (A) (A) (A) (A) (A) (A) (A) (A) (A)
                 (A) (A) (A) (A) (A) (A) (A) (A) (A) (A) (A) (A)
                 (A) (A) (A) (A) (A) (A) (A) (A) (A) (A) (A) (A)
                 (A) (A) (A) (A) (A) (A) (A) (A) (A) (A) (A) (A)
                 (A) (A) (A) (A) (A) (A) (A) (A) (A) (A) (A) (A)
                 (A) (A) (A) (A) (A) (A) (A) (A) (A) (A) (A) (A)
                 (A) (A) (A) (A) (A) (A) (A) (A) (A) (A) (A) (A)
                 (A) (A) (A) (A) (A) (A) (A) (A) (A) (A) (A) (A)
                 (A) (A) (A) (A) (A) (A) (A) (A) (A) (A) (A) (A)
                 (A) (A) (A) (A) (A) (A) (A) (A) (A) (A) (A) (A)
                 (A) (A) (A) (A) (A) (A) (A) (A) (A) (A) (A) (A)
                 (A) (A) (A) (A) (A) (A) (A) (A) (A) (A) (A) (A)
                 (A) (A) (A) (A) (A) (A) (A) (A) (A) (A) (A) (A)
                 (A) (A) (A) (A) (A) (A) (A) (A) (A) (A) (A) (A)
                 (A) (A) (A) (A) (A) (A) (A) (A) (A) (A) (A) (A)
                 (A) (A) (A) (A) (A) (A) (A) (A) (A) (A) (A) (A)
                 (A) (A) (A) (A) (A) (A) (A) (A) (A) (A) (A) (A)
                 (A) (A) (A) (A) (A) (A) (A) (A) (A) (A) (A) (A)
                 (A) (A) (A) (A) (A) (A) (A) (A) (A) (A) (A) (A)
                 (A) (A) (A) (A) (A) (A) (A) (A) (A) (A) (A) (A)
                 (A) (A) (A) (A) (A) (A) (A) (A) (A) (A) (A) (A)
                 (A) (A) (A) (A) (A) (A) (A) (A) (A) (A) (A) (A)
                 (A) (A) (A) (A) (A) (A) (A) (A) (A) (A) (A) (A)
                 (A) (A) (A) (A) (A) (A) (A) (A) (A) (A) (A) (A)
                 (A) (A) (A) (A) (A) (A) (A) (A) (A) (A) (A) (A)
                 (A) (A) (A) (A) (A) (A) (A) (A) (A) (A) (A) (A)
                 (A) (A) (A) (A) (A) (A) (A) (A) (A) (A) (A) (A)
                 (A) (A) (A) (A) (A) (A) (A) (A) (A) (A) (A) (A)
                 (A) (A) (A) (A) (A) (A) (A) (A) (A) (A) (A) (A)
                 (A) (A) (A) (A) (A) (A) (A) (A) (A) (A) (A) (A)
                 (A) (A) (A) (A) (A) (A) (A) (A) (A) (A) (A) (A)
                 (A) (A) (A) (A) (A) (A) (A) (A) (A) (A) (A) (A)
                 (A) (A) (A) (A) (A) (A) (A) (A) (A) (A) (A) (A)
                 (A) (A) (A) (A) (A) (A) (A) (A) (A) (A) (A) (A)
                 (A) (A) (A) (A) (A) (A) (A) (A) (A) (A) (A) (A)
                 (A) (A) (A) (A) (A) (A) (A) (A) (A) (A) (A) (A)
                 (A) (A) (A) (A) (A) (A) (A) (A) (A) (A) (A) (A)
                 (A) (A) (A) (A) (A) (A) (A) (A) (A) (A) (A) (A)
                 (A) (A) (A) (A) (A) (A) (A) (A) (A) (A) (A) (A)
                 (A) (A) (A) (A) (A) (A) (A) (A) (A) (A) (A) (A)
                 (A) (A) (A) (A) (A) (A) (A) (A) (A) (A) (A) (A)
                 (A) (A) (A) (A) (A) (A) (A) (A) (A) (A) (A) (A)
                 (A) (A) (A) (A) (A) (A) (A) (A) (A) (A) (A) (A)
                 (A) (A) (A) (A) (A) (A) (A) (A) (A) (A) (A) (A)
                 (A) (A) (A) (A) (A) (A) (A) (A) (A) (A) (A) (A)
                 (A) (A) (A) (A) (A) (A) (A) (A) (A) (A) (A) (A)
                 (A) (A) (A) (A) (A) (A) (A) (A) (A) (A) (A) (A)
                 (A) (A) (A) (A) (A) (A) (A) (A) (A) (A) (A) (A)
                 (A) (A) (A) (A) (A) (A) (A) (A) (A) (A) (A) (A)
                 (A) (A) (A) (A) (A) (A) (A) (A) (A) (A) (A) (A)
                 (A) (A) (A) (A) (A) (A) (A) (A) (A) (A) (A) (A)
                 (A) (A) (A) (A) (A) (A) (A) (A) (A) (A) (A) (A)
                 (A) (A) (A) (A) (A) (A) (A) (A) (A) (A) (A) (A)
                 (A) (A) (A) (A) (A) (A) (A) (A) (A) (A) (A) (A)
                 (A) (A) (A) (A) (A) (A) (A) (A) (A) (A) (A) (A)
                 (A) (A) (A) (A) (A) (A) (A) (A) (A) (A) (A) (A)
                 (A) (A) (A) (A) (A) (A) (A) (A) (A) (A) (A) (A)
                 (A) (A) (A) (A) (A) (A) (A) (A) (A) (A) (A) (A)
                 (A) (A) (A) (A) (A) (A) (A) (A) (A) (A) (A) (A)
                 (A) (A) (A) (A) (A) (A) (A) (A) (A) (A) (A) (A)
                 (A) (A) (A) (A) (A) (A) (A) (A) (A) (A) (A) (A)
                 (A) (A) (A) (A) (A) (A) (A) (A) (A) (A) (A) (A)
                 (A) (A) (A) (A) (A) (A) (A) (A) (A) (A) (A) (A)
                 (A) (A) (A) (A) (A) (A) (A) (A) (A) (A) (A) (A)
                 (A) (A) (A) (A) (A) (A) (A) (A) (A) (A) (A) (A)
                 (A) (A) (A) (A) (A) (A) (A) (A) (A) (A) (A) (A)
                 (A) (A) (A) (A) (A) (A) (A) (A) (A) (A) (A) (A)
                 (A) (A) (A) (A) (A) (A) (A) (A) (A) (A) (A) (A)
                 (A) (A) (A) (A) (A) (A) (A) (A) (A)
 The electronic state is 1-A.
 Alpha  occ. eigenvalues -- -101.61326-101.61257 -77.26003 -77.25985 -10.28032
 Alpha  occ. eigenvalues --  -10.27966 -10.27219 -10.27144 -10.26966 -10.26903
 Alpha  occ. eigenvalues --  -10.25936 -10.25674 -10.25591 -10.25181 -10.24463
 Alpha  occ. eigenvalues --  -10.24246 -10.24135 -10.24063 -10.23653 -10.23153
 Alpha  occ. eigenvalues --  -10.22870 -10.22393 -10.22284 -10.21916 -10.21130
 Alpha  occ. eigenvalues --  -10.20927  -9.43836  -9.43769  -7.16995  -7.16924
 Alpha  occ. eigenvalues --   -7.16575  -7.16539  -7.16508  -7.16475  -6.65291
 Alpha  occ. eigenvalues --   -6.65264  -4.78902  -4.78881  -4.78798  -4.78770
 Alpha  occ. eigenvalues --   -4.78639  -4.78610  -3.52182  -2.19890  -2.19757
 Alpha  occ. eigenvalues --   -2.16557  -0.91872  -0.87591  -0.87467  -0.82501
 Alpha  occ. eigenvalues --   -0.82043  -0.81322  -0.80742  -0.78824  -0.78365
 Alpha  occ. eigenvalues --   -0.74188  -0.73565  -0.73045  -0.72495  -0.71872
 Alpha  occ. eigenvalues --   -0.71025  -0.67011  -0.66066  -0.64427  -0.63154
 Alpha  occ. eigenvalues --   -0.62511  -0.62118  -0.60195  -0.59762  -0.58253
 Alpha  occ. eigenvalues --   -0.56044  -0.53598  -0.51320  -0.50802  -0.50400
 Alpha  occ. eigenvalues --   -0.50078  -0.49142  -0.48303  -0.46960  -0.46551
 Alpha  occ. eigenvalues --   -0.46083  -0.45695  -0.44971  -0.44757  -0.44118
 Alpha  occ. eigenvalues --   -0.43468  -0.43176  -0.42900  -0.42675  -0.42075
 Alpha  occ. eigenvalues --   -0.42024  -0.41181  -0.40995  -0.38880  -0.38448
 Alpha  occ. eigenvalues --   -0.38148  -0.37803  -0.37555  -0.37072  -0.36851
 Alpha  occ. eigenvalues --   -0.36664  -0.36076  -0.35799  -0.35293  -0.35109
 Alpha  occ. eigenvalues --   -0.35070  -0.34763  -0.34574  -0.34535  -0.34255
 Alpha  occ. eigenvalues --   -0.34064  -0.33954  -0.33479  -0.33291  -0.30925
 Alpha  occ. eigenvalues --   -0.30660  -0.29747  -0.29182  -0.28846  -0.28595
 Alpha  occ. eigenvalues --   -0.26097  -0.25128  -0.24219  -0.23877  -0.23727
 Alpha virt. eigenvalues --   -0.06524  -0.06386  -0.06099  -0.00155   0.00393
 Alpha virt. eigenvalues --    0.02045   0.02410   0.02798   0.03561   0.03646
 Alpha virt. eigenvalues --    0.04727   0.05122   0.05246   0.05774   0.06096
 Alpha virt. eigenvalues --    0.06312   0.07144   0.07363   0.07698   0.07899
 Alpha virt. eigenvalues --    0.08660   0.08732   0.08938   0.09623   0.09856
 Alpha virt. eigenvalues --    0.10084   0.10324   0.10709   0.10930   0.11127
 Alpha virt. eigenvalues --    0.11402   0.11795   0.12136   0.12303   0.12635
 Alpha virt. eigenvalues --    0.13017   0.13429   0.13673   0.13935   0.14119
 Alpha virt. eigenvalues --    0.14485   0.14670   0.15038   0.15235   0.15712
 Alpha virt. eigenvalues --    0.15970   0.16108   0.16432   0.16564   0.17080
 Alpha virt. eigenvalues --    0.17339   0.17595   0.17715   0.18663   0.18917
 Alpha virt. eigenvalues --    0.19152   0.19455   0.19626   0.19842   0.20146
 Alpha virt. eigenvalues --    0.20249   0.20698   0.20831   0.21518   0.21650
 Alpha virt. eigenvalues --    0.22238   0.22576   0.22633   0.22931   0.23069
 Alpha virt. eigenvalues --    0.23280   0.23532   0.24151   0.24181   0.24991
 Alpha virt. eigenvalues --    0.25324   0.25371   0.25689   0.25923   0.26707
 Alpha virt. eigenvalues --    0.26848   0.27217   0.27492   0.27872   0.28196
 Alpha virt. eigenvalues --    0.28422   0.28737   0.29067   0.29566   0.29833
 Alpha virt. eigenvalues --    0.30334   0.30421   0.30858   0.31323   0.32027
 Alpha virt. eigenvalues --    0.32642   0.33067   0.33318   0.34003   0.34095
 Alpha virt. eigenvalues --    0.34398   0.34577   0.34916   0.35608   0.35840
 Alpha virt. eigenvalues --    0.36367   0.36413   0.37048   0.37324   0.37650
 Alpha virt. eigenvalues --    0.38289   0.38652   0.39028   0.39339   0.39491
 Alpha virt. eigenvalues --    0.40030   0.40350   0.40596   0.40784   0.40885
 Alpha virt. eigenvalues --    0.41259   0.41626   0.42128   0.42190   0.42242
 Alpha virt. eigenvalues --    0.42722   0.43005   0.43181   0.43225   0.43657
 Alpha virt. eigenvalues --    0.43861   0.43992   0.44464   0.44598   0.44834
 Alpha virt. eigenvalues --    0.44889   0.45174   0.45318   0.45704   0.45799
 Alpha virt. eigenvalues --    0.46043   0.46235   0.46453   0.46706   0.46994
 Alpha virt. eigenvalues --    0.47345   0.47455   0.47609   0.47908   0.48044
 Alpha virt. eigenvalues --    0.48478   0.48585   0.48723   0.48838   0.49256
 Alpha virt. eigenvalues --    0.49584   0.49872   0.49994   0.50126   0.50496
 Alpha virt. eigenvalues --    0.50800   0.51096   0.51481   0.51724   0.51895
 Alpha virt. eigenvalues --    0.52151   0.52499   0.52585   0.53123   0.53439
 Alpha virt. eigenvalues --    0.53875   0.53961   0.54318   0.54533   0.55134
 Alpha virt. eigenvalues --    0.55300   0.55517   0.56328   0.56867   0.56924
 Alpha virt. eigenvalues --    0.57020   0.57722   0.57990   0.58544   0.58961
 Alpha virt. eigenvalues --    0.59610   0.59898   0.60067   0.60269   0.60810
 Alpha virt. eigenvalues --    0.61344   0.62279   0.62551   0.63028   0.63378
 Alpha virt. eigenvalues --    0.63838   0.64017   0.64236   0.64854   0.65383
 Alpha virt. eigenvalues --    0.66192   0.66496   0.66700   0.67194   0.67614
 Alpha virt. eigenvalues --    0.67819   0.68264   0.68941   0.69624   0.70145
 Alpha virt. eigenvalues --    0.70426   0.71169   0.71446   0.71906   0.72550
 Alpha virt. eigenvalues --    0.73017   0.73327   0.73905   0.74911   0.75361
 Alpha virt. eigenvalues --    0.75892   0.76398   0.76685   0.77036   0.77797
 Alpha virt. eigenvalues --    0.78337   0.78563   0.79059   0.79221   0.79584
 Alpha virt. eigenvalues --    0.79683   0.80484   0.81154   0.81705   0.82166
 Alpha virt. eigenvalues --    0.82542   0.82782   0.83125   0.83879   0.84737
 Alpha virt. eigenvalues --    0.85160   0.85231   0.85722   0.86570   0.87014
 Alpha virt. eigenvalues --    0.88204   0.88604   0.88721   0.89015   0.89515
 Alpha virt. eigenvalues --    0.89990   0.90405   0.90859   0.91265   0.92009
 Alpha virt. eigenvalues --    0.92362   0.93125   0.93700   0.94015   0.94304
 Alpha virt. eigenvalues --    0.94833   0.95111   0.95394   0.95874   0.96308
 Alpha virt. eigenvalues --    0.97103   0.97464   0.98099   0.98532   0.99016
 Alpha virt. eigenvalues --    0.99474   0.99984   1.00340   1.01283   1.01364
 Alpha virt. eigenvalues --    1.01824   1.01928   1.03230   1.04039   1.04151
 Alpha virt. eigenvalues --    1.05117   1.05266   1.06111   1.06881   1.07188
 Alpha virt. eigenvalues --    1.07429   1.08122   1.08627   1.09500   1.09936
 Alpha virt. eigenvalues --    1.10857   1.11494   1.11585   1.12322   1.12621
 Alpha virt. eigenvalues --    1.13377   1.13643   1.14196   1.14383   1.15025
 Alpha virt. eigenvalues --    1.15498   1.16174   1.16710   1.17190   1.17373
 Alpha virt. eigenvalues --    1.17758   1.18567   1.19118   1.19534   1.20229
 Alpha virt. eigenvalues --    1.20682   1.20920   1.21075   1.22066   1.22381
 Alpha virt. eigenvalues --    1.22683   1.23129   1.24228   1.24633   1.25506
 Alpha virt. eigenvalues --    1.25598   1.26471   1.27031   1.27119   1.27757
 Alpha virt. eigenvalues --    1.28111   1.28533   1.28906   1.29917   1.30079
 Alpha virt. eigenvalues --    1.30541   1.31054   1.31362   1.31478   1.32009
 Alpha virt. eigenvalues --    1.33051   1.33699   1.34488   1.34770   1.35221
 Alpha virt. eigenvalues --    1.35998   1.36459   1.37742   1.38499   1.38755
 Alpha virt. eigenvalues --    1.39361   1.40667   1.40712   1.42086   1.42751
 Alpha virt. eigenvalues --    1.43030   1.44573   1.45616   1.46345   1.46788
 Alpha virt. eigenvalues --    1.47515   1.48269   1.49228   1.50549   1.51270
 Alpha virt. eigenvalues --    1.51899   1.52387   1.53116   1.53604   1.54149
 Alpha virt. eigenvalues --    1.55061   1.55148   1.55551   1.55813   1.56590
 Alpha virt. eigenvalues --    1.56930   1.57215   1.57548   1.57970   1.58372
 Alpha virt. eigenvalues --    1.59065   1.59153   1.59278   1.59957   1.60231
 Alpha virt. eigenvalues --    1.60685   1.61321   1.61543   1.62059   1.62464
 Alpha virt. eigenvalues --    1.62887   1.63308   1.63498   1.64042   1.64165
 Alpha virt. eigenvalues --    1.64551   1.64981   1.65377   1.65687   1.66157
 Alpha virt. eigenvalues --    1.66296   1.66575   1.66772   1.67091   1.67301
 Alpha virt. eigenvalues --    1.67986   1.68966   1.69048   1.69260   1.69927
 Alpha virt. eigenvalues --    1.70474   1.71087   1.71439   1.72234   1.72634
 Alpha virt. eigenvalues --    1.73248   1.74372   1.74702   1.75037   1.75370
 Alpha virt. eigenvalues --    1.75933   1.76802   1.76988   1.78203   1.78821
 Alpha virt. eigenvalues --    1.79129   1.79783   1.80450   1.80737   1.80990
 Alpha virt. eigenvalues --    1.82554   1.83163   1.83446   1.83748   1.84051
 Alpha virt. eigenvalues --    1.84912   1.85400   1.85542   1.86511   1.86808
 Alpha virt. eigenvalues --    1.87641   1.87987   1.88772   1.89100   1.89375
 Alpha virt. eigenvalues --    1.90439   1.91049   1.92004   1.92642   1.92947
 Alpha virt. eigenvalues --    1.93550   1.93632   1.94114   1.94300   1.95348
 Alpha virt. eigenvalues --    1.96097   1.96495   1.97128   1.97564   1.97955
 Alpha virt. eigenvalues --    1.98669   1.99360   1.99879   2.00064   2.00231
 Alpha virt. eigenvalues --    2.01320   2.01564   2.01778   2.02298   2.02393
 Alpha virt. eigenvalues --    2.03136   2.03671   2.03771   2.04140   2.04362
 Alpha virt. eigenvalues --    2.05668   2.06016   2.06427   2.06693   2.07367
 Alpha virt. eigenvalues --    2.07917   2.08676   2.08945   2.09375   2.10954
 Alpha virt. eigenvalues --    2.11250   2.11829   2.12590   2.12673   2.13929
 Alpha virt. eigenvalues --    2.14260   2.14741   2.15377   2.15844   2.16361
 Alpha virt. eigenvalues --    2.16659   2.17276   2.17959   2.18377   2.18698
 Alpha virt. eigenvalues --    2.18934   2.19212   2.20024   2.20318   2.20704
 Alpha virt. eigenvalues --    2.21540   2.21894   2.22049   2.22614   2.23217
 Alpha virt. eigenvalues --    2.24319   2.24353   2.25059   2.25658   2.25681
 Alpha virt. eigenvalues --    2.26427   2.26666   2.27629   2.28116   2.28364
 Alpha virt. eigenvalues --    2.29116   2.30074   2.30406   2.31401   2.31971
 Alpha virt. eigenvalues --    2.32478   2.32877   2.33576   2.34177   2.34608
 Alpha virt. eigenvalues --    2.35450   2.36232   2.36616   2.36950   2.37373
 Alpha virt. eigenvalues --    2.38194   2.38403   2.39064   2.39553   2.40276
 Alpha virt. eigenvalues --    2.40833   2.41781   2.41834   2.42529   2.42826
 Alpha virt. eigenvalues --    2.43428   2.43849   2.44321   2.44512   2.45236
 Alpha virt. eigenvalues --    2.45621   2.45977   2.46830   2.47121   2.47666
 Alpha virt. eigenvalues --    2.47907   2.48458   2.49296   2.49572   2.49891
 Alpha virt. eigenvalues --    2.50163   2.50367   2.50564   2.51273   2.51557
 Alpha virt. eigenvalues --    2.52045   2.52939   2.53135   2.53904   2.54228
 Alpha virt. eigenvalues --    2.54685   2.55287   2.56037   2.56133   2.56546
 Alpha virt. eigenvalues --    2.56986   2.57360   2.58051   2.58138   2.58747
 Alpha virt. eigenvalues --    2.59068   2.59655   2.60071   2.60278   2.60862
 Alpha virt. eigenvalues --    2.61129   2.61461   2.62199   2.62592   2.62910
 Alpha virt. eigenvalues --    2.63251   2.63626   2.63863   2.64669   2.64932
 Alpha virt. eigenvalues --    2.65120   2.65731   2.66028   2.66260   2.66715
 Alpha virt. eigenvalues --    2.66936   2.67162   2.67531   2.67683   2.68128
 Alpha virt. eigenvalues --    2.69164   2.69340   2.69684   2.70112   2.70439
 Alpha virt. eigenvalues --    2.71066   2.71294   2.71651   2.72319   2.72405
 Alpha virt. eigenvalues --    2.72883   2.73857   2.74055   2.74586   2.74894
 Alpha virt. eigenvalues --    2.75140   2.75833   2.76205   2.76788   2.77549
 Alpha virt. eigenvalues --    2.77597   2.78276   2.78919   2.79464   2.80310
 Alpha virt. eigenvalues --    2.80347   2.81404   2.81901   2.82257   2.83339
 Alpha virt. eigenvalues --    2.83576   2.84495   2.84828   2.85497   2.85634
 Alpha virt. eigenvalues --    2.86354   2.86978   2.87489   2.88601   2.88894
 Alpha virt. eigenvalues --    2.89744   2.90269   2.90734   2.91406   2.92164
 Alpha virt. eigenvalues --    2.92961   2.93494   2.94399   2.95332   2.95634
 Alpha virt. eigenvalues --    2.96374   2.97022   2.98600   3.00207   3.00677
 Alpha virt. eigenvalues --    3.01494   3.02092   3.03156   3.03552   3.04004
 Alpha virt. eigenvalues --    3.04949   3.05912   3.06184   3.07164   3.09238
 Alpha virt. eigenvalues --    3.09820   3.10271   3.11250   3.12212   3.12633
 Alpha virt. eigenvalues --    3.12926   3.13153   3.13635   3.14454   3.15013
 Alpha virt. eigenvalues --    3.15393   3.15676   3.15824   3.16769   3.17387
 Alpha virt. eigenvalues --    3.17689   3.18063   3.18661   3.19336   3.19497
 Alpha virt. eigenvalues --    3.20386   3.20483   3.21212   3.21386   3.22124
 Alpha virt. eigenvalues --    3.22722   3.23121   3.23367   3.24502   3.25136
 Alpha virt. eigenvalues --    3.25443   3.25962   3.27121   3.27304   3.28012
 Alpha virt. eigenvalues --    3.28300   3.28491   3.29173   3.29547   3.30240
 Alpha virt. eigenvalues --    3.30678   3.31215   3.31389   3.31483   3.32206
 Alpha virt. eigenvalues --    3.32722   3.32990   3.33210   3.33987   3.34389
 Alpha virt. eigenvalues --    3.34714   3.34768   3.34987   3.35797   3.36230
 Alpha virt. eigenvalues --    3.36776   3.37013   3.37652   3.37712   3.38239
 Alpha virt. eigenvalues --    3.38996   3.39380   3.39634   3.40360   3.40636
 Alpha virt. eigenvalues --    3.41267   3.42000   3.42823   3.43064   3.43653
 Alpha virt. eigenvalues --    3.44018   3.44655   3.45080   3.45973   3.46572
 Alpha virt. eigenvalues --    3.47231   3.47249   3.47826   3.48862   3.49189
 Alpha virt. eigenvalues --    3.49581   3.50400   3.50697   3.51401   3.52002
 Alpha virt. eigenvalues --    3.52285   3.52597   3.53435   3.54163   3.54670
 Alpha virt. eigenvalues --    3.55100   3.55720   3.55867   3.57057   3.57354
 Alpha virt. eigenvalues --    3.57620   3.58160   3.58444   3.58984   3.59222
 Alpha virt. eigenvalues --    3.59965   3.60347   3.60965   3.61603   3.62196
 Alpha virt. eigenvalues --    3.63149   3.63633   3.64259   3.64378   3.65352
 Alpha virt. eigenvalues --    3.65930   3.66497   3.67121   3.67671   3.68120
 Alpha virt. eigenvalues --    3.68623   3.69871   3.70240   3.71526   3.72281
 Alpha virt. eigenvalues --    3.73523   3.73987   3.74956   3.75272   3.76108
 Alpha virt. eigenvalues --    3.76469   3.77780   3.78930   3.79905   3.80444
 Alpha virt. eigenvalues --    3.82337   3.82980   3.84946   3.85690   3.85998
 Alpha virt. eigenvalues --    3.87307   3.88806   3.89360   3.90890   3.91650
 Alpha virt. eigenvalues --    3.92276   3.93160   3.93524   3.94522   3.94877
 Alpha virt. eigenvalues --    3.95603   3.96657   3.97190   3.98351   3.98683
 Alpha virt. eigenvalues --    3.98993   3.99453   4.00213   4.00876   4.01741
 Alpha virt. eigenvalues --    4.02081   4.02907   4.04144   4.05640   4.06724
 Alpha virt. eigenvalues --    4.07389   4.08591   4.09577   4.10018   4.11004
 Alpha virt. eigenvalues --    4.13465   4.14332   4.14875   4.15918   4.16393
 Alpha virt. eigenvalues --    4.17519   4.18107   4.18791   4.19162   4.20100
 Alpha virt. eigenvalues --    4.20993   4.21603   4.21816   4.22488   4.22920
 Alpha virt. eigenvalues --    4.25264   4.26590   4.27067   4.27608   4.29651
 Alpha virt. eigenvalues --    4.30544   4.32098   4.32332   4.33436   4.34317
 Alpha virt. eigenvalues --    4.35657   4.37079   4.38907   4.39611   4.40566
 Alpha virt. eigenvalues --    4.40984   4.41460   4.42173   4.42464   4.43519
 Alpha virt. eigenvalues --    4.46712   4.47562   4.47899   4.48210   4.53714
 Alpha virt. eigenvalues --    4.55409   4.56219   4.56640   4.57239   4.58031
 Alpha virt. eigenvalues --    4.58621   4.59204   4.59897   4.60478   4.61322
 Alpha virt. eigenvalues --    4.62187   4.63238   4.64905   4.66225   4.68172
 Alpha virt. eigenvalues --    4.69605   4.69703   4.70058   4.72950   4.73836
 Alpha virt. eigenvalues --    4.75118   4.76191   4.78387   4.83651   4.84018
 Alpha virt. eigenvalues --    4.88401   4.89692   4.91391   4.91723   4.93249
 Alpha virt. eigenvalues --    4.98962   5.00587   5.02444   5.04174   5.04512
 Alpha virt. eigenvalues --    5.09179   5.09564   5.13938   5.15141   5.17311
 Alpha virt. eigenvalues --    5.19286   5.20198   5.35768   5.45770   5.53302
 Alpha virt. eigenvalues --    7.85149   7.88089   7.90749   7.91903   7.97550
 Alpha virt. eigenvalues --    8.09603  10.92585  10.94859  10.99858  11.03012
 Alpha virt. eigenvalues --   11.05634  11.10255  15.68392  15.88472  22.19601
 Alpha virt. eigenvalues --   22.41661  22.43976  22.46631  22.47433  22.51261
 Alpha virt. eigenvalues --   22.53180  22.55659  22.56036  22.57285  22.58335
 Alpha virt. eigenvalues --   22.60431  22.60911  22.63682  22.65784  22.67307
 Alpha virt. eigenvalues --   22.68804  22.77253  22.81769  22.82555  22.93660
 Alpha virt. eigenvalues --   23.25253  25.54331  25.71285  40.31496  40.93583
 Alpha virt. eigenvalues --   41.02626  52.09753
          Condensed to atoms (all electrons):
 Mulliken charges:
               1
     1  Cl  -0.439238
     2  P    0.149454
     3  P    0.154860
     4  C   -0.031951
     5  C   -0.033445
     6  C   -0.055335
     7  H    0.132306
     8  C   -0.088772
     9  H    0.112216
    10  C   -0.122053
    11  H    0.089023
    12  C   -0.101325
    13  H    0.142925
    14  C   -0.202423
    15  H    0.121233
    16  H    0.105493
    17  C   -0.204811
    18  H    0.118665
    19  H    0.133767
    20  C   -0.152464
    21  H    0.111618
    22  H    0.156909
    23  C   -0.195119
    24  H    0.124570
    25  H    0.095906
    26  C   -0.198806
    27  H    0.126163
    28  H    0.108590
    29  C   -0.176632
    30  H    0.107080
    31  H    0.149119
    32  C   -0.189564
    33  H    0.105550
    34  H    0.165241
    35  C   -0.129405
    36  H    0.092502
    37  H    0.115290
    38  C   -0.394349
    39  H    0.119898
    40  H    0.176126
    41  H    0.138572
    42  C   -0.429362
    43  H    0.185505
    44  H    0.134534
    45  H    0.118545
    46  C   -0.380653
    47  H    0.119432
    48  H    0.120140
    49  H    0.128194
    50  C   -0.413326
    51  H    0.147581
    52  H    0.128400
    53  H    0.128718
    54  C   -0.162257
    55  H    0.132625
    56  C   -0.139773
    57  H    0.130771
    58  C   -0.113010
    59  H    0.131332
    60  C   -0.236676
    61  H    0.146685
    62  Cl  -0.447731
    63  Pd   0.132942
 Sum of Mulliken charges =  -0.00000
 Mulliken charges with hydrogens summed into heavy atoms:
               1
     1  Cl  -0.439238
     2  P    0.149454
     3  P    0.154860
     4  C   -0.031951
     5  C   -0.033445
     6  C    0.076972
     8  C    0.023444
    10  C   -0.033030
    12  C    0.041600
    14  C    0.024303
    17  C    0.047621
    20  C    0.116062
    23  C    0.025357
    26  C    0.035947
    29  C    0.079567
    32  C    0.081227
    35  C    0.078387
    38  C    0.040248
    42  C    0.009222
    46  C   -0.012887
    50  C   -0.008628
    54  C   -0.029632
    56  C   -0.009002
    58  C    0.018322
    60  C   -0.089991
    62  Cl  -0.447731
    63  Pd   0.132942
 Electronic spatial extent (au):  <R**2>=          11107.0428
 Charge=             -0.0000 electrons
 Dipole moment (field-independent basis, Debye):
    X=              0.5781    Y=             12.0966    Z=              0.7370  Tot=             12.1328
 Quadrupole moment (field-independent basis, Debye-Ang):
   XX=           -190.8803   YY=           -227.4178   ZZ=           -204.3794
   XY=             -1.4993   XZ=              0.0061   YZ=             -2.1344
 Traceless Quadrupole moment (field-independent basis, Debye-Ang):
   XX=             16.6789   YY=            -19.8586   ZZ=              3.1798
   XY=             -1.4993   XZ=              0.0061   YZ=             -2.1344
 Octapole moment (field-independent basis, Debye-Ang**2):
  XXX=              0.7155  YYY=             80.4931  ZZZ=            -13.7291  XYY=              2.0159
  XXY=             13.8768  XXZ=              1.0145  XZZ=              0.5201  YZZ=            -43.9495
  YYZ=              9.6300  XYZ=              0.5211
 Hexadecapole moment (field-independent basis, Debye-Ang**3):
 XXXX=          -6575.3550 YYYY=          -4478.7082 ZZZZ=          -3855.3571 XXXY=            -27.9116
 XXXZ=            -12.0461 YYYX=             14.2675 YYYZ=             36.5632 ZZZX=            -12.0477
 ZZZY=            -12.7783 XXYY=          -1933.7980 XXZZ=          -1729.7950 YYZZ=          -1452.9088
 XXYZ=             -1.0765 YYXZ=             16.8396 ZZXY=              5.7199
 N-N= 4.031835094945D+03 E-N=-1.414055288806D+04  KE= 2.501681806582D+03
 1\1\GINC-NC053\SP\RPBE1PBE\Gen\C22H36Cl2P2Pd1\MACKK4\05-Dec-2021\0\\# 
 PBE1PBE gen pseudo=read int=(grid=ultrafine) empiricaldispersion=GD3BJ
  nmr=giao\\SS_Et_DuPhos_5 title\\0,1\Cl,0,-1.4042922321,-3.7649765128,
 1.1369715847\P,0,-1.6017437191,-0.7752098351,-0.0293232936\P,0,1.47692
 16861,-0.1960053367,0.3445024174\C,0,-0.9757838704,0.9265252768,-0.427
 7196862\C,0,0.4020928137,1.189915955,-0.2267037401\C,0,-3.0499757874,-
 0.6333461061,1.1446358809\H,0,-3.1458220544,-1.691557264,1.4654507917\
 C,0,-2.6641139806,-1.2748288009,-1.5144170352\H,0,-2.4826857104,-0.487
 5009528,-2.2714351486\C,0,2.5390409642,0.4777425412,1.7418911959\H,0,2
 .5762400278,1.5736766533,1.5655954173\C,0,2.9249232335,-0.4342131388,-
 0.852246081\H,0,2.9810916549,-1.536184361,-0.9283729506\C,0,-4.2463178
 372,-0.305935948,0.2361308766\H,0,-5.1921558741,-0.490047718,0.7774562
 496\H,0,-4.2479245057,0.7656128523,-0.037134776\C,0,-4.1313855702,-1.2
 102680849,-1.0026583964\H,0,-4.8065906185,-0.8909690021,-1.81562562\H,
 0,-4.4295898144,-2.234957149,-0.7153199615\C,0,3.9282980525,-0.1064805
 93,1.4258998618\H,0,4.6992136654,0.4046958139,2.0301478231\H,0,3.93835
 52212,-1.1794801973,1.6862740096\C,0,4.1625770929,0.0802744686,-0.0784
 042723\H,0,5.0685940085,-0.4468729014,-0.4253789693\H,0,4.305884831,1.
 1564740968,-0.3030267926\C,0,-2.846306015,0.2419389711,2.388484304\H,0
 ,-2.3306949495,1.1839105425,2.1176426865\H,0,-3.8440183053,0.541401549
 2,2.763147198\C,0,-2.3303284573,-2.6512146276,-2.1157092759\H,0,-3.115
 4485953,-2.8724237723,-2.8653363523\H,0,-2.4177499596,-3.4098111371,-1
 .3175776777\C,0,2.0052606375,0.2198901391,3.1555171779\H,0,2.852655882
 6,0.3053439999,3.8622543649\H,0,1.6472675514,-0.8236582656,3.222590700
 8\C,0,2.7851106188,0.1790808389,-2.2516608292\H,0,2.6605981427,1.27519
 94039,-2.1667989261\H,0,3.75313033,0.0251174559,-2.7670824033\C,0,-2.0
 871097819,-0.5025387224,3.4941072561\H,0,-1.9046889423,0.1475551303,4.
 3657991323\H,0,-1.114748388,-0.8774144119,3.1283223904\H,0,-2.66020483
 2,-1.3830307351,3.8311098841\C,0,-0.9494391991,-2.7536920577,-2.759755
 6172\H,0,-0.1590441419,-2.6101691372,-1.9998345344\H,0,-0.8004392847,-
 3.7525324051,-3.2028101345\H,0,-0.8088242135,-2.0005856413,-3.55589887
 38\C,0,0.9090492403,1.2138298079,3.5519793905\H,0,0.0614577468,1.18133
 80125,2.8457698249\H,0,1.2977669171,2.248457353,3.556011435\H,0,0.5125
 993886,0.9954383587,4.5570877461\C,0,1.6557396109,-0.4078543677,-3.099
 1086395\H,0,1.7523343933,-1.502770348,-3.1895594775\H,0,0.6692033904,-
 0.1971589504,-2.6527058104\H,0,1.6609293557,0.0213096943,-4.1155246175
 \C,0,-1.8014221113,1.9539539163,-0.9257971664\H,0,-2.861281402,1.76394
 10222,-1.1151508772\C,0,-1.2791827933,3.2264159088,-1.1921978833\H,0,-
 1.9364007323,4.0138327772,-1.5744243005\C,0,0.0793282156,3.4898031489,
 -0.9692127274\H,0,0.4891249251,4.4837922034,-1.1742643181\C,0,0.916082
 8331,2.4734983356,-0.4922673813\H,0,1.978890296,2.6812044185,-0.328109
 432\Cl,0,2.1051380785,-3.1830899304,1.3930754071\Pd,0,0.1519128728,-1.
 9898922343,0.6958989717\\Version=ES64L-G09RevE.01\State=1-A\HF=-2590.0
 384514\RMSD=9.374e-09\Dipole=-0.6155503,4.4400102,-1.641004\Quadrupole
 =11.5906061,-12.5098368,0.9192307,4.1364266,0.4306307,5.4125943\PG=C01
  [X(C22H36Cl2P2Pd1)]\\@


            ARSENIC

 FOR SMELTER FUMES HAVE I BEEN NAMED,
    I AM AN EVIL POISONOUS SMOKE...
 BUT WHEN FROM POISON I AM FREED,
    THROUGH ART AND SLEIGHT OF HAND,
 THEN CAN I CURE BOTH MAN AND BEAST,
    FROM DIRE DISEASE OFTTIMES DIRECT THEM;
 BUT PREPARE ME CORRECTLY, AND TAKE GREAT CARE
    THAT YOU FAITHFULLY KEEP WATCHFUL GUARD OVER ME;
 FOR ELSE I AM POISON, AND POISON REMAIN,
    THAT PIERCES THE HEART OF MANY A ONE.

 ATTRIBUTED TO THE PROBABLY MYTHICAL 15TH
 CENTURY MONK, BASILIUS VALENTINUS
 Job cpu time:       0 days 15 hours 10 minutes  8.9 seconds.
 File lengths (MBytes):  RWF=    656 Int=      0 D2E=      0 Chk=     96 Scr=      1
 Normal termination of Gaussian 09 at Sun Dec  5 10:29:05 2021.
 Initial command:
 /gstore/apps/gaussian/g09.e01-foss-2017a/g09/l1.exe "/local/22791414/Gau-27786.inp" -scrdir="/local/22791414/"
 Entering Link 1 = /gstore/apps/gaussian/g09.e01-foss-2017a/g09/l1.exe PID=     14895.
  
 Copyright (c) 1988,1990,1992,1993,1995,1998,2003,2009,2015,
            Gaussian, Inc.  All Rights Reserved.
  
 This is part of the Gaussian(R) 09 program.  It is based on
 the Gaussian(R) 03 system (copyright 2003, Gaussian, Inc.),
 the Gaussian(R) 98 system (copyright 1998, Gaussian, Inc.),
 the Gaussian(R) 94 system (copyright 1995, Gaussian, Inc.),
 the Gaussian 92(TM) system (copyright 1992, Gaussian, Inc.),
 the Gaussian 90(TM) system (copyright 1990, Gaussian, Inc.),
 the Gaussian 88(TM) system (copyright 1988, Gaussian, Inc.),
 the Gaussian 86(TM) system (copyright 1986, Carnegie Mellon
 University), and the Gaussian 82(TM) system (copyright 1983,
 Carnegie Mellon University). Gaussian is a federally registered
 trademark of Gaussian, Inc.
  
 This software contains proprietary and confidential information,
 including trade secrets, belonging to Gaussian, Inc.
  
 This software is provided under written license and may be
 used, copied, transmitted, or stored only in accord with that
 written license.
  
 The following legend is applicable only to US Government
 contracts under FAR:
  
                    RESTRICTED RIGHTS LEGEND
  
 Use, reproduction and disclosure by the US Government is
 subject to restrictions as set forth in subparagraphs (a)
 and (c) of the Commercial Computer Software - Restricted
 Rights clause in FAR 52.227-19.
  
 Gaussian, Inc.
 340 Quinnipiac St., Bldg. 40, Wallingford CT 06492
  
  
 ---------------------------------------------------------------
 Warning -- This program may not be used in any manner that
 competes with the business of Gaussian, Inc. or will provide
 assistance to any competitor of Gaussian, Inc.  The licensee
 of this program is prohibited from giving any competitor of
 Gaussian, Inc. access to this program.  By using this program,
 the user acknowledges that Gaussian, Inc. is engaged in the
 business of creating and licensing software in the field of
 computational chemistry and represents and warrants to the
 licensee that it is not a competitor of Gaussian, Inc. and that
 it will not use this program in any manner prohibited above.
 ---------------------------------------------------------------
  

 Cite this work as:
 Gaussian 09, Revision E.01,
 M. J. Frisch, G. W. Trucks, H. B. Schlegel, G. E. Scuseria, 
 M. A. Robb, J. R. Cheeseman, G. Scalmani, V. Barone, B. Mennucci, 
 G. A. Petersson, H. Nakatsuji, M. Caricato, X. Li, H. P. Hratchian, 
 A. F. Izmaylov, J. Bloino, G. Zheng, J. L. Sonnenberg, M. Hada, 
 M. Ehara, K. Toyota, R. Fukuda, J. Hasegawa, M. Ishida, T. Nakajima, 
 Y. Honda, O. Kitao, H. Nakai, T. Vreven, J. A. Montgomery, Jr., 
 J. E. Peralta, F. Ogliaro, M. Bearpark, J. J. Heyd, E. Brothers, 
 K. N. Kudin, V. N. Staroverov, T. Keith, R. Kobayashi, J. Normand, 
 K. Raghavachari, A. Rendell, J. C. Burant, S. S. Iyengar, J. Tomasi, 
 M. Cossi, N. Rega, J. M. Millam, M. Klene, J. E. Knox, J. B. Cross, 
 V. Bakken, C. Adamo, J. Jaramillo, R. Gomperts, R. E. Stratmann, 
 O. Yazyev, A. J. Austin, R. Cammi, C. Pomelli, J. W. Ochterski, 
 R. L. Martin, K. Morokuma, V. G. Zakrzewski, G. A. Voth, 
 P. Salvador, J. J. Dannenberg, S. Dapprich, A. D. Daniels, 
 O. Farkas, J. B. Foresman, J. V. Ortiz, J. Cioslowski, 
 and D. J. Fox, Gaussian, Inc., Wallingford CT, 2013.
 
 ******************************************
 Gaussian 09:  ES64L-G09RevE.01 30-Nov-2015
                 5-Dec-2021 
 ******************************************
 %nprocs=14
 Will use up to   14 processors via shared memory.
 %mem=128GB
 %chk=SS_Et_DuPhos_5_SPE.chk
 ----------------------------------------------------------------------
 # PBE1PBE gen pseudo=read int=(grid=ultrafine) empiricaldispersion=GD3
 BJ pop=nbo guess=read geom=check
 ----------------------------------------------------------------------
 1/29=2,38=1/1;
 2/12=2,40=1/2;
 3/5=7,11=2,14=-4,16=1,17=8,25=1,30=1,74=-13,75=-5,116=-2,124=41/1,2,3;
 4/5=1/1;
 5/5=2,38=6/2;
 6/7=2,8=2,9=2,10=2,28=1,40=1/1,7;
 99/5=1,9=1/99;
 --------------------
 SS_Et_DuPhos_5 title
 --------------------
 Structure from the checkpoint file:  "SS_Et_DuPhos_5_SPE.chk"
 Charge =  0 Multiplicity = 1
 Z-Matrix found in file.
 Cl,0,-1.4042922321,-3.7649765128,1.1369715847
 P,0,-1.6017437191,-0.7752098351,-0.0293232936
 P,0,1.4769216861,-0.1960053367,0.3445024174
 C,0,-0.9757838704,0.9265252768,-0.4277196862
 C,0,0.4020928137,1.189915955,-0.2267037401
 C,0,-3.0499757874,-0.6333461061,1.1446358809
 H,0,-3.1458220544,-1.691557264,1.4654507917
 C,0,-2.6641139806,-1.2748288009,-1.5144170352
 H,0,-2.4826857104,-0.4875009528,-2.2714351486
 C,0,2.5390409642,0.4777425412,1.7418911959
 H,0,2.5762400278,1.5736766533,1.5655954173
 C,0,2.9249232335,-0.4342131388,-0.852246081
 H,0,2.9810916549,-1.536184361,-0.9283729506
 C,0,-4.2463178372,-0.305935948,0.2361308766
 H,0,-5.1921558741,-0.490047718,0.7774562496
 H,0,-4.2479245057,0.7656128523,-0.037134776
 C,0,-4.1313855702,-1.2102680849,-1.0026583964
 H,0,-4.8065906185,-0.8909690021,-1.81562562
 H,0,-4.4295898144,-2.234957149,-0.7153199615
 C,0,3.9282980525,-0.106480593,1.4258998618
 H,0,4.6992136654,0.4046958139,2.0301478231
[...]
   949. RY*(  18) C  60                  0.00000    21.16814   
   950. RY*(  19) C  60                  0.00001     3.52345   
   951. RY*(  20) C  60                  0.00000     3.31186   
   952. RY*(  21) C  60                  0.00000     3.45975   
   953. RY*(  22) C  60                  0.00000     3.62987   
   954. RY*(  23) C  60                  0.00000     2.91870   
   955. RY*(  24) C  60                  0.00000     3.38961   
   956. RY*(  25) C  60                  0.00000     3.83260   
   957. RY*(  26) C  60                  0.00000     3.13148   
   958. RY*(   1) H  61                  0.00178     0.69472   
   959. RY*(   2) H  61                  0.00041     2.36191   
   960. RY*(   3) H  61                  0.00014     2.14953   
   961. RY*(   4) H  61                  0.00010     2.71706   
   962. RY*(   5) H  61                  0.00004     3.13289   
   963. RY*(   1)Cl  62                  0.00130     0.86314   
   964. RY*(   2)Cl  62                  0.00116     0.79192   
   965. RY*(   3)Cl  62                  0.00100     0.68695   
   966. RY*(   4)Cl  62                  0.00034     1.27740   
   967. RY*(   5)Cl  62                  0.00027     1.69028   
   968. RY*(   6)Cl  62                  0.00021     1.14139   
   969. RY*(   7)Cl  62                  0.00015     1.24375   
   970. RY*(   8)Cl  62                  0.00011     1.43050   
   971. RY*(   9)Cl  62                  0.00008     2.36519   
   972. RY*(  10)Cl  62                  0.00009     1.45571   
   973. RY*(  11)Cl  62                  0.00001     1.83276   
   974. RY*(  12)Cl  62                  0.00001     2.48969   
   975. RY*(  13)Cl  62                  0.00000     2.26466   
   976. RY*(  14)Cl  62                  0.00001     1.84257   
   977. RY*(  15)Cl  62                  0.00000    10.40408   
   978. RY*(  16)Cl  62                  0.00001     2.70061   
   979. RY*(  17)Cl  62                  0.00000    10.45353   
   980. RY*(  18)Cl  62                  0.00000    24.51402   
   981. RY*(  19)Cl  62                  0.00000    10.46801   
   982. RY*(  20)Cl  62                  0.00000     2.79764   
   983. RY*(  21)Cl  62                  0.00001     1.87913   
   984. RY*(  22)Cl  62                  0.00000     2.17697   
   985. RY*(  23)Cl  62                  0.00000     2.17233   
   986. RY*(  24)Cl  62                  0.00000     2.18259   
   987. RY*(  25)Cl  62                  0.00000     2.14164   
   988. RY*(  26)Cl  62                  0.00000     2.16593   
   989. RY*(  27)Cl  62                  0.00001     2.23725   
   990. RY*(  28)Cl  62                  0.00000     2.17986   
   991. RY*(   1)Pd  63                  0.00375     0.89605   
   992. RY*(   2)Pd  63                  0.00259     1.46757   
   993. RY*(   3)Pd  63                  0.00248     1.41269   
   994. RY*(   4)Pd  63                  0.00185     0.78489   
   995. RY*(   5)Pd  63                  0.00115     0.80194   
   996. RY*(   6)Pd  63                  0.00098     2.26857   
   997. RY*(   7)Pd  63                  0.00086     1.87322   
   998. RY*(   8)Pd  63                  0.00071     1.20811   
   999. RY*(   9)Pd  63                  0.00066     1.72907   
  1000. RY*(  10)Pd  63                  0.00051     0.81161   
  1001. RY*(  11)Pd  63                  0.00037     0.99023   
  1002. RY*(  12)Pd  63                  0.00026     1.17786   
  1003. RY*(  13)Pd  63                  0.00022     2.52966   
  1004. RY*(  14)Pd  63                  0.00020     1.22286   
  1005. RY*(  15)Pd  63                  0.00019     1.31060   
  1006. RY*(  16)Pd  63                  0.00014     1.23696   
  1007. RY*(  17)Pd  63                  0.00009     2.29937   
  1008. RY*(  18)Pd  63                  0.00007    26.16279   
  1009. RY*(  19)Pd  63                  0.00004     2.56802   
  1010. RY*(  20)Pd  63                  0.00004     8.56423   
  1011. RY*(  21)Pd  63                  0.00000    39.34683   
  1012. RY*(  22)Pd  63                  0.00000    39.36852   
  1013. RY*(  23)Pd  63                  0.00000    39.63633   
  1014. BD*(   1)Cl   1 -Pd  63          0.20029     0.15635  1020(v),1082(g),1018(g)
                                                    1016(v),1021(v),1017(v)
                                                    155(v),1010(g),1008(g)
                                                    995(g),1003(g),1015(v)
                                                    183(v),999(g),996(g),1004(g)
                                                    1009(g),997(g),127(g),998(g)
                                                    131(g),212(r),992(g),1005(g)
                                                    133(g),356(r),1027(r)
  1015. BD*(   1) P   2 - C   4          0.08322     0.18367   
  1016. BD*(   1) P   2 - C   6          0.07927     0.16093   
  1017. BD*(   1) P   2 - C   8          0.08297     0.15101   
  1018. BD*(   1) P   2 -Pd  63          0.18037     0.67028  1022(g),1010(g),1008(g)
                                                    1003(g),999(g),155(g),992(g)
                                                    183(v),1006(g),998(g),996(g)
                                                    991(g),997(g),1009(g),967(v)
                                                    212(v),1004(g),131(v)
                                                    1007(g),238(r),995(g)
                                                    1000(g),1001(g),356(r)
                                                    132(v),192(v),325(r),263(v)
                                                    294(v),969(v),1014(g),189(v)
                                                    134(v),994(g),161(g),184(v)
                                                    163(g),966(v),158(g),135(v)
                                                    970(v),972(v),239(r),133(v)
                                                    1005(g),865(r),130(v),357(r)
                                                    963(v),213(v),964(v),264(v)
                                                    190(v),173(g),968(v),326(r)
                                                    958(r),387(r),162(g),295(v)
                                                    165(g),289(r),842(r),214(v)
                                                    203(v),965(v),637(r),191(v)
                                                    382(r),1002(g),129(v),241(r)
                                                    164(g),217(v),935(r),366(r)
                                                    136(v),188(v),557(r),215(v)
                                                    665(r),211(v),390(r),600(r)
                                                    167(g),336(r),598(r),1064(r)
                                                    634(r),328(r),783(r),829(r)
                                                    127(v),334(r),395(r),1062(r)
                                                    201(v),567(r),933(r),307(v)
                                                    128(v),492(r),495(r),198(v)
                                                    267(v),360(r),576(r),392(r)
                                                    301(v),423(r),187(v),332(r)
                                                    383(r),934(r),683(r),290(r)
                                                    220(v),223(v),990(v),843(r)
                                                    196(v),490(r),388(r),147(v)
                                                    983(v),273(v),299(v),993(g)
                                                    243(r),508(r),359(r),716(r)
                                                    176(g),499(r),971(v),177(g)
                                                    178(g),424(r),575(r),154(v)
                                                    271(v),503(r),237(r),936(r)
                                                    532(r),570(r),197(v),579(r)
                                                    493(r)
  1019. BD*(   1) P   3 - C   5          0.08094     0.19284   
  1020. BD*(   1) P   3 - C  10          0.07962     0.15605   
  1021. BD*(   1) P   3 - C  12          0.08418     0.15221   
  1022. BD*(   1) P   3 -Pd  63          0.18090     0.64295  1018(g),1010(g),1008(g)
                                                    999(g),183(g),1003(g),155(v)
                                                    992(g),1006(g),998(g),996(g)
                                                    997(g),1009(g),967(v),991(g)
                                                    1004(g),212(r),1007(g)
                                                    238(v),131(v),1000(g)
                                                    1005(g),132(v),356(v),134(v)
                                                    192(g),1001(g),135(v),325(v)
                                                    966(v),263(r),294(r),1082(g)
                                                    189(g),161(v),994(g),964(v)
                                                    1002(g),130(v),969(v),184(g)
                                                    163(v),239(v),357(v),213(r)
                                                    264(r),865(r),158(v),190(g)
                                                    173(v),289(r),191(g),970(v)
                                                    203(g),136(v),295(r),972(v)
                                                    326(v),162(v),387(r),165(v)
                                                    963(v),133(v),188(g),842(r)
                                                    214(r),637(r),935(r),215(r)
                                                    164(v),217(r),598(r),366(v)
                                                    167(v),241(v),968(v),336(v)
                                                    328(v),665(r),390(r),567(r)
                                                    211(r),783(r),600(r),201(g)
                                                    382(r),557(r),127(v),634(r)
                                                    576(r),198(g),334(v),965(v)
                                                    395(r),829(r),1064(r),933(r)
                                                    1023(v),1036(v),129(v)
                                                    495(r),958(r),267(r),492(r)
                                                    307(r),154(v),1062(r),683(r)
                                                    147(v),575(r),177(v),247(v)
                                                    290(r),934(r),196(g),273(r)
                                                    360(v),237(v),508(r),301(r)
                                                    332(v),983(v),423(r),499(r)
                                                    716(r),682(r),392(r),936(r)
                                                    249(v),271(r),223(r),503(r)
                                                    176(v),243(v),971(v),202(g)
                                                    149(v),1056(r),843(r),383(r)
                                                    199(g),472(r),651(r),798(r)
                                                    388(r),359(v),220(r)
  1023. BD*(   1) C   4 - C   5          0.03170     0.47605   
  1024. BD*(   2) C   4 - C   5          0.39870    -0.01201  1075(v),1080(v),1021(v)
                                                    1016(v),240(g),1017(v)
                                                    1020(v),214(g)
  1025. BD*(   1) C   4 - C  54          0.02940     0.48817   
  1026. BD*(   1) C   5 - C  60          0.02979     0.48960   
  1027. BD*(   1) C   6 - H   7          0.02775     0.35052   
  1028. BD*(   1) C   6 - C  14          0.02141     0.32898   
  1029. BD*(   1) C   6 - C  26          0.01999     0.34165   
  1030. BD*(   1) C   8 - H   9          0.02298     0.34171   
  1031. BD*(   1) C   8 - C  17          0.02006     0.31499   
  1032. BD*(   1) C   8 - C  29          0.01854     0.34181   
  1033. BD*(   1) C  10 - H  11          0.02774     0.33323   
  1034. BD*(   1) C  10 - C  20          0.01804     0.33131   
  1035. BD*(   1) C  10 - C  32          0.01898     0.34622   
  1036. BD*(   1) C  12 - H  13          0.02262     0.36220   
  1037. BD*(   1) C  12 - C  23          0.01951     0.32333   
  1038. BD*(   1) C  12 - C  35          0.01933     0.33967   
  1039. BD*(   1) C  14 - H  15          0.01573     0.35151   
  1040. BD*(   1) C  14 - H  16          0.01985     0.34402   
  1041. BD*(   1) C  14 - C  17          0.00998     0.33472   
  1042. BD*(   1) C  17 - H  18          0.01231     0.35428   
  1043. BD*(   1) C  17 - H  19          0.01584     0.35170   
  1044. BD*(   1) C  20 - H  21          0.01527     0.35576   
  1045. BD*(   1) C  20 - H  22          0.01990     0.37213   
  1046. BD*(   1) C  20 - C  23          0.00919     0.34447   
  1047. BD*(   1) C  23 - H  24          0.01371     0.35996   
  1048. BD*(   1) C  23 - H  25          0.01816     0.33944   
  1049. BD*(   1) C  26 - H  27          0.01823     0.35565   
  1050. BD*(   1) C  26 - H  28          0.01682     0.35195   
  1051. BD*(   1) C  26 - C  38          0.00465     0.35360   
  1052. BD*(   1) C  29 - H  30          0.01748     0.35717   
  1053. BD*(   1) C  29 - H  31          0.02043     0.38021   
  1054. BD*(   1) C  29 - C  42          0.00685     0.36753   
  1055. BD*(   1) C  32 - H  33          0.01736     0.35673   
  1056. BD*(   1) C  32 - H  34          0.01650     0.38598   
  1057. BD*(   1) C  32 - C  46          0.00526     0.35340   
  1058. BD*(   1) C  35 - H  36          0.01927     0.34889   
  1059. BD*(   1) C  35 - H  37          0.01753     0.34653   
  1060. BD*(   1) C  35 - C  50          0.00711     0.35172   
  1061. BD*(   1) C  38 - H  39          0.00601     0.38075   
  1062. BD*(   1) C  38 - H  40          0.00949     0.40860   
  1063. BD*(   1) C  38 - H  41          0.00855     0.38195   
  1064. BD*(   1) C  42 - H  43          0.01076     0.41376   
  1065. BD*(   1) C  42 - H  44          0.00580     0.38543   
  1066. BD*(   1) C  42 - H  45          0.00936     0.37399   
  1067. BD*(   1) C  46 - H  47          0.00933     0.37919   
  1068. BD*(   1) C  46 - H  48          0.00947     0.36541   
  1069. BD*(   1) C  46 - H  49          0.00584     0.37580   
  1070. BD*(   1) C  50 - H  51          0.00856     0.36812   
  1071. BD*(   1) C  50 - H  52          0.00874     0.37378   
  1072. BD*(   1) C  50 - H  53          0.00587     0.36794   
  1073. BD*(   1) C  54 - H  55          0.01687     0.37706   
  1074. BD*(   1) C  54 - C  56          0.01626     0.50657   
  1075. BD*(   2) C  54 - C  56          0.30507    -0.00547  1080(v),1024(v),872(g)
                                                    840(g)
  1076. BD*(   1) C  56 - H  57          0.01299     0.37236   
  1077. BD*(   1) C  56 - C  58          0.01411     0.50296   
  1078. BD*(   1) C  58 - H  59          0.01317     0.37179   
  1079. BD*(   1) C  58 - C  60          0.01630     0.50749   
  1080. BD*(   2) C  58 - C  60          0.30603    -0.00499  1075(v),1024(v),903(g)
                                                    933(g)
  1081. BD*(   1) C  60 - H  61          0.01653     0.36872   
  1082. BD*(   1)Cl  62 -Pd  63          0.19741     0.14864  1014(g),1017(v),1022(g)
                                                    1004(g),1021(v),183(v)
                                                    1010(g),996(g),1008(g)
                                                    1020(v),999(g),1006(g)
                                                    997(g),155(v),1019(v)
                                                    1009(g),1056(r),998(g)
                                                    966(g),995(g),1002(g)
                                                    1003(g),1036(r),992(g)
                                                    967(g),238(r),963(g),158(v)
       -------------------------------
              Total Lewis  274.38935  ( 98.7012%)
        Valence non-Lewis    3.23638  (  1.1642%)
        Rydberg non-Lewis    0.37427  (  0.1346%)
       -------------------------------
            Total unit  1  278.00000  (100.0000%)
           Charge unit  1    0.00000
 1\1\GINC-NC053\SP\RPBE1PBE\Gen\C22H36Cl2P2Pd1\MACKK4\05-Dec-2021\0\\# 
 PBE1PBE gen pseudo=read int=(grid=ultrafine) empiricaldispersion=GD3BJ
  pop=nbo guess=read geom=check\\SS_Et_DuPhos_5 title\\0,1\Cl,0,-1.4042
 922321,-3.7649765128,1.1369715847\P,0,-1.6017437191,-0.7752098351,-0.0
 293232936\P,0,1.4769216861,-0.1960053367,0.3445024174\C,0,-0.975783870
 4,0.9265252768,-0.4277196862\C,0,0.4020928137,1.189915955,-0.226703740
 1\C,0,-3.0499757874,-0.6333461061,1.1446358809\H,0,-3.1458220544,-1.69
 1557264,1.4654507917\C,0,-2.6641139806,-1.2748288009,-1.5144170352\H,0
 ,-2.4826857104,-0.4875009528,-2.2714351486\C,0,2.5390409642,0.47774254
 12,1.7418911959\H,0,2.5762400278,1.5736766533,1.5655954173\C,0,2.92492
 32335,-0.4342131388,-0.852246081\H,0,2.9810916549,-1.536184361,-0.9283
 729506\C,0,-4.2463178372,-0.305935948,0.2361308766\H,0,-5.1921558741,-
 0.490047718,0.7774562496\H,0,-4.2479245057,0.7656128523,-0.037134776\C
 ,0,-4.1313855702,-1.2102680849,-1.0026583964\H,0,-4.8065906185,-0.8909
 690021,-1.81562562\H,0,-4.4295898144,-2.234957149,-0.7153199615\C,0,3.
 9282980525,-0.106480593,1.4258998618\H,0,4.6992136654,0.4046958139,2.0
 301478231\H,0,3.9383552212,-1.1794801973,1.6862740096\C,0,4.1625770929
 ,0.0802744686,-0.0784042723\H,0,5.0685940085,-0.4468729014,-0.42537896
 93\H,0,4.305884831,1.1564740968,-0.3030267926\C,0,-2.846306015,0.24193
 89711,2.388484304\H,0,-2.3306949495,1.1839105425,2.1176426865\H,0,-3.8
 440183053,0.5414015492,2.763147198\C,0,-2.3303284573,-2.6512146276,-2.
 1157092759\H,0,-3.1154485953,-2.8724237723,-2.8653363523\H,0,-2.417749
 9596,-3.4098111371,-1.3175776777\C,0,2.0052606375,0.2198901391,3.15551
 71779\H,0,2.8526558826,0.3053439999,3.8622543649\H,0,1.6472675514,-0.8
 236582656,3.2225907008\C,0,2.7851106188,0.1790808389,-2.2516608292\H,0
 ,2.6605981427,1.2751994039,-2.1667989261\H,0,3.75313033,0.0251174559,-
 2.7670824033\C,0,-2.0871097819,-0.5025387224,3.4941072561\H,0,-1.90468
 89423,0.1475551303,4.3657991323\H,0,-1.114748388,-0.8774144119,3.12832
 23904\H,0,-2.660204832,-1.3830307351,3.8311098841\C,0,-0.9494391991,-2
 .7536920577,-2.7597556172\H,0,-0.1590441419,-2.6101691372,-1.999834534
 4\H,0,-0.8004392847,-3.7525324051,-3.2028101345\H,0,-0.8088242135,-2.0
 005856413,-3.5558988738\C,0,0.9090492403,1.2138298079,3.5519793905\H,0
 ,0.0614577468,1.1813380125,2.8457698249\H,0,1.2977669171,2.248457353,3
 .556011435\H,0,0.5125993886,0.9954383587,4.5570877461\C,0,1.6557396109
 ,-0.4078543677,-3.0991086395\H,0,1.7523343933,-1.502770348,-3.18955947
 75\H,0,0.6692033904,-0.1971589504,-2.6527058104\H,0,1.6609293557,0.021
 3096943,-4.1155246175\C,0,-1.8014221113,1.9539539163,-0.9257971664\H,0
 ,-2.861281402,1.7639410222,-1.1151508772\C,0,-1.2791827933,3.226415908
 8,-1.1921978833\H,0,-1.9364007323,4.0138327772,-1.5744243005\C,0,0.079
 3282156,3.4898031489,-0.9692127274\H,0,0.4891249251,4.4837922034,-1.17
 42643181\C,0,0.9160828331,2.4734983356,-0.4922673813\H,0,1.978890296,2
 .6812044185,-0.328109432\Cl,0,2.1051380785,-3.1830899304,1.3930754071\
 Pd,0,0.1519128728,-1.9898922343,0.6958989717\\Version=ES64L-G09RevE.01
 \State=1-A\HF=-2590.0384514\RMSD=3.298e-09\Dipole=-0.6155477,4.4400077
 ,-1.6410051\Quadrupole=11.5906195,-12.5098436,0.9192241,4.1364091,0.43
 06263,5.4125938\PG=C01 [X(C22H36Cl2P2Pd1)]\\@


 Happiness is a conscious choice, not an automatic response.
 -- Mildred Barthel
 Job cpu time:       0 days  1 hours  4 minutes  7.4 seconds.
 File lengths (MBytes):  RWF=    602 Int=      0 D2E=      0 Chk=     96 Scr=      1
 Normal termination of Gaussian 09 at Sun Dec  5 10:33:50 2021.
