 Entering Gaussian System, Link 0=g09
 Input=SS_Et_DuPhos_3_SPE.com
 Output=SS_Et_DuPhos_3_SPE.log
 Initial command:
 /gstore/apps/gaussian/g09.e01-foss-2017a/g09/l1.exe "/local/22791410/Gau-25348.inp" -scrdir="/local/22791410/"
 Entering Link 1 = /gstore/apps/gaussian/g09.e01-foss-2017a/g09/l1.exe PID=     25349.
  
 Copyright (c) 1988,1990,1992,1993,1995,1998,2003,2009,2015,
            Gaussian, Inc.  All Rights Reserved.
  
 This is part of the Gaussian(R) 09 program.  It is based on
 the Gaussian(R) 03 system (copyright 2003, Gaussian, Inc.),
 the Gaussian(R) 98 system (copyright 1998, Gaussian, Inc.),
 the Gaussian(R) 94 system (copyright 1995, Gaussian, Inc.),
 the Gaussian 92(TM) system (copyright 1992, Gaussian, Inc.),
 the Gaussian 90(TM) system (copyright 1990, Gaussian, Inc.),
 the Gaussian 88(TM) system (copyright 1988, Gaussian, Inc.),
 the Gaussian 86(TM) system (copyright 1986, Carnegie Mellon
 University), and the Gaussian 82(TM) system (copyright 1983,
 Carnegie Mellon University). Gaussian is a federally registered
 trademark of Gaussian, Inc.
  
 This software contains proprietary and confidential information,
 including trade secrets, belonging to Gaussian, Inc.
  
 This software is provided under written license and may be
 used, copied, transmitted, or stored only in accord with that
 written license.
  
 The following legend is applicable only to US Government
 contracts under FAR:
  
                    RESTRICTED RIGHTS LEGEND
  
 Use, reproduction and disclosure by the US Government is
 subject to restrictions as set forth in subparagraphs (a)
 and (c) of the Commercial Computer Software - Restricted
 Rights clause in FAR 52.227-19.
  
 Gaussian, Inc.
 340 Quinnipiac St., Bldg. 40, Wallingford CT 06492
  
  
 ---------------------------------------------------------------
 Warning -- This program may not be used in any manner that
 competes with the business of Gaussian, Inc. or will provide
 assistance to any competitor of Gaussian, Inc.  The licensee
 of this program is prohibited from giving any competitor of
 Gaussian, Inc. access to this program.  By using this program,
 the user acknowledges that Gaussian, Inc. is engaged in the
 business of creating and licensing software in the field of
 computational chemistry and represents and warrants to the
 licensee that it is not a competitor of Gaussian, Inc. and that
 it will not use this program in any manner prohibited above.
 ---------------------------------------------------------------
  

 Cite this work as:
 Gaussian 09, Revision E.01,
 M. J. Frisch, G. W. Trucks, H. B. Schlegel, G. E. Scuseria, 
 M. A. Robb, J. R. Cheeseman, G. Scalmani, V. Barone, B. Mennucci, 
 G. A. Petersson, H. Nakatsuji, M. Caricato, X. Li, H. P. Hratchian, 
 A. F. Izmaylov, J. Bloino, G. Zheng, J. L. Sonnenberg, M. Hada, 
 M. Ehara, K. Toyota, R. Fukuda, J. Hasegawa, M. Ishida, T. Nakajima, 
 Y. Honda, O. Kitao, H. Nakai, T. Vreven, J. A. Montgomery, Jr., 
 J. E. Peralta, F. Ogliaro, M. Bearpark, J. J. Heyd, E. Brothers, 
 K. N. Kudin, V. N. Staroverov, T. Keith, R. Kobayashi, J. Normand, 
 K. Raghavachari, A. Rendell, J. C. Burant, S. S. Iyengar, J. Tomasi, 
 M. Cossi, N. Rega, J. M. Millam, M. Klene, J. E. Knox, J. B. Cross, 
 V. Bakken, C. Adamo, J. Jaramillo, R. Gomperts, R. E. Stratmann, 
 O. Yazyev, A. J. Austin, R. Cammi, C. Pomelli, J. W. Ochterski, 
 R. L. Martin, K. Morokuma, V. G. Zakrzewski, G. A. Voth, 
 P. Salvador, J. J. Dannenberg, S. Dapprich, A. D. Daniels, 
 O. Farkas, J. B. Foresman, J. V. Ortiz, J. Cioslowski, 
 and D. J. Fox, Gaussian, Inc., Wallingford CT, 2013.
 
 ******************************************
 Gaussian 09:  ES64L-G09RevE.01 30-Nov-2015
                 5-Dec-2021 
 ******************************************
 %nprocs=14
 Will use up to   14 processors via shared memory.
 %mem=128GB
 %chk=SS_Et_DuPhos_3_SPE.chk
 ----------------------------------------------------------------------
 # PBE1PBE gen pseudo=read int=(grid=ultrafine) empiricaldispersion=GD3
 BJ nmr=giao
 ----------------------------------------------------------------------
 1/38=1/1;
 2/12=2,17=6,18=5,40=1/2;
 3/5=7,11=2,16=1,17=8,25=1,30=1,74=-13,75=-5,124=41/1,2,8,3;
 4//1;
 5/5=2,38=5/2;
 8/6=1,10=90,11=11/1;
 10/13=100,45=16/2;
 6/7=2,8=2,9=2,10=2,28=1/1;
 99/9=1/99;
 --------------------
 SS_Et_DuPhos_3 title
 --------------------
 Symbolic Z-matrix:
 Charge =  0 Multiplicity = 1
 Cl                   -1.29048  -3.74994   1.14938 
 P                    -1.57511  -0.71571   0.04597 
 P                     1.47763  -0.11576   0.32967 
 C                    -0.99044   0.98654  -0.38719 
 C                     0.39218   1.2558   -0.25524 
 C                    -2.93216  -0.67193   1.35826 
 H                    -2.54622  -1.32999   2.1565 
 C                    -2.69203  -1.17514  -1.40891 
 H                    -2.46076  -0.4504   -2.21188 
 C                     2.40307   0.60482   1.79879 
 H                     2.41419   1.69211   1.57421 
 C                     3.00903  -0.28741  -0.7533 
 H                     3.12871  -1.38791  -0.77162 
 C                    -4.11457  -1.36537   0.63965 
 H                    -3.97308  -2.45757   0.71302 
 H                    -5.06871  -1.11257   1.13613 
 C                    -4.1132   -0.94504  -0.83949 
 H                    -4.39206   0.12274  -0.92424 
 H                    -4.85441  -1.51686  -1.42623 
 C                     3.83414   0.07815   1.57802 
 H                     4.54308   0.60173   2.2444 
 H                     3.87802  -1.00184   1.80514 
 C                     4.15768   0.30986   0.09222 
 H                     5.11743  -0.15243  -0.19843 
 H                     4.24408   1.39699  -0.10803 
 C                    -3.2612    0.706     1.95607 
 H                    -3.54972   1.42397   1.16618 
 H                    -4.16211   0.57141   2.58517 
 C                    -2.46859  -2.59896  -1.95156 
 H                    -3.28287  -2.7943   -2.67646 
 H                    -2.57191  -3.33205  -1.13301 
 C                     1.78432   0.43792   3.19688 
 H                     0.81646   0.97293   3.21565 
 H                     2.44371   0.99004   3.89549 
 C                     2.89879   0.2362   -2.18917 
 H                     2.72752   1.32934  -2.18567 
 H                     3.88556   0.08496  -2.66809 
 C                    -2.13274   1.29328   2.81044 
 H                    -2.45454   2.22352   3.30832 
 H                    -1.24665   1.53327   2.19881 
 H                    -1.81913   0.57788   3.59093 
 C                    -1.11197  -2.79282  -2.63155 
 H                    -0.28836  -2.67844  -1.90163 
 H                    -1.03075  -3.80703  -3.05639 
 H                    -0.95605  -2.06305  -3.4475 
 C                     1.58615  -0.99293   3.70504 
 H                     2.5166   -1.58199   3.66867 
 H                     0.84216  -1.54095   3.10027 
 H                     1.23097  -0.97379   4.74984 
 C                     1.81344  -0.45995  -3.01688 
 H                     1.94616  -1.55524  -3.00627 
 H                     0.80684  -0.24678  -2.61714 
 H                     1.83502  -0.11996  -4.06612 
 C                    -1.84819   1.99405  -0.86917 
 H                    -2.91542   1.78967  -1.00171 
 C                    -1.34431   3.26115  -1.18995 
 H                    -2.02046   4.03679  -1.56313 
 C                     0.02205   3.5354   -1.03241 
 H                     0.41577   4.52632  -1.27941 
 C                     0.88705   2.5362   -0.56854 
 H                     1.95443   2.75371  -0.45439 
 Cl                    2.23625  -3.22358   0.94159 
 Pd                    0.21991  -1.96358   0.5954 
 
 Stoichiometry    C22H36Cl2P2Pd
 Framework group  C1[X(C22H36Cl2P2Pd)]
 Deg. of freedom   183
 Full point group                 C1      NOp   1
 Largest Abelian subgroup         C1      NOp   1
 Largest concise Abelian subgroup C1      NOp   1
                         Standard orientation:                         
 ---------------------------------------------------------------------
 Center     Atomic      Atomic             Coordinates (Angstroms)
 Number     Number       Type             X           Y           Z
 ---------------------------------------------------------------------
      1         17           0       -1.596112   -3.029465    0.311475
      2         15           0       -1.558832    0.194915   -0.015771
      3         15           0        1.560892    0.358406   -0.000400
      4          6           0       -0.786265    1.874206   -0.116818
      5          6           0        0.626690    1.945039   -0.107085
      6          6           0       -2.759499    0.068056    1.436102
      7          1           0       -2.392843   -0.805031    2.003949
      8          6           0       -2.867849    0.235761   -1.379616
      9          1           0       -2.617579    1.104568   -2.016821
     10          6           0        2.719442    0.587108    1.462288
     11          1           0        2.861145    1.687834    1.495055
     12          6           0        2.938023    0.286178   -1.283269
     13          1           0        2.899246   -0.782408   -1.570315
     14          6           0       -4.093023   -0.289748    0.736803
     15          1           0       -4.100063   -1.375306    0.537264
     16          1           0       -4.948181   -0.060555    1.397826
     17          6           0       -4.179039    0.477901   -0.592806
     18          1           0       -4.311881    1.558241   -0.392031
     19          1           0       -5.047771    0.155030   -1.194216
     20          6           0        4.033183   -0.027279    0.942011
     21          1           0        4.871232    0.233247    1.613276
     22          1           0        3.946940   -1.127810    0.906232
     23          6           0        4.237335    0.524046   -0.479375
     24          1           0        5.088924    0.041996   -0.990966
     25          1           0        4.455588    1.610160   -0.432970
     26          6           0       -2.830519    1.285125    2.373143
     27          1           0       -3.091947    2.202859    1.814514
     28          1           0       -3.674614    1.102773    3.065802
     29          6           0       -2.901846   -1.027110   -2.260333
     30          1           0       -3.803269   -0.945343   -2.898641
     31          1           0       -3.025705   -1.922214   -1.626635
     32          6           0        2.224917    0.153030    2.852389
     33          1           0        1.348642    0.772761    3.119628
     34          1           0        3.021364    0.438710    3.567761
     35          6           0        2.760886    1.155240   -2.532826
     36          1           0        2.746339    2.226196   -2.255080
     37          1           0        3.664212    1.015836   -3.157741
     38          6           0       -1.551625    1.513477    3.185890
     39          1           0       -1.688411    2.323214    3.922372
     40          1           0       -0.705563    1.794695    2.536317
     41          1           0       -1.266050    0.597697    3.732793
     42          6           0       -1.660097   -1.199921   -3.137015
     43          1           0       -0.760373   -1.361929   -2.513745
     44          1           0       -1.764887   -2.081291   -3.791172
     45          1           0       -1.484635   -0.314587   -3.775789
     46          6           0        1.878693   -1.326984    3.038150
     47          1           0        2.708773   -1.990213    2.746339
     48          1           0        1.008790   -1.622205    2.425205
     49          1           0        1.634993   -1.524959    4.096231
     50          6           0        1.511780    0.810643   -3.350578
     51          1           0        1.489443   -0.261494   -3.610211
     52          1           0        0.589782    1.031352   -2.785166
     53          1           0        1.476944    1.393130   -4.286769
     54          6           0       -1.537181    3.059361   -0.237792
     55          1           0       -2.630385    3.015557   -0.274096
     56          6           0       -0.894297    4.301229   -0.320343
     57          1           0       -1.488179    5.215932   -0.413473
     58          6           0        0.505877    4.372409   -0.282666
     59          1           0        1.008695    5.342679   -0.343459
     60          6           0        1.263317    3.198887   -0.178180
     61          1           0        2.356691    3.259831   -0.156599
     62         17           0        1.931487   -2.869656   -0.225660
     63         46           0        0.088237   -1.343992   -0.006944
 ---------------------------------------------------------------------
 Rotational constants (GHZ):      0.1692976      0.1408008      0.1176460
 General basis read from cards:  (5D, 7F)
 ======================================================================================================
                                       Pseudopotential Parameters
 ======================================================================================================
  Center     Atomic      Valence      Angular      Power
  Number     Number     Electrons     Momentum     of R      Exponent        Coefficient   SO-Coeffient
 ======================================================================================================
    1         17
                                   No pseudopotential on this center.
    2         15
                                   No pseudopotential on this center.
    3         15
                                   No pseudopotential on this center.
    4          6
                                   No pseudopotential on this center.
    5          6
                                   No pseudopotential on this center.
    6          6
                                   No pseudopotential on this center.
    7          1
                                   No pseudopotential on this center.
    8          6
                                   No pseudopotential on this center.
    9          1
                                   No pseudopotential on this center.
   10          6
                                   No pseudopotential on this center.
   11          1
                                   No pseudopotential on this center.
   12          6
                                   No pseudopotential on this center.
   13          1
                                   No pseudopotential on this center.
   14          6
                                   No pseudopotential on this center.
   15          1
                                   No pseudopotential on this center.
   16          1
                                   No pseudopotential on this center.
   17          6
                                   No pseudopotential on this center.
   18          1
                                   No pseudopotential on this center.
   19          1
                                   No pseudopotential on this center.
   20          6
                                   No pseudopotential on this center.
   21          1
                                   No pseudopotential on this center.
   22          1
                                   No pseudopotential on this center.
   23          6
                                   No pseudopotential on this center.
   24          1
                                   No pseudopotential on this center.
   25          1
                                   No pseudopotential on this center.
   26          6
                                   No pseudopotential on this center.
   27          1
                                   No pseudopotential on this center.
   28          1
                                   No pseudopotential on this center.
   29          6
                                   No pseudopotential on this center.
   30          1
                                   No pseudopotential on this center.
   31          1
                                   No pseudopotential on this center.
   32          6
                                   No pseudopotential on this center.
   33          1
                                   No pseudopotential on this center.
   34          1
                                   No pseudopotential on this center.
   35          6
                                   No pseudopotential on this center.
   36          1
                                   No pseudopotential on this center.
   37          1
                                   No pseudopotential on this center.
   38          6
                                   No pseudopotential on this center.
   39          1
                                   No pseudopotential on this center.
   40          1
                                   No pseudopotential on this center.
   41          1
                                   No pseudopotential on this center.
   42          6
                                   No pseudopotential on this center.
   43          1
                                   No pseudopotential on this center.
   44          1
                                   No pseudopotential on this center.
   45          1
                                   No pseudopotential on this center.
   46          6
                                   No pseudopotential on this center.
   47          1
                                   No pseudopotential on this center.
   48          1
                                   No pseudopotential on this center.
   49          1
                                   No pseudopotential on this center.
   50          6
                                   No pseudopotential on this center.
   51          1
                                   No pseudopotential on this center.
   52          1
                                   No pseudopotential on this center.
   53          1
                                   No pseudopotential on this center.
   54          6
                                   No pseudopotential on this center.
   55          1
                                   No pseudopotential on this center.
   56          6
                                   No pseudopotential on this center.
   57          1
                                   No pseudopotential on this center.
   58          6
                                   No pseudopotential on this center.
   59          1
                                   No pseudopotential on this center.
   60          6
                                   No pseudopotential on this center.
   61          1
                                   No pseudopotential on this center.
   62         17
                                   No pseudopotential on this center.
   63         46           18
                                      G and up 
                                                     2        1.0000000        0.00000000    0.00000000
                                      S - G
                                                     2       12.4300000      240.22904000    0.00000000
                                                     2        6.1707590       35.17194300    0.00000000
                                      P - G
                                                     2       11.0800000      170.41727600    0.00000000
                                                     2        5.8295540       28.47213300    0.00000000
                                      D - G
                                                     2        9.5100000       69.01384500    0.00000000
                                                     2        4.1397810       11.75086200    0.00000000
                                      F - G
                                                     2       13.2700000      -31.92955400    0.00000000
                                                     2        6.6300000       -5.39821700    0.00000000
 ======================================================================================================
 There are  1215 symmetry adapted cartesian basis functions of A   symmetry.
 There are  1082 symmetry adapted basis functions of A   symmetry.
  1082 basis functions,  1751 primitive gaussians,  1215 cartesian basis functions
   125 alpha electrons      125 beta electrons
       nuclear repulsion energy      4039.8714187677 Hartrees.
 NAtoms=   63 NActive=   63 NUniq=   63 SFac= 1.00D+00 NAtFMM=   60 NAOKFM=T Big=T
 Integral buffers will be    131072 words long.
 Raffenetti 2 integral format.
 Two-electron integral symmetry is turned on.
 Nuclear repulsion after empirical dispersion term =     4039.7667286867 Hartrees.
 One-electron integrals computed using PRISM.
   1 Symmetry operations used in ECPInt.
 ECPInt:  NShTT=  102378 NPrTT=  309252 LenC2=   90242 LenP2D=  189881.
 LDataN:  DoStor=T MaxTD1= 7 Len=  274
 NBasis=  1082 RedAO= T EigKep=  4.91D-06  NBF=  1082
 NBsUse=  1082 1.00D-06 EigRej= -1.00D+00 NBFU=  1082
 Defaulting to unpruned grid for atomic number  46.
 ExpMin= 1.60D-02 ExpMax= 6.95D+04 ExpMxC= 2.37D+03 IAcc=3 IRadAn=         5 AccDes= 0.00D+00
 Harris functional with IExCor= 1009 and IRadAn=       5 diagonalized for initial guess.
 HarFok:  IExCor= 1009 AccDes= 0.00D+00 IRadAn=         5 IDoV= 1 UseB2=F ITyADJ=14
 ICtDFT=  3500011 ScaDFX=  1.000000  1.000000  1.000000  1.000000
 Defaulting to unpruned grid for atomic number  46.
 Defaulting to unpruned grid for atomic number  46.
 Defaulting to unpruned grid for atomic number  46.
 Defaulting to unpruned grid for atomic number  46.
 Defaulting to unpruned grid for atomic number  46.
 Defaulting to unpruned grid for atomic number  46.
 Defaulting to unpruned grid for atomic number  46.
 Defaulting to unpruned grid for atomic number  46.
 Defaulting to unpruned grid for atomic number  46.
 Defaulting to unpruned grid for atomic number  46.
 Defaulting to unpruned grid for atomic number  46.
 Defaulting to unpruned grid for atomic number  46.
 Defaulting to unpruned grid for atomic number  46.
 Defaulting to unpruned grid for atomic number  46.
 FoFCou: FMM=F IPFlag=           0 FMFlag=      100000 FMFlg1=        2001
         NFxFlg=           0 DoJE=T BraDBF=F KetDBF=T FulRan=T
         wScrn=  0.000000 ICntrl=     500 IOpCl=  0 I1Cent=   200000004 NGrid=           0
         NMat0=    1 NMatS0=      1 NMatT0=    0 NMatD0=    1 NMtDS0=    0 NMtDT0=    0
 Petite list used in FoFCou.
 Requested convergence on RMS density matrix=1.00D-08 within 128 cycles.
 Requested convergence on MAX density matrix=1.00D-06.
 Requested convergence on             energy=1.00D-06.
 No special actions if energy rises.
 Defaulting to unpruned grid for atomic number  46.
 Defaulting to unpruned grid for atomic number  46.
 Defaulting to unpruned grid for atomic number  46.
 Defaulting to unpruned grid for atomic number  46.
 Defaulting to unpruned grid for atomic number  46.
 Defaulting to unpruned grid for atomic number  46.
 Defaulting to unpruned grid for atomic number  46.
 Defaulting to unpruned grid for atomic number  46.
 Defaulting to unpruned grid for atomic number  46.
 Defaulting to unpruned grid for atomic number  46.
 Defaulting to unpruned grid for atomic number  46.
 Defaulting to unpruned grid for atomic number  46.
 Defaulting to unpruned grid for atomic number  46.
 Defaulting to unpruned grid for atomic number  46.
 EnCoef did     3 forward-backward iterations
 EnCoef did   100 forward-backward iterations
 SCF Done:  E(RPBE1PBE) =  -2590.03502164     A.U. after   18 cycles
            NFock= 18  Conv=0.34D-08     -V/T= 2.0353
 DoSCS=F DFT=T ScalE2(SS,OS)=  1.000000  1.000000
 Range of M.O.s used for correlation:     1  1082
 NBasis=  1082 NAE=   125 NBE=   125 NFC=     0 NFV=     0
 NROrb=   1082 NOA=   125 NOB=   125 NVA=   957 NVB=   957

 **** Warning!!: The largest alpha MO coefficient is  0.46140632D+02

          Differentiating once with respect to magnetic field using GIAOs.
          Electric field/nuclear overlap derivatives assumed to be zero.
 Defaulting to unpruned grid for atomic number  46.
 FoFCou: FMM=F IPFlag=           0 FMFlag=      100000 FMFlg1=        2001
         NFxFlg=           0 DoJE=F BraDBF=F KetDBF=T FulRan=T
         wScrn=  0.000000 ICntrl=    6100 IOpCl=  0 I1Cent=           7 NGrid=          63
         NMat0=    1 NMatS0=      1 NMatT0=    0 NMatD0=    1 NMtDS0=    0 NMtDT0=    0
 Symmetry not used in FoFCou.
   1 Symmetry operations used in ECPInt.
 ECPInt:  NShTT=  102378 NPrTT=  309252 LenC2=  102379 LenP2D=  309252.
 LDataN:  DoStor=T MaxTD1= 8 Len=  415
 FoFJK:  IHMeth= 1 ICntrl=    6127 DoSepK=F KAlg= 0 I1Cent=   0 FoldK=F
 IRaf=         1 NMat=   1 IRICut=       1 DoRegI=T DoRafI=F ISym2E= 0.
 Defaulting to unpruned grid for atomic number  46.
 Defaulting to unpruned grid for atomic number  46.
 Defaulting to unpruned grid for atomic number  46.
 Defaulting to unpruned grid for atomic number  46.
 Defaulting to unpruned grid for atomic number  46.
 Defaulting to unpruned grid for atomic number  46.
 Defaulting to unpruned grid for atomic number  46.
 Defaulting to unpruned grid for atomic number  46.
 Defaulting to unpruned grid for atomic number  46.
 Defaulting to unpruned grid for atomic number  46.
 Defaulting to unpruned grid for atomic number  46.
 Defaulting to unpruned grid for atomic number  46.
 Defaulting to unpruned grid for atomic number  46.
 Defaulting to unpruned grid for atomic number  46.
          There are     3 degrees of freedom in the 1st order CPHF.  IDoFFX=0 NUNeed=     3.
      3 vectors produced by pass  0 Test12= 3.99D-12 3.33D-08 XBig12= 9.04D+01 1.63D+00.
 AX will form     3 AO Fock derivatives at one time.
      3 vectors produced by pass  1 Test12= 3.99D-12 3.33D-08 XBig12= 3.53D-01 1.71D-01.
      3 vectors produced by pass  2 Test12= 3.99D-12 3.33D-08 XBig12= 5.42D-03 2.62D-02.
      3 vectors produced by pass  3 Test12= 3.99D-12 3.33D-08 XBig12= 9.64D-05 3.37D-03.
      3 vectors produced by pass  4 Test12= 3.99D-12 3.33D-08 XBig12= 5.04D-07 1.13D-04.
      3 vectors produced by pass  5 Test12= 3.99D-12 3.33D-08 XBig12= 1.57D-09 8.03D-06.
      3 vectors produced by pass  6 Test12= 3.99D-12 3.33D-08 XBig12= 1.21D-11 1.33D-06.
      2 vectors produced by pass  7 Test12= 3.99D-12 3.33D-08 XBig12= 9.63D-14 8.39D-08.
 InvSVY:  IOpt=1 It=  1 EMax= 1.78D-15
 Solved reduced A of dimension    23 with     3 vectors.
 Calculating GIAO nuclear magnetic shielding tensors.
 SCF GIAO Magnetic shielding tensor (ppm):
      1  Cl   Isotropic =  1011.5758   Anisotropy =   517.7361
   XX=   764.8213   YX=   103.4377   ZX=   -54.7170
   XY=   130.9516   YY=   914.8350   ZY=   -53.9488
   XZ=    12.3565   YZ=   101.2483   ZZ=  1355.0712
   Eigenvalues:   699.3185   978.6758  1356.7332
      2  P    Isotropic =   180.0901   Anisotropy =   151.7745
   XX=   255.7834   YX=   -43.5126   ZX=    -0.9836
   XY=   -42.0183   YY=   205.3586   ZY=    31.8357
   XZ=    -5.5421   YZ=    15.1844   ZZ=    79.1282
   Eigenvalues:    74.7776   184.2196   281.2731
      3  P    Isotropic =   197.5109   Anisotropy =   145.9200
   XX=   250.8711   YX=    22.3358   ZX=   -15.0681
   XY=    52.8536   YY=   253.6580   ZY=   -33.3916
   XZ=   -14.0757   YZ=   -26.7024   ZZ=    88.0036
   Eigenvalues:    82.3367   215.4051   294.7909
      4  C    Isotropic =    31.1371   Anisotropy =   180.9611
   XX=   -15.0984   YX=   -29.7866   ZX=     2.6165
   XY=   -27.6349   YY=   -42.6999   ZY=    15.7135
   XZ=     7.4638   YZ=     3.7795   ZZ=   151.2096
   Eigenvalues:   -61.3171     2.9506   151.7778
      5  C    Isotropic =    32.9241   Anisotropy =   177.4169
   XX=   -18.5282   YX=    31.5877   ZX=    -1.2512
   XY=    31.9720   YY=   -30.0856   ZY=    14.1018
   XZ=    21.2343   YZ=    29.7358   ZZ=   147.3861
   Eigenvalues:   -57.1588     4.7290   151.2020
      6  C    Isotropic =   132.2503   Anisotropy =    20.3563
   XX=   141.6989   YX=     1.8815   ZX=    -5.8291
   XY=     9.7319   YY=   114.9967   ZY=     9.3560
   XZ=    -3.8668   YZ=     1.8848   ZZ=   140.0553
   Eigenvalues:   112.2503   138.6794   145.8212
      7  H    Isotropic =    27.7166   Anisotropy =     4.7886
   XX=    26.4297   YX=    -2.4094   ZX=    -0.9966
   XY=    -3.1957   YY=    29.1234   ZY=    -0.3981
   XZ=    -1.5800   YZ=    -0.6000   ZZ=    27.5966
   Eigenvalues:    24.1343    28.1065    30.9090
      8  C    Isotropic =   126.1050   Anisotropy =    26.7957
   XX=   135.6058   YX=    -1.8238   ZX=     9.7208
   XY=    -9.6719   YY=   113.3612   ZY=     5.9750
   XZ=    11.1569   YZ=    -4.6504   ZZ=   129.3480
   Eigenvalues:   111.2822   123.0640   143.9688
      9  H    Isotropic =    29.1805   Anisotropy =     4.2284
   XX=    27.4040   YX=    -0.4280   ZX=    -0.4330
   XY=     0.0774   YY=    30.7729   ZY=    -2.8039
   XZ=     3.0009   YZ=    -0.4307   ZZ=    29.3645
   Eigenvalues:    26.6765    28.8655    31.9994
     10  C    Isotropic =   124.5835   Anisotropy =    24.4194
   XX=   138.3479   YX=     4.3430   ZX=    -2.7148
   XY=    -5.0021   YY=   110.5235   ZY=     9.5161
   XZ=    15.3303   YZ=    -3.3888   ZZ=   124.8790
   Eigenvalues:   109.8008   123.0865   140.8631
     11  H    Isotropic =    28.7381   Anisotropy =     5.5423
   XX=    27.0399   YX=     1.8545   ZX=     0.6231
   XY=     1.5879   YY=    31.5822   ZY=     1.4988
   XZ=     2.4844   YZ=    -0.1889   ZZ=    27.5922
   Eigenvalues:    25.5833    28.1981    32.4329
     12  C    Isotropic =   134.2961   Anisotropy =    24.6620
   XX=   149.2042   YX=    -1.3927   ZX=    -1.6974
   XY=     0.4460   YY=   109.0133   ZY=    -9.3585
   XZ=    -3.7638   YZ=    -6.4764   ZZ=   144.6708
   Eigenvalues:   107.3090   144.8419   150.7374
     13  H    Isotropic =    26.8168   Anisotropy =     6.5902
   XX=    25.4417   YX=     1.7472   ZX=    -1.8857
   XY=     2.5637   YY=    30.1873   ZY=    -0.2090
   XZ=    -2.7129   YZ=    -0.2553   ZZ=    24.8215
   Eigenvalues:    22.5889    26.6513    31.2103
     14  C    Isotropic =   147.5215   Anisotropy =    35.2746
   XX=   169.3740   YX=     6.1304   ZX=     2.1677
   XY=    11.6604   YY=   119.8690   ZY=   -10.6059
   XZ=     2.0135   YZ=     3.0256   ZZ=   153.3216
   Eigenvalues:   117.8464   153.6802   171.0379
     15  H    Isotropic =    28.3471   Anisotropy =     6.7648
   XX=    29.1941   YX=     1.8798   ZX=    -0.4777
   XY=     1.9922   YY=    31.8327   ZY=    -0.3778
   XZ=    -0.1818   YZ=     0.5398   ZZ=    24.0146
   Eigenvalues:    23.9878    28.1965    32.8570
     16  H    Isotropic =    29.6365   Anisotropy =    11.7468
   XX=    35.1109   YX=     0.3144   ZX=    -4.4604
   XY=     1.3638   YY=    24.6289   ZY=    -0.2279
   XZ=    -4.2688   YZ=     0.0500   ZZ=    29.1698
   Eigenvalues:    24.5388    26.9030    37.4677
     17  C    Isotropic =   146.0333   Anisotropy =    30.7411
   XX=   165.8432   YX=    -1.2683   ZX=    -3.1724
   XY=    -5.7193   YY=   120.1042   ZY=    -8.9514
   XZ=    -2.1302   YZ=     3.5297   ZZ=   152.1526
   Eigenvalues:   119.5790   151.9936   166.5274
     18  H    Isotropic =    29.1509   Anisotropy =     9.7213
   XX=    29.6435   YX=    -4.2253   ZX=    -0.0073
   XY=    -4.5614   YY=    32.4077   ZY=    -0.3271
   XZ=    -0.1826   YZ=     0.3718   ZZ=    25.4015
   Eigenvalues:    25.3971    26.4239    35.6318
     19  H    Isotropic =    29.4113   Anisotropy =    11.7262
   XX=    35.2901   YX=    -0.2169   ZX=     4.1866
   XY=    -1.1277   YY=    24.6027   ZY=     0.4597
   XZ=     4.0840   YZ=     0.5839   ZZ=    28.3412
   Eigenvalues:    24.3177    26.6875    37.2288
     20  C    Isotropic =   151.7720   Anisotropy =    25.7687
   XX=   165.9785   YX=    -3.0857   ZX=    -0.7472
   XY=    -8.9359   YY=   125.7405   ZY=    -5.8734
   XZ=     6.0082   YZ=    -2.8784   ZZ=   163.5970
   Eigenvalues:   124.4607   161.9041   168.9512
     21  H    Isotropic =    29.7061   Anisotropy =    12.3470
   XX=    35.0171   YX=     1.1288   ZX=     4.6664
   XY=     0.9967   YY=    24.3118   ZY=    -0.4343
   XZ=     4.9694   YZ=     0.1782   ZZ=    29.7893
   Eigenvalues:    24.1079    27.0729    37.9374
     22  H    Isotropic =    28.1534   Anisotropy =     4.9971
   XX=    28.7762   YX=    -0.2117   ZX=     0.8426
   XY=    -0.3177   YY=    31.3396   ZY=    -1.0625
   XZ=     0.7075   YZ=    -0.6030   ZZ=    24.3443
   Eigenvalues:    24.1286    28.8467    31.4847
     23  C    Isotropic =   145.3751   Anisotropy =    21.8267
   XX=   152.0882   YX=     3.0149   ZX=    11.2628
   XY=     8.4838   YY=   127.9823   ZY=   -11.0839
   XZ=    -1.7623   YZ=    -6.3767   ZZ=   156.0548
   Eigenvalues:   123.8219   152.3772   159.9262
     24  H    Isotropic =    28.9849   Anisotropy =    11.0885
   XX=    34.7877   YX=    -1.9656   ZX=    -3.2208
   XY=    -1.6024   YY=    24.8211   ZY=     0.0889
   XZ=    -3.5389   YZ=     0.7209   ZZ=    27.3460
   Eigenvalues:    24.4932    26.0844    36.3772
     25  H    Isotropic =    29.8251   Anisotropy =     9.4166
   XX=    31.2259   YX=     4.8659   ZX=     0.3242
   XY=     4.6320   YY=    31.4245   ZY=    -1.2909
   XZ=     0.6227   YZ=    -1.0432   ZZ=    26.8250
   Eigenvalues:    25.5278    27.8448    36.1028
     26  C    Isotropic =   156.5645   Anisotropy =    22.1565
   XX=   163.6073   YX=     1.9455   ZX=    -0.8868
   XY=     7.5078   YY=   149.7643   ZY=    19.0472
   XZ=    -2.9568   YZ=    16.2598   ZZ=   156.3220
   Eigenvalues:   134.2795   164.0786   171.3355
     27  H    Isotropic =    29.7136   Anisotropy =     5.8255
   XX=    28.0037   YX=    -2.6074   ZX=     1.0962
   XY=    -2.9227   YY=    32.2168   ZY=     0.5082
   XZ=    -2.6173   YZ=    -0.7614   ZZ=    28.9202
   Eigenvalues:    26.4162    29.1273    33.5972
     28  H    Isotropic =    29.8839   Anisotropy =    11.5033
   XX=    33.0504   YX=     0.8697   ZX=    -4.5315
   XY=    -0.3254   YY=    24.7525   ZY=     3.0467
   XZ=    -5.2391   YZ=     2.0844   ZZ=    31.8488
   Eigenvalues:    23.4954    28.6035    37.5527
     29  C    Isotropic =   155.4037   Anisotropy =    23.0786
   XX=   163.7776   YX=     1.6720   ZX=     2.0837
   XY=    -3.2678   YY=   149.9329   ZY=    20.2064
   XZ=     5.6101   YZ=    17.3272   ZZ=   152.5005
   Eigenvalues:   132.0798   163.3418   170.7894
     30  H    Isotropic =    30.1292   Anisotropy =    11.6632
   XX=    33.9876   YX=    -0.3875   ZX=     4.4665
   XY=     0.5864   YY=    24.9467   ZY=     3.1810
   XZ=     4.9378   YZ=     3.0460   ZZ=    31.4532
   Eigenvalues:    23.3744    29.1085    37.9046
     31  H    Isotropic =    28.1094   Anisotropy =     4.9273
   XX=    26.2169   YX=     1.0006   ZX=     1.5562
   XY=     0.6989   YY=    29.6917   ZY=    -2.1097
   XZ=     2.7448   YZ=    -2.2037   ZZ=    28.4196
   Eigenvalues:    24.2318    28.7022    31.3943
     32  C    Isotropic =   159.7739   Anisotropy =    12.1600
   XX=   153.3347   YX=     3.7963   ZX=    -2.9265
   XY=     5.4427   YY=   158.7423   ZY=    -1.3779
   XZ=    -1.4022   YZ=    -0.3509   ZZ=   167.2446
   Eigenvalues:   150.5579   160.8831   167.8805
     33  H    Isotropic =    29.7174   Anisotropy =     6.9237
   XX=    30.6849   YX=    -3.6968   ZX=    -2.0490
   XY=    -3.6247   YY=    28.0381   ZY=     2.3290
   XZ=    -0.9887   YZ=     0.4805   ZZ=    30.4291
   Eigenvalues:    25.4516    29.3674    34.3332
     34  H    Isotropic =    29.6593   Anisotropy =    11.6605
   XX=    28.4216   YX=     3.2007   ZX=     3.8407
   XY=     3.5895   YY=    26.7086   ZY=     2.1689
   XZ=     5.2870   YZ=     1.3297   ZZ=    33.8477
   Eigenvalues:    23.7766    27.7684    37.4329
     35  C    Isotropic =   157.4030   Anisotropy =    23.3754
   XX=   154.7269   YX=     4.2852   ZX=     8.4046
   XY=     0.8099   YY=   150.3658   ZY=    -7.1298
   XZ=     9.3585   YZ=    -7.0991   ZZ=   167.1162
   Eigenvalues:   144.1922   155.0302   172.9866
     36  H    Isotropic =    30.0095   Anisotropy =     6.2715
   XX=    27.4149   YX=     1.7857   ZX=    -0.0250
   XY=     1.4139   YY=    33.7276   ZY=    -0.5319
   XZ=    -3.8594   YZ=     0.1775   ZZ=    28.8859
   Eigenvalues:    25.8790    29.9590    34.1905
     37  H    Isotropic =    29.6282   Anisotropy =    11.2903
   XX=    32.8671   YX=     0.5044   ZX=    -4.0145
   XY=     1.1858   YY=    23.9259   ZY=    -1.9674
   XZ=    -4.8564   YZ=    -1.2693   ZZ=    32.0917
   Eigenvalues:    23.6168    28.1127    37.1551
     38  C    Isotropic =   169.9065   Anisotropy =    21.3615
   XX=   174.4088   YX=     2.3260   ZX=    11.8436
   XY=    -0.3163   YY=   163.9780   ZY=     7.1313
   XZ=     8.4753   YZ=     4.1098   ZZ=   171.3328
   Eigenvalues:   159.2595   166.3126   184.1475
     39  H    Isotropic =    30.9527   Anisotropy =    12.6354
   XX=    27.4615   YX=     0.3400   ZX=     0.9349
   XY=    -0.5307   YY=    30.5114   ZY=     6.6177
   XZ=    -0.8455   YZ=     6.0017   ZZ=    34.8854
   Eigenvalues:    26.0130    27.4689    39.3764
     40  H    Isotropic =    31.7800   Anisotropy =     9.4019
   XX=    33.6675   YX=     1.3842   ZX=    -2.9922
   XY=     0.9701   YY=    26.1642   ZY=     1.7896
   XZ=    -3.5939   YZ=    -1.7402   ZZ=    35.5082
   Eigenvalues:    25.9505    31.3415    38.0479
     41  H    Isotropic =    30.7595   Anisotropy =     7.1346
   XX=    29.4338   YX=    -3.0910   ZX=     1.8539
   XY=    -2.0271   YY=    29.0518   ZY=    -1.0416
   XZ=     1.0534   YZ=    -3.1798   ZZ=    33.7928
   Eigenvalues:    26.6244    30.1382    35.5159
     42  C    Isotropic =   166.7959   Anisotropy =    17.3651
   XX=   170.2492   YX=    -3.0797   ZX=    -8.9735
   XY=     0.5194   YY=   161.6561   ZY=     3.0821
   XZ=    -7.7525   YZ=     3.4796   ZZ=   168.4824
   Eigenvalues:   159.4517   162.5634   178.3726
     43  H    Isotropic =    28.8994   Anisotropy =    12.0817
   XX=    31.5770   YX=    -0.7294   ZX=     5.2869
   XY=    -0.9180   YY=    22.1725   ZY=     0.0190
   XZ=     3.9943   YZ=     1.3609   ZZ=    32.9486
   Eigenvalues:    21.9665    27.7777    36.9538
     44  H    Isotropic =    30.2269   Anisotropy =    11.9453
   XX=    27.0203   YX=    -0.1272   ZX=    -0.4226
   XY=     0.1816   YY=    30.4734   ZY=     5.9670
   XZ=     0.2523   YZ=     6.4602   ZZ=    33.1871
   Eigenvalues:    25.4666    27.0237    38.1904
     45  H    Isotropic =    31.0921   Anisotropy =     7.4676
   XX=    29.7657   YX=     2.3440   ZX=    -1.3483
   XY=     1.4508   YY=    28.7927   ZY=    -2.9913
   XZ=    -0.4291   YZ=    -2.2118   ZZ=    34.7180
   Eigenvalues:    26.9701    30.2358    36.0705
     46  C    Isotropic =   170.1872   Anisotropy =    10.7318
   XX=   167.1847   YX=     1.5084   ZX=     6.9168
   XY=     3.4347   YY=   171.9441   ZY=     2.3782
   XZ=     4.6191   YZ=     1.9227   ZZ=   171.4328
   Eigenvalues:   163.0831   170.1367   177.3417
     47  H    Isotropic =    30.0322   Anisotropy =     6.5899
   XX=    29.2414   YX=    -3.4946   ZX=     0.4049
   XY=    -3.9767   YY=    31.2675   ZY=    -0.6662
   XZ=     0.8751   YZ=    -1.3902   ZZ=    29.5877
   Eigenvalues:    26.3794    29.2917    34.4255
     48  H    Isotropic =    28.6541   Anisotropy =    13.6333
   XX=    28.8316   YX=     2.3570   ZX=     6.9376
   XY=     3.1733   YY=    24.1887   ZY=     0.6122
   XZ=     5.6905   YZ=    -0.4547   ZZ=    32.9421
   Eigenvalues:    21.9317    26.2877    37.7430
     49  H    Isotropic =    30.4180   Anisotropy =    11.5619
   XX=    26.5941   YX=     0.6098   ZX=    -0.5434
   XY=     0.9566   YY=    28.1402   ZY=    -3.8632
   XZ=    -0.6074   YZ=    -3.9755   ZZ=    36.5196
   Eigenvalues:    26.0474    27.0806    38.1259
     50  C    Isotropic =   169.0359   Anisotropy =    19.3266
   XX=   173.7654   YX=     3.8673   ZX=    10.8967
   XY=     4.9921   YY=   161.7938   ZY=    -0.5728
   XZ=     6.4103   YZ=     0.3529   ZZ=   171.5486
   Eigenvalues:   159.3416   165.8459   181.9204
     51  H    Isotropic =    30.4276   Anisotropy =     6.0530
   XX=    28.3046   YX=     2.7196   ZX=     0.4015
   XY=     1.7516   YY=    31.1665   ZY=     1.7560
   XZ=    -0.5340   YZ=     3.4249   ZZ=    31.8117
   Eigenvalues:    26.6825    30.1373    34.4629
     52  H    Isotropic =    31.4348   Anisotropy =     8.2308
   XX=    34.6554   YX=     0.2511   ZX=    -2.3181
   XY=     0.6962   YY=    25.6527   ZY=    -1.2585
   XZ=    -2.8305   YZ=     2.0495   ZZ=    33.9961
   Eigenvalues:    25.5913    31.7910    36.9219
     53  H    Isotropic =    30.8312   Anisotropy =    12.2167
   XX=    27.8529   YX=     0.0754   ZX=     2.0672
   XY=     0.5335   YY=    27.1845   ZY=    -4.2059
   XZ=     0.3548   YZ=    -3.9476   ZZ=    37.4562
   Eigenvalues:    25.5511    27.9668    38.9757
     54  C    Isotropic =    46.5811   Anisotropy =   183.0899
   XX=   -63.0507   YX=     0.5625   ZX=   -10.6076
   XY=     0.3764   YY=    35.1701   ZY=    10.0285
   XZ=   -10.5432   YZ=     6.9058   ZZ=   167.6239
   Eigenvalues:   -63.5420    34.6442   168.6410
     55  H    Isotropic =    23.4234   Anisotropy =    11.5063
   XX=    20.6293   YX=    -0.0800   ZX=     0.0604
   XY=    -0.4369   YY=    30.9269   ZY=    -1.2482
   XZ=     0.2363   YZ=    -1.5677   ZZ=    18.7139
   Eigenvalues:    18.5470    20.6289    31.0942
     56  C    Isotropic =    48.8976   Anisotropy =   190.4122
   XX=     3.2314   YX=    42.4923   ZX=    -8.9292
   XY=    44.8013   YY=   -30.6217   ZY=    17.3747
   XZ=    -7.1257   YZ=    19.5611   ZZ=   174.0830
   Eigenvalues:   -62.1652    33.0189   175.8390
     57  H    Isotropic =    23.5851   Anisotropy =     5.7025
   XX=    25.0395   YX=     1.6943   ZX=    -0.1793
   XY=     1.6618   YY=    26.1064   ZY=    -0.6433
   XZ=    -0.0654   YZ=    -0.7665   ZZ=    19.6094
   Eigenvalues:    19.5332    23.8354    27.3868
     58  C    Isotropic =    49.5560   Anisotropy =   190.6020
   XX=    11.9556   YX=   -38.9732   ZX=    -1.9971
   XY=   -40.1484   YY=   -38.5830   ZY=    15.6269
   XZ=    -2.9717   YZ=    15.7737   ZZ=   175.2953
   Eigenvalues:   -60.9285    32.9724   176.6239
     59  H    Isotropic =    23.5956   Anisotropy =     5.4758
   XX=    25.3935   YX=    -1.6570   ZX=     0.0396
   XY=    -1.5928   YY=    25.7992   ZY=    -0.4174
   XZ=     0.0551   YZ=    -0.3169   ZZ=    19.5942
   Eigenvalues:    19.5721    23.9686    27.2462
     60  C    Isotropic =    45.9060   Anisotropy =   183.9152
   XX=   -62.2473   YX=    -9.8977   ZX=    -9.3138
   XY=   -12.0289   YY=    32.2568   ZY=    10.7782
   XZ=    -9.0983   YZ=     3.8102   ZZ=   167.7085
   Eigenvalues:   -63.8021    33.0040   168.5161
     61  H    Isotropic =    23.5092   Anisotropy =    11.2852
   XX=    20.5622   YX=    -0.5814   ZX=    -0.2282
   XY=    -0.0520   YY=    31.0209   ZY=    -0.3986
   XZ=    -0.2086   YZ=     0.7126   ZZ=    18.9447
   Eigenvalues:    18.9146    20.5804    31.0327
     62  Cl   Isotropic =   930.2757   Anisotropy =   462.4511
   XX=   710.6543   YX=  -108.7180   ZX=   -94.6881
   XY=  -123.1973   YY=   844.8854   ZY=    48.9949
   XZ=    20.9402   YZ=   -97.6095   ZZ=  1235.2875
   Eigenvalues:   640.5217   911.7290  1238.5765
     63  Pd   Isotropic =  -128.9291   Anisotropy =   210.6227
   XX=   -26.0846   YX=     1.5102   ZX=    24.0047
   XY=    -4.3214   YY=    11.2308   ZY=    -6.5997
   XZ=   -12.2789   YZ=   -10.5720   ZZ=  -371.9334
   Eigenvalues:  -372.2239   -26.0494    11.4860
 End of Minotr F.D. properties file   721 does not exist.
 End of Minotr F.D. properties file   722 does not exist.
 End of Minotr F.D. properties file   788 does not exist.

 **********************************************************************

            Population analysis using the SCF density.

 **********************************************************************

 Orbital symmetries:
       Occupied  (A) (A) (A) (A) (A) (A) (A) (A) (A) (A) (A) (A)
                 (A) (A) (A) (A) (A) (A) (A) (A) (A) (A) (A) (A)
                 (A) (A) (A) (A) (A) (A) (A) (A) (A) (A) (A) (A)
                 (A) (A) (A) (A) (A) (A) (A) (A) (A) (A) (A) (A)
                 (A) (A) (A) (A) (A) (A) (A) (A) (A) (A) (A) (A)
                 (A) (A) (A) (A) (A) (A) (A) (A) (A) (A) (A) (A)
                 (A) (A) (A) (A) (A) (A) (A) (A) (A) (A) (A) (A)
                 (A) (A) (A) (A) (A) (A) (A) (A) (A) (A) (A) (A)
                 (A) (A) (A) (A) (A) (A) (A) (A) (A) (A) (A) (A)
                 (A) (A) (A) (A) (A) (A) (A) (A) (A) (A) (A) (A)
                 (A) (A) (A) (A) (A)
       Virtual   (A) (A) (A) (A) (A) (A) (A) (A) (A) (A) (A) (A)
                 (A) (A) (A) (A) (A) (A) (A) (A) (A) (A) (A) (A)
                 (A) (A) (A) (A) (A) (A) (A) (A) (A) (A) (A) (A)
                 (A) (A) (A) (A) (A) (A) (A) (A) (A) (A) (A) (A)
                 (A) (A) (A) (A) (A) (A) (A) (A) (A) (A) (A) (A)
                 (A) (A) (A) (A) (A) (A) (A) (A) (A) (A) (A) (A)
                 (A) (A) (A) (A) (A) (A) (A) (A) (A) (A) (A) (A)
                 (A) (A) (A) (A) (A) (A) (A) (A) (A) (A) (A) (A)
                 (A) (A) (A) (A) (A) (A) (A) (A) (A) (A) (A) (A)
                 (A) (A) (A) (A) (A) (A) (A) (A) (A) (A) (A) (A)
                 (A) (A) (A) (A) (A) (A) (A) (A) (A) (A) (A) (A)
                 (A) (A) (A) (A) (A) (A) (A) (A) (A) (A) (A) (A)
                 (A) (A) (A) (A) (A) (A) (A) (A) (A) (A) (A) (A)
                 (A) (A) (A) (A) (A) (A) (A) (A) (A) (A) (A) (A)
                 (A) (A) (A) (A) (A) (A) (A) (A) (A) (A) (A) (A)
                 (A) (A) (A) (A) (A) (A) (A) (A) (A) (A) (A) (A)
                 (A) (A) (A) (A) (A) (A) (A) (A) (A) (A) (A) (A)
                 (A) (A) (A) (A) (A) (A) (A) (A) (A) (A) (A) (A)
                 (A) (A) (A) (A) (A) (A) (A) (A) (A) (A) (A) (A)
                 (A) (A) (A) (A) (A) (A) (A) (A) (A) (A) (A) (A)
                 (A) (A) (A) (A) (A) (A) (A) (A) (A) (A) (A) (A)
                 (A) (A) (A) (A) (A) (A) (A) (A) (A) (A) (A) (A)
                 (A) (A) (A) (A) (A) (A) (A) (A) (A) (A) (A) (A)
                 (A) (A) (A) (A) (A) (A) (A) (A) (A) (A) (A) (A)
                 (A) (A) (A) (A) (A) (A) (A) (A) (A) (A) (A) (A)
                 (A) (A) (A) (A) (A) (A) (A) (A) (A) (A) (A) (A)
                 (A) (A) (A) (A) (A) (A) (A) (A) (A) (A) (A) (A)
                 (A) (A) (A) (A) (A) (A) (A) (A) (A) (A) (A) (A)
                 (A) (A) (A) (A) (A) (A) (A) (A) (A) (A) (A) (A)
                 (A) (A) (A) (A) (A) (A) (A) (A) (A) (A) (A) (A)
                 (A) (A) (A) (A) (A) (A) (A) (A) (A) (A) (A) (A)
                 (A) (A) (A) (A) (A) (A) (A) (A) (A) (A) (A) (A)
                 (A) (A) (A) (A) (A) (A) (A) (A) (A) (A) (A) (A)
                 (A) (A) (A) (A) (A) (A) (A) (A) (A) (A) (A) (A)
                 (A) (A) (A) (A) (A) (A) (A) (A) (A) (A) (A) (A)
                 (A) (A) (A) (A) (A) (A) (A) (A) (A) (A) (A) (A)
                 (A) (A) (A) (A) (A) (A) (A) (A) (A) (A) (A) (A)
                 (A) (A) (A) (A) (A) (A) (A) (A) (A) (A) (A) (A)
                 (A) (A) (A) (A) (A) (A) (A) (A) (A) (A) (A) (A)
                 (A) (A) (A) (A) (A) (A) (A) (A) (A) (A) (A) (A)
                 (A) (A) (A) (A) (A) (A) (A) (A) (A) (A) (A) (A)
                 (A) (A) (A) (A) (A) (A) (A) (A) (A) (A) (A) (A)
                 (A) (A) (A) (A) (A) (A) (A) (A) (A) (A) (A) (A)
                 (A) (A) (A) (A) (A) (A) (A) (A) (A) (A) (A) (A)
                 (A) (A) (A) (A) (A) (A) (A) (A) (A) (A) (A) (A)
                 (A) (A) (A) (A) (A) (A) (A) (A) (A) (A) (A) (A)
                 (A) (A) (A) (A) (A) (A) (A) (A) (A) (A) (A) (A)
                 (A) (A) (A) (A) (A) (A) (A) (A) (A) (A) (A) (A)
                 (A) (A) (A) (A) (A) (A) (A) (A) (A) (A) (A) (A)
                 (A) (A) (A) (A) (A) (A) (A) (A) (A) (A) (A) (A)
                 (A) (A) (A) (A) (A) (A) (A) (A) (A) (A) (A) (A)
                 (A) (A) (A) (A) (A) (A) (A) (A) (A) (A) (A) (A)
                 (A) (A) (A) (A) (A) (A) (A) (A) (A) (A) (A) (A)
                 (A) (A) (A) (A) (A) (A) (A) (A) (A) (A) (A) (A)
                 (A) (A) (A) (A) (A) (A) (A) (A) (A) (A) (A) (A)
                 (A) (A) (A) (A) (A) (A) (A) (A) (A) (A) (A) (A)
                 (A) (A) (A) (A) (A) (A) (A) (A) (A) (A) (A) (A)
                 (A) (A) (A) (A) (A) (A) (A) (A) (A) (A) (A) (A)
                 (A) (A) (A) (A) (A) (A) (A) (A) (A) (A) (A) (A)
                 (A) (A) (A) (A) (A) (A) (A) (A) (A) (A) (A) (A)
                 (A) (A) (A) (A) (A) (A) (A) (A) (A) (A) (A) (A)
                 (A) (A) (A) (A) (A) (A) (A) (A) (A) (A) (A) (A)
                 (A) (A) (A) (A) (A) (A) (A) (A) (A) (A) (A) (A)
                 (A) (A) (A) (A) (A) (A) (A) (A) (A) (A) (A) (A)
                 (A) (A) (A) (A) (A) (A) (A) (A) (A) (A) (A) (A)
                 (A) (A) (A) (A) (A) (A) (A) (A) (A) (A) (A) (A)
                 (A) (A) (A) (A) (A) (A) (A) (A) (A) (A) (A) (A)
                 (A) (A) (A) (A) (A) (A) (A) (A) (A) (A) (A) (A)
                 (A) (A) (A) (A) (A) (A) (A) (A) (A) (A) (A) (A)
                 (A) (A) (A) (A) (A) (A) (A) (A) (A) (A) (A) (A)
                 (A) (A) (A) (A) (A) (A) (A) (A) (A) (A) (A) (A)
                 (A) (A) (A) (A) (A) (A) (A) (A) (A) (A) (A) (A)
                 (A) (A) (A) (A) (A) (A) (A) (A) (A) (A) (A) (A)
                 (A) (A) (A) (A) (A) (A) (A) (A) (A) (A) (A) (A)
                 (A) (A) (A) (A) (A) (A) (A) (A) (A) (A) (A) (A)
                 (A) (A) (A) (A) (A) (A) (A) (A) (A) (A) (A) (A)
                 (A) (A) (A) (A) (A) (A) (A) (A) (A) (A) (A) (A)
                 (A) (A) (A) (A) (A) (A) (A) (A) (A) (A) (A) (A)
                 (A) (A) (A) (A) (A) (A) (A) (A) (A) (A) (A) (A)
                 (A) (A) (A) (A) (A) (A) (A) (A) (A)
 The electronic state is 1-A.
 Alpha  occ. eigenvalues -- -101.61204-101.61018 -77.26140 -77.25931 -10.28080
 Alpha  occ. eigenvalues --  -10.27970 -10.27298 -10.27254 -10.27043 -10.26987
 Alpha  occ. eigenvalues --  -10.25872 -10.25863 -10.25487 -10.25202 -10.24446
 Alpha  occ. eigenvalues --  -10.24349 -10.24112 -10.23996 -10.23620 -10.23410
 Alpha  occ. eigenvalues --  -10.23344 -10.22632 -10.22337 -10.22118 -10.20721
 Alpha  occ. eigenvalues --  -10.20205  -9.43715  -9.43536  -7.16868  -7.16692
 Alpha  occ. eigenvalues --   -7.16455  -7.16423  -7.16273  -7.16241  -6.65418
 Alpha  occ. eigenvalues --   -6.65236  -4.79029  -4.78925  -4.78850  -4.78765
 Alpha  occ. eigenvalues --   -4.78738  -4.78585  -3.52142  -2.19861  -2.19717
 Alpha  occ. eigenvalues --   -2.16523  -0.91988  -0.87608  -0.87490  -0.82310
 Alpha  occ. eigenvalues --   -0.82206  -0.81434  -0.80843  -0.78429  -0.78284
 Alpha  occ. eigenvalues --   -0.74125  -0.73480  -0.72895  -0.72440  -0.71850
 Alpha  occ. eigenvalues --   -0.70964  -0.67143  -0.66234  -0.64249  -0.64099
 Alpha  occ. eigenvalues --   -0.63110  -0.62676  -0.59450  -0.58406  -0.57888
 Alpha  occ. eigenvalues --   -0.55892  -0.53544  -0.51601  -0.50744  -0.50294
 Alpha  occ. eigenvalues --   -0.49618  -0.49093  -0.48332  -0.47824  -0.47296
 Alpha  occ. eigenvalues --   -0.46359  -0.45899  -0.45283  -0.44813  -0.44458
 Alpha  occ. eigenvalues --   -0.43736  -0.43208  -0.42908  -0.42280  -0.41953
 Alpha  occ. eigenvalues --   -0.41308  -0.40012  -0.39582  -0.39055  -0.38698
 Alpha  occ. eigenvalues --   -0.38387  -0.38161  -0.37624  -0.37374  -0.37054
 Alpha  occ. eigenvalues --   -0.36975  -0.36186  -0.35747  -0.35629  -0.35305
 Alpha  occ. eigenvalues --   -0.35160  -0.34984  -0.34578  -0.34424  -0.34371
 Alpha  occ. eigenvalues --   -0.33701  -0.33646  -0.33311  -0.33153  -0.30943
 Alpha  occ. eigenvalues --   -0.30751  -0.29789  -0.29219  -0.28448  -0.28383
 Alpha  occ. eigenvalues --   -0.25780  -0.24957  -0.24106  -0.23869  -0.23538
 Alpha virt. eigenvalues --   -0.06664  -0.06389  -0.06028   0.00055   0.00287
 Alpha virt. eigenvalues --    0.01759   0.02499   0.02603   0.03663   0.03715
 Alpha virt. eigenvalues --    0.04696   0.05109   0.05497   0.05652   0.06082
 Alpha virt. eigenvalues --    0.06425   0.06814   0.07323   0.07616   0.07961
 Alpha virt. eigenvalues --    0.08364   0.08625   0.08785   0.09630   0.09756
 Alpha virt. eigenvalues --    0.09798   0.10378   0.10994   0.11126   0.11619
 Alpha virt. eigenvalues --    0.11818   0.11986   0.12174   0.12557   0.12905
 Alpha virt. eigenvalues --    0.13294   0.13565   0.13588   0.13971   0.14159
 Alpha virt. eigenvalues --    0.14575   0.14607   0.14964   0.15327   0.15530
 Alpha virt. eigenvalues --    0.15959   0.16137   0.16474   0.16564   0.16830
 Alpha virt. eigenvalues --    0.17139   0.17351   0.17979   0.18173   0.18639
 Alpha virt. eigenvalues --    0.18866   0.19543   0.19999   0.20224   0.20386
 Alpha virt. eigenvalues --    0.20757   0.20960   0.21399   0.21534   0.22071
 Alpha virt. eigenvalues --    0.22241   0.22546   0.22848   0.23063   0.23253
 Alpha virt. eigenvalues --    0.23681   0.24009   0.24145   0.24298   0.24456
 Alpha virt. eigenvalues --    0.25275   0.25412   0.25833   0.26210   0.26455
 Alpha virt. eigenvalues --    0.26879   0.26985   0.27778   0.27813   0.28371
 Alpha virt. eigenvalues --    0.28557   0.28826   0.29391   0.29501   0.29842
 Alpha virt. eigenvalues --    0.30236   0.30370   0.31084   0.31542   0.31827
 Alpha virt. eigenvalues --    0.32605   0.32801   0.33185   0.33730   0.34318
 Alpha virt. eigenvalues --    0.34421   0.34765   0.34993   0.35609   0.35814
 Alpha virt. eigenvalues --    0.36280   0.36449   0.36865   0.37124   0.37767
 Alpha virt. eigenvalues --    0.38274   0.38694   0.39069   0.39396   0.39891
 Alpha virt. eigenvalues --    0.39982   0.40316   0.40410   0.40553   0.40879
 Alpha virt. eigenvalues --    0.41013   0.41264   0.41703   0.42043   0.42135
 Alpha virt. eigenvalues --    0.42228   0.42616   0.42708   0.43077   0.43333
 Alpha virt. eigenvalues --    0.43614   0.43704   0.43866   0.44427   0.44533
 Alpha virt. eigenvalues --    0.45092   0.45371   0.45481   0.45642   0.45928
 Alpha virt. eigenvalues --    0.46065   0.46561   0.46791   0.46807   0.47048
 Alpha virt. eigenvalues --    0.47210   0.47376   0.47906   0.48014   0.48036
 Alpha virt. eigenvalues --    0.48428   0.48631   0.48874   0.49076   0.49455
 Alpha virt. eigenvalues --    0.49609   0.50057   0.50273   0.50436   0.50706
 Alpha virt. eigenvalues --    0.50917   0.51143   0.51800   0.52080   0.52539
 Alpha virt. eigenvalues --    0.52773   0.52798   0.53081   0.53409   0.53699
 Alpha virt. eigenvalues --    0.53944   0.54168   0.54618   0.54790   0.55275
 Alpha virt. eigenvalues --    0.55671   0.56124   0.56479   0.56820   0.56961
 Alpha virt. eigenvalues --    0.57679   0.57959   0.58294   0.58724   0.59233
 Alpha virt. eigenvalues --    0.59700   0.60001   0.60454   0.60764   0.60887
 Alpha virt. eigenvalues --    0.61713   0.61997   0.62444   0.63125   0.63415
 Alpha virt. eigenvalues --    0.63623   0.64138   0.64583   0.65154   0.65588
 Alpha virt. eigenvalues --    0.65905   0.66072   0.66749   0.67393   0.67852
 Alpha virt. eigenvalues --    0.68417   0.68620   0.69053   0.69691   0.69751
 Alpha virt. eigenvalues --    0.70606   0.71038   0.71789   0.72230   0.72345
 Alpha virt. eigenvalues --    0.72934   0.73405   0.74026   0.74169   0.74570
 Alpha virt. eigenvalues --    0.75303   0.75487   0.76270   0.76969   0.77831
 Alpha virt. eigenvalues --    0.78223   0.78648   0.79035   0.79128   0.79885
 Alpha virt. eigenvalues --    0.80313   0.80901   0.81246   0.81463   0.82104
 Alpha virt. eigenvalues --    0.82639   0.83125   0.83488   0.84042   0.84553
 Alpha virt. eigenvalues --    0.85343   0.86304   0.86522   0.86564   0.87135
 Alpha virt. eigenvalues --    0.87657   0.87955   0.88841   0.89159   0.89530
 Alpha virt. eigenvalues --    0.89739   0.90322   0.90711   0.91689   0.91994
 Alpha virt. eigenvalues --    0.92075   0.92692   0.93306   0.93640   0.93965
 Alpha virt. eigenvalues --    0.94677   0.95094   0.95267   0.95735   0.96167
 Alpha virt. eigenvalues --    0.96791   0.97571   0.97948   0.98674   0.98791
 Alpha virt. eigenvalues --    0.99872   1.00483   1.00678   1.01269   1.01851
 Alpha virt. eigenvalues --    1.02246   1.02556   1.03259   1.03902   1.04859
 Alpha virt. eigenvalues --    1.05095   1.05309   1.06173   1.06379   1.06680
 Alpha virt. eigenvalues --    1.07748   1.09047   1.09198   1.09356   1.10128
 Alpha virt. eigenvalues --    1.10418   1.10744   1.10973   1.11887   1.12004
 Alpha virt. eigenvalues --    1.12935   1.13565   1.13743   1.14867   1.15448
 Alpha virt. eigenvalues --    1.15858   1.16490   1.17167   1.17645   1.17981
 Alpha virt. eigenvalues --    1.18115   1.18526   1.19731   1.19872   1.20433
 Alpha virt. eigenvalues --    1.20548   1.21065   1.22092   1.22239   1.22464
 Alpha virt. eigenvalues --    1.22810   1.23248   1.23811   1.24033   1.24512
 Alpha virt. eigenvalues --    1.25422   1.25566   1.26217   1.26567   1.26882
 Alpha virt. eigenvalues --    1.27634   1.27836   1.28504   1.28662   1.29028
 Alpha virt. eigenvalues --    1.29286   1.29740   1.30590   1.31672   1.32260
 Alpha virt. eigenvalues --    1.32989   1.33506   1.34288   1.34900   1.35593
 Alpha virt. eigenvalues --    1.36589   1.36824   1.37056   1.37667   1.39204
 Alpha virt. eigenvalues --    1.39929   1.40337   1.41054   1.42479   1.42950
 Alpha virt. eigenvalues --    1.43741   1.44644   1.45617   1.46496   1.47145
 Alpha virt. eigenvalues --    1.47221   1.48753   1.49442   1.50926   1.51820
 Alpha virt. eigenvalues --    1.52626   1.53313   1.53694   1.53982   1.54474
 Alpha virt. eigenvalues --    1.54758   1.55521   1.55954   1.56768   1.57006
 Alpha virt. eigenvalues --    1.57285   1.57615   1.58115   1.58415   1.58835
 Alpha virt. eigenvalues --    1.59197   1.59624   1.60102   1.60365   1.60658
 Alpha virt. eigenvalues --    1.61299   1.61503   1.62074   1.62623   1.62896
 Alpha virt. eigenvalues --    1.63038   1.63608   1.64097   1.64706   1.64797
 Alpha virt. eigenvalues --    1.65034   1.65271   1.66047   1.66316   1.66343
 Alpha virt. eigenvalues --    1.66633   1.66979   1.67383   1.67775   1.67934
 Alpha virt. eigenvalues --    1.68815   1.68960   1.69185   1.69582   1.69899
 Alpha virt. eigenvalues --    1.70781   1.71174   1.71793   1.72805   1.72915
 Alpha virt. eigenvalues --    1.73519   1.73948   1.74663   1.74905   1.75373
 Alpha virt. eigenvalues --    1.76250   1.76593   1.77645   1.78185   1.78753
 Alpha virt. eigenvalues --    1.79232   1.80237   1.80691   1.81072   1.81856
 Alpha virt. eigenvalues --    1.82125   1.82897   1.83567   1.83991   1.84830
 Alpha virt. eigenvalues --    1.85302   1.85839   1.85938   1.86133   1.87149
 Alpha virt. eigenvalues --    1.87606   1.88288   1.88945   1.89256   1.89527
 Alpha virt. eigenvalues --    1.90578   1.91290   1.91720   1.92373   1.92664
 Alpha virt. eigenvalues --    1.92918   1.93330   1.93990   1.94382   1.95369
 Alpha virt. eigenvalues --    1.96010   1.96342   1.97093   1.97706   1.98955
 Alpha virt. eigenvalues --    1.99349   1.99598   1.99885   2.00225   2.00760
 Alpha virt. eigenvalues --    2.01676   2.02129   2.02298   2.03012   2.03624
 Alpha virt. eigenvalues --    2.03987   2.04419   2.04969   2.05103   2.05685
 Alpha virt. eigenvalues --    2.06224   2.06675   2.07006   2.07296   2.07999
 Alpha virt. eigenvalues --    2.08910   2.09073   2.09729   2.10921   2.11242
 Alpha virt. eigenvalues --    2.11566   2.12262   2.12670   2.13313   2.13675
 Alpha virt. eigenvalues --    2.14590   2.15247   2.16016   2.16143   2.16906
 Alpha virt. eigenvalues --    2.17209   2.17689   2.18081   2.18404   2.18628
 Alpha virt. eigenvalues --    2.19118   2.19539   2.20274   2.20720   2.21028
 Alpha virt. eigenvalues --    2.21179   2.21851   2.22065   2.23303   2.23844
 Alpha virt. eigenvalues --    2.24394   2.24768   2.25176   2.25972   2.26691
 Alpha virt. eigenvalues --    2.27005   2.27630   2.27899   2.28307   2.29400
 Alpha virt. eigenvalues --    2.30044   2.30808   2.31125   2.31602   2.32001
 Alpha virt. eigenvalues --    2.33186   2.33422   2.34068   2.34576   2.34987
 Alpha virt. eigenvalues --    2.35626   2.36424   2.36569   2.36740   2.37258
 Alpha virt. eigenvalues --    2.37872   2.38654   2.39033   2.39846   2.40605
 Alpha virt. eigenvalues --    2.41182   2.41530   2.42041   2.42331   2.43258
 Alpha virt. eigenvalues --    2.43584   2.43724   2.43817   2.45073   2.45347
 Alpha virt. eigenvalues --    2.46035   2.46116   2.46433   2.47045   2.47083
 Alpha virt. eigenvalues --    2.47790   2.48090   2.48481   2.48755   2.49663
 Alpha virt. eigenvalues --    2.50277   2.50606   2.51046   2.52031   2.52219
 Alpha virt. eigenvalues --    2.52767   2.52861   2.53133   2.53739   2.53851
 Alpha virt. eigenvalues --    2.54344   2.55711   2.55821   2.56412   2.56726
 Alpha virt. eigenvalues --    2.57048   2.57646   2.57709   2.58288   2.58998
 Alpha virt. eigenvalues --    2.59165   2.59537   2.59676   2.59853   2.60070
 Alpha virt. eigenvalues --    2.60684   2.61210   2.61727   2.62139   2.62675
 Alpha virt. eigenvalues --    2.63093   2.63797   2.63940   2.64520   2.64671
 Alpha virt. eigenvalues --    2.65235   2.65722   2.66064   2.66353   2.66607
 Alpha virt. eigenvalues --    2.67004   2.67627   2.68512   2.68673   2.69082
 Alpha virt. eigenvalues --    2.69421   2.69613   2.70131   2.70703   2.70974
 Alpha virt. eigenvalues --    2.71440   2.71619   2.72255   2.72785   2.73127
 Alpha virt. eigenvalues --    2.73532   2.73925   2.74318   2.74741   2.74856
 Alpha virt. eigenvalues --    2.75442   2.76156   2.76391   2.76866   2.77543
 Alpha virt. eigenvalues --    2.77817   2.77986   2.78529   2.78892   2.79876
 Alpha virt. eigenvalues --    2.80389   2.80892   2.81184   2.82236   2.82657
 Alpha virt. eigenvalues --    2.83283   2.84133   2.84175   2.85790   2.86470
 Alpha virt. eigenvalues --    2.86931   2.87565   2.88198   2.88286   2.89119
 Alpha virt. eigenvalues --    2.90153   2.90717   2.90884   2.91833   2.92733
 Alpha virt. eigenvalues --    2.92909   2.94194   2.95088   2.95285   2.96058
 Alpha virt. eigenvalues --    2.97031   2.97321   2.97995   2.98316   2.99980
 Alpha virt. eigenvalues --    3.00903   3.01734   3.02191   3.03287   3.03914
 Alpha virt. eigenvalues --    3.04585   3.05883   3.07033   3.07588   3.08360
 Alpha virt. eigenvalues --    3.08964   3.09415   3.10069   3.10762   3.11493
 Alpha virt. eigenvalues --    3.12224   3.12498   3.12953   3.14495   3.14806
 Alpha virt. eigenvalues --    3.15267   3.16042   3.16239   3.16810   3.17010
 Alpha virt. eigenvalues --    3.17257   3.18266   3.18416   3.18643   3.19040
 Alpha virt. eigenvalues --    3.19958   3.20303   3.20749   3.21257   3.22225
 Alpha virt. eigenvalues --    3.22899   3.23164   3.23704   3.24118   3.25250
 Alpha virt. eigenvalues --    3.25354   3.26003   3.26263   3.26445   3.27439
 Alpha virt. eigenvalues --    3.27763   3.27872   3.28546   3.28864   3.29992
 Alpha virt. eigenvalues --    3.30170   3.30413   3.31330   3.31566   3.32020
 Alpha virt. eigenvalues --    3.32258   3.32585   3.33210   3.33865   3.34264
 Alpha virt. eigenvalues --    3.34780   3.35002   3.35461   3.36216   3.36481
 Alpha virt. eigenvalues --    3.36917   3.37816   3.38389   3.38650   3.39320
 Alpha virt. eigenvalues --    3.39628   3.39726   3.40541   3.40858   3.41617
 Alpha virt. eigenvalues --    3.42188   3.42328   3.42588   3.42984   3.43506
 Alpha virt. eigenvalues --    3.44547   3.44712   3.45365   3.45517   3.45683
 Alpha virt. eigenvalues --    3.46505   3.47321   3.47526   3.48344   3.48646
 Alpha virt. eigenvalues --    3.49177   3.49863   3.50594   3.51469   3.51988
 Alpha virt. eigenvalues --    3.52277   3.53239   3.53447   3.53702   3.54412
 Alpha virt. eigenvalues --    3.54900   3.55767   3.56044   3.56501   3.57059
 Alpha virt. eigenvalues --    3.57194   3.58124   3.58348   3.58829   3.59582
 Alpha virt. eigenvalues --    3.59929   3.60401   3.61464   3.62042   3.62841
 Alpha virt. eigenvalues --    3.63474   3.63773   3.64114   3.65231   3.65764
 Alpha virt. eigenvalues --    3.66243   3.67655   3.68209   3.68609   3.68974
 Alpha virt. eigenvalues --    3.69410   3.71153   3.71905   3.72925   3.73701
 Alpha virt. eigenvalues --    3.73796   3.74418   3.75138   3.75730   3.77037
 Alpha virt. eigenvalues --    3.77556   3.77645   3.79348   3.79530   3.80635
 Alpha virt. eigenvalues --    3.81792   3.83394   3.83990   3.84318   3.84957
 Alpha virt. eigenvalues --    3.85521   3.89257   3.90345   3.91328   3.92067
 Alpha virt. eigenvalues --    3.92428   3.93161   3.93835   3.94488   3.94939
 Alpha virt. eigenvalues --    3.95570   3.96724   3.97182   3.97345   3.98004
 Alpha virt. eigenvalues --    3.98665   3.99506   4.00248   4.01036   4.01903
 Alpha virt. eigenvalues --    4.02782   4.04645   4.05307   4.05506   4.07166
 Alpha virt. eigenvalues --    4.08017   4.08625   4.10104   4.10905   4.12543
 Alpha virt. eigenvalues --    4.12674   4.14318   4.14387   4.15579   4.16416
 Alpha virt. eigenvalues --    4.16778   4.17044   4.17812   4.18675   4.18883
 Alpha virt. eigenvalues --    4.20069   4.20848   4.21168   4.21931   4.22584
 Alpha virt. eigenvalues --    4.23817   4.25428   4.25973   4.26879   4.28089
 Alpha virt. eigenvalues --    4.29270   4.30316   4.31127   4.33290   4.34495
 Alpha virt. eigenvalues --    4.35251   4.37016   4.38067   4.38928   4.39851
 Alpha virt. eigenvalues --    4.40660   4.41765   4.42782   4.43211   4.44397
 Alpha virt. eigenvalues --    4.44830   4.46493   4.47096   4.48135   4.52607
 Alpha virt. eigenvalues --    4.54878   4.55769   4.56584   4.57556   4.57937
 Alpha virt. eigenvalues --    4.59315   4.59743   4.60190   4.61811   4.62835
 Alpha virt. eigenvalues --    4.63607   4.64688   4.65671   4.66609   4.68285
 Alpha virt. eigenvalues --    4.68431   4.69805   4.70701   4.71215   4.74403
 Alpha virt. eigenvalues --    4.75117   4.77291   4.78442   4.83148   4.84788
 Alpha virt. eigenvalues --    4.85682   4.87642   4.89558   4.91868   4.94797
 Alpha virt. eigenvalues --    4.98660   5.01748   5.03006   5.03727   5.05099
 Alpha virt. eigenvalues --    5.08818   5.09477   5.12187   5.15135   5.15978
 Alpha virt. eigenvalues --    5.18498   5.20285   5.36039   5.45592   5.53858
 Alpha virt. eigenvalues --    7.84499   7.87938   7.89518   7.92021   7.96269
 Alpha virt. eigenvalues --    8.09665  10.93987  10.94639  11.00592  11.02505
 Alpha virt. eigenvalues --   11.05969  11.08990  15.66584  15.88982  22.21259
 Alpha virt. eigenvalues --   22.40570  22.41848  22.44768  22.45554  22.52586
 Alpha virt. eigenvalues --   22.53688  22.56413  22.56906  22.59304  22.60232
 Alpha virt. eigenvalues --   22.61695  22.62978  22.65133  22.66421  22.68446
 Alpha virt. eigenvalues --   22.70835  22.73864  22.79651  22.83538  22.93128
 Alpha virt. eigenvalues --   23.25951  25.53843  25.73332  40.37707  40.93680
 Alpha virt. eigenvalues --   41.02329  52.08358
          Condensed to atoms (all electrons):
 Mulliken charges:
               1
     1  Cl  -0.438288
     2  P    0.136865
     3  P    0.132828
     4  C   -0.062902
     5  C   -0.010279
     6  C   -0.089760
     7  H    0.155456
     8  C   -0.091052
     9  H    0.119592
    10  C   -0.073701
    11  H    0.100691
    12  C   -0.114508
    13  H    0.147340
    14  C   -0.198570
    15  H    0.164674
    16  H    0.110205
    17  C   -0.211992
    18  H    0.116192
    19  H    0.117336
    20  C   -0.196478
    21  H    0.113487
    22  H    0.151007
    23  C   -0.180708
    24  H    0.124375
    25  H    0.093471
    26  C   -0.166955
    27  H    0.093872
    28  H    0.114879
    29  C   -0.187811
    30  H    0.100784
    31  H    0.152700
    32  C   -0.159170
    33  H    0.111799
    34  H    0.104782
    35  C   -0.135164
    36  H    0.087084
    37  H    0.113904
    38  C   -0.400255
    39  H    0.130368
    40  H    0.125088
    41  H    0.139737
    42  C   -0.414992
    43  H    0.190395
    44  H    0.133909
    45  H    0.112744
    46  C   -0.425238
    47  H    0.138013
    48  H    0.202785
    49  H    0.123099
    50  C   -0.399356
    51  H    0.149342
    52  H    0.127000
    53  H    0.128883
    54  C   -0.164163
    55  H    0.133797
    56  C   -0.140541
    57  H    0.130827
    58  C   -0.114011
    59  H    0.131483
    60  C   -0.237783
    61  H    0.148397
    62  Cl  -0.435037
    63  Pd   0.139528
 Sum of Mulliken charges =  -0.00000
 Mulliken charges with hydrogens summed into heavy atoms:
               1
     1  Cl  -0.438288
     2  P    0.136865
     3  P    0.132828
     4  C   -0.062902
     5  C   -0.010279
     6  C    0.065696
     8  C    0.028540
    10  C    0.026990
    12  C    0.032833
    14  C    0.076310
    17  C    0.021535
    20  C    0.068015
    23  C    0.037137
    26  C    0.041796
    29  C    0.065672
    32  C    0.057411
    35  C    0.065824
    38  C   -0.005062
    42  C    0.022056
    46  C    0.038659
    50  C    0.005868
    54  C   -0.030367
    56  C   -0.009714
    58  C    0.017472
    60  C   -0.089387
    62  Cl  -0.435037
    63  Pd   0.139528
 Electronic spatial extent (au):  <R**2>=          11097.7815
 Charge=             -0.0000 electrons
 Dipole moment (field-independent basis, Debye):
    X=             -0.7326    Y=             12.2804    Z=             -0.0766  Tot=             12.3025
 Quadrupole moment (field-independent basis, Debye-Ang):
   XX=           -191.4083   YY=           -226.9779   ZZ=           -204.3572
   XY=              1.8082   XZ=              1.0280   YZ=              0.1437
 Traceless Quadrupole moment (field-independent basis, Debye-Ang):
   XX=             16.1728   YY=            -19.3968   ZZ=              3.2240
   XY=              1.8082   XZ=              1.0280   YZ=              0.1437
 Octapole moment (field-independent basis, Debye-Ang**2):
  XXX=             -0.2270  YYY=             82.4542  ZZZ=              5.7871  XYY=             -4.0857
  XXY=             12.7476  XXZ=              0.6720  XZZ=              1.6496  YZZ=            -39.8377
  YYZ=            -10.2511  XYZ=             -7.3246
 Hexadecapole moment (field-independent basis, Debye-Ang**3):
 XXXX=          -6677.8559 YYYY=          -4663.5384 ZZZZ=          -3549.4200 XXXY=              4.8541
 XXXZ=             -2.7170 YYYX=             -8.0111 YYYZ=            -26.4711 ZZZX=            -27.0266
 ZZZY=             11.5528 XXYY=          -1985.6527 XXZZ=          -1695.7452 YYZZ=          -1433.3114
 XXYZ=              9.9891 YYXZ=             23.8940 ZZXY=              0.6724
 N-N= 4.039766728687D+03 E-N=-1.415645249820D+04  KE= 2.501676913781D+03
 1\1\GINC-NC051\SP\RPBE1PBE\Gen\C22H36Cl2P2Pd1\MACKK4\05-Dec-2021\0\\# 
 PBE1PBE gen pseudo=read int=(grid=ultrafine) empiricaldispersion=GD3BJ
  nmr=giao\\SS_Et_DuPhos_3 title\\0,1\Cl,0,-1.2904759522,-3.7499402125,
 1.1493808954\P,0,-1.5751079331,-0.7157086244,0.0459657721\P,0,1.477632
 0387,-0.1157613401,0.3296681112\C,0,-0.9904448717,0.9865353427,-0.3871
 924556\C,0,0.3921754148,1.2558015224,-0.2552395568\C,0,-2.9321624903,-
 0.671933762,1.3582606985\H,0,-2.5462188031,-1.3299857797,2.1564970337\
 C,0,-2.6920284079,-1.1751426587,-1.4089135052\H,0,-2.4607565115,-0.450
 3980471,-2.2118764556\C,0,2.4030721367,0.6048213147,1.798790321\H,0,2.
 4141879704,1.6921078975,1.5742132683\C,0,3.0090300838,-0.2874081043,-0
 .7532993995\H,0,3.1287109184,-1.3879142149,-0.7716249114\C,0,-4.114569
 0914,-1.3653670088,0.6396549159\H,0,-3.9730784782,-2.4575659908,0.7130
 249301\H,0,-5.0687091965,-1.1125693371,1.1361289152\C,0,-4.1132002906,
 -0.9450378926,-0.8394881769\H,0,-4.3920588549,0.1227392226,-0.92424012
 69\H,0,-4.8544074807,-1.5168563327,-1.4262339439\C,0,3.8341379945,0.07
 81471404,1.5780239769\H,0,4.5430808189,0.6017333707,2.2443972481\H,0,3
 .8780236905,-1.001843342,1.8051421352\C,0,4.1576816039,0.3098599102,0.
 0922225361\H,0,5.117428176,-0.1524271153,-0.1984303104\H,0,4.244083997
 3,1.3969949797,-0.1080334521\C,0,-3.2612008401,0.7060022531,1.95606778
 63\H,0,-3.5497218739,1.4239732881,1.1661823678\H,0,-4.1621096269,0.571
 4129542,2.5851727294\C,0,-2.4685897079,-2.5989635715,-1.951564789\H,0,
 -3.2828707461,-2.7943035139,-2.6764618443\H,0,-2.5719139261,-3.3320484
 419,-1.1330068233\C,0,1.7843191805,0.4379192131,3.1968773978\H,0,0.816
 4626097,0.9729347389,3.2156530434\H,0,2.4437127609,0.9900435204,3.8954
 896859\C,0,2.8987936634,0.2362047061,-2.1891674242\H,0,2.7275244069,1.
 3293449782,-2.1856736668\H,0,3.8855596326,0.0849624689,-2.6680921225\C
 ,0,-2.1327377409,1.2932761004,2.8104414462\H,0,-2.4545389434,2.2235168
 376,3.3083235344\H,0,-1.2466456631,1.5332687172,2.198809709\H,0,-1.819
 1268624,0.5778794695,3.590930572\C,0,-1.1119724326,-2.7928178085,-2.63
 15526338\H,0,-0.288356278,-2.6784421532,-1.9016275618\H,0,-1.030754746
 9,-3.807031903,-3.0563908033\H,0,-0.9560531178,-2.0630494754,-3.447495
 84\C,0,1.5861462508,-0.9929265369,3.7050387526\H,0,2.5165982536,-1.581
 9899321,3.6686703709\H,0,0.8421635009,-1.5409489684,3.1002667215\H,0,1
 .2309661271,-0.9737899466,4.7498355267\C,0,1.8134429651,-0.4599549982,
 -3.0168798891\H,0,1.9461585172,-1.55524498,-3.006271042\H,0,0.80683914
 56,-0.2467832836,-2.6171446015\H,0,1.8350151887,-0.1199599424,-4.06611
 66655\C,0,-1.8481872464,1.9940465483,-0.8691669285\H,0,-2.9154236481,1
 .7896690808,-1.0017065959\C,0,-1.3443121235,3.2611528419,-1.1899542612
 \H,0,-2.0204603579,4.0367898864,-1.5631325338\C,0,0.0220479452,3.53539
 97872,-1.0324051894\H,0,0.4157689875,4.52631819,-1.2794110806\C,0,0.88
 70461258,2.5362041382,-0.5685394496\H,0,1.9544282325,2.7537122463,-0.4
 543884927\Cl,0,2.2362464716,-3.2235773846,0.9415908748\Pd,0,0.21990943
 44,-1.9635800626,0.5954012565\\Version=ES64L-G09RevE.01\State=1-A\HF=-
 2590.0350216\RMSD=3.446e-09\Dipole=-0.8252601,4.6042842,-1.2436514\Qua
 drupole=11.0334472,-12.5413778,1.5079307,4.5590375,0.8412671,4.4052965
 \PG=C01 [X(C22H36Cl2P2Pd1)]\\@


 We make a living by what we get,
 we make a life by what we give.
                   -- Sir Winston Churchill
 Job cpu time:       0 days 15 hours 54 minutes 49.2 seconds.
 File lengths (MBytes):  RWF=    656 Int=      0 D2E=      0 Chk=     96 Scr=      1
 Normal termination of Gaussian 09 at Sun Dec  5 10:21:11 2021.
 Initial command:
 /gstore/apps/gaussian/g09.e01-foss-2017a/g09/l1.exe "/local/22791410/Gau-25348.inp" -scrdir="/local/22791410/"
 Entering Link 1 = /gstore/apps/gaussian/g09.e01-foss-2017a/g09/l1.exe PID=     15030.
  
 Copyright (c) 1988,1990,1992,1993,1995,1998,2003,2009,2015,
            Gaussian, Inc.  All Rights Reserved.
  
 This is part of the Gaussian(R) 09 program.  It is based on
 the Gaussian(R) 03 system (copyright 2003, Gaussian, Inc.),
 the Gaussian(R) 98 system (copyright 1998, Gaussian, Inc.),
 the Gaussian(R) 94 system (copyright 1995, Gaussian, Inc.),
 the Gaussian 92(TM) system (copyright 1992, Gaussian, Inc.),
 the Gaussian 90(TM) system (copyright 1990, Gaussian, Inc.),
 the Gaussian 88(TM) system (copyright 1988, Gaussian, Inc.),
 the Gaussian 86(TM) system (copyright 1986, Carnegie Mellon
 University), and the Gaussian 82(TM) system (copyright 1983,
 Carnegie Mellon University). Gaussian is a federally registered
 trademark of Gaussian, Inc.
  
 This software contains proprietary and confidential information,
 including trade secrets, belonging to Gaussian, Inc.
  
 This software is provided under written license and may be
 used, copied, transmitted, or stored only in accord with that
 written license.
  
 The following legend is applicable only to US Government
 contracts under FAR:
  
                    RESTRICTED RIGHTS LEGEND
  
 Use, reproduction and disclosure by the US Government is
 subject to restrictions as set forth in subparagraphs (a)
 and (c) of the Commercial Computer Software - Restricted
 Rights clause in FAR 52.227-19.
  
 Gaussian, Inc.
 340 Quinnipiac St., Bldg. 40, Wallingford CT 06492
  
  
 ---------------------------------------------------------------
 Warning -- This program may not be used in any manner that
 competes with the business of Gaussian, Inc. or will provide
 assistance to any competitor of Gaussian, Inc.  The licensee
 of this program is prohibited from giving any competitor of
 Gaussian, Inc. access to this program.  By using this program,
 the user acknowledges that Gaussian, Inc. is engaged in the
 business of creating and licensing software in the field of
 computational chemistry and represents and warrants to the
 licensee that it is not a competitor of Gaussian, Inc. and that
 it will not use this program in any manner prohibited above.
 ---------------------------------------------------------------
  

 Cite this work as:
 Gaussian 09, Revision E.01,
 M. J. Frisch, G. W. Trucks, H. B. Schlegel, G. E. Scuseria, 
 M. A. Robb, J. R. Cheeseman, G. Scalmani, V. Barone, B. Mennucci, 
 G. A. Petersson, H. Nakatsuji, M. Caricato, X. Li, H. P. Hratchian, 
 A. F. Izmaylov, J. Bloino, G. Zheng, J. L. Sonnenberg, M. Hada, 
 M. Ehara, K. Toyota, R. Fukuda, J. Hasegawa, M. Ishida, T. Nakajima, 
 Y. Honda, O. Kitao, H. Nakai, T. Vreven, J. A. Montgomery, Jr., 
 J. E. Peralta, F. Ogliaro, M. Bearpark, J. J. Heyd, E. Brothers, 
 K. N. Kudin, V. N. Staroverov, T. Keith, R. Kobayashi, J. Normand, 
 K. Raghavachari, A. Rendell, J. C. Burant, S. S. Iyengar, J. Tomasi, 
 M. Cossi, N. Rega, J. M. Millam, M. Klene, J. E. Knox, J. B. Cross, 
 V. Bakken, C. Adamo, J. Jaramillo, R. Gomperts, R. E. Stratmann, 
 O. Yazyev, A. J. Austin, R. Cammi, C. Pomelli, J. W. Ochterski, 
 R. L. Martin, K. Morokuma, V. G. Zakrzewski, G. A. Voth, 
 P. Salvador, J. J. Dannenberg, S. Dapprich, A. D. Daniels, 
 O. Farkas, J. B. Foresman, J. V. Ortiz, J. Cioslowski, 
 and D. J. Fox, Gaussian, Inc., Wallingford CT, 2013.
 
 ******************************************
 Gaussian 09:  ES64L-G09RevE.01 30-Nov-2015
                 5-Dec-2021 
 ******************************************
 %nprocs=14
 Will use up to   14 processors via shared memory.
 %mem=128GB
 %chk=SS_Et_DuPhos_3_SPE.chk
 ----------------------------------------------------------------------
 # PBE1PBE gen pseudo=read int=(grid=ultrafine) empiricaldispersion=GD3
 BJ pop=nbo guess=read geom=check
 ----------------------------------------------------------------------
 1/29=2,38=1/1;
 2/12=2,40=1/2;
 3/5=7,11=2,14=-4,16=1,17=8,25=1,30=1,74=-13,75=-5,116=-2,124=41/1,2,3;
 4/5=1/1;
 5/5=2,38=6/2;
 6/7=2,8=2,9=2,10=2,28=1,40=1/1,7;
 99/5=1,9=1/99;
 --------------------
 SS_Et_DuPhos_3 title
 --------------------
 Structure from the checkpoint file:  "SS_Et_DuPhos_3_SPE.chk"
 Charge =  0 Multiplicity = 1
 Z-Matrix found in file.
 Cl,0,-1.2904759522,-3.7499402125,1.1493808954
 P,0,-1.5751079331,-0.7157086244,0.0459657721
 P,0,1.4776320387,-0.1157613401,0.3296681112
 C,0,-0.9904448717,0.9865353427,-0.3871924556
 C,0,0.3921754148,1.2558015224,-0.2552395568
 C,0,-2.9321624903,-0.671933762,1.3582606985
 H,0,-2.5462188031,-1.3299857797,2.1564970337
 C,0,-2.6920284079,-1.1751426587,-1.4089135052
 H,0,-2.4607565115,-0.4503980471,-2.2118764556
 C,0,2.4030721367,0.6048213147,1.798790321
 H,0,2.4141879704,1.6921078975,1.5742132683
 C,0,3.0090300838,-0.2874081043,-0.7532993995
 H,0,3.1287109184,-1.3879142149,-0.7716249114
 C,0,-4.1145690914,-1.3653670088,0.6396549159
 H,0,-3.9730784782,-2.4575659908,0.7130249301
 H,0,-5.0687091965,-1.1125693371,1.1361289152
 C,0,-4.1132002906,-0.9450378926,-0.8394881769
 H,0,-4.3920588549,0.1227392226,-0.9242401269
 H,0,-4.8544074807,-1.5168563327,-1.4262339439
 C,0,3.8341379945,0.0781471404,1.5780239769
 H,0,4.5430808189,0.6017333707,2.2443972481
 H,0,3.8780236905,-1.001843342,1.8051421352
 C,0,4.1576816039,0.3098599102,0.0922225361
 H,0,5.117428176,-0.1524271153,-0.1984303104
 H,0,4.2440839973,1.3969949797,-0.1080334521
 C,0,-3.2612008401,0.7060022531,1.9560677863
 H,0,-3.5497218739,1.4239732881,1.1661823678
 H,0,-4.1621096269,0.5714129542,2.5851727294
 C,0,-2.4685897079,-2.5989635715,-1.951564789
[...]
   961. RY*(   4) H  61                  0.00010     2.72585   
   962. RY*(   5) H  61                  0.00004     3.12795   
   963. RY*(   1)Cl  62                  0.00124     0.81812   
   964. RY*(   2)Cl  62                  0.00110     0.76496   
   965. RY*(   3)Cl  62                  0.00097     0.69504   
   966. RY*(   4)Cl  62                  0.00029     1.11144   
   967. RY*(   5)Cl  62                  0.00029     1.13674   
   968. RY*(   6)Cl  62                  0.00023     1.68948   
   969. RY*(   7)Cl  62                  0.00014     1.21793   
   970. RY*(   8)Cl  62                  0.00012     0.99796   
   971. RY*(   9)Cl  62                  0.00007     2.33119   
   972. RY*(  10)Cl  62                  0.00007     2.32866   
   973. RY*(  11)Cl  62                  0.00001     1.88014   
   974. RY*(  12)Cl  62                  0.00000    10.43199   
   975. RY*(  13)Cl  62                  0.00001     1.88064   
   976. RY*(  14)Cl  62                  0.00000    24.57427   
   977. RY*(  15)Cl  62                  0.00000    10.42821   
   978. RY*(  16)Cl  62                  0.00000     2.72680   
   979. RY*(  17)Cl  62                  0.00001     1.87136   
   980. RY*(  18)Cl  62                  0.00000    10.44068   
   981. RY*(  19)Cl  62                  0.00001     2.81977   
   982. RY*(  20)Cl  62                  0.00001     2.87005   
   983. RY*(  21)Cl  62                  0.00001     1.92235   
   984. RY*(  22)Cl  62                  0.00000     2.17553   
   985. RY*(  23)Cl  62                  0.00000     2.19526   
   986. RY*(  24)Cl  62                  0.00000     2.17809   
   987. RY*(  25)Cl  62                  0.00000     2.14790   
   988. RY*(  26)Cl  62                  0.00000     2.17462   
   989. RY*(  27)Cl  62                  0.00001     2.19565   
   990. RY*(  28)Cl  62                  0.00000     2.22502   
   991. RY*(   1)Pd  63                  0.00382     0.93432   
   992. RY*(   2)Pd  63                  0.00278     0.98570   
   993. RY*(   3)Pd  63                  0.00240     1.26726   
   994. RY*(   4)Pd  63                  0.00161     0.88993   
   995. RY*(   5)Pd  63                  0.00122     1.20864   
   996. RY*(   6)Pd  63                  0.00107     2.09399   
   997. RY*(   7)Pd  63                  0.00083     1.88819   
   998. RY*(   8)Pd  63                  0.00077     1.14240   
   999. RY*(   9)Pd  63                  0.00057     1.02056   
  1000. RY*(  10)Pd  63                  0.00054     2.38213   
  1001. RY*(  11)Pd  63                  0.00042     0.98011   
  1002. RY*(  12)Pd  63                  0.00037     0.74226   
  1003. RY*(  13)Pd  63                  0.00025     1.65981   
  1004. RY*(  14)Pd  63                  0.00021     0.72296   
  1005. RY*(  15)Pd  63                  0.00016     2.31512   
  1006. RY*(  16)Pd  63                  0.00017     2.22191   
  1007. RY*(  17)Pd  63                  0.00012     1.87578   
  1008. RY*(  18)Pd  63                  0.00008    32.26703   
  1009. RY*(  19)Pd  63                  0.00006     2.28974   
  1010. RY*(  20)Pd  63                  0.00004     2.55881   
  1011. RY*(  21)Pd  63                  0.00000    39.25184   
  1012. RY*(  22)Pd  63                  0.00000    39.22156   
  1013. RY*(  23)Pd  63                  0.00000    39.56880   
  1014. BD*(   1)Cl   1 -Pd  63          0.19551     0.16828  1082(g),1018(g),996(g)
                                                    155(v),1015(v),1008(g)
                                                    1010(g),1005(g),1000(g)
                                                    1007(g),997(g),1002(g)
                                                    183(v),1021(v),1020(v)
                                                    1016(v),131(g),212(r),127(g)
                                                    999(g),1064(r),1027(r)
                                                    1011(g),994(g),1017(v)
                                                    992(g),1009(g),356(r)
  1015. BD*(   1) P   2 - C   4          0.07902     0.18903   
  1016. BD*(   1) P   2 - C   6          0.08299     0.15269   
  1017. BD*(   1) P   2 - C   8          0.08334     0.15057   
  1018. BD*(   1) P   2 -Pd  63          0.17944     0.66845  1022(g),1002(g),992(g)
                                                    1005(g),1008(g),155(g)
                                                    1010(g),997(g),183(v),996(g)
                                                    994(g),1003(g),1000(g)
                                                    995(g),999(g),212(v),1009(g)
                                                    966(v),238(r),130(v),1007(g)
                                                    998(g),968(v),356(r),972(v)
                                                    991(g),136(v),325(r),132(v)
                                                    133(v),1014(g),188(v),263(v)
                                                    192(v),190(v),969(v),295(v)
                                                    1001(g),970(v),131(v),160(g)
                                                    165(g),965(v),264(v),993(g)
                                                    213(v),161(g),239(r),162(g)
                                                    156(g),158(g),185(v),357(r)
                                                    191(v),167(g),163(g),761(r)
                                                    1004(g),184(v),176(g),665(r)
                                                    1006(g),763(r),129(v),294(v)
                                                    189(v),423(r),598(r),783(r)
                                                    492(r),211(v),174(g),842(r)
                                                    204(v),147(v),202(v),366(r)
                                                    272(v),271(v),215(v),935(r)
                                                    1064(r),240(r),758(r),933(r)
                                                    765(r),865(r),135(v),716(r)
                                                    241(r),983(v),199(v),157(g)
                                                    330(r),605(r),1027(v),557(r)
                                                    767(r),495(r),990(v),490(r)
                                                    789(r),975(v),338(r),214(v)
                                                    195(v),223(v),299(v),567(r)
                                                    237(r),431(r),329(r),217(v)
                                                    577(r),128(v),843(r),575(r)
                                                    187(v),243(r),762(r),171(g)
                                                    934(r),265(v),169(g),958(r)
                                                    675(r),139(v),360(r),363(r)
                                                    416(r),220(v),971(v),337(r)
                                                    651(r),829(r),841(r),499(r)
                                                    649(r),186(v),333(r),724(r)
                                                    359(r),200(v),600(r),719(r)
                                                    267(v),327(r),743(r),249(r)
                                                    427(r),268(v),571(r),387(r)
                                                    170(g),936(r),1023(v),606(r)
                                                    706(r),326(r),205(v),383(r)
                                                    201(v),537(r),197(v),194(v)
                                                    382(r),307(v),400(r)
  1019. BD*(   1) P   3 - C   5          0.08015     0.19235   
  1020. BD*(   1) P   3 - C  10          0.08161     0.15654   
  1021. BD*(   1) P   3 - C  12          0.08168     0.15822   
  1022. BD*(   1) P   3 -Pd  63          0.17949     0.65374  1018(g),992(g),1008(g)
                                                    1005(g),183(g),1010(g)
                                                    997(g),155(v),995(g),1002(g)
                                                    1003(g),996(g),1000(g)
                                                    994(g),1004(g),999(g),238(v)
                                                    998(g),212(r),1009(g),966(v)
                                                    136(v),968(v),1007(g),130(v)
                                                    133(v),991(g),356(v),325(v)
                                                    263(r),1082(g),972(v),132(v)
                                                    192(g),188(g),295(r),969(v)
                                                    993(g),190(g),1006(g),161(v)
                                                    160(v),264(r),162(v),965(v)
                                                    165(v),191(g),1001(g),213(r)
                                                    239(v),970(v),131(v),357(v)
                                                    167(v),163(v),185(g),156(v)
                                                    158(v),761(r),665(r),189(g)
                                                    184(g),176(v),598(r),204(g)
                                                    202(g),294(r),492(r),147(v)
                                                    964(v),423(r),763(r),215(r)
                                                    935(r),567(r),272(r),366(v)
                                                    842(r),933(r),199(g),271(r)
                                                    865(r),330(v),783(r),716(r)
                                                    186(g),135(v),174(v),237(v)
                                                    767(r),240(v),211(r),789(r)
                                                    157(v),575(r),983(v),605(r)
                                                    495(r),241(v),758(r),557(r)
                                                    975(v),338(v),214(r),195(g)
                                                    200(g),577(r),247(v),267(r)
                                                    299(r),249(v),765(r),934(r)
                                                    363(v),265(r),1036(v),217(r)
                                                    490(r),164(v),1068(r),129(v)
                                                    416(r),243(v),471(r),971(v)
                                                    649(r),499(r),159(v),843(r)
                                                    990(v),171(v),1023(v),724(r)
                                                    223(r),337(v),139(v),329(v)
                                                    720(r),762(r),1064(r),431(r)
                                                    154(v),205(g),153(v),675(r)
                                                    220(r),719(r),201(g),743(r)
                                                    333(v),936(r),610(r),651(r)
                                                    841(r),327(v),373(v),609(r)
                                                    360(v),829(r),413(r),571(r)
                                                    468(r),359(v),606(r),706(r)
                                                    166(v),576(r),798(r)
  1023. BD*(   1) C   4 - C   5          0.03236     0.47956   
  1024. BD*(   2) C   4 - C   5          0.39815    -0.01237  1080(v),1075(v),1016(v)
                                                    1021(v),1020(v),240(g)
                                                    214(g),1017(v)
  1025. BD*(   1) C   4 - C  54          0.03001     0.48888   
  1026. BD*(   1) C   5 - C  60          0.02985     0.48851   
  1027. BD*(   1) C   6 - H   7          0.02001     0.36763   
  1028. BD*(   1) C   6 - C  14          0.01846     0.32441   
  1029. BD*(   1) C   6 - C  26          0.02322     0.33458   
  1030. BD*(   1) C   8 - H   9          0.02152     0.34695   
  1031. BD*(   1) C   8 - C  17          0.01948     0.31780   
  1032. BD*(   1) C   8 - C  29          0.02189     0.33954   
  1033. BD*(   1) C  10 - H  11          0.02380     0.33187   
  1034. BD*(   1) C  10 - C  20          0.02217     0.32473   
  1035. BD*(   1) C  10 - C  32          0.02318     0.34272   
  1036. BD*(   1) C  12 - H  13          0.02635     0.36401   
  1037. BD*(   1) C  12 - C  23          0.02020     0.32537   
  1038. BD*(   1) C  12 - C  35          0.01973     0.34322   
  1039. BD*(   1) C  14 - H  15          0.01462     0.36832   
  1040. BD*(   1) C  14 - H  16          0.01478     0.35530   
  1041. BD*(   1) C  14 - C  17          0.01342     0.33188   
  1042. BD*(   1) C  17 - H  18          0.01556     0.34445   
  1043. BD*(   1) C  17 - H  19          0.01555     0.35528   
  1044. BD*(   1) C  20 - H  21          0.01548     0.35541   
  1045. BD*(   1) C  20 - H  22          0.01894     0.36786   
  1046. BD*(   1) C  20 - C  23          0.00821     0.33902   
  1047. BD*(   1) C  23 - H  24          0.01408     0.36019   
  1048. BD*(   1) C  23 - H  25          0.01838     0.33925   
  1049. BD*(   1) C  26 - H  27          0.01908     0.34847   
  1050. BD*(   1) C  26 - H  28          0.01736     0.34570   
  1051. BD*(   1) C  26 - C  38          0.00630     0.34452   
  1052. BD*(   1) C  29 - H  30          0.01741     0.35740   
  1053. BD*(   1) C  29 - H  31          0.02066     0.38197   
  1054. BD*(   1) C  29 - C  42          0.00555     0.36526   
  1055. BD*(   1) C  32 - H  33          0.01567     0.36208   
  1056. BD*(   1) C  32 - H  34          0.01714     0.35255   
  1057. BD*(   1) C  32 - C  46          0.00848     0.36177   
  1058. BD*(   1) C  35 - H  36          0.01928     0.34985   
  1059. BD*(   1) C  35 - H  37          0.01747     0.34868   
  1060. BD*(   1) C  35 - C  50          0.00618     0.34904   
  1061. BD*(   1) C  38 - H  39          0.00564     0.36496   
  1062. BD*(   1) C  38 - H  40          0.00909     0.37149   
  1063. BD*(   1) C  38 - H  41          0.00864     0.36099   
  1064. BD*(   1) C  42 - H  43          0.01160     0.42491   
  1065. BD*(   1) C  42 - H  44          0.00561     0.38906   
  1066. BD*(   1) C  42 - H  45          0.00931     0.37451   
  1067. BD*(   1) C  46 - H  47          0.00837     0.39253   
  1068. BD*(   1) C  46 - H  48          0.01086     0.43284   
  1069. BD*(   1) C  46 - H  49          0.00597     0.38781   
  1070. BD*(   1) C  50 - H  51          0.00834     0.37168   
  1071. BD*(   1) C  50 - H  52          0.00861     0.37471   
  1072. BD*(   1) C  50 - H  53          0.00585     0.37147   
  1073. BD*(   1) C  54 - H  55          0.01709     0.37222   
  1074. BD*(   1) C  54 - C  56          0.01621     0.50636   
  1075. BD*(   2) C  54 - C  56          0.30535    -0.00570  1080(v),1024(v),872(g)
  1076. BD*(   1) C  56 - H  57          0.01302     0.37142   
  1077. BD*(   1) C  56 - C  58          0.01405     0.50117   
  1078. BD*(   1) C  58 - H  59          0.01307     0.37163   
  1079. BD*(   1) C  58 - C  60          0.01612     0.50617   
  1080. BD*(   2) C  58 - C  60          0.30568    -0.00587  1075(v),1024(v),903(g)
                                                    933(g)
  1081. BD*(   1) C  60 - H  61          0.01641     0.36849   
  1082. BD*(   1)Cl  62 -Pd  63          0.19599     0.17061  1014(g),1022(g),995(g)
                                                    1019(v),183(v),126(g)
                                                    1007(g),1000(g),1008(g)
                                                    997(g),1004(g),1021(v)
                                                    1010(g),998(g),1017(v)
                                                    155(v),1005(g),1068(r)
                                                    1006(g),1009(g),1036(r)
                                                    238(r),1011(g),963(g),968(g)
                                                    1020(v),992(g),994(g)
       -------------------------------
              Total Lewis  274.38709  ( 98.7004%)
        Valence non-Lewis    3.23813  (  1.1648%)
        Rydberg non-Lewis    0.37478  (  0.1348%)
       -------------------------------
            Total unit  1  278.00000  (100.0000%)
           Charge unit  1    0.00000
 1\1\GINC-NC051\SP\RPBE1PBE\Gen\C22H36Cl2P2Pd1\MACKK4\05-Dec-2021\0\\# 
 PBE1PBE gen pseudo=read int=(grid=ultrafine) empiricaldispersion=GD3BJ
  pop=nbo guess=read geom=check\\SS_Et_DuPhos_3 title\\0,1\Cl,0,-1.2904
 759522,-3.7499402125,1.1493808954\P,0,-1.5751079331,-0.7157086244,0.04
 59657721\P,0,1.4776320387,-0.1157613401,0.3296681112\C,0,-0.9904448717
 ,0.9865353427,-0.3871924556\C,0,0.3921754148,1.2558015224,-0.255239556
 8\C,0,-2.9321624903,-0.671933762,1.3582606985\H,0,-2.5462188031,-1.329
 9857797,2.1564970337\C,0,-2.6920284079,-1.1751426587,-1.4089135052\H,0
 ,-2.4607565115,-0.4503980471,-2.2118764556\C,0,2.4030721367,0.60482131
 47,1.798790321\H,0,2.4141879704,1.6921078975,1.5742132683\C,0,3.009030
 0838,-0.2874081043,-0.7532993995\H,0,3.1287109184,-1.3879142149,-0.771
 6249114\C,0,-4.1145690914,-1.3653670088,0.6396549159\H,0,-3.9730784782
 ,-2.4575659908,0.7130249301\H,0,-5.0687091965,-1.1125693371,1.13612891
 52\C,0,-4.1132002906,-0.9450378926,-0.8394881769\H,0,-4.3920588549,0.1
 227392226,-0.9242401269\H,0,-4.8544074807,-1.5168563327,-1.4262339439\
 C,0,3.8341379945,0.0781471404,1.5780239769\H,0,4.5430808189,0.60173337
 07,2.2443972481\H,0,3.8780236905,-1.001843342,1.8051421352\C,0,4.15768
 16039,0.3098599102,0.0922225361\H,0,5.117428176,-0.1524271153,-0.19843
 03104\H,0,4.2440839973,1.3969949797,-0.1080334521\C,0,-3.2612008401,0.
 7060022531,1.9560677863\H,0,-3.5497218739,1.4239732881,1.1661823678\H,
 0,-4.1621096269,0.5714129542,2.5851727294\C,0,-2.4685897079,-2.5989635
 715,-1.951564789\H,0,-3.2828707461,-2.7943035139,-2.6764618443\H,0,-2.
 5719139261,-3.3320484419,-1.1330068233\C,0,1.7843191805,0.4379192131,3
 .1968773978\H,0,0.8164626097,0.9729347389,3.2156530434\H,0,2.443712760
 9,0.9900435204,3.8954896859\C,0,2.8987936634,0.2362047061,-2.189167424
 2\H,0,2.7275244069,1.3293449782,-2.1856736668\H,0,3.8855596326,0.08496
 24689,-2.6680921225\C,0,-2.1327377409,1.2932761004,2.8104414462\H,0,-2
 .4545389434,2.2235168376,3.3083235344\H,0,-1.2466456631,1.5332687172,2
 .198809709\H,0,-1.8191268624,0.5778794695,3.590930572\C,0,-1.111972432
 6,-2.7928178085,-2.6315526338\H,0,-0.288356278,-2.6784421532,-1.901627
 5618\H,0,-1.0307547469,-3.807031903,-3.0563908033\H,0,-0.9560531178,-2
 .0630494754,-3.44749584\C,0,1.5861462508,-0.9929265369,3.7050387526\H,
 0,2.5165982536,-1.5819899321,3.6686703709\H,0,0.8421635009,-1.54094896
 84,3.1002667215\H,0,1.2309661271,-0.9737899466,4.7498355267\C,0,1.8134
 429651,-0.4599549982,-3.0168798891\H,0,1.9461585172,-1.55524498,-3.006
 271042\H,0,0.8068391456,-0.2467832836,-2.6171446015\H,0,1.8350151887,-
 0.1199599424,-4.0661166655\C,0,-1.8481872464,1.9940465483,-0.869166928
 5\H,0,-2.9154236481,1.7896690808,-1.0017065959\C,0,-1.3443121235,3.261
 1528419,-1.1899542612\H,0,-2.0204603579,4.0367898864,-1.5631325338\C,0
 ,0.0220479452,3.5353997872,-1.0324051894\H,0,0.4157689875,4.52631819,-
 1.2794110806\C,0,0.8870461258,2.5362041382,-0.5685394496\H,0,1.9544282
 325,2.7537122463,-0.4543884927\Cl,0,2.2362464716,-3.2235773846,0.94159
 08748\Pd,0,0.2199094344,-1.9635800626,0.5954012565\\Version=ES64L-G09R
 evE.01\State=1-A\HF=-2590.0350216\RMSD=2.118e-09\Dipole=-0.8252597,4.6
 04284,-1.2436514\Quadrupole=11.0334471,-12.5413836,1.5079365,4.5590375
 ,0.8412691,4.4052952\PG=C01 [X(C22H36Cl2P2Pd1)]\\@


 Statistics are no substitute for judgment.
                            -- Henry Clay
 Job cpu time:       0 days  1 hours  3 minutes  0.7 seconds.
 File lengths (MBytes):  RWF=    602 Int=      0 D2E=      0 Chk=     96 Scr=      1
 Normal termination of Gaussian 09 at Sun Dec  5 10:25:50 2021.
