 Entering Gaussian System, Link 0=g09
 Input=SS_Et_DuPhos_2_SPE.com
 Output=SS_Et_DuPhos_2_SPE.log
 Initial command:
 /gstore/apps/gaussian/g09.e01-foss-2017a/g09/l1.exe "/local/22791408/Gau-21919.inp" -scrdir="/local/22791408/"
 Entering Link 1 = /gstore/apps/gaussian/g09.e01-foss-2017a/g09/l1.exe PID=     21927.
  
 Copyright (c) 1988,1990,1992,1993,1995,1998,2003,2009,2015,
            Gaussian, Inc.  All Rights Reserved.
  
 This is part of the Gaussian(R) 09 program.  It is based on
 the Gaussian(R) 03 system (copyright 2003, Gaussian, Inc.),
 the Gaussian(R) 98 system (copyright 1998, Gaussian, Inc.),
 the Gaussian(R) 94 system (copyright 1995, Gaussian, Inc.),
 the Gaussian 92(TM) system (copyright 1992, Gaussian, Inc.),
 the Gaussian 90(TM) system (copyright 1990, Gaussian, Inc.),
 the Gaussian 88(TM) system (copyright 1988, Gaussian, Inc.),
 the Gaussian 86(TM) system (copyright 1986, Carnegie Mellon
 University), and the Gaussian 82(TM) system (copyright 1983,
 Carnegie Mellon University). Gaussian is a federally registered
 trademark of Gaussian, Inc.
  
 This software contains proprietary and confidential information,
 including trade secrets, belonging to Gaussian, Inc.
  
 This software is provided under written license and may be
 used, copied, transmitted, or stored only in accord with that
 written license.
  
 The following legend is applicable only to US Government
 contracts under FAR:
  
                    RESTRICTED RIGHTS LEGEND
  
 Use, reproduction and disclosure by the US Government is
 subject to restrictions as set forth in subparagraphs (a)
 and (c) of the Commercial Computer Software - Restricted
 Rights clause in FAR 52.227-19.
  
 Gaussian, Inc.
 340 Quinnipiac St., Bldg. 40, Wallingford CT 06492
  
  
 ---------------------------------------------------------------
 Warning -- This program may not be used in any manner that
 competes with the business of Gaussian, Inc. or will provide
 assistance to any competitor of Gaussian, Inc.  The licensee
 of this program is prohibited from giving any competitor of
 Gaussian, Inc. access to this program.  By using this program,
 the user acknowledges that Gaussian, Inc. is engaged in the
 business of creating and licensing software in the field of
 computational chemistry and represents and warrants to the
 licensee that it is not a competitor of Gaussian, Inc. and that
 it will not use this program in any manner prohibited above.
 ---------------------------------------------------------------
  

 Cite this work as:
 Gaussian 09, Revision E.01,
 M. J. Frisch, G. W. Trucks, H. B. Schlegel, G. E. Scuseria, 
 M. A. Robb, J. R. Cheeseman, G. Scalmani, V. Barone, B. Mennucci, 
 G. A. Petersson, H. Nakatsuji, M. Caricato, X. Li, H. P. Hratchian, 
 A. F. Izmaylov, J. Bloino, G. Zheng, J. L. Sonnenberg, M. Hada, 
 M. Ehara, K. Toyota, R. Fukuda, J. Hasegawa, M. Ishida, T. Nakajima, 
 Y. Honda, O. Kitao, H. Nakai, T. Vreven, J. A. Montgomery, Jr., 
 J. E. Peralta, F. Ogliaro, M. Bearpark, J. J. Heyd, E. Brothers, 
 K. N. Kudin, V. N. Staroverov, T. Keith, R. Kobayashi, J. Normand, 
 K. Raghavachari, A. Rendell, J. C. Burant, S. S. Iyengar, J. Tomasi, 
 M. Cossi, N. Rega, J. M. Millam, M. Klene, J. E. Knox, J. B. Cross, 
 V. Bakken, C. Adamo, J. Jaramillo, R. Gomperts, R. E. Stratmann, 
 O. Yazyev, A. J. Austin, R. Cammi, C. Pomelli, J. W. Ochterski, 
 R. L. Martin, K. Morokuma, V. G. Zakrzewski, G. A. Voth, 
 P. Salvador, J. J. Dannenberg, S. Dapprich, A. D. Daniels, 
 O. Farkas, J. B. Foresman, J. V. Ortiz, J. Cioslowski, 
 and D. J. Fox, Gaussian, Inc., Wallingford CT, 2013.
 
 ******************************************
 Gaussian 09:  ES64L-G09RevE.01 30-Nov-2015
                 5-Dec-2021 
 ******************************************
 %nprocs=14
 Will use up to   14 processors via shared memory.
 %mem=128GB
 %chk=SS_Et_DuPhos_2_SPE.chk
 ----------------------------------------------------------------------
 # PBE1PBE gen pseudo=read int=(grid=ultrafine) empiricaldispersion=GD3
 BJ nmr=giao
 ----------------------------------------------------------------------
 1/38=1/1;
 2/12=2,17=6,18=5,40=1/2;
 3/5=7,11=2,16=1,17=8,25=1,30=1,74=-13,75=-5,124=41/1,2,8,3;
 4//1;
 5/5=2,38=5/2;
 8/6=1,10=90,11=11/1;
 10/13=100,45=16/2;
 6/7=2,8=2,9=2,10=2,28=1/1;
 99/9=1/99;
 --------------------
 SS_Et_DuPhos_2 title
 --------------------
 Symbolic Z-matrix:
 Charge =  0 Multiplicity = 1
 Cl                   -1.25093  -3.7867    1.21609 
 P                    -1.53652  -0.7592    0.05573 
 P                     1.53768  -0.18097   0.36328 
 C                    -0.93134   0.94562  -0.33377 
 C                     0.43872   1.22495  -0.11143 
 C                    -2.93613  -0.69512   1.33023 
 H                    -2.5637   -1.30007   2.17532 
 C                    -2.62006  -1.23825  -1.42047 
 H                    -2.3795   -0.5246   -2.23083 
 C                     2.57944   0.39291   1.82727 
 H                     2.39408   1.48464   1.89549 
 C                     2.96833  -0.23821  -0.86144 
 H                     3.18793  -1.32312  -0.89344 
 C                    -4.06987  -1.45024   0.59642 
 H                    -3.88189  -2.53492   0.67508 
 H                    -5.04288  -1.23862   1.07503 
 C                    -4.05506  -1.02564  -0.88118 
 H                    -4.34881   0.0378   -0.96852 
 H                    -4.77638  -1.60845  -1.48149 
 C                     4.02918   0.14255   1.35908 
 H                     4.7352    0.73633   1.96647 
 H                     4.26366  -0.92628   1.51279 
 C                     4.12483   0.47966  -0.13418 
 H                     5.09394   0.16965  -0.56455 
 H                     4.0404    1.57418  -0.2882 
 C                    -3.36246   0.6952    1.83638 
 H                    -3.63677   1.35361   0.9921 
 H                    -4.29772   0.54158   2.40886 
 C                    -2.38854  -2.67495  -1.92993 
 H                    -3.1967   -2.88461  -2.65764 
 H                    -2.50497  -3.38729  -1.09495 
 C                     2.24401  -0.26895   3.17044 
 H                     2.9858    0.09431   3.90807 
 H                     2.39496  -1.35827   3.06679 
 C                     2.68798   0.2756   -2.27811 
 H                     2.44075   1.35352  -2.24216 
 H                     3.6362    0.19926  -2.84462 
 C                    -2.34052   1.39755   2.73407 
 H                    -2.74844   2.34716   3.12027 
 H                    -1.40981   1.63074   2.19145 
 H                    -2.07503   0.76497   3.59807 
 C                    -1.02917  -2.90091  -2.59118 
 H                    -0.2104   -2.7682   -1.85944 
 H                    -0.95465  -3.93057  -2.97869 
 H                    -0.8618   -2.20296  -3.43159 
 C                     0.82716   0.01259   3.6707 
 H                     0.08465  -0.44988   2.99425 
 H                     0.61642   1.09608   3.72699 
 H                     0.66963  -0.41925   4.67326 
 C                     1.58492  -0.48714  -3.01514 
 H                     1.78585  -1.57174  -3.02464 
 H                     0.60536  -0.33861  -2.52972 
 H                     1.49587  -0.1441   -4.05995 
 C                    -1.77159   1.95915  -0.83376 
 H                    -2.82315   1.74384  -1.04841 
 C                    -1.27149   3.24742  -1.06284 
 H                    -1.93504   4.02823  -1.44756 
 C                     0.07449   3.53628  -0.79577 
 H                     0.46439   4.54489  -0.96513 
 C                     0.92761   2.52684  -0.33108 
 H                     1.98356   2.75258  -0.14794 
 Cl                    2.29501  -3.19714   1.06521 
 Pd                    0.25271  -2.00681   0.63536 
 
 Stoichiometry    C22H36Cl2P2Pd
 Framework group  C1[X(C22H36Cl2P2Pd)]
 Deg. of freedom   183
 Full point group                 C1      NOp   1
 Largest Abelian subgroup         C1      NOp   1
 Largest concise Abelian subgroup C1      NOp   1
                         Standard orientation:                         
 ---------------------------------------------------------------------
 Center     Atomic      Atomic             Coordinates (Angstroms)
 Number     Number       Type             X           Y           Z
 ---------------------------------------------------------------------
      1         17           0        1.670600   -2.980741   -0.563237
      2         15           0        1.527066    0.208847    0.068973
      3         15           0       -1.615119    0.243366   -0.002795
      4          6           0        0.673272    1.841046    0.245914
      5          6           0       -0.737359    1.862755    0.126781
      6          6           0        2.792652    0.267347   -1.338943
      7          1           0        2.464076   -0.524583   -2.034461
      8          6           0        2.787078    0.165063    1.480761
      9          1           0        2.492290    0.962046    2.189117
     10          6           0       -2.849235    0.387954   -1.421908
     11          1           0       -2.857716    1.466841   -1.680407
     12          6           0       -2.916207    0.178127    1.358410
     13          1           0       -2.945338   -0.905663    1.583847
     14          6           0        4.091426   -0.165405   -0.617864
     15          1           0        4.084762   -1.263200   -0.504431
     16          1           0        4.974420    0.108126   -1.222916
     17          6           0        4.119095    0.500457    0.767662
     18          1           0        4.233944    1.595420    0.655045
     19          1           0        4.973108    0.148562    1.373604
     20          6           0       -4.194829    0.001290   -0.771135
     21          1           0       -5.036220    0.364991   -1.387365
     22          1           0       -4.255667   -1.101221   -0.729039
     23          6           0       -4.230514    0.572262    0.652007
     24          1           0       -5.096714    0.195284    1.224801
     25          1           0       -4.321429    1.676638    0.621847
     26          6           0        2.936371    1.598312   -2.099736
     27          1           0        3.159410    2.426948   -1.403189
     28          1           0        3.837009    1.494507   -2.735440
     29          6           0        2.842884   -1.180355    2.231750
     30          1           0        3.728735   -1.133841    2.894886
     31          1           0        3.013602   -1.999493    1.511984
     32          6           0       -2.511247   -0.435976   -2.671545
     33          1           0       -3.358735   -0.324541   -3.375576
     34          1           0       -2.466633   -1.501082   -2.382234
     35          6           0       -2.618414    0.965847    2.639180
     36          1           0       -2.561262    2.046429    2.408076
     37          1           0       -3.493216    0.842913    3.306625
     38          6           0        1.743713    1.968716   -2.985111
     39          1           0        1.953421    2.888822   -3.556713
     40          1           0        0.831726    2.145466   -2.391751
     41          1           0        1.523423    1.163168   -3.706014
     42          6           0        1.596879   -1.495998    3.058808
     43          1           0        0.713353   -1.619703    2.404954
     44          1           0        1.728404   -2.442258    3.609448
     45          1           0        1.378983   -0.697792    3.791488
     46          6           0       -1.205744   -0.029599   -3.355287
     47          1           0       -0.345449   -0.247999   -2.695770
     48          1           0       -1.186964    1.047252   -3.603422
     49          1           0       -1.055226   -0.598445   -4.288131
     50          6           0       -1.348243    0.521492    3.367832
     51          1           0       -1.360817   -0.563000    3.569177
     52          1           0       -0.448629    0.733495    2.765347
     53          1           0       -1.238170    1.049346    4.330384
     54          6           0        1.365411    3.043121    0.489223
     55          1           0        2.451670    3.033169    0.624003
     56          6           0        0.673149    4.258639    0.563333
     57          1           0        1.222278    5.187137    0.748629
     58          6           0       -0.718895    4.285619    0.396265
     59          1           0       -1.260051    5.235796    0.444308
     60          6           0       -1.421649    3.091631    0.188309
     61          1           0       -2.511553    3.116496    0.083282
     62         17           0       -1.901498   -2.928928   -0.137313
     63         46           0       -0.063833   -1.381281   -0.116425
 ---------------------------------------------------------------------
 Rotational constants (GHZ):      0.1697975      0.1409342      0.1177567
 General basis read from cards:  (5D, 7F)
 ======================================================================================================
                                       Pseudopotential Parameters
 ======================================================================================================
  Center     Atomic      Valence      Angular      Power
  Number     Number     Electrons     Momentum     of R      Exponent        Coefficient   SO-Coeffient
 ======================================================================================================
    1         17
                                   No pseudopotential on this center.
    2         15
                                   No pseudopotential on this center.
    3         15
                                   No pseudopotential on this center.
    4          6
                                   No pseudopotential on this center.
    5          6
                                   No pseudopotential on this center.
    6          6
                                   No pseudopotential on this center.
    7          1
                                   No pseudopotential on this center.
    8          6
                                   No pseudopotential on this center.
    9          1
                                   No pseudopotential on this center.
   10          6
                                   No pseudopotential on this center.
   11          1
                                   No pseudopotential on this center.
   12          6
                                   No pseudopotential on this center.
   13          1
                                   No pseudopotential on this center.
   14          6
                                   No pseudopotential on this center.
   15          1
                                   No pseudopotential on this center.
   16          1
                                   No pseudopotential on this center.
   17          6
                                   No pseudopotential on this center.
   18          1
                                   No pseudopotential on this center.
   19          1
                                   No pseudopotential on this center.
   20          6
                                   No pseudopotential on this center.
   21          1
                                   No pseudopotential on this center.
   22          1
                                   No pseudopotential on this center.
   23          6
                                   No pseudopotential on this center.
   24          1
                                   No pseudopotential on this center.
   25          1
                                   No pseudopotential on this center.
   26          6
                                   No pseudopotential on this center.
   27          1
                                   No pseudopotential on this center.
   28          1
                                   No pseudopotential on this center.
   29          6
                                   No pseudopotential on this center.
   30          1
                                   No pseudopotential on this center.
   31          1
                                   No pseudopotential on this center.
   32          6
                                   No pseudopotential on this center.
   33          1
                                   No pseudopotential on this center.
   34          1
                                   No pseudopotential on this center.
   35          6
                                   No pseudopotential on this center.
   36          1
                                   No pseudopotential on this center.
   37          1
                                   No pseudopotential on this center.
   38          6
                                   No pseudopotential on this center.
   39          1
                                   No pseudopotential on this center.
   40          1
                                   No pseudopotential on this center.
   41          1
                                   No pseudopotential on this center.
   42          6
                                   No pseudopotential on this center.
   43          1
                                   No pseudopotential on this center.
   44          1
                                   No pseudopotential on this center.
   45          1
                                   No pseudopotential on this center.
   46          6
                                   No pseudopotential on this center.
   47          1
                                   No pseudopotential on this center.
   48          1
                                   No pseudopotential on this center.
   49          1
                                   No pseudopotential on this center.
   50          6
                                   No pseudopotential on this center.
   51          1
                                   No pseudopotential on this center.
   52          1
                                   No pseudopotential on this center.
   53          1
                                   No pseudopotential on this center.
   54          6
                                   No pseudopotential on this center.
   55          1
                                   No pseudopotential on this center.
   56          6
                                   No pseudopotential on this center.
   57          1
                                   No pseudopotential on this center.
   58          6
                                   No pseudopotential on this center.
   59          1
                                   No pseudopotential on this center.
   60          6
                                   No pseudopotential on this center.
   61          1
                                   No pseudopotential on this center.
   62         17
                                   No pseudopotential on this center.
   63         46           18
                                      G and up 
                                                     2        1.0000000        0.00000000    0.00000000
                                      S - G
                                                     2       12.4300000      240.22904000    0.00000000
                                                     2        6.1707590       35.17194300    0.00000000
                                      P - G
                                                     2       11.0800000      170.41727600    0.00000000
                                                     2        5.8295540       28.47213300    0.00000000
                                      D - G
                                                     2        9.5100000       69.01384500    0.00000000
                                                     2        4.1397810       11.75086200    0.00000000
                                      F - G
                                                     2       13.2700000      -31.92955400    0.00000000
                                                     2        6.6300000       -5.39821700    0.00000000
 ======================================================================================================
 There are  1215 symmetry adapted cartesian basis functions of A   symmetry.
 There are  1082 symmetry adapted basis functions of A   symmetry.
  1082 basis functions,  1751 primitive gaussians,  1215 cartesian basis functions
   125 alpha electrons      125 beta electrons
       nuclear repulsion energy      4044.5542975599 Hartrees.
 NAtoms=   63 NActive=   63 NUniq=   63 SFac= 1.00D+00 NAtFMM=   60 NAOKFM=T Big=T
 Integral buffers will be    131072 words long.
 Raffenetti 2 integral format.
 Two-electron integral symmetry is turned on.
 Nuclear repulsion after empirical dispersion term =     4044.4489292382 Hartrees.
 One-electron integrals computed using PRISM.
   1 Symmetry operations used in ECPInt.
 ECPInt:  NShTT=  102378 NPrTT=  309252 LenC2=   90373 LenP2D=  190348.
 LDataN:  DoStor=T MaxTD1= 7 Len=  274
 NBasis=  1082 RedAO= T EigKep=  4.75D-06  NBF=  1082
 NBsUse=  1082 1.00D-06 EigRej= -1.00D+00 NBFU=  1082
 Defaulting to unpruned grid for atomic number  46.
 ExpMin= 1.60D-02 ExpMax= 6.95D+04 ExpMxC= 2.37D+03 IAcc=3 IRadAn=         5 AccDes= 0.00D+00
 Harris functional with IExCor= 1009 and IRadAn=       5 diagonalized for initial guess.
 HarFok:  IExCor= 1009 AccDes= 0.00D+00 IRadAn=         5 IDoV= 1 UseB2=F ITyADJ=14
 ICtDFT=  3500011 ScaDFX=  1.000000  1.000000  1.000000  1.000000
 Defaulting to unpruned grid for atomic number  46.
 Defaulting to unpruned grid for atomic number  46.
 Defaulting to unpruned grid for atomic number  46.
 Defaulting to unpruned grid for atomic number  46.
 Defaulting to unpruned grid for atomic number  46.
 Defaulting to unpruned grid for atomic number  46.
 Defaulting to unpruned grid for atomic number  46.
 Defaulting to unpruned grid for atomic number  46.
 Defaulting to unpruned grid for atomic number  46.
 Defaulting to unpruned grid for atomic number  46.
 Defaulting to unpruned grid for atomic number  46.
 Defaulting to unpruned grid for atomic number  46.
 Defaulting to unpruned grid for atomic number  46.
 Defaulting to unpruned grid for atomic number  46.
 FoFCou: FMM=F IPFlag=           0 FMFlag=      100000 FMFlg1=        2001
         NFxFlg=           0 DoJE=T BraDBF=F KetDBF=T FulRan=T
         wScrn=  0.000000 ICntrl=     500 IOpCl=  0 I1Cent=   200000004 NGrid=           0
         NMat0=    1 NMatS0=      1 NMatT0=    0 NMatD0=    1 NMtDS0=    0 NMtDT0=    0
 Petite list used in FoFCou.
 Requested convergence on RMS density matrix=1.00D-08 within 128 cycles.
 Requested convergence on MAX density matrix=1.00D-06.
 Requested convergence on             energy=1.00D-06.
 No special actions if energy rises.
 Defaulting to unpruned grid for atomic number  46.
 Defaulting to unpruned grid for atomic number  46.
 Defaulting to unpruned grid for atomic number  46.
 Defaulting to unpruned grid for atomic number  46.
 Defaulting to unpruned grid for atomic number  46.
 Defaulting to unpruned grid for atomic number  46.
 Defaulting to unpruned grid for atomic number  46.
 Defaulting to unpruned grid for atomic number  46.
 Defaulting to unpruned grid for atomic number  46.
 Defaulting to unpruned grid for atomic number  46.
 Defaulting to unpruned grid for atomic number  46.
 Defaulting to unpruned grid for atomic number  46.
 Defaulting to unpruned grid for atomic number  46.
 Defaulting to unpruned grid for atomic number  46.
 EnCoef did     5 forward-backward iterations
 EnCoef did   100 forward-backward iterations
 SCF Done:  E(RPBE1PBE) =  -2590.03957062     A.U. after   18 cycles
            NFock= 18  Conv=0.51D-08     -V/T= 2.0353
 DoSCS=F DFT=T ScalE2(SS,OS)=  1.000000  1.000000
 Range of M.O.s used for correlation:     1  1082
 NBasis=  1082 NAE=   125 NBE=   125 NFC=     0 NFV=     0
 NROrb=   1082 NOA=   125 NOB=   125 NVA=   957 NVB=   957

 **** Warning!!: The largest alpha MO coefficient is  0.51099237D+02

          Differentiating once with respect to magnetic field using GIAOs.
          Electric field/nuclear overlap derivatives assumed to be zero.
 Defaulting to unpruned grid for atomic number  46.
 FoFCou: FMM=F IPFlag=           0 FMFlag=      100000 FMFlg1=        2001
         NFxFlg=           0 DoJE=F BraDBF=F KetDBF=T FulRan=T
         wScrn=  0.000000 ICntrl=    6100 IOpCl=  0 I1Cent=           7 NGrid=          63
         NMat0=    1 NMatS0=      1 NMatT0=    0 NMatD0=    1 NMtDS0=    0 NMtDT0=    0
 Symmetry not used in FoFCou.
   1 Symmetry operations used in ECPInt.
 ECPInt:  NShTT=  102378 NPrTT=  309252 LenC2=  102379 LenP2D=  309252.
 LDataN:  DoStor=T MaxTD1= 8 Len=  415
 FoFJK:  IHMeth= 1 ICntrl=    6127 DoSepK=F KAlg= 0 I1Cent=   0 FoldK=F
 IRaf=         1 NMat=   1 IRICut=       1 DoRegI=T DoRafI=F ISym2E= 0.
 Defaulting to unpruned grid for atomic number  46.
 Defaulting to unpruned grid for atomic number  46.
 Defaulting to unpruned grid for atomic number  46.
 Defaulting to unpruned grid for atomic number  46.
 Defaulting to unpruned grid for atomic number  46.
 Defaulting to unpruned grid for atomic number  46.
 Defaulting to unpruned grid for atomic number  46.
 Defaulting to unpruned grid for atomic number  46.
 Defaulting to unpruned grid for atomic number  46.
 Defaulting to unpruned grid for atomic number  46.
 Defaulting to unpruned grid for atomic number  46.
 Defaulting to unpruned grid for atomic number  46.
 Defaulting to unpruned grid for atomic number  46.
 Defaulting to unpruned grid for atomic number  46.
          There are     3 degrees of freedom in the 1st order CPHF.  IDoFFX=0 NUNeed=     3.
      3 vectors produced by pass  0 Test12= 3.99D-12 3.33D-08 XBig12= 8.91D+01 1.59D+00.
 AX will form     3 AO Fock derivatives at one time.
      3 vectors produced by pass  1 Test12= 3.99D-12 3.33D-08 XBig12= 3.42D-01 1.70D-01.
      3 vectors produced by pass  2 Test12= 3.99D-12 3.33D-08 XBig12= 5.39D-03 3.32D-02.
      3 vectors produced by pass  3 Test12= 3.99D-12 3.33D-08 XBig12= 9.36D-05 4.17D-03.
      3 vectors produced by pass  4 Test12= 3.99D-12 3.33D-08 XBig12= 4.93D-07 1.33D-04.
      3 vectors produced by pass  5 Test12= 3.99D-12 3.33D-08 XBig12= 1.49D-09 1.23D-05.
      3 vectors produced by pass  6 Test12= 3.99D-12 3.33D-08 XBig12= 1.22D-11 1.98D-06.
      3 vectors produced by pass  7 Test12= 3.99D-12 3.33D-08 XBig12= 1.72D-13 1.74D-07.
 InvSVY:  IOpt=1 It=  1 EMax= 7.11D-15
 Solved reduced A of dimension    24 with     3 vectors.
 Calculating GIAO nuclear magnetic shielding tensors.
 SCF GIAO Magnetic shielding tensor (ppm):
      1  Cl   Isotropic =  1006.6130   Anisotropy =   508.5532
   XX=   769.7536   YX=  -112.5497   ZX=   -59.3763
   XY=  -149.1740   YY=   911.7733   ZY=     9.7727
   XZ=     3.9454   YZ=  -120.8747   ZZ=  1338.3121
   Eigenvalues:   687.6606   986.5298  1345.6485
      2  P    Isotropic =   182.5425   Anisotropy =   148.7236
   XX=   252.0692   YX=    43.9836   ZX=    12.2886
   XY=    46.2670   YY=   212.1406   ZY=   -12.8970
   XZ=     7.9539   YZ=     7.1721   ZZ=    83.4177
   Eigenvalues:    82.5508   183.3851   281.6915
      3  P    Isotropic =   187.4910   Anisotropy =   151.9118
   XX=   230.6987   YX=   -50.6276   ZX=     2.7102
   XY=   -47.3679   YY=   243.4855   ZY=    35.4820
   XZ=    -5.2598   YZ=    18.5359   ZZ=    88.2889
   Eigenvalues:    83.3639   190.3437   288.7655
      4  C    Isotropic =    32.0977   Anisotropy =   179.1031
   XX=   -15.5864   YX=    31.2017   ZX=    -9.4913
   XY=    30.2175   YY=   -37.8052   ZY=   -25.7725
   XZ=    -2.6035   YZ=    -6.2472   ZZ=   149.6848
   Eigenvalues:   -59.8025     4.5959   151.4998
      5  C    Isotropic =    32.6178   Anisotropy =   177.3374
   XX=   -16.5138   YX=   -28.7353   ZX=   -12.5034
   XY=   -29.1955   YY=   -32.4192   ZY=   -19.2025
   XZ=     3.9732   YZ=   -35.3265   ZZ=   146.7866
   Eigenvalues:   -57.4268     4.4375   150.8428
      6  C    Isotropic =   132.8721   Anisotropy =    20.2272
   XX=   141.1840   YX=    -1.4007   ZX=    -6.1678
   XY=    -9.7659   YY=   118.6577   ZY=   -13.6494
   XZ=    -6.1255   YZ=    -4.5339   ZZ=   138.7746
   Eigenvalues:   113.1597   139.0997   146.3570
      7  H    Isotropic =    27.8750   Anisotropy =     4.1670
   XX=    26.5712   YX=     2.1689   ZX=    -0.6591
   XY=     3.0828   YY=    28.9243   ZY=     0.7881
   XZ=    -1.3150   YZ=     1.0827   ZZ=    28.1295
   Eigenvalues:    24.3909    28.5810    30.6530
      8  C    Isotropic =   127.8918   Anisotropy =    25.4015
   XX=   135.7443   YX=     2.1129   ZX=     9.3096
   XY=     9.9277   YY=   116.0085   ZY=    -6.9910
   XZ=    11.4616   YZ=     3.3209   ZZ=   131.9225
   Eigenvalues:   112.9474   125.9018   144.8261
      9  H    Isotropic =    29.1105   Anisotropy =     4.4565
   XX=    27.3618   YX=     0.4405   ZX=    -0.5899
   XY=    -0.3341   YY=    30.2012   ZY=     3.0507
   XZ=     2.5858   YZ=     0.9023   ZZ=    29.7685
   Eigenvalues:    26.8342    28.4158    32.0815
     10  C    Isotropic =   125.6998   Anisotropy =    21.8934
   XX=   139.2664   YX=    -5.3964   ZX=    -1.6271
   XY=     0.4113   YY=   104.4355   ZY=     0.0331
   XZ=     6.6034   YZ=     1.7646   ZZ=   133.3975
   Eigenvalues:   104.2184   132.5856   140.2954
     11  H    Isotropic =    29.0163   Anisotropy =     5.6002
   XX=    28.0093   YX=    -1.5321   ZX=     0.7782
   XY=    -1.5913   YY=    30.9549   ZY=    -2.6291
   XZ=     2.8447   YZ=    -0.6882   ZZ=    28.0848
   Eigenvalues:    26.2346    28.0646    32.7498
     12  C    Isotropic =   133.7878   Anisotropy =    21.8894
   XX=   148.0298   YX=    -0.2853   ZX=     0.8329
   XY=    -2.5046   YY=   108.0641   ZY=     5.0506
   XZ=    -2.1573   YZ=     5.7747   ZZ=   145.2693
   Eigenvalues:   107.2520   145.7306   148.3807
     13  H    Isotropic =    27.5621   Anisotropy =     4.0252
   XX=    26.5140   YX=    -0.7083   ZX=    -2.1066
   XY=    -1.4129   YY=    29.8644   ZY=    -0.3393
   XZ=    -2.7493   YZ=    -0.1740   ZZ=    26.3077
   Eigenvalues:    23.8389    28.6018    30.2455
     14  C    Isotropic =   147.0348   Anisotropy =    34.7094
   XX=   168.4690   YX=    -5.6328   ZX=     1.9202
   XY=   -11.8179   YY=   119.8309   ZY=     6.6432
   XZ=     1.5442   YZ=    -7.7885   ZZ=   152.8046
   Eigenvalues:   118.3110   152.6191   170.1744
     15  H    Isotropic =    28.2780   Anisotropy =     6.5916
   XX=    29.1195   YX=    -1.5703   ZX=    -0.5442
   XY=    -1.7661   YY=    31.8574   ZY=     0.7824
   XZ=    -0.3081   YZ=    -0.1276   ZZ=    23.8571
   Eigenvalues:    23.8179    28.3437    32.6724
     16  H    Isotropic =    29.6699   Anisotropy =    11.7988
   XX=    35.4625   YX=    -0.0455   ZX=    -4.2773
   XY=    -1.1214   YY=    24.7964   ZY=    -0.2441
   XZ=    -4.2291   YZ=    -0.4150   ZZ=    28.7508
   Eigenvalues:    24.6372    26.8368    37.5358
     17  C    Isotropic =   146.1169   Anisotropy =    30.2802
   XX=   165.4397   YX=     2.5818   ZX=    -2.9342
   XY=     6.1490   YY=   120.9160   ZY=     5.4787
   XZ=    -1.9233   YZ=    -7.3647   ZZ=   151.9952
   Eigenvalues:   120.4762   151.5708   166.3038
     18  H    Isotropic =    29.1572   Anisotropy =     9.6573
   XX=    29.3735   YX=     4.1772   ZX=     0.7375
   XY=     4.5573   YY=    32.4557   ZY=     0.7880
   XZ=     0.4355   YZ=     0.1034   ZZ=    25.6424
   Eigenvalues:    25.5283    26.3480    35.5955
     19  H    Isotropic =    29.4389   Anisotropy =    11.7024
   XX=    34.9713   YX=     0.1801   ZX=     4.5130
   XY=     1.1322   YY=    24.7933   ZY=    -0.7334
   XZ=     4.3566   YZ=    -0.8064   ZZ=    28.5521
   Eigenvalues:    24.3014    26.7747    37.2405
     20  C    Isotropic =   148.4728   Anisotropy =    24.1513
   XX=   161.5400   YX=     1.6368   ZX=    -8.8088
   XY=     9.7396   YY=   126.0835   ZY=    10.8300
   XZ=    -0.2584   YZ=     5.5482   ZZ=   157.7951
   Eigenvalues:   122.9578   157.8870   164.5737
     21  H    Isotropic =    29.3573   Anisotropy =    11.8932
   XX=    35.0170   YX=    -2.0354   ZX=     4.0503
   XY=    -1.7264   YY=    24.3665   ZY=     0.0795
   XZ=     4.1711   YZ=    -0.4962   ZZ=    28.6884
   Eigenvalues:    23.9704    26.8153    37.2861
     22  H    Isotropic =    28.8158   Anisotropy =     5.6938
   XX=    30.3874   YX=     1.7229   ZX=     0.2378
   XY=     1.5977   YY=    31.2247   ZY=     1.1433
   XZ=     0.0130   YZ=     0.8113   ZZ=    24.8353
   Eigenvalues:    24.6864    29.1494    32.6116
     23  C    Isotropic =   145.8701   Anisotropy =    23.8367
   XX=   155.2294   YX=    -3.6841   ZX=    11.8149
   XY=   -10.4367   YY=   126.0604   ZY=     9.8745
   XZ=    -0.0050   YZ=     6.2830   ZZ=   156.3205
   Eigenvalues:   121.9495   153.8996   161.7612
     24  H    Isotropic =    29.1377   Anisotropy =    11.5037
   XX=    35.0108   YX=     1.1629   ZX=    -3.6938
   XY=     0.8016   YY=    24.3956   ZY=     0.2489
   XZ=    -4.0686   YZ=    -0.4317   ZZ=    28.0066
   Eigenvalues:    24.2758    26.3304    36.8068
     25  H    Isotropic =    29.7394   Anisotropy =     8.7279
   XX=    30.5009   YX=    -4.0768   ZX=     0.4052
   XY=    -3.9361   YY=    32.2394   ZY=     1.5798
   XZ=     0.1524   YZ=     1.1507   ZZ=    26.4779
   Eigenvalues:    25.6746    27.9856    35.5580
     26  C    Isotropic =   155.7499   Anisotropy =    23.1331
   XX=   163.6846   YX=    -0.4079   ZX=    -1.4065
   XY=    -5.6487   YY=   153.6246   ZY=   -20.8853
   XZ=    -4.2275   YZ=   -17.6840   ZZ=   149.9405
   Eigenvalues:   131.8761   164.2017   171.1720
     27  H    Isotropic =    29.6555   Anisotropy =     5.5269
   XX=    27.9997   YX=     2.1788   ZX=     1.5615
   XY=     2.8187   YY=    32.1560   ZY=    -0.0541
   XZ=    -2.2912   YZ=     0.9161   ZZ=    28.8109
   Eigenvalues:    26.7024    28.9240    33.3401
     28  H    Isotropic =    29.9428   Anisotropy =    11.2940
   XX=    33.7928   YX=    -0.3108   ZX=    -4.2415
   XY=     1.0559   YY=    25.5799   ZY=    -3.8740
   XZ=    -4.9308   YZ=    -3.0487   ZZ=    30.4557
   Eigenvalues:    23.4042    28.9520    37.4722
     29  C    Isotropic =   154.6988   Anisotropy =    24.5164
   XX=   163.1938   YX=    -1.5188   ZX=     3.2313
   XY=     3.0802   YY=   153.1286   ZY=   -20.9707
   XZ=     7.0341   YZ=   -17.7427   ZZ=   147.7741
   Eigenvalues:   130.3225   162.7309   171.0431
     30  H    Isotropic =    30.0924   Anisotropy =    11.5146
   XX=    33.7168   YX=     0.3762   ZX=     4.5927
   XY=    -0.6983   YY=    25.5401   ZY=    -3.7527
   XZ=     4.8970   YZ=    -3.5047   ZZ=    31.0202
   Eigenvalues:    23.2755    29.2329    37.7688
     31  H    Isotropic =    28.0864   Anisotropy =     4.7273
   XX=    26.1192   YX=    -1.2022   ZX=     1.1558
   XY=    -1.0360   YY=    29.1692   ZY=     2.0570
   XZ=     2.2900   YZ=     2.2050   ZZ=    28.9708
   Eigenvalues:    24.4552    28.5661    31.2380
     32  C    Isotropic =   156.9731   Anisotropy =    19.3959
   XX=   153.9269   YX=     2.8915   ZX=    -5.5598
   XY=     1.5768   YY=   151.0743   ZY=     7.2821
   XZ=    -3.4133   YZ=     8.1814   ZZ=   165.9181
   Eigenvalues:   145.8662   155.1493   169.9037
     33  H    Isotropic =    29.7499   Anisotropy =    11.4702
   XX=    32.3942   YX=     0.1360   ZX=     4.0836
   XY=     0.5006   YY=    23.4341   ZY=     1.0992
   XZ=     4.6648   YZ=     1.2416   ZZ=    33.4214
   Eigenvalues:    23.2940    28.5590    37.3967
     34  H    Isotropic =    28.3152   Anisotropy =     6.1142
   XX=    25.1085   YX=     0.8656   ZX=     1.8994
   XY=     0.0886   YY=    31.0025   ZY=    -2.2759
   XZ=     2.1813   YZ=    -2.0176   ZZ=    28.8346
   Eigenvalues:    23.9479    28.6063    32.3914
     35  C    Isotropic =   157.6583   Anisotropy =    22.7350
   XX=   155.6164   YX=    -4.0876   ZX=     9.2101
   XY=    -0.9219   YY=   150.0816   ZY=     5.3080
   XZ=     8.9147   YZ=     5.5930   ZZ=   167.2770
   Eigenvalues:   145.2985   154.8615   172.8150
     36  H    Isotropic =    30.3366   Anisotropy =     5.2543
   XX=    27.6645   YX=    -1.3735   ZX=    -0.1342
   XY=    -0.8290   YY=    33.5891   ZY=     0.5364
   XZ=    -4.2271   YZ=    -0.4680   ZZ=    29.7563
   Eigenvalues:    26.1781    30.9923    33.8395
     37  H    Isotropic =    29.7366   Anisotropy =    11.5126
   XX=    32.6417   YX=    -0.6306   ZX=    -4.0119
   XY=    -1.2367   YY=    23.6784   ZY=     1.6562
   XZ=    -4.9290   YZ=     0.8382   ZZ=    32.8897
   Eigenvalues:    23.4964    28.3018    37.4117
     38  C    Isotropic =   169.8161   Anisotropy =    17.5268
   XX=   172.7267   YX=    -2.8968   ZX=    10.0447
   XY=     0.1620   YY=   166.3311   ZY=    -6.9956
   XZ=     7.0338   YZ=    -3.2837   ZZ=   170.3905
   Eigenvalues:   160.9272   167.0204   181.5006
     39  H    Isotropic =    31.0716   Anisotropy =    12.4579
   XX=    27.5159   YX=     0.2979   ZX=     0.3001
   XY=     1.1639   YY=    32.6996   ZY=    -6.6198
   XZ=    -1.4297   YZ=    -6.2904   ZZ=    32.9992
   Eigenvalues:    26.3773    27.4606    39.3768
     40  H    Isotropic =    32.1775   Anisotropy =     9.0541
   XX=    34.0699   YX=    -0.8251   ZX=    -2.8578
   XY=    -0.3110   YY=    27.1249   ZY=    -2.5003
   XZ=    -4.0105   YZ=     0.4155   ZZ=    35.3377
   Eigenvalues:    26.8301    31.4888    38.2135
     41  H    Isotropic =    30.8941   Anisotropy =     7.2686
   XX=    29.6164   YX=     2.9076   ZX=     1.9171
   XY=     2.1813   YY=    28.3533   ZY=     0.6123
   XZ=     0.7409   YZ=     2.6081   ZZ=    34.7125
   Eigenvalues:    26.3365    30.6059    35.7398
     42  C    Isotropic =   166.5480   Anisotropy =    14.9941
   XX=   170.3331   YX=     3.3547   ZX=    -7.3970
   XY=    -0.3758   YY=   162.4825   ZY=    -3.0957
   XZ=    -6.7309   YZ=    -3.1175   ZZ=   166.8283
   Eigenvalues:   160.0352   163.0647   176.5440
     43  H    Isotropic =    28.8576   Anisotropy =    11.6459
   XX=    31.1633   YX=     0.3783   ZX=     5.0681
   XY=     0.6362   YY=    22.6251   ZY=    -0.8381
   XZ=     3.9799   YZ=    -2.2125   ZZ=    32.7843
   Eigenvalues:    22.2131    27.7380    36.6215
     44  H    Isotropic =    30.1978   Anisotropy =    11.8453
   XX=    26.9517   YX=     0.0282   ZX=    -0.2705
   XY=    -0.2862   YY=    31.8889   ZY=    -6.0932
   XZ=     0.3118   YZ=    -6.4517   ZZ=    31.7527
   Eigenvalues:    25.5439    26.9548    38.0946
     45  H    Isotropic =    31.0122   Anisotropy =     7.3981
   XX=    30.0162   YX=    -2.4771   ZX=    -1.7898
   XY=    -1.6999   YY=    28.0961   ZY=     2.2152
   XZ=    -0.7573   YZ=     1.4954   ZZ=    34.9244
   Eigenvalues:    26.6536    30.4388    35.9443
     46  C    Isotropic =   165.3490   Anisotropy =    19.7802
   XX=   173.6770   YX=     2.6008   ZX=    -8.8376
   XY=     5.6638   YY=   157.2890   ZY=    -3.7176
   XZ=    -5.1598   YZ=     0.1526   ZZ=   165.0810
   Eigenvalues:   156.3038   161.2074   178.5358
     47  H    Isotropic =    29.4418   Anisotropy =    10.4417
   XX=    32.4323   YX=    -0.2710   ZX=     3.8450
   XY=     0.1275   YY=    22.9250   ZY=    -3.5280
   XZ=     3.0488   YZ=    -1.2324   ZZ=    32.9680
   Eigenvalues:    22.3375    29.5849    36.4029
     48  H    Isotropic =    31.1257   Anisotropy =     6.6371
   XX=    29.5916   YX=     2.5395   ZX=    -0.5463
   XY=     1.5260   YY=    31.7700   ZY=    -4.0258
   XZ=     0.5539   YZ=    -2.5835   ZZ=    32.0156
   Eigenvalues:    27.4473    30.3795    35.5504
     49  H    Isotropic =    30.1254   Anisotropy =    11.3734
   XX=    27.9390   YX=    -0.3075   ZX=    -2.4402
   XY=    -0.0356   YY=    26.1372   ZY=     2.7647
   XZ=    -1.5491   YZ=     3.9691   ZZ=    36.2998
   Eigenvalues:    25.0572    27.6112    37.7076
     50  C    Isotropic =   168.1023   Anisotropy =    19.0336
   XX=   174.4311   YX=    -5.4945   ZX=     9.3527
   XY=    -6.2441   YY=   161.5807   ZY=    -0.6886
   XZ=     4.9826   YZ=    -1.6975   ZZ=   168.2950
   Eigenvalues:   158.9652   164.5503   180.7914
     51  H    Isotropic =    30.4923   Anisotropy =     6.0430
   XX=    28.7072   YX=    -2.7495   ZX=     0.1401
   XY=    -1.7935   YY=    31.3664   ZY=    -1.8712
   XZ=    -0.4916   YZ=    -3.5787   ZZ=    31.4032
   Eigenvalues:    26.7946    30.1613    34.5209
     52  H    Isotropic =    31.4277   Anisotropy =     8.6773
   XX=    34.8919   YX=    -0.4497   ZX=    -2.9637
   XY=    -1.1791   YY=    25.3391   ZY=     0.9283
   XZ=    -2.4527   YZ=    -2.8205   ZZ=    34.0520
   Eigenvalues:    25.1040    31.9665    37.2125
     53  H    Isotropic =    30.8723   Anisotropy =    11.8354
   XX=    28.2632   YX=    -0.0989   ZX=     2.2816
   XY=    -0.5584   YY=    26.6982   ZY=     3.4479
   XZ=     1.0361   YZ=     3.0388   ZZ=    37.6555
   Eigenvalues:    25.5825    28.2719    38.7626
     54  C    Isotropic =    46.3703   Anisotropy =   183.3107
   XX=   -60.1516   YX=    -1.9395   ZX=   -31.8340
   XY=    -2.0773   YY=    36.3674   ZY=   -17.4094
   XZ=   -27.7073   YZ=   -14.0289   ZZ=   162.8951
   Eigenvalues:   -64.2203    34.7538   168.5774
     55  H    Isotropic =    23.4515   Anisotropy =    11.3362
   XX=    20.5852   YX=    -0.3253   ZX=    -0.0703
   XY=    -0.0406   YY=    30.5882   ZY=     2.0966
   XZ=     0.3128   YZ=     2.3527   ZZ=    19.1812
   Eigenvalues:    18.7500    20.5956    31.0090
     56  C    Isotropic =    49.2186   Anisotropy =   190.8144
   XX=     9.6910   YX=   -37.9130   ZX=   -25.6054
   XY=   -40.6448   YY=   -31.2388   ZY=   -30.2412
   XZ=   -24.5755   YZ=   -33.9001   ZZ=   169.2035
   Eigenvalues:   -62.1385    33.3660   176.4282
     57  H    Isotropic =    23.6031   Anisotropy =     5.6555
   XX=    25.1232   YX=    -1.7624   ZX=     0.1646
   XY=    -1.7520   YY=    25.9291   ZY=     0.8278
   XZ=     0.2400   YZ=     0.9692   ZZ=    19.7570
   Eigenvalues:    19.5893    23.8466    27.3735
     58  C    Isotropic =    49.6199   Anisotropy =   190.4600
   XX=    11.1671   YX=    42.2493   ZX=   -14.7510
   XY=    43.6907   YY=   -34.6467   ZY=   -19.8570
   XZ=   -14.2057   YZ=   -21.5120   ZZ=   172.3394
   Eigenvalues:   -60.8986    33.1652   176.5933
     59  H    Isotropic =    23.5944   Anisotropy =     5.4139
   XX=    25.2005   YX=     1.5803   ZX=     0.5348
   XY=     1.4742   YY=    25.8724   ZY=     0.7852
   XZ=     0.6467   YZ=     0.5245   ZZ=    19.7104
   Eigenvalues:    19.6064    23.9732    27.2037
     60  C    Isotropic =    45.5888   Anisotropy =   184.7538
   XX=   -61.4887   YX=     7.7619   ZX=   -26.7762
   XY=     9.5483   YY=    33.2494   ZY=   -14.9371
   XZ=   -22.8577   YZ=    -7.3339   ZZ=   165.0057
   Eigenvalues:   -64.7393    32.7477   168.7580
     61  H    Isotropic =    23.4901   Anisotropy =    11.3994
   XX=    20.7019   YX=     0.3751   ZX=    -0.0542
   XY=    -0.2425   YY=    31.0887   ZY=     0.5570
   XZ=    -0.0485   YZ=    -0.3908   ZZ=    18.6797
   Eigenvalues:    18.6778    20.7028    31.0897
     62  Cl   Isotropic =   988.6925   Anisotropy =   504.8259
   XX=   779.6373   YX=    87.8632   ZX=   -41.6725
   XY=   152.0763   YY=   862.4472   ZY=   -83.1445
   XZ=    36.4536   YZ=    37.8108   ZZ=  1323.9929
   Eigenvalues:   693.9348   946.8995  1325.2431
     63  Pd   Isotropic =  -127.6752   Anisotropy =   212.9089
   XX=   -18.7252   YX=     4.1579   ZX=    14.5452
   XY=     6.0590   YY=     7.5479   ZY=    45.2017
   XZ=   -13.2726   YZ=    50.2599   ZZ=  -371.8485
   Eigenvalues:  -377.7612   -19.5285    14.2640
 End of Minotr F.D. properties file   721 does not exist.
 End of Minotr F.D. properties file   722 does not exist.
 End of Minotr F.D. properties file   788 does not exist.

 **********************************************************************

            Population analysis using the SCF density.

 **********************************************************************

 Orbital symmetries:
       Occupied  (A) (A) (A) (A) (A) (A) (A) (A) (A) (A) (A) (A)
                 (A) (A) (A) (A) (A) (A) (A) (A) (A) (A) (A) (A)
                 (A) (A) (A) (A) (A) (A) (A) (A) (A) (A) (A) (A)
                 (A) (A) (A) (A) (A) (A) (A) (A) (A) (A) (A) (A)
                 (A) (A) (A) (A) (A) (A) (A) (A) (A) (A) (A) (A)
                 (A) (A) (A) (A) (A) (A) (A) (A) (A) (A) (A) (A)
                 (A) (A) (A) (A) (A) (A) (A) (A) (A) (A) (A) (A)
                 (A) (A) (A) (A) (A) (A) (A) (A) (A) (A) (A) (A)
                 (A) (A) (A) (A) (A) (A) (A) (A) (A) (A) (A) (A)
                 (A) (A) (A) (A) (A) (A) (A) (A) (A) (A) (A) (A)
                 (A) (A) (A) (A) (A)
       Virtual   (A) (A) (A) (A) (A) (A) (A) (A) (A) (A) (A) (A)
                 (A) (A) (A) (A) (A) (A) (A) (A) (A) (A) (A) (A)
                 (A) (A) (A) (A) (A) (A) (A) (A) (A) (A) (A) (A)
                 (A) (A) (A) (A) (A) (A) (A) (A) (A) (A) (A) (A)
                 (A) (A) (A) (A) (A) (A) (A) (A) (A) (A) (A) (A)
                 (A) (A) (A) (A) (A) (A) (A) (A) (A) (A) (A) (A)
                 (A) (A) (A) (A) (A) (A) (A) (A) (A) (A) (A) (A)
                 (A) (A) (A) (A) (A) (A) (A) (A) (A) (A) (A) (A)
                 (A) (A) (A) (A) (A) (A) (A) (A) (A) (A) (A) (A)
                 (A) (A) (A) (A) (A) (A) (A) (A) (A) (A) (A) (A)
                 (A) (A) (A) (A) (A) (A) (A) (A) (A) (A) (A) (A)
                 (A) (A) (A) (A) (A) (A) (A) (A) (A) (A) (A) (A)
                 (A) (A) (A) (A) (A) (A) (A) (A) (A) (A) (A) (A)
                 (A) (A) (A) (A) (A) (A) (A) (A) (A) (A) (A) (A)
                 (A) (A) (A) (A) (A) (A) (A) (A) (A) (A) (A) (A)
                 (A) (A) (A) (A) (A) (A) (A) (A) (A) (A) (A) (A)
                 (A) (A) (A) (A) (A) (A) (A) (A) (A) (A) (A) (A)
                 (A) (A) (A) (A) (A) (A) (A) (A) (A) (A) (A) (A)
                 (A) (A) (A) (A) (A) (A) (A) (A) (A) (A) (A) (A)
                 (A) (A) (A) (A) (A) (A) (A) (A) (A) (A) (A) (A)
                 (A) (A) (A) (A) (A) (A) (A) (A) (A) (A) (A) (A)
                 (A) (A) (A) (A) (A) (A) (A) (A) (A) (A) (A) (A)
                 (A) (A) (A) (A) (A) (A) (A) (A) (A) (A) (A) (A)
                 (A) (A) (A) (A) (A) (A) (A) (A) (A) (A) (A) (A)
                 (A) (A) (A) (A) (A) (A) (A) (A) (A) (A) (A) (A)
                 (A) (A) (A) (A) (A) (A) (A) (A) (A) (A) (A) (A)
                 (A) (A) (A) (A) (A) (A) (A) (A) (A) (A) (A) (A)
                 (A) (A) (A) (A) (A) (A) (A) (A) (A) (A) (A) (A)
                 (A) (A) (A) (A) (A) (A) (A) (A) (A) (A) (A) (A)
                 (A) (A) (A) (A) (A) (A) (A) (A) (A) (A) (A) (A)
                 (A) (A) (A) (A) (A) (A) (A) (A) (A) (A) (A) (A)
                 (A) (A) (A) (A) (A) (A) (A) (A) (A) (A) (A) (A)
                 (A) (A) (A) (A) (A) (A) (A) (A) (A) (A) (A) (A)
                 (A) (A) (A) (A) (A) (A) (A) (A) (A) (A) (A) (A)
                 (A) (A) (A) (A) (A) (A) (A) (A) (A) (A) (A) (A)
                 (A) (A) (A) (A) (A) (A) (A) (A) (A) (A) (A) (A)
                 (A) (A) (A) (A) (A) (A) (A) (A) (A) (A) (A) (A)
                 (A) (A) (A) (A) (A) (A) (A) (A) (A) (A) (A) (A)
                 (A) (A) (A) (A) (A) (A) (A) (A) (A) (A) (A) (A)
                 (A) (A) (A) (A) (A) (A) (A) (A) (A) (A) (A) (A)
                 (A) (A) (A) (A) (A) (A) (A) (A) (A) (A) (A) (A)
                 (A) (A) (A) (A) (A) (A) (A) (A) (A) (A) (A) (A)
                 (A) (A) (A) (A) (A) (A) (A) (A) (A) (A) (A) (A)
                 (A) (A) (A) (A) (A) (A) (A) (A) (A) (A) (A) (A)
                 (A) (A) (A) (A) (A) (A) (A) (A) (A) (A) (A) (A)
                 (A) (A) (A) (A) (A) (A) (A) (A) (A) (A) (A) (A)
                 (A) (A) (A) (A) (A) (A) (A) (A) (A) (A) (A) (A)
                 (A) (A) (A) (A) (A) (A) (A) (A) (A) (A) (A) (A)
                 (A) (A) (A) (A) (A) (A) (A) (A) (A) (A) (A) (A)
                 (A) (A) (A) (A) (A) (A) (A) (A) (A) (A) (A) (A)
                 (A) (A) (A) (A) (A) (A) (A) (A) (A) (A) (A) (A)
                 (A) (A) (A) (A) (A) (A) (A) (A) (A) (A) (A) (A)
                 (A) (A) (A) (A) (A) (A) (A) (A) (A) (A) (A) (A)
                 (A) (A) (A) (A) (A) (A) (A) (A) (A) (A) (A) (A)
                 (A) (A) (A) (A) (A) (A) (A) (A) (A) (A) (A) (A)
                 (A) (A) (A) (A) (A) (A) (A) (A) (A) (A) (A) (A)
                 (A) (A) (A) (A) (A) (A) (A) (A) (A) (A) (A) (A)
                 (A) (A) (A) (A) (A) (A) (A) (A) (A) (A) (A) (A)
                 (A) (A) (A) (A) (A) (A) (A) (A) (A) (A) (A) (A)
                 (A) (A) (A) (A) (A) (A) (A) (A) (A) (A) (A) (A)
                 (A) (A) (A) (A) (A) (A) (A) (A) (A) (A) (A) (A)
                 (A) (A) (A) (A) (A) (A) (A) (A) (A) (A) (A) (A)
                 (A) (A) (A) (A) (A) (A) (A) (A) (A) (A) (A) (A)
                 (A) (A) (A) (A) (A) (A) (A) (A) (A) (A) (A) (A)
                 (A) (A) (A) (A) (A) (A) (A) (A) (A) (A) (A) (A)
                 (A) (A) (A) (A) (A) (A) (A) (A) (A) (A) (A) (A)
                 (A) (A) (A) (A) (A) (A) (A) (A) (A) (A) (A) (A)
                 (A) (A) (A) (A) (A) (A) (A) (A) (A) (A) (A) (A)
                 (A) (A) (A) (A) (A) (A) (A) (A) (A) (A) (A) (A)
                 (A) (A) (A) (A) (A) (A) (A) (A) (A) (A) (A) (A)
                 (A) (A) (A) (A) (A) (A) (A) (A) (A) (A) (A) (A)
                 (A) (A) (A) (A) (A) (A) (A) (A) (A) (A) (A) (A)
                 (A) (A) (A) (A) (A) (A) (A) (A) (A) (A) (A) (A)
                 (A) (A) (A) (A) (A) (A) (A) (A) (A) (A) (A) (A)
                 (A) (A) (A) (A) (A) (A) (A) (A) (A) (A) (A) (A)
                 (A) (A) (A) (A) (A) (A) (A) (A) (A) (A) (A) (A)
                 (A) (A) (A) (A) (A) (A) (A) (A) (A) (A) (A) (A)
                 (A) (A) (A) (A) (A) (A) (A) (A) (A) (A) (A) (A)
                 (A) (A) (A) (A) (A) (A) (A) (A) (A) (A) (A) (A)
                 (A) (A) (A) (A) (A) (A) (A) (A) (A)
 The electronic state is 1-A.
 Alpha  occ. eigenvalues -- -101.61433-101.61139 -77.26143 -77.25981 -10.28040
 Alpha  occ. eigenvalues --  -10.27915 -10.27229 -10.27205 -10.26993 -10.26936
 Alpha  occ. eigenvalues --  -10.25897 -10.25693 -10.25553 -10.25460 -10.24378
 Alpha  occ. eigenvalues --  -10.24281 -10.24217 -10.24015 -10.23555 -10.23537
 Alpha  occ. eigenvalues --  -10.22373 -10.22355 -10.22304 -10.22168 -10.21297
 Alpha  occ. eigenvalues --  -10.20705  -9.43939  -9.43651  -7.17093  -7.16803
 Alpha  occ. eigenvalues --   -7.16681  -7.16646  -7.16392  -7.16360  -6.65410
 Alpha  occ. eigenvalues --   -6.65268  -4.79020  -4.78920  -4.78881  -4.78770
 Alpha  occ. eigenvalues --   -4.78756  -4.78618  -3.52096  -2.19811  -2.19688
 Alpha  occ. eigenvalues --   -2.16473  -0.91923  -0.87619  -0.87496  -0.82346
 Alpha  occ. eigenvalues --   -0.82159  -0.81366  -0.80782  -0.78628  -0.78173
 Alpha  occ. eigenvalues --   -0.74224  -0.73633  -0.72981  -0.72747  -0.71794
 Alpha  occ. eigenvalues --   -0.70891  -0.67108  -0.66095  -0.64374  -0.64016
 Alpha  occ. eigenvalues --   -0.62625  -0.62173  -0.60006  -0.58566  -0.58066
 Alpha  occ. eigenvalues --   -0.56028  -0.53777  -0.51579  -0.50892  -0.50555
 Alpha  occ. eigenvalues --   -0.49642  -0.49176  -0.48321  -0.47703  -0.46752
 Alpha  occ. eigenvalues --   -0.46216  -0.46035  -0.45170  -0.44787  -0.43903
 Alpha  occ. eigenvalues --   -0.43568  -0.43039  -0.42847  -0.42568  -0.42043
 Alpha  occ. eigenvalues --   -0.41793  -0.41162  -0.39588  -0.38946  -0.38854
 Alpha  occ. eigenvalues --   -0.38332  -0.38155  -0.37784  -0.37264  -0.37080
 Alpha  occ. eigenvalues --   -0.36550  -0.35923  -0.35723  -0.35553  -0.35225
 Alpha  occ. eigenvalues --   -0.35059  -0.34871  -0.34782  -0.34623  -0.34287
 Alpha  occ. eigenvalues --   -0.34056  -0.33657  -0.33287  -0.33117  -0.30971
 Alpha  occ. eigenvalues --   -0.30630  -0.29777  -0.29259  -0.28679  -0.28463
 Alpha  occ. eigenvalues --   -0.25962  -0.25139  -0.24320  -0.23875  -0.23604
 Alpha virt. eigenvalues --   -0.06577  -0.06253  -0.06118   0.00215   0.00346
 Alpha virt. eigenvalues --    0.01838   0.02565   0.02656   0.03504   0.03857
 Alpha virt. eigenvalues --    0.04681   0.05019   0.05242   0.05603   0.06039
 Alpha virt. eigenvalues --    0.06533   0.06838   0.07255   0.07668   0.07724
 Alpha virt. eigenvalues --    0.08168   0.08623   0.09147   0.09375   0.09637
 Alpha virt. eigenvalues --    0.09898   0.10381   0.10768   0.10940   0.11422
 Alpha virt. eigenvalues --    0.11596   0.12182   0.12425   0.12664   0.12962
 Alpha virt. eigenvalues --    0.13178   0.13503   0.13534   0.13949   0.14060
 Alpha virt. eigenvalues --    0.14732   0.14900   0.15232   0.15382   0.15536
 Alpha virt. eigenvalues --    0.15665   0.16066   0.16120   0.16492   0.16893
 Alpha virt. eigenvalues --    0.17248   0.17594   0.17940   0.18002   0.18481
 Alpha virt. eigenvalues --    0.19116   0.19628   0.19834   0.20123   0.20692
 Alpha virt. eigenvalues --    0.20697   0.20881   0.21434   0.21706   0.21939
 Alpha virt. eigenvalues --    0.22099   0.22563   0.22719   0.22921   0.23268
 Alpha virt. eigenvalues --    0.23598   0.23749   0.24369   0.24539   0.25097
 Alpha virt. eigenvalues --    0.25291   0.25425   0.26101   0.26215   0.26757
 Alpha virt. eigenvalues --    0.27024   0.27312   0.27482   0.27950   0.28296
 Alpha virt. eigenvalues --    0.28388   0.29047   0.29322   0.29847   0.30054
 Alpha virt. eigenvalues --    0.30444   0.30605   0.30930   0.31505   0.32109
 Alpha virt. eigenvalues --    0.32569   0.32941   0.33048   0.33476   0.33999
 Alpha virt. eigenvalues --    0.34396   0.34409   0.34973   0.35844   0.35993
 Alpha virt. eigenvalues --    0.36280   0.36591   0.36911   0.37261   0.37804
 Alpha virt. eigenvalues --    0.38123   0.38307   0.39189   0.39364   0.39462
 Alpha virt. eigenvalues --    0.39501   0.40188   0.40361   0.40534   0.40682
 Alpha virt. eigenvalues --    0.41150   0.41488   0.41701   0.41951   0.42208
 Alpha virt. eigenvalues --    0.42442   0.42606   0.43126   0.43300   0.43522
 Alpha virt. eigenvalues --    0.43801   0.44252   0.44405   0.44643   0.44756
 Alpha virt. eigenvalues --    0.45168   0.45329   0.45361   0.45902   0.46087
 Alpha virt. eigenvalues --    0.46322   0.46656   0.46712   0.46971   0.47149
 Alpha virt. eigenvalues --    0.47513   0.47923   0.47988   0.48208   0.48345
 Alpha virt. eigenvalues --    0.48638   0.49032   0.49071   0.49261   0.49427
 Alpha virt. eigenvalues --    0.49763   0.49971   0.50266   0.50548   0.50713
 Alpha virt. eigenvalues --    0.51201   0.51439   0.51816   0.51920   0.52381
 Alpha virt. eigenvalues --    0.52534   0.52836   0.53166   0.53425   0.53657
 Alpha virt. eigenvalues --    0.53880   0.54297   0.54437   0.54604   0.55090
 Alpha virt. eigenvalues --    0.55272   0.55784   0.56245   0.56355   0.57010
 Alpha virt. eigenvalues --    0.57093   0.57480   0.58148   0.58416   0.58712
 Alpha virt. eigenvalues --    0.59342   0.59813   0.60010   0.60633   0.61042
 Alpha virt. eigenvalues --    0.61447   0.61589   0.61776   0.62692   0.62877
 Alpha virt. eigenvalues --    0.63554   0.64098   0.64589   0.65417   0.65751
 Alpha virt. eigenvalues --    0.65909   0.66515   0.66875   0.67147   0.67606
 Alpha virt. eigenvalues --    0.67780   0.68940   0.69094   0.69560   0.69839
 Alpha virt. eigenvalues --    0.70694   0.71250   0.71781   0.72219   0.72917
 Alpha virt. eigenvalues --    0.73474   0.73790   0.74093   0.74517   0.74614
 Alpha virt. eigenvalues --    0.75084   0.75572   0.76673   0.76990   0.77180
 Alpha virt. eigenvalues --    0.78376   0.78682   0.79110   0.79424   0.79936
 Alpha virt. eigenvalues --    0.80363   0.80757   0.81726   0.81810   0.82207
 Alpha virt. eigenvalues --    0.82508   0.82727   0.83275   0.84057   0.84478
 Alpha virt. eigenvalues --    0.85459   0.85633   0.86370   0.86565   0.87588
 Alpha virt. eigenvalues --    0.87633   0.88143   0.88700   0.88720   0.89596
 Alpha virt. eigenvalues --    0.90296   0.90853   0.91217   0.91561   0.92019
 Alpha virt. eigenvalues --    0.92336   0.92747   0.93012   0.93357   0.93822
 Alpha virt. eigenvalues --    0.94002   0.94439   0.95282   0.95667   0.97121
 Alpha virt. eigenvalues --    0.97625   0.98342   0.98666   0.98894   0.99207
 Alpha virt. eigenvalues --    0.99815   0.99922   1.00812   1.01597   1.01976
 Alpha virt. eigenvalues --    1.02475   1.03061   1.03290   1.03585   1.04591
 Alpha virt. eigenvalues --    1.05150   1.06060   1.06260   1.06908   1.07303
 Alpha virt. eigenvalues --    1.07807   1.08483   1.09012   1.09755   1.10182
 Alpha virt. eigenvalues --    1.10511   1.10878   1.11697   1.12086   1.13038
 Alpha virt. eigenvalues --    1.13519   1.13675   1.14395   1.14745   1.15589
 Alpha virt. eigenvalues --    1.16207   1.16651   1.17327   1.17667   1.18137
 Alpha virt. eigenvalues --    1.18436   1.19183   1.19497   1.20104   1.20195
 Alpha virt. eigenvalues --    1.20263   1.20858   1.21431   1.22761   1.22899
 Alpha virt. eigenvalues --    1.23441   1.23768   1.23938   1.24283   1.24792
 Alpha virt. eigenvalues --    1.25211   1.26179   1.26498   1.26716   1.27273
 Alpha virt. eigenvalues --    1.27626   1.28285   1.28804   1.29156   1.29452
 Alpha virt. eigenvalues --    1.29667   1.30529   1.31559   1.32052   1.32683
 Alpha virt. eigenvalues --    1.32958   1.33814   1.34403   1.34765   1.35602
 Alpha virt. eigenvalues --    1.35983   1.36354   1.37460   1.38148   1.38676
 Alpha virt. eigenvalues --    1.39973   1.41259   1.41826   1.41925   1.42579
 Alpha virt. eigenvalues --    1.43629   1.44373   1.45141   1.46548   1.47314
 Alpha virt. eigenvalues --    1.48056   1.49374   1.49867   1.50453   1.51435
 Alpha virt. eigenvalues --    1.52818   1.53204   1.53575   1.54117   1.54154
 Alpha virt. eigenvalues --    1.54497   1.54979   1.55798   1.56566   1.57308
 Alpha virt. eigenvalues --    1.57617   1.57680   1.58312   1.58618   1.58828
 Alpha virt. eigenvalues --    1.59122   1.59654   1.60121   1.60476   1.60819
 Alpha virt. eigenvalues --    1.61052   1.61731   1.62172   1.62294   1.62909
 Alpha virt. eigenvalues --    1.63102   1.63199   1.63990   1.64139   1.64736
 Alpha virt. eigenvalues --    1.64910   1.65317   1.65737   1.65906   1.66397
 Alpha virt. eigenvalues --    1.66656   1.66925   1.67468   1.67522   1.68305
 Alpha virt. eigenvalues --    1.68453   1.68680   1.69092   1.69378   1.69734
 Alpha virt. eigenvalues --    1.70637   1.70953   1.71337   1.71940   1.72795
 Alpha virt. eigenvalues --    1.72931   1.73707   1.73942   1.74952   1.75466
 Alpha virt. eigenvalues --    1.76447   1.77077   1.77601   1.78311   1.78830
 Alpha virt. eigenvalues --    1.79105   1.80060   1.80908   1.81463   1.81698
 Alpha virt. eigenvalues --    1.82343   1.83013   1.83524   1.84082   1.85189
 Alpha virt. eigenvalues --    1.85522   1.85884   1.86098   1.87143   1.87307
 Alpha virt. eigenvalues --    1.87712   1.88290   1.88782   1.89304   1.90393
 Alpha virt. eigenvalues --    1.90756   1.90899   1.91773   1.92521   1.92544
 Alpha virt. eigenvalues --    1.93054   1.93659   1.93796   1.95200   1.95617
 Alpha virt. eigenvalues --    1.96593   1.96802   1.97052   1.97650   1.98030
 Alpha virt. eigenvalues --    1.98244   1.99527   2.00067   2.00475   2.01221
 Alpha virt. eigenvalues --    2.01462   2.02032   2.02529   2.02942   2.03667
 Alpha virt. eigenvalues --    2.04321   2.04651   2.05179   2.05636   2.05660
 Alpha virt. eigenvalues --    2.06222   2.06905   2.07456   2.07714   2.08057
 Alpha virt. eigenvalues --    2.09013   2.09972   2.10367   2.10733   2.10886
 Alpha virt. eigenvalues --    2.11588   2.12201   2.12651   2.13482   2.13954
 Alpha virt. eigenvalues --    2.14432   2.14959   2.15605   2.16133   2.16604
 Alpha virt. eigenvalues --    2.17078   2.17553   2.18239   2.18351   2.18928
 Alpha virt. eigenvalues --    2.19472   2.19964   2.20321   2.20795   2.21329
 Alpha virt. eigenvalues --    2.21857   2.22574   2.22847   2.23144   2.23796
 Alpha virt. eigenvalues --    2.24187   2.25395   2.25618   2.25873   2.26482
 Alpha virt. eigenvalues --    2.26832   2.27047   2.27443   2.28615   2.29511
 Alpha virt. eigenvalues --    2.30099   2.30628   2.30984   2.31274   2.32399
 Alpha virt. eigenvalues --    2.32904   2.33528   2.34079   2.34389   2.35131
 Alpha virt. eigenvalues --    2.36004   2.36379   2.36893   2.37301   2.37772
 Alpha virt. eigenvalues --    2.38009   2.38510   2.38705   2.39707   2.40547
 Alpha virt. eigenvalues --    2.40889   2.41215   2.41815   2.42277   2.42523
 Alpha virt. eigenvalues --    2.42831   2.43698   2.44045   2.44276   2.44843
 Alpha virt. eigenvalues --    2.45252   2.45665   2.46561   2.46799   2.47261
 Alpha virt. eigenvalues --    2.47511   2.47746   2.48052   2.49174   2.49448
 Alpha virt. eigenvalues --    2.49783   2.50024   2.51119   2.51443   2.52097
 Alpha virt. eigenvalues --    2.52605   2.53511   2.53703   2.53846   2.54613
 Alpha virt. eigenvalues --    2.54922   2.55704   2.56119   2.56829   2.57128
 Alpha virt. eigenvalues --    2.57299   2.57448   2.57986   2.58530   2.58677
 Alpha virt. eigenvalues --    2.58893   2.59059   2.59468   2.59677   2.60222
 Alpha virt. eigenvalues --    2.60537   2.60567   2.61514   2.61992   2.62409
 Alpha virt. eigenvalues --    2.62586   2.63635   2.64032   2.64269   2.65085
 Alpha virt. eigenvalues --    2.65242   2.65330   2.66099   2.66391   2.66726
 Alpha virt. eigenvalues --    2.66915   2.67463   2.67889   2.68484   2.68700
 Alpha virt. eigenvalues --    2.69057   2.69308   2.69529   2.70191   2.70653
 Alpha virt. eigenvalues --    2.70979   2.71346   2.71767   2.72441   2.73166
 Alpha virt. eigenvalues --    2.73667   2.74039   2.74607   2.74795   2.75448
 Alpha virt. eigenvalues --    2.75538   2.76162   2.76706   2.76952   2.77621
 Alpha virt. eigenvalues --    2.78177   2.78336   2.78870   2.79433   2.80177
 Alpha virt. eigenvalues --    2.80348   2.81248   2.81428   2.81982   2.82522
 Alpha virt. eigenvalues --    2.83434   2.83705   2.84621   2.85320   2.86741
 Alpha virt. eigenvalues --    2.87082   2.87612   2.88121   2.88323   2.89358
 Alpha virt. eigenvalues --    2.90205   2.90739   2.91129   2.91180   2.92322
 Alpha virt. eigenvalues --    2.93340   2.93749   2.94250   2.94720   2.96080
 Alpha virt. eigenvalues --    2.96916   2.97533   2.98166   2.98501   2.99994
 Alpha virt. eigenvalues --    3.00711   3.02093   3.02605   3.03145   3.03557
 Alpha virt. eigenvalues --    3.04632   3.06986   3.07179   3.08085   3.08778
 Alpha virt. eigenvalues --    3.09012   3.10172   3.10406   3.10873   3.12281
 Alpha virt. eigenvalues --    3.13269   3.13783   3.14205   3.14672   3.15026
 Alpha virt. eigenvalues --    3.15426   3.15780   3.16426   3.16956   3.17480
 Alpha virt. eigenvalues --    3.18160   3.18176   3.19164   3.19469   3.19745
 Alpha virt. eigenvalues --    3.20299   3.20544   3.21647   3.22299   3.22542
 Alpha virt. eigenvalues --    3.22980   3.23729   3.24267   3.24907   3.25020
 Alpha virt. eigenvalues --    3.25424   3.26011   3.26632   3.27087   3.27754
 Alpha virt. eigenvalues --    3.28404   3.28659   3.29219   3.29449   3.30084
 Alpha virt. eigenvalues --    3.30282   3.30663   3.31476   3.31972   3.32448
 Alpha virt. eigenvalues --    3.32498   3.33340   3.33388   3.33927   3.34415
 Alpha virt. eigenvalues --    3.34903   3.35114   3.35480   3.36259   3.36843
 Alpha virt. eigenvalues --    3.37226   3.37621   3.37873   3.38383   3.38745
 Alpha virt. eigenvalues --    3.39409   3.39890   3.41003   3.41301   3.41601
 Alpha virt. eigenvalues --    3.42073   3.42895   3.43240   3.43871   3.44192
 Alpha virt. eigenvalues --    3.44992   3.45366   3.45629   3.46518   3.46630
 Alpha virt. eigenvalues --    3.47529   3.48318   3.48707   3.49378   3.49735
 Alpha virt. eigenvalues --    3.49936   3.50295   3.50683   3.51297   3.51873
 Alpha virt. eigenvalues --    3.52354   3.52898   3.53559   3.54386   3.55307
 Alpha virt. eigenvalues --    3.55661   3.55906   3.56555   3.56900   3.57162
 Alpha virt. eigenvalues --    3.57530   3.58525   3.59029   3.59658   3.59716
 Alpha virt. eigenvalues --    3.60232   3.60593   3.60978   3.62006   3.62298
 Alpha virt. eigenvalues --    3.62630   3.64134   3.64970   3.65426   3.66225
 Alpha virt. eigenvalues --    3.66472   3.66657   3.66996   3.68044   3.69341
 Alpha virt. eigenvalues --    3.69660   3.70459   3.71412   3.72421   3.72550
 Alpha virt. eigenvalues --    3.73761   3.74171   3.74923   3.75449   3.76801
 Alpha virt. eigenvalues --    3.77065   3.77303   3.78877   3.79819   3.81034
 Alpha virt. eigenvalues --    3.81662   3.83334   3.83979   3.84656   3.85147
 Alpha virt. eigenvalues --    3.85202   3.89542   3.90218   3.91165   3.92085
 Alpha virt. eigenvalues --    3.93093   3.94217   3.94324   3.94739   3.95171
 Alpha virt. eigenvalues --    3.95391   3.96370   3.96902   3.97247   3.97944
 Alpha virt. eigenvalues --    3.98517   3.99047   4.00843   4.01038   4.01520
 Alpha virt. eigenvalues --    4.02629   4.03018   4.04980   4.05062   4.05438
 Alpha virt. eigenvalues --    4.07597   4.09297   4.11047   4.11381   4.12902
 Alpha virt. eigenvalues --    4.13774   4.14005   4.15255   4.16472   4.16982
 Alpha virt. eigenvalues --    4.17141   4.17917   4.18679   4.19046   4.20213
 Alpha virt. eigenvalues --    4.20499   4.21565   4.21610   4.22477   4.23732
 Alpha virt. eigenvalues --    4.24971   4.25901   4.26679   4.27453   4.27745
 Alpha virt. eigenvalues --    4.29220   4.31063   4.31284   4.33497   4.34938
 Alpha virt. eigenvalues --    4.35972   4.37794   4.38388   4.39819   4.40171
 Alpha virt. eigenvalues --    4.40517   4.41358   4.41747   4.43047   4.44447
 Alpha virt. eigenvalues --    4.45372   4.45622   4.47658   4.48473   4.53452
 Alpha virt. eigenvalues --    4.55168   4.55883   4.56667   4.57395   4.58049
 Alpha virt. eigenvalues --    4.59564   4.59725   4.60293   4.62975   4.63461
 Alpha virt. eigenvalues --    4.63580   4.64632   4.65955   4.66296   4.68249
 Alpha virt. eigenvalues --    4.68917   4.69812   4.70265   4.71171   4.72727
 Alpha virt. eigenvalues --    4.74505   4.76495   4.77620   4.83687   4.85005
 Alpha virt. eigenvalues --    4.86209   4.87421   4.89022   4.91896   4.94549
 Alpha virt. eigenvalues --    4.98875   5.03174   5.05399   5.05907   5.06690
 Alpha virt. eigenvalues --    5.08917   5.09474   5.12093   5.14752   5.15956
 Alpha virt. eigenvalues --    5.19735   5.20331   5.35842   5.45760   5.53527
 Alpha virt. eigenvalues --    7.84994   7.87540   7.89768   7.92284   7.96444
 Alpha virt. eigenvalues --    8.08307  10.93440  10.94249  11.00937  11.02277
 Alpha virt. eigenvalues --   11.05653  11.09023  15.68843  15.86004  22.23670
 Alpha virt. eigenvalues --   22.41389  22.43637  22.46140  22.47148  22.53177
 Alpha virt. eigenvalues --   22.53929  22.55454  22.58679  22.59754  22.60896
 Alpha virt. eigenvalues --   22.61556  22.62836  22.63499  22.67854  22.68607
 Alpha virt. eigenvalues --   22.71730  22.73977  22.79683  22.84127  22.92156
 Alpha virt. eigenvalues --   23.25619  25.51401  25.71131  40.36483  40.94091
 Alpha virt. eigenvalues --   41.03943  52.08977
          Condensed to atoms (all electrons):
 Mulliken charges:
               1
     1  Cl  -0.445045
     2  P    0.133639
     3  P    0.123369
     4  C   -0.100198
     5  C    0.062926
     6  C   -0.091641
     7  H    0.153683
     8  C   -0.090713
     9  H    0.119486
    10  C   -0.136821
    11  H    0.100114
    12  C   -0.118074
    13  H    0.140519
    14  C   -0.197847
    15  H    0.167563
    16  H    0.111102
    17  C   -0.213198
    18  H    0.119069
    19  H    0.117384
    20  C   -0.157722
    21  H    0.114493
    22  H    0.145057
    23  C   -0.187840
    24  H    0.121886
    25  H    0.095406
    26  C   -0.170829
    27  H    0.091313
    28  H    0.113642
    29  C   -0.185597
    30  H    0.101013
    31  H    0.150936
    32  C   -0.149364
    33  H    0.101145
    34  H    0.155199
    35  C   -0.120362
    36  H    0.096435
    37  H    0.112829
    38  C   -0.403149
    39  H    0.127704
    40  H    0.136246
    41  H    0.142964
    42  C   -0.418166
    43  H    0.193430
    44  H    0.134234
    45  H    0.116331
    46  C   -0.416401
    47  H    0.166000
    48  H    0.115239
    49  H    0.135039
    50  C   -0.401300
    51  H    0.149017
    52  H    0.121379
    53  H    0.128497
    54  C   -0.153579
    55  H    0.137242
    56  C   -0.148300
    57  H    0.130464
    58  C   -0.104704
    59  H    0.131310
    60  C   -0.252219
    61  H    0.141827
    62  Cl  -0.445102
    63  Pd   0.153037
 Sum of Mulliken charges =  -0.00000
 Mulliken charges with hydrogens summed into heavy atoms:
               1
     1  Cl  -0.445045
     2  P    0.133639
     3  P    0.123369
     4  C   -0.100198
     5  C    0.062926
     6  C    0.062041
     8  C    0.028773
    10  C   -0.036706
    12  C    0.022445
    14  C    0.080818
    17  C    0.023255
    20  C    0.101829
    23  C    0.029452
    26  C    0.034126
    29  C    0.066352
    32  C    0.106980
    35  C    0.088902
    38  C    0.003766
    42  C    0.025829
    46  C   -0.000123
    50  C   -0.002406
    54  C   -0.016336
    56  C   -0.017836
    58  C    0.026606
    60  C   -0.110393
    62  Cl  -0.445102
    63  Pd   0.153037
 Electronic spatial extent (au):  <R**2>=          11062.8888
 Charge=             -0.0000 electrons
 Dipole moment (field-independent basis, Debye):
    X=              0.2104    Y=             12.0886    Z=              1.4188  Tot=             12.1734
 Quadrupole moment (field-independent basis, Debye-Ang):
   XX=           -191.4312   YY=           -227.2109   ZZ=           -204.7136
   XY=             -1.2470   XZ=              1.3856   YZ=             -2.8583
 Traceless Quadrupole moment (field-independent basis, Debye-Ang):
   XX=             16.3540   YY=            -19.4256   ZZ=              3.0716
   XY=             -1.2470   XZ=              1.3856   YZ=             -2.8583
 Octapole moment (field-independent basis, Debye-Ang**2):
  XXX=             -4.8471  YYY=             76.0277  ZZZ=            -12.7767  XYY=              2.0854
  XXY=             12.9264  XXZ=              1.7562  XZZ=             -3.2101  YZZ=            -39.8771
  YYZ=             20.7671  XYZ=             -4.6390
 Hexadecapole moment (field-independent basis, Debye-Ang**3):
 XXXX=          -6666.0745 YYYY=          -4652.9004 ZZZZ=          -3541.6129 XXXY=             -6.9967
 XXXZ=             -5.2905 YYYX=             -8.5712 YYYZ=             26.5699 ZZZX=            -15.5958
 ZZZY=              8.8298 XXYY=          -1987.0164 XXZZ=          -1693.5129 YYZZ=          -1419.9348
 XXYZ=            -19.8841 YYXZ=             27.7952 ZZXY=             10.6220
 N-N= 4.044448929238D+03 E-N=-1.416576514315D+04  KE= 2.501681406263D+03
 1\1\GINC-NC058\SP\RPBE1PBE\Gen\C22H36Cl2P2Pd1\MACKK4\05-Dec-2021\0\\# 
 PBE1PBE gen pseudo=read int=(grid=ultrafine) empiricaldispersion=GD3BJ
  nmr=giao\\SS_Et_DuPhos_2 title\\0,1\Cl,0,-1.2509261881,-3.7866986323,
 1.2160877971\P,0,-1.5365211016,-0.7591983605,0.0557259867\P,0,1.537681
 6173,-0.1809667343,0.3632831401\C,0,-0.9313443701,0.9456180788,-0.3337
 722666\C,0,0.4387206784,1.2249514623,-0.1114279107\C,0,-2.9361285621,-
 0.6951197988,1.3302266656\H,0,-2.563702541,-1.3000744846,2.1753234763\
 C,0,-2.6200558702,-1.2382510818,-1.4204697324\H,0,-2.3794964631,-0.524
 5990837,-2.2308286687\C,0,2.579437794,0.3929068484,1.8272657496\H,0,2.
 3940849662,1.4846398864,1.8954865278\C,0,2.9683250372,-0.2382112482,-0
 .8614405702\H,0,3.1879310421,-1.323116799,-0.8934414264\C,0,-4.0698719
 821,-1.4502355328,0.5964223223\H,0,-3.8818859385,-2.5349198801,0.67508
 36663\H,0,-5.0428796722,-1.2386226123,1.0750257201\C,0,-4.0550589047,-
 1.0256369163,-0.8811827655\H,0,-4.348809105,0.0378004614,-0.9685233861
 \H,0,-4.7763751484,-1.608452184,-1.4814860168\C,0,4.0291827972,0.14254
 89701,1.3590799023\H,0,4.7351993462,0.7363277699,1.9664716281\H,0,4.26
 36628026,-0.9262791362,1.5127945885\C,0,4.1248289566,0.479661216,-0.13
 41794054\H,0,5.0939443621,0.1696515266,-0.5645460715\H,0,4.0403984517,
 1.5741802035,-0.2881981311\C,0,-3.362463886,0.6951960225,1.8363790949\
 H,0,-3.6367676747,1.3536090307,0.9920976261\H,0,-4.2977220992,0.541576
 3375,2.4088618244\C,0,-2.3885364752,-2.6749465772,-1.9299327438\H,0,-3
 .1966960356,-2.8846123933,-2.6576445013\H,0,-2.5049735435,-3.387293626
 5,-1.0949480087\C,0,2.2440090112,-0.2689492705,3.1704416702\H,0,2.9858
 04119,0.0943054648,3.9080725446\H,0,2.3949551696,-1.3582672438,3.06679
 02427\C,0,2.687979347,0.2755976393,-2.2781129197\H,0,2.4407475211,1.35
 35202522,-2.242160862\H,0,3.6361993416,0.1992571952,-2.8446163329\C,0,
 -2.3405193524,1.397552607,2.7340678031\H,0,-2.7484395784,2.3471561447,
 3.1202744746\H,0,-1.4098063267,1.6307356171,2.1914484076\H,0,-2.075029
 1048,0.7649727846,3.5980666819\C,0,-1.0291724538,-2.9009135457,-2.5911
 838012\H,0,-0.2104030406,-2.7681979158,-1.8594400762\H,0,-0.9546488819
 ,-3.9305737454,-2.9786862436\H,0,-0.8618017032,-2.2029585461,-3.431586
 4143\C,0,0.827159271,0.0125888253,3.6706985084\H,0,0.0846507212,-0.449
 8757219,2.9942534961\H,0,0.6164211155,1.0960798912,3.7269851044\H,0,0.
 6696262428,-0.4192506571,4.6732634571\C,0,1.5849211156,-0.4871442776,-
 3.0151377793\H,0,1.7858493607,-1.5717449351,-3.0246408209\H,0,0.605357
 9726,-0.3386115978,-2.5297180794\H,0,1.4958736975,-0.1440971132,-4.059
 9542715\C,0,-1.7715869593,1.9591492453,-0.8337578292\H,0,-2.8231534053
 ,1.7438429813,-1.0484062513\C,0,-1.2714914874,3.2474161869,-1.06283856
 9\H,0,-1.9350396154,4.0282335453,-1.4475645406\C,0,0.0744866713,3.5362
 796905,-0.7957720142\H,0,0.464391254,4.5448858844,-0.9651342607\C,0,0.
 927605288,2.5268434768,-0.3310766894\H,0,1.9835599839,2.7525848275,-0.
 1479358594\Cl,0,2.2950062348,-3.1971439245,1.0652071543\Pd,0,0.2527061
 805,-2.0068064972,0.635359959\\Version=ES64L-G09RevE.01\State=1-A\HF=-
 2590.0395706\RMSD=5.108e-09\Dipole=-0.7576305,4.5246007,-1.3756204\Qua
 drupole=10.9917246,-12.2471282,1.2554036,4.8953662,0.8374793,5.1377166
 \PG=C01 [X(C22H36Cl2P2Pd1)]\\@


 IF YOU GIVE A BOY AND A PIG EVERYTHING THEY WANT,
 YOU'LL GET A BAD BOY AND A GOOD PIG.
 Job cpu time:       0 days 15 hours 59 minutes  0.6 seconds.
 File lengths (MBytes):  RWF=    656 Int=      0 D2E=      0 Chk=     96 Scr=      1
 Normal termination of Gaussian 09 at Sun Dec  5 10:02:10 2021.
 Initial command:
 /gstore/apps/gaussian/g09.e01-foss-2017a/g09/l1.exe "/local/22791408/Gau-21919.inp" -scrdir="/local/22791408/"
 Entering Link 1 = /gstore/apps/gaussian/g09.e01-foss-2017a/g09/l1.exe PID=     32425.
  
 Copyright (c) 1988,1990,1992,1993,1995,1998,2003,2009,2015,
            Gaussian, Inc.  All Rights Reserved.
  
 This is part of the Gaussian(R) 09 program.  It is based on
 the Gaussian(R) 03 system (copyright 2003, Gaussian, Inc.),
 the Gaussian(R) 98 system (copyright 1998, Gaussian, Inc.),
 the Gaussian(R) 94 system (copyright 1995, Gaussian, Inc.),
 the Gaussian 92(TM) system (copyright 1992, Gaussian, Inc.),
 the Gaussian 90(TM) system (copyright 1990, Gaussian, Inc.),
 the Gaussian 88(TM) system (copyright 1988, Gaussian, Inc.),
 the Gaussian 86(TM) system (copyright 1986, Carnegie Mellon
 University), and the Gaussian 82(TM) system (copyright 1983,
 Carnegie Mellon University). Gaussian is a federally registered
 trademark of Gaussian, Inc.
  
 This software contains proprietary and confidential information,
 including trade secrets, belonging to Gaussian, Inc.
  
 This software is provided under written license and may be
 used, copied, transmitted, or stored only in accord with that
 written license.
  
 The following legend is applicable only to US Government
 contracts under FAR:
  
                    RESTRICTED RIGHTS LEGEND
  
 Use, reproduction and disclosure by the US Government is
 subject to restrictions as set forth in subparagraphs (a)
 and (c) of the Commercial Computer Software - Restricted
 Rights clause in FAR 52.227-19.
  
 Gaussian, Inc.
 340 Quinnipiac St., Bldg. 40, Wallingford CT 06492
  
  
 ---------------------------------------------------------------
 Warning -- This program may not be used in any manner that
 competes with the business of Gaussian, Inc. or will provide
 assistance to any competitor of Gaussian, Inc.  The licensee
 of this program is prohibited from giving any competitor of
 Gaussian, Inc. access to this program.  By using this program,
 the user acknowledges that Gaussian, Inc. is engaged in the
 business of creating and licensing software in the field of
 computational chemistry and represents and warrants to the
 licensee that it is not a competitor of Gaussian, Inc. and that
 it will not use this program in any manner prohibited above.
 ---------------------------------------------------------------
  

 Cite this work as:
 Gaussian 09, Revision E.01,
 M. J. Frisch, G. W. Trucks, H. B. Schlegel, G. E. Scuseria, 
 M. A. Robb, J. R. Cheeseman, G. Scalmani, V. Barone, B. Mennucci, 
 G. A. Petersson, H. Nakatsuji, M. Caricato, X. Li, H. P. Hratchian, 
 A. F. Izmaylov, J. Bloino, G. Zheng, J. L. Sonnenberg, M. Hada, 
 M. Ehara, K. Toyota, R. Fukuda, J. Hasegawa, M. Ishida, T. Nakajima, 
 Y. Honda, O. Kitao, H. Nakai, T. Vreven, J. A. Montgomery, Jr., 
 J. E. Peralta, F. Ogliaro, M. Bearpark, J. J. Heyd, E. Brothers, 
 K. N. Kudin, V. N. Staroverov, T. Keith, R. Kobayashi, J. Normand, 
 K. Raghavachari, A. Rendell, J. C. Burant, S. S. Iyengar, J. Tomasi, 
 M. Cossi, N. Rega, J. M. Millam, M. Klene, J. E. Knox, J. B. Cross, 
 V. Bakken, C. Adamo, J. Jaramillo, R. Gomperts, R. E. Stratmann, 
 O. Yazyev, A. J. Austin, R. Cammi, C. Pomelli, J. W. Ochterski, 
 R. L. Martin, K. Morokuma, V. G. Zakrzewski, G. A. Voth, 
 P. Salvador, J. J. Dannenberg, S. Dapprich, A. D. Daniels, 
 O. Farkas, J. B. Foresman, J. V. Ortiz, J. Cioslowski, 
 and D. J. Fox, Gaussian, Inc., Wallingford CT, 2013.
 
 ******************************************
 Gaussian 09:  ES64L-G09RevE.01 30-Nov-2015
                 5-Dec-2021 
 ******************************************
 %nprocs=14
 Will use up to   14 processors via shared memory.
 %mem=128GB
 %chk=SS_Et_DuPhos_2_SPE.chk
 ----------------------------------------------------------------------
 # PBE1PBE gen pseudo=read int=(grid=ultrafine) empiricaldispersion=GD3
 BJ pop=nbo guess=read geom=check
 ----------------------------------------------------------------------
 1/29=2,38=1/1;
 2/12=2,40=1/2;
 3/5=7,11=2,14=-4,16=1,17=8,25=1,30=1,74=-13,75=-5,116=-2,124=41/1,2,3;
 4/5=1/1;
 5/5=2,38=6/2;
 6/7=2,8=2,9=2,10=2,28=1,40=1/1,7;
 99/5=1,9=1/99;
 --------------------
 SS_Et_DuPhos_2 title
 --------------------
 Structure from the checkpoint file:  "SS_Et_DuPhos_2_SPE.chk"
 Charge =  0 Multiplicity = 1
 Z-Matrix found in file.
 Cl,0,-1.2509261881,-3.7866986323,1.2160877971
 P,0,-1.5365211016,-0.7591983605,0.0557259867
 P,0,1.5376816173,-0.1809667343,0.3632831401
 C,0,-0.9313443701,0.9456180788,-0.3337722666
 C,0,0.4387206784,1.2249514623,-0.1114279107
 C,0,-2.9361285621,-0.6951197988,1.3302266656
 H,0,-2.563702541,-1.3000744846,2.1753234763
 C,0,-2.6200558702,-1.2382510818,-1.4204697324
 H,0,-2.3794964631,-0.5245990837,-2.2308286687
 C,0,2.579437794,0.3929068484,1.8272657496
 H,0,2.3940849662,1.4846398864,1.8954865278
 C,0,2.9683250372,-0.2382112482,-0.8614405702
 H,0,3.1879310421,-1.323116799,-0.8934414264
 C,0,-4.0698719821,-1.4502355328,0.5964223223
 H,0,-3.8818859385,-2.5349198801,0.6750836663
 H,0,-5.0428796722,-1.2386226123,1.0750257201
 C,0,-4.0550589047,-1.0256369163,-0.8811827655
 H,0,-4.348809105,0.0378004614,-0.9685233861
 H,0,-4.7763751484,-1.608452184,-1.4814860168
 C,0,4.0291827972,0.1425489701,1.3590799023
 H,0,4.7351993462,0.7363277699,1.9664716281
 H,0,4.2636628026,-0.9262791362,1.5127945885
 C,0,4.1248289566,0.479661216,-0.1341794054
 H,0,5.0939443621,0.1696515266,-0.5645460715
 H,0,4.0403984517,1.5741802035,-0.2881981311
 C,0,-3.362463886,0.6951960225,1.8363790949
 H,0,-3.6367676747,1.3536090307,0.9920976261
 H,0,-4.2977220992,0.5415763375,2.4088618244
 C,0,-2.3885364752,-2.6749465772,-1.9299327438
 H,0,-3.1966960356,-2.8846123933,-2.6576445013
[...]
   980. RY*(  18)Cl  62                  0.00000    10.45724   
   981. RY*(  19)Cl  62                  0.00001     2.73752   
   982. RY*(  20)Cl  62                  0.00000     2.80787   
   983. RY*(  21)Cl  62                  0.00001     1.91692   
   984. RY*(  22)Cl  62                  0.00000     2.18448   
   985. RY*(  23)Cl  62                  0.00001     2.19695   
   986. RY*(  24)Cl  62                  0.00000     2.16434   
   987. RY*(  25)Cl  62                  0.00000     2.14247   
   988. RY*(  26)Cl  62                  0.00000     2.16454   
   989. RY*(  27)Cl  62                  0.00001     2.22871   
   990. RY*(  28)Cl  62                  0.00000     2.24709   
   991. RY*(   1)Pd  63                  0.00359     0.88889   
   992. RY*(   2)Pd  63                  0.00267     1.31069   
   993. RY*(   3)Pd  63                  0.00245     1.33328   
   994. RY*(   4)Pd  63                  0.00175     0.89212   
   995. RY*(   5)Pd  63                  0.00125     0.88981   
   996. RY*(   6)Pd  63                  0.00099     2.07219   
   997. RY*(   7)Pd  63                  0.00085     0.62136   
   998. RY*(   8)Pd  63                  0.00068     1.25719   
   999. RY*(   9)Pd  63                  0.00061     1.35121   
  1000. RY*(  10)Pd  63                  0.00053     1.93509   
  1001. RY*(  11)Pd  63                  0.00048     1.96242   
  1002. RY*(  12)Pd  63                  0.00031     0.51047   
  1003. RY*(  13)Pd  63                  0.00024     1.50372   
  1004. RY*(  14)Pd  63                  0.00021     1.07500   
  1005. RY*(  15)Pd  63                  0.00018     2.14788   
  1006. RY*(  16)Pd  63                  0.00014     1.47338   
  1007. RY*(  17)Pd  63                  0.00009     2.17767   
  1008. RY*(  18)Pd  63                  0.00009    33.03019   
  1009. RY*(  19)Pd  63                  0.00005     2.57330   
  1010. RY*(  20)Pd  63                  0.00003     2.18653   
  1011. RY*(  21)Pd  63                  0.00000    39.22969   
  1012. RY*(  22)Pd  63                  0.00000    39.33527   
  1013. RY*(  23)Pd  63                  0.00000    39.60548   
  1014. BD*(   1)Cl   1 -Pd  63          0.19562     0.16339  1082(g),1018(g),1005(g)
                                                    155(v),996(g),1008(g)
                                                    1021(v),1020(v),1015(v)
                                                    1000(g),1002(g),183(v)
                                                    1001(g),1009(g),1010(g)
                                                    1016(v),999(g),127(g),212(r)
                                                    1017(v),1004(g),131(g)
                                                    992(g),1064(r),1011(g)
                                                    132(g),994(g),356(r),1027(r)
  1015. BD*(   1) P   2 - C   4          0.07833     0.19043   
  1016. BD*(   1) P   2 - C   6          0.08440     0.15006   
  1017. BD*(   1) P   2 - C   8          0.08366     0.14934   
  1018. BD*(   1) P   2 -Pd  63          0.18082     0.70017  1022(g),129(v),1008(g)
                                                    155(g),183(v),992(g),998(g)
                                                    1000(g),1003(g),1009(g)
                                                    1005(g),996(g),1010(g)
                                                    991(g),1001(g),999(g),212(v)
                                                    238(r),994(g),130(v),968(v)
                                                    993(g),1002(g),133(v)
                                                    1004(g),132(v),1007(g)
                                                    356(r),972(v),969(v),136(v)
                                                    995(g),325(r),190(v),263(v)
                                                    192(v),295(v),966(v),1014(g)
                                                    161(g),967(v),160(g),264(v)
                                                    958(r),213(v),239(r),162(g)
                                                    665(r),326(r),164(g),357(r)
                                                    167(g),131(v),128(v),156(g)
                                                    865(r),201(v),165(g),177(g)
                                                    188(v),214(v),191(v),294(v)
                                                    634(r),598(r),158(g),163(g)
                                                    495(r),241(r),423(r),842(r)
                                                    211(v),271(v),637(r),240(r)
                                                    272(v),935(r),215(v),971(v)
                                                    963(v),366(r),337(r),990(v)
                                                    557(r),1067(r),716(r),934(r)
                                                    841(r),195(v),983(v),609(r)
                                                    237(r),829(r),1064(r),204(v)
                                                    299(v),499(r),567(r),196(v)
                                                    147(v),577(r),1027(v),127(v)
                                                    416(r),970(v),997(g),492(r)
                                                    612(r),575(r),265(v),333(r)
                                                    382(r),171(g),431(r),174(g)
                                                    843(r),135(v),220(v),675(r)
                                                    173(g),246(r),223(v),359(r)
                                                    198(v),383(r),975(v),172(g)
                                                    600(r),175(g),267(v),783(r)
                                                    392(r),649(r),217(v),249(r)
                                                    460(r),615(r),139(v),154(v)
                                                    936(r),364(r),537(r),269(v)
                                                    399(r),413(r),571(r),538(r)
                                                    965(v),508(r),170(g),202(v)
                                                    360(r),1023(v),719(r),466(r)
                                                    531(r),424(r),580(r),617(r)
                                                    724(r),387(r),427(r),243(r)
                                                    328(r),964(v),363(r),194(v)
                                                    330(r),268(v)
  1019. BD*(   1) P   3 - C   5          0.08345     0.19158   
  1020. BD*(   1) P   3 - C  10          0.08206     0.15561   
  1021. BD*(   1) P   3 - C  12          0.08500     0.15623   
  1022. BD*(   1) P   3 -Pd  63          0.18029     0.68794  1018(g),1008(g),183(g)
                                                    1003(g),155(v),998(g),992(g)
                                                    1000(g),1009(g),995(g)
                                                    1010(g),996(g),1005(g)
                                                    1001(g),991(g),999(g),238(v)
                                                    1004(g),133(v),993(g),968(v)
                                                    212(r),130(v),136(v),994(g)
                                                    1002(g),1007(g),132(v)
                                                    356(v),263(r),969(v),325(v)
                                                    967(v),972(v),295(r),190(g)
                                                    192(g),1082(g),161(v),129(v)
                                                    264(r),162(v),213(r),164(v)
                                                    239(v),966(v),160(v),357(v)
                                                    201(g),326(v),665(r),964(v)
                                                    191(g),167(v),997(g),865(r)
                                                    188(g),958(r),214(r),598(r)
                                                    177(v),156(v),294(r),634(r)
                                                    131(v),165(v),495(r),215(r)
                                                    935(r),965(v),423(r),567(r)
                                                    637(r),163(v),237(v),272(r)
                                                    971(v),241(v),842(r),158(v)
                                                    271(r),240(v),716(r),934(r)
                                                    337(v),366(v),970(v),198(g)
                                                    575(r),1067(r),195(g),557(r)
                                                    983(v),499(r),211(r),204(g)
                                                    841(r),147(v),577(r),829(r)
                                                    963(v),196(g),299(r),416(r)
                                                    246(v),265(r),990(v),1006(g)
                                                    267(r),720(r),492(r),249(v)
                                                    609(r),154(v),460(r),413(r)
                                                    975(v),843(r),364(v),649(r)
                                                    936(r),135(v),174(v),269(r)
                                                    675(r),636(r),127(v),171(v)
                                                    220(r),508(r),202(g),333(v)
                                                    431(r),1064(r),392(r),172(v)
                                                    1036(v),328(v),359(v),217(r)
                                                    798(r),615(r),139(v),538(r)
                                                    223(r),719(r),617(r),424(r)
                                                    383(r),724(r),1023(v),503(r)
                                                    159(v),537(r),363(v),500(r)
                                                    571(r),173(v),197(g),612(r)
                                                    507(r),576(r),580(r),600(r)
                                                    783(r),472(r),466(r),243(v)
                                                    175(v)
  1023. BD*(   1) C   4 - C   5          0.03245     0.47871   
  1024. BD*(   2) C   4 - C   5          0.39901    -0.01238  1080(v),1075(v),1016(v)
                                                    1021(v),1020(v),240(g)
                                                    1017(v),214(g),933(v)
  1025. BD*(   1) C   4 - C  54          0.03011     0.48958   
  1026. BD*(   1) C   5 - C  60          0.02998     0.48958   
  1027. BD*(   1) C   6 - H   7          0.01990     0.36887   
  1028. BD*(   1) C   6 - C  14          0.01759     0.32360   
  1029. BD*(   1) C   6 - C  26          0.02376     0.33367   
  1030. BD*(   1) C   8 - H   9          0.02161     0.34730   
  1031. BD*(   1) C   8 - C  17          0.01910     0.31789   
  1032. BD*(   1) C   8 - C  29          0.02186     0.33753   
  1033. BD*(   1) C  10 - H  11          0.02611     0.33746   
  1034. BD*(   1) C  10 - C  20          0.01830     0.32661   
  1035. BD*(   1) C  10 - C  32          0.01866     0.34692   
  1036. BD*(   1) C  12 - H  13          0.02461     0.35764   
  1037. BD*(   1) C  12 - C  23          0.01992     0.32462   
  1038. BD*(   1) C  12 - C  35          0.01936     0.34169   
  1039. BD*(   1) C  14 - H  15          0.01511     0.37053   
  1040. BD*(   1) C  14 - H  16          0.01524     0.35630   
  1041. BD*(   1) C  14 - C  17          0.01340     0.33173   
  1042. BD*(   1) C  17 - H  18          0.01569     0.34536   
  1043. BD*(   1) C  17 - H  19          0.01573     0.35626   
  1044. BD*(   1) C  20 - H  21          0.01449     0.35578   
  1045. BD*(   1) C  20 - H  22          0.01761     0.36219   
  1046. BD*(   1) C  20 - C  23          0.00906     0.34230   
  1047. BD*(   1) C  23 - H  24          0.01475     0.35562   
  1048. BD*(   1) C  23 - H  25          0.01894     0.33790   
  1049. BD*(   1) C  26 - H  27          0.01929     0.34995   
  1050. BD*(   1) C  26 - H  28          0.01742     0.34614   
  1051. BD*(   1) C  26 - C  38          0.00643     0.34901   
  1052. BD*(   1) C  29 - H  30          0.01744     0.35744   
  1053. BD*(   1) C  29 - H  31          0.02065     0.38188   
  1054. BD*(   1) C  29 - C  42          0.00586     0.36726   
  1055. BD*(   1) C  32 - H  33          0.01755     0.35788   
  1056. BD*(   1) C  32 - H  34          0.01916     0.38416   
  1057. BD*(   1) C  32 - C  46          0.00647     0.36366   
  1058. BD*(   1) C  35 - H  36          0.01900     0.35084   
  1059. BD*(   1) C  35 - H  37          0.01733     0.34751   
  1060. BD*(   1) C  35 - C  50          0.00663     0.35140   
  1061. BD*(   1) C  38 - H  39          0.00568     0.36619   
  1062. BD*(   1) C  38 - H  40          0.00884     0.37563   
  1063. BD*(   1) C  38 - H  41          0.00859     0.36606   
  1064. BD*(   1) C  42 - H  43          0.01164     0.42369   
  1065. BD*(   1) C  42 - H  44          0.00570     0.38865   
  1066. BD*(   1) C  42 - H  45          0.00936     0.37604   
  1067. BD*(   1) C  46 - H  47          0.01077     0.40464   
  1068. BD*(   1) C  46 - H  48          0.00967     0.37090   
  1069. BD*(   1) C  46 - H  49          0.00585     0.38242   
  1070. BD*(   1) C  50 - H  51          0.00852     0.37079   
  1071. BD*(   1) C  50 - H  52          0.00872     0.37659   
  1072. BD*(   1) C  50 - H  53          0.00599     0.37069   
  1073. BD*(   1) C  54 - H  55          0.01689     0.37249   
  1074. BD*(   1) C  54 - C  56          0.01624     0.50689   
  1075. BD*(   2) C  54 - C  56          0.30591    -0.00500  1080(v),1024(v),872(g)
  1076. BD*(   1) C  56 - H  57          0.01307     0.37201   
  1077. BD*(   1) C  56 - C  58          0.01407     0.50195   
  1078. BD*(   1) C  58 - H  59          0.01310     0.37225   
  1079. BD*(   1) C  58 - C  60          0.01617     0.50597   
  1080. BD*(   2) C  58 - C  60          0.30735    -0.00559  1075(v),1024(v),903(g)
                                                    933(g)
  1081. BD*(   1) C  60 - H  61          0.01671     0.37109   
  1082. BD*(   1)Cl  62 -Pd  63          0.19822     0.15945  1014(g),1022(g),1020(v)
                                                    1021(v),995(g),1004(g)
                                                    183(v),1017(v),1008(g)
                                                    1001(g),1000(g),1019(v)
                                                    1010(g),1009(g),999(g)
                                                    155(v),1016(v),238(r),967(g)
                                                    1011(g),1003(g),1036(r)
                                                    963(g),1006(g),1056(r)
                                                    998(g),996(g),993(g),968(g)
       -------------------------------
              Total Lewis  274.37772  ( 98.6970%)
        Valence non-Lewis    3.24665  (  1.1679%)
        Rydberg non-Lewis    0.37563  (  0.1351%)
       -------------------------------
            Total unit  1  278.00000  (100.0000%)
           Charge unit  1    0.00000
 1\1\GINC-NC058\SP\RPBE1PBE\Gen\C22H36Cl2P2Pd1\MACKK4\05-Dec-2021\0\\# 
 PBE1PBE gen pseudo=read int=(grid=ultrafine) empiricaldispersion=GD3BJ
  pop=nbo guess=read geom=check\\SS_Et_DuPhos_2 title\\0,1\Cl,0,-1.2509
 261881,-3.7866986323,1.2160877971\P,0,-1.5365211016,-0.7591983605,0.05
 57259867\P,0,1.5376816173,-0.1809667343,0.3632831401\C,0,-0.9313443701
 ,0.9456180788,-0.3337722666\C,0,0.4387206784,1.2249514623,-0.111427910
 7\C,0,-2.9361285621,-0.6951197988,1.3302266656\H,0,-2.563702541,-1.300
 0744846,2.1753234763\C,0,-2.6200558702,-1.2382510818,-1.4204697324\H,0
 ,-2.3794964631,-0.5245990837,-2.2308286687\C,0,2.579437794,0.392906848
 4,1.8272657496\H,0,2.3940849662,1.4846398864,1.8954865278\C,0,2.968325
 0372,-0.2382112482,-0.8614405702\H,0,3.1879310421,-1.323116799,-0.8934
 414264\C,0,-4.0698719821,-1.4502355328,0.5964223223\H,0,-3.8818859385,
 -2.5349198801,0.6750836663\H,0,-5.0428796722,-1.2386226123,1.075025720
 1\C,0,-4.0550589047,-1.0256369163,-0.8811827655\H,0,-4.348809105,0.037
 8004614,-0.9685233861\H,0,-4.7763751484,-1.608452184,-1.4814860168\C,0
 ,4.0291827972,0.1425489701,1.3590799023\H,0,4.7351993462,0.7363277699,
 1.9664716281\H,0,4.2636628026,-0.9262791362,1.5127945885\C,0,4.1248289
 566,0.479661216,-0.1341794054\H,0,5.0939443621,0.1696515266,-0.5645460
 715\H,0,4.0403984517,1.5741802035,-0.2881981311\C,0,-3.362463886,0.695
 1960225,1.8363790949\H,0,-3.6367676747,1.3536090307,0.9920976261\H,0,-
 4.2977220992,0.5415763375,2.4088618244\C,0,-2.3885364752,-2.6749465772
 ,-1.9299327438\H,0,-3.1966960356,-2.8846123933,-2.6576445013\H,0,-2.50
 49735435,-3.3872936265,-1.0949480087\C,0,2.2440090112,-0.2689492705,3.
 1704416702\H,0,2.985804119,0.0943054648,3.9080725446\H,0,2.3949551696,
 -1.3582672438,3.0667902427\C,0,2.687979347,0.2755976393,-2.2781129197\
 H,0,2.4407475211,1.3535202522,-2.242160862\H,0,3.6361993416,0.19925719
 52,-2.8446163329\C,0,-2.3405193524,1.397552607,2.7340678031\H,0,-2.748
 4395784,2.3471561447,3.1202744746\H,0,-1.4098063267,1.6307356171,2.191
 4484076\H,0,-2.0750291048,0.7649727846,3.5980666819\C,0,-1.0291724538,
 -2.9009135457,-2.5911838012\H,0,-0.2104030406,-2.7681979158,-1.8594400
 762\H,0,-0.9546488819,-3.9305737454,-2.9786862436\H,0,-0.8618017032,-2
 .2029585461,-3.4315864143\C,0,0.827159271,0.0125888253,3.6706985084\H,
 0,0.0846507212,-0.4498757219,2.9942534961\H,0,0.6164211155,1.096079891
 2,3.7269851044\H,0,0.6696262428,-0.4192506571,4.6732634571\C,0,1.58492
 11156,-0.4871442776,-3.0151377793\H,0,1.7858493607,-1.5717449351,-3.02
 46408209\H,0,0.6053579726,-0.3386115978,-2.5297180794\H,0,1.4958736975
 ,-0.1440971132,-4.0599542715\C,0,-1.7715869593,1.9591492453,-0.8337578
 292\H,0,-2.8231534053,1.7438429813,-1.0484062513\C,0,-1.2714914874,3.2
 474161869,-1.062838569\H,0,-1.9350396154,4.0282335453,-1.4475645406\C,
 0,0.0744866713,3.5362796905,-0.7957720142\H,0,0.464391254,4.5448858844
 ,-0.9651342607\C,0,0.927605288,2.5268434768,-0.3310766894\H,0,1.983559
 9839,2.7525848275,-0.1479358594\Cl,0,2.2950062348,-3.1971439245,1.0652
 071543\Pd,0,0.2527061805,-2.0068064972,0.635359959\\Version=ES64L-G09R
 evE.01\State=1-A\HF=-2590.0395706\RMSD=2.525e-09\Dipole=-0.7576309,4.5
 246013,-1.3756204\Quadrupole=10.991735,-12.2471365,1.2554015,4.8953699
 ,0.8374842,5.1377198\PG=C01 [X(C22H36Cl2P2Pd1)]\\@


 A ROPE OVER THE TOP OF A FENCE HAS THE SAME LENGTH ON EACH SIDE.
 WEIGHS 1/3 POUND PER FOOT.  ON ONE END HANGS A MONKEY HOLDING A
 BANANA, AND ON THE OTHER END A WEIGHT EQUAL TO THE WEIGHT
 OF THE MONKEY.  THE BANANA WEIGHS TWO OUNCES PER INCH.
 THE ROPE IS AS LONG AS THE AGE OF THE MONKEY, 
 AND THE WEIGHT OF THE MONKEY (IN OUNCES) IS AS MUCH
 AS THE AGE OF THE MONKEY'S MOTHER.  THE COMBINED AGES OF MONKEY
 AND MOTHER ARE THIRTY YEARS.  HALF THE WEIGHT OF THE MONKEY,
  PLUS THE WEIGHT OF THE BANANA, IS ONE FOURTH AS MUCH AS THE WEIGHT
 OF THE WEIGHT AND THE ROPE.
 THE MONKEY'S MOTHER IS HALF AS OLD AS THE MONKEY WILL BE
 WHEN IT IS 3 TIMES AS OLD AS ITS MOTHER WAS WHEN
 SHE WAS HALF AS OLD AS THE MONKEY WILL BE WHEN IT IS
 AS OLD AS ITS MOTHER WILL BE WHEN SHE IS 4 TIMES AS
 OLD AS THE MONKEY WAS WHEN IT WAS TWICE AS OLD AS 
 ITS MOTHER WAS WHEN SHE WAS ONE THIRD AS OLD AS THE
 MONKEY WAS WHEN IT WAS AS OLD AS ITS MOTHER WAS WHEN 
 SHE WAS 3 TIMES AS OLD AS THE MONKEY WAS WHEN IT WAS AS OLD AS ITS
 MOTHER WAS WHEN SHE WAS 3 TIMES AS OLD AS THE MONKEY 
 WAS WHEN IT WAS ONE FOURTH WAS OLD AS IT IS NOW.

 HOW LONG IS THE BANANA?
 Job cpu time:       0 days  1 hours  3 minutes 19.8 seconds.
 File lengths (MBytes):  RWF=    602 Int=      0 D2E=      0 Chk=     96 Scr=      1
 Normal termination of Gaussian 09 at Sun Dec  5 10:06:50 2021.
