 Entering Gaussian System, Link 0=g09
 Input=SS_Et_DuPhos_1.com
 Output=SS_Et_DuPhos_1.log
 Initial command:
 /gstore/apps/gaussian/g09.e01-foss-2017a/g09/l1.exe "/local/21251412/Gau-30012.inp" -scrdir="/local/21251412/"
 Entering Link 1 = /gstore/apps/gaussian/g09.e01-foss-2017a/g09/l1.exe PID=     30013.
  
 Copyright (c) 1988,1990,1992,1993,1995,1998,2003,2009,2015,
            Gaussian, Inc.  All Rights Reserved.
  
 This is part of the Gaussian(R) 09 program.  It is based on
 the Gaussian(R) 03 system (copyright 2003, Gaussian, Inc.),
 the Gaussian(R) 98 system (copyright 1998, Gaussian, Inc.),
 the Gaussian(R) 94 system (copyright 1995, Gaussian, Inc.),
 the Gaussian 92(TM) system (copyright 1992, Gaussian, Inc.),
 the Gaussian 90(TM) system (copyright 1990, Gaussian, Inc.),
 the Gaussian 88(TM) system (copyright 1988, Gaussian, Inc.),
 the Gaussian 86(TM) system (copyright 1986, Carnegie Mellon
 University), and the Gaussian 82(TM) system (copyright 1983,
 Carnegie Mellon University). Gaussian is a federally registered
 trademark of Gaussian, Inc.
  
 This software contains proprietary and confidential information,
 including trade secrets, belonging to Gaussian, Inc.
  
 This software is provided under written license and may be
 used, copied, transmitted, or stored only in accord with that
 written license.
  
 The following legend is applicable only to US Government
 contracts under FAR:
  
                    RESTRICTED RIGHTS LEGEND
  
 Use, reproduction and disclosure by the US Government is
 subject to restrictions as set forth in subparagraphs (a)
 and (c) of the Commercial Computer Software - Restricted
 Rights clause in FAR 52.227-19.
  
 Gaussian, Inc.
 340 Quinnipiac St., Bldg. 40, Wallingford CT 06492
  
  
 ---------------------------------------------------------------
 Warning -- This program may not be used in any manner that
 competes with the business of Gaussian, Inc. or will provide
 assistance to any competitor of Gaussian, Inc.  The licensee
 of this program is prohibited from giving any competitor of
 Gaussian, Inc. access to this program.  By using this program,
 the user acknowledges that Gaussian, Inc. is engaged in the
 business of creating and licensing software in the field of
 computational chemistry and represents and warrants to the
 licensee that it is not a competitor of Gaussian, Inc. and that
 it will not use this program in any manner prohibited above.
 ---------------------------------------------------------------
  

 Cite this work as:
 Gaussian 09, Revision E.01,
 M. J. Frisch, G. W. Trucks, H. B. Schlegel, G. E. Scuseria, 
 M. A. Robb, J. R. Cheeseman, G. Scalmani, V. Barone, B. Mennucci, 
 G. A. Petersson, H. Nakatsuji, M. Caricato, X. Li, H. P. Hratchian, 
 A. F. Izmaylov, J. Bloino, G. Zheng, J. L. Sonnenberg, M. Hada, 
 M. Ehara, K. Toyota, R. Fukuda, J. Hasegawa, M. Ishida, T. Nakajima, 
 Y. Honda, O. Kitao, H. Nakai, T. Vreven, J. A. Montgomery, Jr., 
 J. E. Peralta, F. Ogliaro, M. Bearpark, J. J. Heyd, E. Brothers, 
 K. N. Kudin, V. N. Staroverov, T. Keith, R. Kobayashi, J. Normand, 
 K. Raghavachari, A. Rendell, J. C. Burant, S. S. Iyengar, J. Tomasi, 
 M. Cossi, N. Rega, J. M. Millam, M. Klene, J. E. Knox, J. B. Cross, 
 V. Bakken, C. Adamo, J. Jaramillo, R. Gomperts, R. E. Stratmann, 
 O. Yazyev, A. J. Austin, R. Cammi, C. Pomelli, J. W. Ochterski, 
 R. L. Martin, K. Morokuma, V. G. Zakrzewski, G. A. Voth, 
 P. Salvador, J. J. Dannenberg, S. Dapprich, A. D. Daniels, 
 O. Farkas, J. B. Foresman, J. V. Ortiz, J. Cioslowski, 
 and D. J. Fox, Gaussian, Inc., Wallingford CT, 2013.
 
 ******************************************
 Gaussian 09:  ES64L-G09RevE.01 30-Nov-2015
                16-Nov-2021 
 ******************************************
 %nprocs=14
 Will use up to   14 processors via shared memory.
 %mem=128GB
 %chk=SS_Et_DuPhos_1.chk
 ----------------------------------------------------------------------
 # PBEPBE gen 6D pseudo=read scf=maxcycles=500 denfit int=(grid=ultrafi
 ne) empiricaldispersion=GD3BJ opt freq=noraman
 ----------------------------------------------------------------------
 1/14=-1,18=20,19=15,26=4,38=1/1,3;
 2/9=110,12=2,17=6,18=5,40=1/2;
 3/5=7,8=2,11=2,16=1,17=8,25=1,30=1,71=1,74=1009,75=-5,82=47,124=41/1,2,3;
 4//1;
 5/5=2,7=500,38=5/2;
 6/7=2,8=2,9=2,10=2,28=1/1;
 7//1,2,3,16;
 1/14=-1,18=20,19=15,26=4/3(2);
 2/9=110/2;
 99//99;
 2/9=110/2;
 3/5=7,6=1,8=2,11=2,16=1,17=8,25=1,30=1,71=1,74=1009,75=-5,82=7,124=41/1,2,3;
 4/5=5,16=3,69=1/1;
 5/5=2,7=500,38=5/2;
 7//1,2,3,16;
 1/14=-1,18=20,19=15,26=4/3(-5);
 2/9=110/2;
 6/7=2,8=2,9=2,10=2,19=2,28=1/1;
 99/9=1/99;
 ------------
 SS_Et_DuPhos
 ------------
 Symbolic Z-matrix:
 Charge =  0 Multiplicity = 1
 Cl                   -1.0762   -3.9725    1.147 
 P                    -1.5802   -0.7486    0.087 
 P                     1.5617   -0.1412    0.3288 
 C                    -0.963     0.9833   -0.3238 
 C                     0.4216    1.255    -0.1791 
 C                    -3.0046   -0.8015    1.2388 
 H                    -3.1691   -1.8526    1.4811 
 C                    -2.5063   -1.2      -1.433 
 H                    -2.2068   -0.5396   -2.2483 
 C                     2.4915    0.5       1.7744 
 H                     2.2612    1.5594    1.8929 
 C                     2.953    -0.2799   -0.8622 
 H                     3.25     -1.3292   -0.8964 
 C                    -4.1748   -0.366     0.3518 
 H                    -5.125    -0.6936    0.7752 
 H                    -4.2298    0.7198    0.316 
 C                    -3.9906   -0.9283   -1.0763 
 H                    -4.4408   -0.2541   -1.8058 
 H                    -4.5597   -1.8561   -1.1486 
 C                     3.9603    0.3562    1.3439 
 H                     4.5966    1.0706    1.8672 
 H                     4.3223   -0.6376    1.6122 
 C                     4.0768    0.5147   -0.1818 
 H                     5.0563    0.1935   -0.5378 
 H                     3.9858    1.5716   -0.4335 
 C                    -2.8831   -0.0528    2.585 
 H                    -3.8462   -0.11      3.0934 
 H                    -2.1929   -0.5986    3.2275 
 C                    -2.2909   -2.6626   -1.8697 
 H                    -2.9612   -2.8862   -2.7006 
 H                    -2.5939   -3.3311   -1.0644 
 C                     2.1758   -0.2233    3.0967 
 H                     2.7655    0.2288    3.895 
 H                     2.5034   -1.2609    3.0408 
 C                     2.6524    0.1846   -2.3003 
 H                     2.4347    1.2521   -2.3142 
 H                     3.5525    0.0606   -2.9033 
 C                    -2.4466    1.4186    2.5385 
 H                    -3.0866    2.0122    1.8867 
 H                    -1.42      1.5284    2.1955 
 H                    -2.4946    1.8621    3.533 
 C                    -0.862    -3.0044   -2.3067 
 H                    -0.5945   -2.4531   -3.2075 
 H                    -0.7752   -4.0664   -2.538 
 H                    -0.1263   -2.7777   -1.5382 
 C                     0.6975   -0.1931    3.4957 
 H                     0.0733   -0.6918    2.7574 
 H                     0.3439    0.8322    3.6026 
 H                     0.5424   -0.6973    4.4498 
 C                     1.5013   -0.565    -2.9777 
 H                     1.3721   -0.2274   -4.006 
 H                     1.6963   -1.637    -3.0021 
 H                     0.5561   -0.3995   -2.4621 
 C                    -1.8197    2.0069   -0.7819 
 H                    -2.8682    1.8146   -0.936 
 C                    -1.3217    3.2962   -1.0457 
 H                    -1.9891    4.0733   -1.3883 
 C                     0.0443    3.5726   -0.8606 
 H                     0.4287    4.5623   -1.0592 
 C                     0.9121    2.5525   -0.4315 
 H                     1.9627    2.7663   -0.3094 
 Cl                    2.2005   -3.3576    1.2085 
 Pd                    0.283    -2.1316    0.7053 
 

 GradGradGradGradGradGradGradGradGradGradGradGradGradGradGradGradGradGrad
 Berny optimization.
 Initialization pass.
                           ----------------------------
                           !    Initial Parameters    !
                           ! (Angstroms and Degrees)  !
 --------------------------                            --------------------------
 ! Name  Definition              Value          Derivative Info.                !
 --------------------------------------------------------------------------------
 ! R1    R(1,63)                 2.3305         estimate D2E/DX2                !
 ! R2    R(2,4)                  1.8839         estimate D2E/DX2                !
 ! R3    R(2,6)                  1.8326         estimate D2E/DX2                !
 ! R4    R(2,8)                  1.8363         estimate D2E/DX2                !
 ! R5    R(2,63)                 2.4014         estimate D2E/DX2                !
 ! R6    R(3,5)                  1.8727         estimate D2E/DX2                !
 ! R7    R(3,10)                 1.8345         estimate D2E/DX2                !
 ! R8    R(3,12)                 1.8367         estimate D2E/DX2                !
 ! R9    R(3,63)                 2.3955         estimate D2E/DX2                !
 ! R10   R(4,5)                  1.4184         estimate D2E/DX2                !
 ! R11   R(4,54)                 1.4112         estimate D2E/DX2                !
 ! R12   R(5,60)                 1.4099         estimate D2E/DX2                !
 ! R13   R(6,7)                  1.0911         estimate D2E/DX2                !
 ! R14   R(6,14)                 1.5316         estimate D2E/DX2                !
 ! R15   R(6,26)                 1.5452         estimate D2E/DX2                !
 ! R16   R(8,9)                  1.0911         estimate D2E/DX2                !
 ! R17   R(8,17)                 1.5505         estimate D2E/DX2                !
 ! R18   R(8,29)                 1.5415         estimate D2E/DX2                !
 ! R19   R(10,11)                1.0906         estimate D2E/DX2                !
 ! R20   R(10,20)                1.5373         estimate D2E/DX2                !
 ! R21   R(10,32)                1.5399         estimate D2E/DX2                !
 ! R22   R(12,13)                1.0911         estimate D2E/DX2                !
 ! R23   R(12,23)                1.5353         estimate D2E/DX2                !
 ! R24   R(12,35)                1.5409         estimate D2E/DX2                !
 ! R25   R(14,15)                1.0906         estimate D2E/DX2                !
 ! R26   R(14,16)                1.0878         estimate D2E/DX2                !
 ! R27   R(14,17)                1.5458         estimate D2E/DX2                !
 ! R28   R(17,18)                1.0906         estimate D2E/DX2                !
 ! R29   R(17,19)                1.0908         estimate D2E/DX2                !
 ! R30   R(20,21)                1.0905         estimate D2E/DX2                !
 ! R31   R(20,22)                1.0912         estimate D2E/DX2                !
 ! R32   R(20,23)                1.5383         estimate D2E/DX2                !
 ! R33   R(23,24)                1.0906         estimate D2E/DX2                !
 ! R34   R(23,25)                1.0903         estimate D2E/DX2                !
 ! R35   R(26,27)                1.0906         estimate D2E/DX2                !
 ! R36   R(26,28)                1.0895         estimate D2E/DX2                !
 ! R37   R(26,38)                1.5355         estimate D2E/DX2                !
 ! R38   R(29,30)                1.0907         estimate D2E/DX2                !
 ! R39   R(29,31)                1.0896         estimate D2E/DX2                !
 ! R40   R(29,42)                1.5328         estimate D2E/DX2                !
 ! R41   R(32,33)                1.0906         estimate D2E/DX2                !
 ! R42   R(32,34)                1.0895         estimate D2E/DX2                !
 ! R43   R(32,46)                1.5315         estimate D2E/DX2                !
 ! R44   R(35,36)                1.0896         estimate D2E/DX2                !
 ! R45   R(35,37)                1.0905         estimate D2E/DX2                !
 ! R46   R(35,50)                1.5316         estimate D2E/DX2                !
 ! R47   R(38,39)                1.0894         estimate D2E/DX2                !
 ! R48   R(38,40)                1.0879         estimate D2E/DX2                !
 ! R49   R(38,41)                1.09           estimate D2E/DX2                !
 ! R50   R(42,43)                1.0895         estimate D2E/DX2                !
 ! R51   R(42,44)                1.0904         estimate D2E/DX2                !
 ! R52   R(42,45)                1.0878         estimate D2E/DX2                !
 ! R53   R(46,47)                1.0878         estimate D2E/DX2                !
 ! R54   R(46,48)                1.0898         estimate D2E/DX2                !
 ! R55   R(46,49)                1.0902         estimate D2E/DX2                !
 ! R56   R(50,51)                1.09           estimate D2E/DX2                !
 ! R57   R(50,52)                1.0899         estimate D2E/DX2                !
 ! R58   R(50,53)                1.0893         estimate D2E/DX2                !
 ! R59   R(54,55)                1.0771         estimate D2E/DX2                !
 ! R60   R(54,56)                1.4071         estimate D2E/DX2                !
 ! R61   R(56,57)                1.0801         estimate D2E/DX2                !
 ! R62   R(56,58)                1.4059         estimate D2E/DX2                !
 ! R63   R(58,59)                1.0801         estimate D2E/DX2                !
 ! R64   R(58,60)                1.4063         estimate D2E/DX2                !
 ! R65   R(60,61)                1.0791         estimate D2E/DX2                !
 ! R66   R(62,63)                2.3309         estimate D2E/DX2                !
 ! A1    A(4,2,6)              114.7229         estimate D2E/DX2                !
 ! A2    A(4,2,8)              102.1645         estimate D2E/DX2                !
 ! A3    A(4,2,63)             109.3538         estimate D2E/DX2                !
 ! A4    A(6,2,8)               96.9592         estimate D2E/DX2                !
 ! A5    A(6,2,63)             115.1267         estimate D2E/DX2                !
 ! A6    A(8,2,63)             117.5727         estimate D2E/DX2                !
 ! A7    A(5,3,10)             105.1702         estimate D2E/DX2                !
 ! A8    A(5,3,12)             109.974          estimate D2E/DX2                !
 ! A9    A(5,3,63)             109.7014         estimate D2E/DX2                !
 ! A10   A(10,3,12)             98.8265         estimate D2E/DX2                !
 ! A11   A(10,3,63)            115.9194         estimate D2E/DX2                !
 ! A12   A(12,3,63)            116.3285         estimate D2E/DX2                !
 ! A13   A(2,4,5)              118.2719         estimate D2E/DX2                !
 ! A14   A(2,4,54)             122.5951         estimate D2E/DX2                !
 ! A15   A(5,4,54)             119.1285         estimate D2E/DX2                !
 ! A16   A(3,5,4)              118.6289         estimate D2E/DX2                !
 ! A17   A(3,5,60)             121.5243         estimate D2E/DX2                !
 ! A18   A(4,5,60)             119.8431         estimate D2E/DX2                !
 ! A19   A(2,6,7)              106.5323         estimate D2E/DX2                !
 ! A20   A(2,6,14)             102.8065         estimate D2E/DX2                !
 ! A21   A(2,6,26)             118.1949         estimate D2E/DX2                !
 ! A22   A(7,6,14)             106.698          estimate D2E/DX2                !
 ! A23   A(7,6,26)             106.5678         estimate D2E/DX2                !
 ! A24   A(14,6,26)            115.2684         estimate D2E/DX2                !
 ! A25   A(2,8,9)              109.3477         estimate D2E/DX2                !
 ! A26   A(2,8,17)             104.4356         estimate D2E/DX2                !
 ! A27   A(2,8,29)             113.4075         estimate D2E/DX2                !
 ! A28   A(9,8,17)             109.1837         estimate D2E/DX2                !
 ! A29   A(9,8,29)             108.9188         estimate D2E/DX2                !
 ! A30   A(17,8,29)            111.4192         estimate D2E/DX2                !
 ! A31   A(3,10,11)            108.549          estimate D2E/DX2                !
 ! A32   A(3,10,20)            103.3492         estimate D2E/DX2                !
 ! A33   A(3,10,32)            114.1151         estimate D2E/DX2                !
 ! A34   A(11,10,20)           108.8472         estimate D2E/DX2                !
 ! A35   A(11,10,32)           108.6432         estimate D2E/DX2                !
 ! A36   A(20,10,32)           113.1038         estimate D2E/DX2                !
 ! A37   A(3,12,13)            107.4068         estimate D2E/DX2                !
 ! A38   A(3,12,23)            103.18           estimate D2E/DX2                !
 ! A39   A(3,12,35)            115.7637         estimate D2E/DX2                !
 ! A40   A(13,12,23)           108.2025         estimate D2E/DX2                !
 ! A41   A(13,12,35)           108.2864         estimate D2E/DX2                !
 ! A42   A(23,12,35)           113.6022         estimate D2E/DX2                !
 ! A43   A(6,14,15)            110.8193         estimate D2E/DX2                !
 ! A44   A(6,14,16)            109.9693         estimate D2E/DX2                !
 ! A45   A(6,14,17)            109.9106         estimate D2E/DX2                !
 ! A46   A(15,14,16)           105.5783         estimate D2E/DX2                !
 ! A47   A(15,14,17)           110.6834         estimate D2E/DX2                !
 ! A48   A(16,14,17)           109.7984         estimate D2E/DX2                !
 ! A49   A(8,17,14)            112.9754         estimate D2E/DX2                !
 ! A50   A(8,17,18)            110.4635         estimate D2E/DX2                !
 ! A51   A(8,17,19)            109.5807         estimate D2E/DX2                !
 ! A52   A(14,17,18)           110.1146         estimate D2E/DX2                !
 ! A53   A(14,17,19)           107.966          estimate D2E/DX2                !
 ! A54   A(18,17,19)           105.4325         estimate D2E/DX2                !
 ! A55   A(10,20,21)           111.2133         estimate D2E/DX2                !
 ! A56   A(10,20,22)           109.4692         estimate D2E/DX2                !
 ! A57   A(10,20,23)           109.9043         estimate D2E/DX2                !
 ! A58   A(21,20,22)           106.5646         estimate D2E/DX2                !
 ! A59   A(21,20,23)           111.3621         estimate D2E/DX2                !
 ! A60   A(22,20,23)           108.2146         estimate D2E/DX2                !
 ! A61   A(12,23,20)           109.3152         estimate D2E/DX2                !
 ! A62   A(12,23,24)           111.1199         estimate D2E/DX2                !
 ! A63   A(12,23,25)           109.7735         estimate D2E/DX2                !
 ! A64   A(20,23,24)           111.1881         estimate D2E/DX2                !
 ! A65   A(20,23,25)           108.8158         estimate D2E/DX2                !
 ! A66   A(24,23,25)           106.5659         estimate D2E/DX2                !
 ! A67   A(6,26,27)            108.1374         estimate D2E/DX2                !
 ! A68   A(6,26,28)            108.7142         estimate D2E/DX2                !
 ! A69   A(6,26,38)            117.4056         estimate D2E/DX2                !
 ! A70   A(27,26,28)           104.967          estimate D2E/DX2                !
 ! A71   A(27,26,38)           108.3869         estimate D2E/DX2                !
 ! A72   A(28,26,38)           108.5309         estimate D2E/DX2                !
 ! A73   A(8,29,30)            108.9316         estimate D2E/DX2                !
 ! A74   A(8,29,31)            109.5049         estimate D2E/DX2                !
 ! A75   A(8,29,42)            114.9984         estimate D2E/DX2                !
 ! A76   A(30,29,31)           105.4473         estimate D2E/DX2                !
 ! A77   A(30,29,42)           108.0583         estimate D2E/DX2                !
 ! A78   A(31,29,42)           109.4589         estimate D2E/DX2                !
 ! A79   A(10,32,33)           108.8431         estimate D2E/DX2                !
 ! A80   A(10,32,34)           109.9756         estimate D2E/DX2                !
 ! A81   A(10,32,46)           114.3521         estimate D2E/DX2                !
 ! A82   A(33,32,34)           105.6499         estimate D2E/DX2                !
 ! A83   A(33,32,46)           108.8475         estimate D2E/DX2                !
 ! A84   A(34,32,46)           108.8072         estimate D2E/DX2                !
 ! A85   A(12,35,36)           110.2573         estimate D2E/DX2                !
 ! A86   A(12,35,37)           108.7102         estimate D2E/DX2                !
 ! A87   A(12,35,50)           114.3222         estimate D2E/DX2                !
 ! A88   A(36,35,37)           105.6211         estimate D2E/DX2                !
 ! A89   A(36,35,50)           108.8871         estimate D2E/DX2                !
 ! A90   A(37,35,50)           108.6709         estimate D2E/DX2                !
 ! A91   A(26,38,39)           111.9166         estimate D2E/DX2                !
 ! A92   A(26,38,40)           111.9939         estimate D2E/DX2                !
 ! A93   A(26,38,41)           110.4727         estimate D2E/DX2                !
 ! A94   A(39,38,40)           108.1032         estimate D2E/DX2                !
 ! A95   A(39,38,41)           107.3569         estimate D2E/DX2                !
 ! A96   A(40,38,41)           106.7473         estimate D2E/DX2                !
 ! A97   A(29,42,43)           110.5958         estimate D2E/DX2                !
 ! A98   A(29,42,44)           110.6021         estimate D2E/DX2                !
 ! A99   A(29,42,45)           112.4945         estimate D2E/DX2                !
 ! A100  A(43,42,44)           107.333          estimate D2E/DX2                !
 ! A101  A(43,42,45)           108.2174         estimate D2E/DX2                !
 ! A102  A(44,42,45)           107.3986         estimate D2E/DX2                !
 ! A103  A(32,46,47)           111.5927         estimate D2E/DX2                !
 ! A104  A(32,46,48)           110.9342         estimate D2E/DX2                !
 ! A105  A(32,46,49)           110.8673         estimate D2E/DX2                !
 ! A106  A(47,46,48)           108.161          estimate D2E/DX2                !
 ! A107  A(47,46,49)           107.4756         estimate D2E/DX2                !
 ! A108  A(48,46,49)           107.6436         estimate D2E/DX2                !
 ! A109  A(35,50,51)           110.7781         estimate D2E/DX2                !
 ! A110  A(35,50,52)           110.9057         estimate D2E/DX2                !
 ! A111  A(35,50,53)           111.6188         estimate D2E/DX2                !
 ! A112  A(51,50,52)           107.7425         estimate D2E/DX2                !
 ! A113  A(51,50,53)           107.255          estimate D2E/DX2                !
 ! A114  A(52,50,53)           108.3779         estimate D2E/DX2                !
 ! A115  A(4,54,55)            120.5243         estimate D2E/DX2                !
 ! A116  A(4,54,56)            120.705          estimate D2E/DX2                !
 ! A117  A(55,54,56)           118.7708         estimate D2E/DX2                !
 ! A118  A(54,56,57)           120.0004         estimate D2E/DX2                !
 ! A119  A(54,56,58)           119.9557         estimate D2E/DX2                !
 ! A120  A(57,56,58)           120.0437         estimate D2E/DX2                !
 ! A121  A(56,58,59)           120.1126         estimate D2E/DX2                !
 ! A122  A(56,58,60)           119.8088         estimate D2E/DX2                !
 ! A123  A(59,58,60)           120.0742         estimate D2E/DX2                !
 ! A124  A(5,60,58)            120.4961         estimate D2E/DX2                !
 ! A125  A(5,60,61)            120.0532         estimate D2E/DX2                !
 ! A126  A(58,60,61)           119.4452         estimate D2E/DX2                !
 ! A127  A(1,63,2)              92.9355         estimate D2E/DX2                !
 ! A128  A(1,63,62)             91.3403         estimate D2E/DX2                !
 ! A129  A(2,63,3)              83.9826         estimate D2E/DX2                !
 ! A130  A(3,63,62)             91.8245         estimate D2E/DX2                !
 ! A131  L(1,63,3,62,-1)       183.1648         estimate D2E/DX2                !
 ! A132  L(2,63,62,3,-1)       175.8071         estimate D2E/DX2                !
 ! A133  L(1,63,3,62,-2)       182.6388         estimate D2E/DX2                !
 ! A134  L(2,63,62,3,-2)       181.869          estimate D2E/DX2                !
 ! D1    D(6,2,4,5)            128.8716         estimate D2E/DX2                !
 ! D2    D(6,2,4,54)           -51.9014         estimate D2E/DX2                !
 ! D3    D(8,2,4,5)           -127.4953         estimate D2E/DX2                !
 ! D4    D(8,2,4,54)            51.7316         estimate D2E/DX2                !
 ! D5    D(63,2,4,5)            -2.2147         estimate D2E/DX2                !
 ! D6    D(63,2,4,54)          177.0122         estimate D2E/DX2                !
 ! D7    D(4,2,6,7)           -173.0413         estimate D2E/DX2                !
 ! D8    D(4,2,6,14)            74.9445         estimate D2E/DX2                !
 ! D9    D(4,2,6,26)           -53.2651         estimate D2E/DX2                !
 ! D10   D(8,2,6,7)             80.1064         estimate D2E/DX2                !
 ! D11   D(8,2,6,14)           -31.9077         estimate D2E/DX2                !
 ! D12   D(8,2,6,26)          -160.1173         estimate D2E/DX2                !
 ! D13   D(63,2,6,7)           -44.804          estimate D2E/DX2                !
 ! D14   D(63,2,6,14)         -156.8182         estimate D2E/DX2                !
 ! D15   D(63,2,6,26)           74.9722         estimate D2E/DX2                !
 ! D16   D(4,2,8,9)             17.6175         estimate D2E/DX2                !
 ! D17   D(4,2,8,17)           -99.1267         estimate D2E/DX2                !
 ! D18   D(4,2,8,29)           139.3836         estimate D2E/DX2                !
 ! D19   D(6,2,8,9)            134.832          estimate D2E/DX2                !
 ! D20   D(6,2,8,17)            18.0878         estimate D2E/DX2                !
 ! D21   D(6,2,8,29)          -103.4019         estimate D2E/DX2                !
 ! D22   D(63,2,8,9)          -102.053          estimate D2E/DX2                !
 ! D23   D(63,2,8,17)          141.2028         estimate D2E/DX2                !
 ! D24   D(63,2,8,29)           19.7131         estimate D2E/DX2                !
 ! D25   D(4,2,63,1)           177.8421         estimate D2E/DX2                !
 ! D26   D(4,2,63,3)             0.5856         estimate D2E/DX2                !
 ! D27   D(6,2,63,1)            46.9718         estimate D2E/DX2                !
 ! D28   D(6,2,63,3)          -130.2847         estimate D2E/DX2                !
 ! D29   D(8,2,63,1)           -66.3489         estimate D2E/DX2                !
 ! D30   D(8,2,63,3)           116.3946         estimate D2E/DX2                !
 ! D31   D(10,3,5,4)          -127.5854         estimate D2E/DX2                !
 ! D32   D(10,3,5,60)           53.1201         estimate D2E/DX2                !
 ! D33   D(12,3,5,4)           126.8869         estimate D2E/DX2                !
 ! D34   D(12,3,5,60)          -52.4076         estimate D2E/DX2                !
 ! D35   D(63,3,5,4)            -2.2659         estimate D2E/DX2                !
 ! D36   D(63,3,5,60)          178.4396         estimate D2E/DX2                !
 ! D37   D(5,3,10,11)           -7.8026         estimate D2E/DX2                !
 ! D38   D(5,3,10,20)         -123.2595         estimate D2E/DX2                !
 ! D39   D(5,3,10,32)          113.5051         estimate D2E/DX2                !
 ! D40   D(12,3,10,11)         105.7926         estimate D2E/DX2                !
 ! D41   D(12,3,10,20)          -9.6644         estimate D2E/DX2                !
 ! D42   D(12,3,10,32)        -132.8998         estimate D2E/DX2                !
 ! D43   D(63,3,10,11)        -129.1432         estimate D2E/DX2                !
 ! D44   D(63,3,10,20)         115.3999         estimate D2E/DX2                !
 ! D45   D(63,3,10,32)          -7.8355         estimate D2E/DX2                !
 ! D46   D(5,3,12,13)         -149.4141         estimate D2E/DX2                !
 ! D47   D(5,3,12,23)           96.4035         estimate D2E/DX2                !
 ! D48   D(5,3,12,35)          -28.3209         estimate D2E/DX2                !
 ! D49   D(10,3,12,13)         100.818          estimate D2E/DX2                !
 ! D50   D(10,3,12,23)         -13.3644         estimate D2E/DX2                !
 ! D51   D(10,3,12,35)        -138.0888         estimate D2E/DX2                !
 ! D52   D(63,3,12,13)         -23.959          estimate D2E/DX2                !
 ! D53   D(63,3,12,23)        -138.1413         estimate D2E/DX2                !
 ! D54   D(63,3,12,35)          97.1343         estimate D2E/DX2                !
 ! D55   D(5,3,63,2)             0.6304         estimate D2E/DX2                !
 ! D56   D(5,3,63,62)          178.7614         estimate D2E/DX2                !
 ! D57   D(10,3,63,2)          119.5164         estimate D2E/DX2                !
 ! D58   D(10,3,63,62)         -62.3526         estimate D2E/DX2                !
 ! D59   D(12,3,63,2)         -124.9626         estimate D2E/DX2                !
 ! D60   D(12,3,63,62)          53.1684         estimate D2E/DX2                !
 ! D61   D(2,4,5,3)              2.9493         estimate D2E/DX2                !
 ! D62   D(2,4,5,60)          -177.744          estimate D2E/DX2                !
 ! D63   D(54,4,5,3)          -176.3051         estimate D2E/DX2                !
 ! D64   D(54,4,5,60)            3.0016         estimate D2E/DX2                !
 ! D65   D(2,4,54,55)           -1.5736         estimate D2E/DX2                !
 ! D66   D(2,4,54,56)          178.4242         estimate D2E/DX2                !
 ! D67   D(5,4,54,55)          177.647          estimate D2E/DX2                !
 ! D68   D(5,4,54,56)           -2.3552         estimate D2E/DX2                !
 ! D69   D(3,5,60,58)          177.586          estimate D2E/DX2                !
 ! D70   D(3,5,60,61)           -1.5514         estimate D2E/DX2                !
 ! D71   D(4,5,60,58)           -1.7001         estimate D2E/DX2                !
 ! D72   D(4,5,60,61)          179.1625         estimate D2E/DX2                !
 ! D73   D(2,6,14,15)          159.0273         estimate D2E/DX2                !
 ! D74   D(2,6,14,16)          -84.622          estimate D2E/DX2                !
 ! D75   D(2,6,14,17)           36.3689         estimate D2E/DX2                !
 ! D76   D(7,6,14,15)           47.1358         estimate D2E/DX2                !
 ! D77   D(7,6,14,16)          163.4864         estimate D2E/DX2                !
 ! D78   D(7,6,14,17)          -75.5227         estimate D2E/DX2                !
 ! D79   D(26,6,14,15)         -70.9502         estimate D2E/DX2                !
 ! D80   D(26,6,14,16)          45.4004         estimate D2E/DX2                !
 ! D81   D(26,6,14,17)         166.3913         estimate D2E/DX2                !
 ! D82   D(2,6,26,27)          174.6198         estimate D2E/DX2                !
 ! D83   D(2,6,26,28)          -71.9331         estimate D2E/DX2                !
 ! D84   D(2,6,26,38)           51.6823         estimate D2E/DX2                !
 ! D85   D(7,6,26,27)          -65.6224         estimate D2E/DX2                !
 ! D86   D(7,6,26,28)           47.8248         estimate D2E/DX2                !
 ! D87   D(7,6,26,38)          171.4401         estimate D2E/DX2                !
 ! D88   D(14,6,26,27)          52.5364         estimate D2E/DX2                !
 ! D89   D(14,6,26,28)         165.9835         estimate D2E/DX2                !
 ! D90   D(14,6,26,38)         -70.4011         estimate D2E/DX2                !
 ! D91   D(2,8,17,14)            1.3401         estimate D2E/DX2                !
 ! D92   D(2,8,17,18)          125.1816         estimate D2E/DX2                !
 ! D93   D(2,8,17,19)         -119.0843         estimate D2E/DX2                !
 ! D94   D(9,8,17,14)         -115.5176         estimate D2E/DX2                !
 ! D95   D(9,8,17,18)            8.324          estimate D2E/DX2                !
 ! D96   D(9,8,17,19)          124.058          estimate D2E/DX2                !
 ! D97   D(29,8,17,14)         124.1351         estimate D2E/DX2                !
 ! D98   D(29,8,17,18)        -112.0234         estimate D2E/DX2                !
 ! D99   D(29,8,17,19)           3.7106         estimate D2E/DX2                !
 ! D100  D(2,8,29,30)          173.241          estimate D2E/DX2                !
 ! D101  D(2,8,29,31)           58.3926         estimate D2E/DX2                !
 ! D102  D(2,8,29,42)          -65.3252         estimate D2E/DX2                !
 ! D103  D(9,8,29,30)          -64.7536         estimate D2E/DX2                !
 ! D104  D(9,8,29,31)         -179.6021         estimate D2E/DX2                !
 ! D105  D(9,8,29,42)           56.6801         estimate D2E/DX2                !
 ! D106  D(17,8,29,30)          55.7496         estimate D2E/DX2                !
 ! D107  D(17,8,29,31)         -59.0989         estimate D2E/DX2                !
 ! D108  D(17,8,29,42)         177.1833         estimate D2E/DX2                !
 ! D109  D(3,10,20,21)         154.5966         estimate D2E/DX2                !
 ! D110  D(3,10,20,22)         -87.9144         estimate D2E/DX2                !
 ! D111  D(3,10,20,23)          30.8101         estimate D2E/DX2                !
 ! D112  D(11,10,20,21)         39.3527         estimate D2E/DX2                !
 ! D113  D(11,10,20,22)        156.8417         estimate D2E/DX2                !
 ! D114  D(11,10,20,23)        -84.4338         estimate D2E/DX2                !
 ! D115  D(32,10,20,21)        -81.502          estimate D2E/DX2                !
 ! D116  D(32,10,20,22)         35.9871         estimate D2E/DX2                !
 ! D117  D(32,10,20,23)        154.7115         estimate D2E/DX2                !
 ! D118  D(3,10,32,33)        -179.5505         estimate D2E/DX2                !
 ! D119  D(3,10,32,34)          65.1514         estimate D2E/DX2                !
 ! D120  D(3,10,32,46)         -57.603          estimate D2E/DX2                !
 ! D121  D(11,10,32,33)        -58.295          estimate D2E/DX2                !
 ! D122  D(11,10,32,34)       -173.5931         estimate D2E/DX2                !
 ! D123  D(11,10,32,46)         63.6525         estimate D2E/DX2                !
 ! D124  D(20,10,32,33)         62.6752         estimate D2E/DX2                !
 ! D125  D(20,10,32,34)        -52.6228         estimate D2E/DX2                !
 ! D126  D(20,10,32,46)       -175.3773         estimate D2E/DX2                !
 ! D127  D(3,12,23,20)          33.2836         estimate D2E/DX2                !
 ! D128  D(3,12,23,24)         156.3732         estimate D2E/DX2                !
 ! D129  D(3,12,23,25)         -86.0031         estimate D2E/DX2                !
 ! D130  D(13,12,23,20)        -80.3219         estimate D2E/DX2                !
 ! D131  D(13,12,23,24)         42.7677         estimate D2E/DX2                !
 ! D132  D(13,12,23,25)        160.3914         estimate D2E/DX2                !
 ! D133  D(35,12,23,20)        159.4047         estimate D2E/DX2                !
 ! D134  D(35,12,23,24)        -77.5057         estimate D2E/DX2                !
 ! D135  D(35,12,23,25)         40.1181         estimate D2E/DX2                !
 ! D136  D(3,12,35,36)          64.212          estimate D2E/DX2                !
 ! D137  D(3,12,35,37)         179.5551         estimate D2E/DX2                !
 ! D138  D(3,12,35,50)         -58.8444         estimate D2E/DX2                !
 ! D139  D(13,12,35,36)       -175.1688         estimate D2E/DX2                !
 ! D140  D(13,12,35,37)        -59.8256         estimate D2E/DX2                !
 ! D141  D(13,12,35,50)         61.7748         estimate D2E/DX2                !
 ! D142  D(23,12,35,36)        -54.9429         estimate D2E/DX2                !
 ! D143  D(23,12,35,37)         60.4003         estimate D2E/DX2                !
 ! D144  D(23,12,35,50)       -177.9993         estimate D2E/DX2                !
 ! D145  D(6,14,17,8)          -25.5603         estimate D2E/DX2                !
 ! D146  D(6,14,17,18)        -149.5935         estimate D2E/DX2                !
 ! D147  D(6,14,17,19)          95.7819         estimate D2E/DX2                !
 ! D148  D(15,14,17,8)        -148.2989         estimate D2E/DX2                !
 ! D149  D(15,14,17,18)         87.6679         estimate D2E/DX2                !
 ! D150  D(15,14,17,19)        -26.9568         estimate D2E/DX2                !
 ! D151  D(16,14,17,8)          95.5333         estimate D2E/DX2                !
 ! D152  D(16,14,17,18)        -28.4999         estimate D2E/DX2                !
 ! D153  D(16,14,17,19)       -143.1245         estimate D2E/DX2                !
 ! D154  D(10,20,23,12)        -43.8948         estimate D2E/DX2                !
 ! D155  D(10,20,23,24)       -166.9439         estimate D2E/DX2                !
 ! D156  D(10,20,23,25)         75.9825         estimate D2E/DX2                !
 ! D157  D(21,20,23,12)       -167.5945         estimate D2E/DX2                !
 ! D158  D(21,20,23,24)         69.3564         estimate D2E/DX2                !
 ! D159  D(21,20,23,25)        -47.7172         estimate D2E/DX2                !
 ! D160  D(22,20,23,12)         75.5986         estimate D2E/DX2                !
 ! D161  D(22,20,23,24)        -47.4505         estimate D2E/DX2                !
 ! D162  D(22,20,23,25)       -164.5241         estimate D2E/DX2                !
 ! D163  D(6,26,38,39)          54.7584         estimate D2E/DX2                !
 ! D164  D(6,26,38,40)         -66.8243         estimate D2E/DX2                !
 ! D165  D(6,26,38,41)         174.3261         estimate D2E/DX2                !
 ! D166  D(27,26,38,39)        -68.0518         estimate D2E/DX2                !
 ! D167  D(27,26,38,40)        170.3655         estimate D2E/DX2                !
 ! D168  D(27,26,38,41)         51.5159         estimate D2E/DX2                !
 ! D169  D(28,26,38,39)        178.4664         estimate D2E/DX2                !
 ! D170  D(28,26,38,40)         56.8837         estimate D2E/DX2                !
 ! D171  D(28,26,38,41)        -61.9659         estimate D2E/DX2                !
 ! D172  D(8,29,42,43)         -64.874          estimate D2E/DX2                !
 ! D173  D(8,29,42,44)         176.357          estimate D2E/DX2                !
 ! D174  D(8,29,42,45)          56.263          estimate D2E/DX2                !
 ! D175  D(30,29,42,43)         57.0333         estimate D2E/DX2                !
 ! D176  D(30,29,42,44)        -61.7357         estimate D2E/DX2                !
 ! D177  D(30,29,42,45)        178.1703         estimate D2E/DX2                !
 ! D178  D(31,29,42,43)        171.3838         estimate D2E/DX2                !
 ! D179  D(31,29,42,44)         52.6149         estimate D2E/DX2                !
 ! D180  D(31,29,42,45)        -67.4791         estimate D2E/DX2                !
 ! D181  D(10,32,46,47)         61.703          estimate D2E/DX2                !
 ! D182  D(10,32,46,48)        -58.9814         estimate D2E/DX2                !
 ! D183  D(10,32,46,49)       -178.5276         estimate D2E/DX2                !
 ! D184  D(33,32,46,47)       -176.3519         estimate D2E/DX2                !
 ! D185  D(33,32,46,48)         62.9638         estimate D2E/DX2                !
 ! D186  D(33,32,46,49)        -56.5825         estimate D2E/DX2                !
 ! D187  D(34,32,46,47)        -61.683          estimate D2E/DX2                !
 ! D188  D(34,32,46,48)        177.6326         estimate D2E/DX2                !
 ! D189  D(34,32,46,49)         58.0864         estimate D2E/DX2                !
 ! D190  D(12,35,50,51)       -177.0844         estimate D2E/DX2                !
 ! D191  D(12,35,50,52)        -57.4911         estimate D2E/DX2                !
 ! D192  D(12,35,50,53)         63.4675         estimate D2E/DX2                !
 ! D193  D(36,35,50,51)         59.121          estimate D2E/DX2                !
 ! D194  D(36,35,50,52)        178.7143         estimate D2E/DX2                !
 ! D195  D(36,35,50,53)        -60.3271         estimate D2E/DX2                !
 ! D196  D(37,35,50,51)        -55.4623         estimate D2E/DX2                !
 ! D197  D(37,35,50,52)         64.1309         estimate D2E/DX2                !
 ! D198  D(37,35,50,53)       -174.9105         estimate D2E/DX2                !
 ! D199  D(4,54,56,57)        -179.5043         estimate D2E/DX2                !
 ! D200  D(4,54,56,58)           0.3751         estimate D2E/DX2                !
 ! D201  D(55,54,56,57)          0.4936         estimate D2E/DX2                !
 ! D202  D(55,54,56,58)       -179.627          estimate D2E/DX2                !
 ! D203  D(54,56,58,59)       -179.7971         estimate D2E/DX2                !
 ! D204  D(54,56,58,60)          0.9682         estimate D2E/DX2                !
 ! D205  D(57,56,58,59)          0.0822         estimate D2E/DX2                !
 ! D206  D(57,56,58,60)       -179.1525         estimate D2E/DX2                !
 ! D207  D(56,58,60,5)          -0.3004         estimate D2E/DX2                !
 ! D208  D(56,58,60,61)        178.8422         estimate D2E/DX2                !
 ! D209  D(59,58,60,5)        -179.5353         estimate D2E/DX2                !
 ! D210  D(59,58,60,61)         -0.3928         estimate D2E/DX2                !
 --------------------------------------------------------------------------------
 Trust Radius=3.00D-01 FncErr=1.00D-07 GrdErr=1.00D-06
 Number of steps in this run=    378 maximum allowed number of steps=    378.
 GradGradGradGradGradGradGradGradGradGradGradGradGradGradGradGradGradGrad

 Stoichiometry    C22H36Cl2P2Pd
 Framework group  C1[X(C22H36Cl2P2Pd)]
 Deg. of freedom   183
 Full point group                 C1      NOp   1
 Largest Abelian subgroup         C1      NOp   1
 Largest concise Abelian subgroup C1      NOp   1
                         Standard orientation:                         
 ---------------------------------------------------------------------
 Center     Atomic      Atomic             Coordinates (Angstroms)
 Number     Number       Type             X           Y           Z
 ---------------------------------------------------------------------
      1         17           0        1.363898   -3.244832   -0.273527
      2         15           0        1.579125    0.163536    0.054883
      3         15           0       -1.620265    0.406316   -0.007604
      4          6           0        0.803221    1.877001    0.160629
      5          6           0       -0.609937    1.979801    0.095104
      6          6           0        2.912987    0.001765   -1.191311
      7          1           0        3.176197   -1.056486   -1.228799
      8          6           0        2.657974    0.134957    1.540511
      9          1           0        2.346398    0.922248    2.228723
     10          6           0       -2.718644    0.634954   -1.459056
     11          1           0       -2.617742    1.661869   -1.812147
     12          6           0       -2.897003    0.393194    1.312700
     13          1           0       -3.071265   -0.648109    1.587890
     14          6           0        4.088357    0.724292   -0.526286
     15          1           0        5.035986    0.405387   -0.961909
     16          1           0        4.023784    1.793127   -0.717834
     17          6           0        4.072604    0.463516    0.997304
     18          1           0        4.496229    1.316763    1.528254
     19          1           0        4.745834   -0.369765    1.203023
     20          6           0       -4.126883    0.447936   -0.871460
     21          1           0       -4.875571    0.971478   -1.466824
     22          1           0       -4.393766   -0.609810   -0.896207
     23          6           0       -4.149227    0.915333    0.593974
     24          1           0       -5.058084    0.586134    1.098883
     25          1           0       -4.159194    2.005341    0.615297
     26          6           0        2.610841    0.432380   -2.644186
     27          1           0        3.534775    0.359617   -3.218951
     28          1           0        1.941299   -0.300153   -3.093841
     29          6           0        2.640148   -1.215075    2.284418
     30          1           0        3.389882   -1.192691    3.076309
     31          1           0        2.956826   -2.007788    1.607270
     32          6           0       -2.420809   -0.319730   -2.630029
     33          1           0       -3.113904   -0.105342   -3.444327
     34          1           0       -2.625132   -1.347931   -2.333186
     35          6           0       -2.546642    1.178959    2.591009
     36          1           0       -2.449513    2.240699    2.366475
     37          1           0       -3.380960    1.101541    3.288924
     38          6           0        2.016737    1.832123   -2.857430
     39          1           0        2.631848    2.608383   -2.403709
     40          1           0        1.011957    1.914900   -2.448557
     41          1           0        1.942334    2.056647   -3.921423
     42          6           0        1.294112   -1.589517    2.914921
     43          1           0        1.032690   -0.887144    3.705655
     44          1           0        1.343913   -2.581442    3.364900
     45          1           0        0.483751   -1.601798    2.189385
     46          6           0       -0.988136   -0.235607   -3.164681
     47          1           0       -0.259988   -0.504813   -2.402616
     48          1           0       -0.760374    0.772246   -3.511173
     49          1           0       -0.847258   -0.914108   -4.006329
     50          6           0       -1.272623    0.702526    3.295062
     51          1           0       -1.107686    1.261600    4.216094
     52          1           0       -1.343968   -0.353309    3.555689
     53          1           0       -0.391909    0.843138    2.669596
     54          6           0        1.570825    3.050764    0.317508
     55          1           0        2.642679    2.995459    0.407774
     56          6           0        0.951971    4.313774    0.358927
     57          1           0        1.551202    5.205379    0.471370
     58          6           0       -0.446216    4.414315    0.251319
     59          1           0       -0.923651    5.382805    0.279514
     60          6           0       -1.223105    3.249071    0.123035
     61          1           0       -2.297125    3.331889    0.059769
     62         17           0       -1.956821   -2.969165   -0.149111
     63         46           0       -0.157326   -1.488830   -0.089765
 ---------------------------------------------------------------------
 Rotational constants (GHZ):      0.1638840      0.1464390      0.1169899
 General basis read from cards:  (6D, 7F)
 ======================================================================================================
                                       Pseudopotential Parameters
 ======================================================================================================
  Center     Atomic      Valence      Angular      Power
  Number     Number     Electrons     Momentum     of R      Exponent        Coefficient   SO-Coeffient
 ======================================================================================================
    1         17
                                   No pseudopotential on this center.
    2         15
                                   No pseudopotential on this center.
    3         15
                                   No pseudopotential on this center.
    4          6
                                   No pseudopotential on this center.
    5          6
                                   No pseudopotential on this center.
    6          6
                                   No pseudopotential on this center.
    7          1
                                   No pseudopotential on this center.
    8          6
                                   No pseudopotential on this center.
    9          1
                                   No pseudopotential on this center.
   10          6
                                   No pseudopotential on this center.
   11          1
                                   No pseudopotential on this center.
   12          6
                                   No pseudopotential on this center.
   13          1
                                   No pseudopotential on this center.
   14          6
                                   No pseudopotential on this center.
   15          1
                                   No pseudopotential on this center.
   16          1
                                   No pseudopotential on this center.
   17          6
                                   No pseudopotential on this center.
   18          1
                                   No pseudopotential on this center.
   19          1
                                   No pseudopotential on this center.
   20          6
                                   No pseudopotential on this center.
   21          1
                                   No pseudopotential on this center.
   22          1
                                   No pseudopotential on this center.
   23          6
                                   No pseudopotential on this center.
   24          1
                                   No pseudopotential on this center.
   25          1
                                   No pseudopotential on this center.
   26          6
                                   No pseudopotential on this center.
   27          1
                                   No pseudopotential on this center.
   28          1
                                   No pseudopotential on this center.
   29          6
                                   No pseudopotential on this center.
   30          1
                                   No pseudopotential on this center.
   31          1
                                   No pseudopotential on this center.
   32          6
                                   No pseudopotential on this center.
   33          1
                                   No pseudopotential on this center.
   34          1
                                   No pseudopotential on this center.
   35          6
                                   No pseudopotential on this center.
   36          1
                                   No pseudopotential on this center.
   37          1
                                   No pseudopotential on this center.
   38          6
                                   No pseudopotential on this center.
   39          1
                                   No pseudopotential on this center.
   40          1
                                   No pseudopotential on this center.
   41          1
                                   No pseudopotential on this center.
   42          6
                                   No pseudopotential on this center.
   43          1
                                   No pseudopotential on this center.
   44          1
                                   No pseudopotential on this center.
   45          1
                                   No pseudopotential on this center.
   46          6
                                   No pseudopotential on this center.
   47          1
                                   No pseudopotential on this center.
   48          1
                                   No pseudopotential on this center.
   49          1
                                   No pseudopotential on this center.
   50          6
                                   No pseudopotential on this center.
   51          1
                                   No pseudopotential on this center.
   52          1
                                   No pseudopotential on this center.
   53          1
                                   No pseudopotential on this center.
   54          6
                                   No pseudopotential on this center.
   55          1
                                   No pseudopotential on this center.
   56          6
                                   No pseudopotential on this center.
   57          1
                                   No pseudopotential on this center.
   58          6
                                   No pseudopotential on this center.
   59          1
                                   No pseudopotential on this center.
   60          6
                                   No pseudopotential on this center.
   61          1
                                   No pseudopotential on this center.
   62         17
                                   No pseudopotential on this center.
   63         46           18
                                      F and up 
                                                     0      598.3336444       -0.05631770    0.00000000
                                                     1      162.4298290      -20.12880360    0.00000000
                                                     2       51.5714771     -105.81979230    0.00000000
                                                     2       16.4888260      -42.57333450    0.00000000
                                                     2        5.8287656       -3.61650860    0.00000000
                                      S - F
                                                     0       73.3806304        3.00036510    0.00000000
                                                     1       14.7550438       32.43500930    0.00000000
                                                     2       17.8350204      459.08303830    0.00000000
                                                     2       12.7111477     -868.06290290    0.00000000
                                                     2        9.3292063      514.47260980    0.00000000
                                      P - F
                                                     0       55.6689877        4.95930990    0.00000000
                                                     1       64.2337771       21.17110290    0.00000000
                                                     2       17.6254952      605.05600920    0.00000000
                                                     2       11.9058155     -726.96418460    0.00000000
                                                     2        8.5100832      396.32748830    0.00000000
                                      D - F
                                                     0       49.9994728        3.05087450    0.00000000
                                                     1       39.7477547       22.25065800    0.00000000
                                                     2       11.4321366      674.83576980    0.00000000
                                                     2        9.1790080    -1040.85540480    0.00000000
                                                     2        7.5624429      505.93751470    0.00000000
 ======================================================================================================
 There are   502 symmetry adapted cartesian basis functions of A   symmetry.
 There are   502 symmetry adapted basis functions of A   symmetry.
   502 basis functions,  1017 primitive gaussians,   502 cartesian basis functions
   125 alpha electrons      125 beta electrons
       nuclear repulsion energy      4048.1189978990 Hartrees.
 NAtoms=   63 NActive=   63 NUniq=   63 SFac= 1.00D+00 NAtFMM=   60 NAOKFM=T Big=T
 Integral buffers will be    131072 words long.
 Raffenetti 2 integral format.
 Two-electron integral symmetry is turned on.
 Nuclear repulsion after empirical dispersion term =     4048.0045391485 Hartrees.
 Standard density basis: Auto (5D, 7F)
  2222 Density fitting functions
 There are  2222 symmetry adapted density basis functions of A   symmetry.
 One-electron integrals computed using PRISM.
   1 Symmetry operations used in ECPInt.
 ECPInt:  NShTT=   17766 NPrTT=  111805 LenC2=   15840 LenP2D=   56076.
 LDataN:  DoStor=T MaxTD1= 5 Len=  102
 NBasis=   502 RedAO= T EigKep=  5.04D-04  NBF=   502
 NBsUse=   502 1.00D-06 EigRej= -1.00D+00 NBFU=   502
 NBasis=      502 NBas6D=      502 NTT=      126253   NTT6D=   126253
 NDBShl=      478 NDBF=       2222 NDBF6D=     2624  NNucDB=        0
 IDenFi=        2 ISolve=        0 FullAP=F BlkAPC=T NucTyp=        0
 TolInv= 1.00D-06 TolIt=  1.00D-10 IR12=0.
 FoFCou: FMM=F IPFlag=           0 FMFlag=           0 FMFlg1=           0
         NFxFlg=           0 DoJE=F BraDBF=T KetDBF=T FulRan=T
         wScrn=  0.000000 ICntrl=     600 IOpCl=  3 I1Cent=           6 NGrid=           0
         NMat0=    1 NMatS0=   2624 NMatT0=    0 NMatD0=    1 NMtDS0=    0 NMtDT0=    0
 Petite list used in FoFCou.
 DBF EigKep=  3.84D-06 EigRej=  7.80D-07
 NDBF=   2222  NBFD=  2222
 NRank=  2221 NBFDU=  2221
 S*AI*S=  11.0819422495    
 Defaulting to unpruned grid for atomic number  46.
 ExpMin= 2.62D-02 ExpMax= 2.52D+04 ExpMxC= 3.78D+03 IAcc=3 IRadAn=         5 AccDes= 0.00D+00
 Harris functional with IExCor= 1009 and IRadAn=       5 diagonalized for initial guess.
 HarFok:  IExCor= 1009 AccDes= 0.00D+00 IRadAn=         5 IDoV= 1 UseB2=F ITyADJ=14
 ICtDFT=  3500011 ScaDFX=  1.000000  1.000000  1.000000  1.000000
 Defaulting to unpruned grid for atomic number  46.
 Defaulting to unpruned grid for atomic number  46.
 Defaulting to unpruned grid for atomic number  46.
 Defaulting to unpruned grid for atomic number  46.
 Defaulting to unpruned grid for atomic number  46.
 Defaulting to unpruned grid for atomic number  46.
 Defaulting to unpruned grid for atomic number  46.
 Defaulting to unpruned grid for atomic number  46.
 Defaulting to unpruned grid for atomic number  46.
 Defaulting to unpruned grid for atomic number  46.
 Defaulting to unpruned grid for atomic number  46.
 Defaulting to unpruned grid for atomic number  46.
 Defaulting to unpruned grid for atomic number  46.
 Defaulting to unpruned grid for atomic number  46.
 FoFCou: FMM=F IPFlag=           0 FMFlag=      100000 FMFlg1=        2001
         NFxFlg=           0 DoJE=T BraDBF=F KetDBF=T FulRan=T
         wScrn=  0.000000 ICntrl=     500 IOpCl=  0 I1Cent=   200000004 NGrid=           0
         NMat0=    1 NMatS0=      1 NMatT0=    0 NMatD0=    1 NMtDS0=    0 NMtDT0=    0
 Petite list used in FoFCou.
 Requested convergence on RMS density matrix=1.00D-08 within 500 cycles.
 Requested convergence on MAX density matrix=1.00D-06.
 Requested convergence on             energy=1.00D-06.
 No special actions if energy rises.
 FoFCou: FMM=F IPFlag=           0 FMFlag=      100000 FMFlg1=        2001
         NFxFlg=           0 DoJE=T BraDBF=T KetDBF=F FulRan=T
         wScrn=  0.000000 ICntrl=     500 IOpCl=  0 I1Cent=           5 NGrid=           0
         NMat0=    1 NMatS0=      1 NMatT0=    0 NMatD0=    1 NMtDS0=    0 NMtDT0=    0
 Symmetry not used in FoFCou.
 Defaulting to unpruned grid for atomic number  46.
 Defaulting to unpruned grid for atomic number  46.
 Defaulting to unpruned grid for atomic number  46.
 Defaulting to unpruned grid for atomic number  46.
 Defaulting to unpruned grid for atomic number  46.
 Defaulting to unpruned grid for atomic number  46.
 Defaulting to unpruned grid for atomic number  46.
 Defaulting to unpruned grid for atomic number  46.
 Defaulting to unpruned grid for atomic number  46.
 Defaulting to unpruned grid for atomic number  46.
 Defaulting to unpruned grid for atomic number  46.
 Defaulting to unpruned grid for atomic number  46.
 Defaulting to unpruned grid for atomic number  46.
 Defaulting to unpruned grid for atomic number  46.
 EnCoef did     8 forward-backward iterations
 EnCoef did   100 forward-backward iterations
 Problem detected with inexpensive integrals.
 Switching to full accuracy and repeating last cycle.
 EnCoef did     3 forward-backward iterations
 EnCoef did     3 forward-backward iterations
 EnCoef did     5 forward-backward iterations
 Restarting incremental Fock formation.
 SCF Done:  E(RPBE-PBE) =  -2588.19695931     A.U. after   26 cycles
            NFock= 26  Conv=0.48D-08     -V/T= 2.0380

 **********************************************************************

            Population analysis using the SCF density.

 **********************************************************************

 Orbital symmetries:
       Occupied  (A) (A) (A) (A) (A) (A) (A) (A) (A) (A) (A) (A)
                 (A) (A) (A) (A) (A) (A) (A) (A) (A) (A) (A) (A)
                 (A) (A) (A) (A) (A) (A) (A) (A) (A) (A) (A) (A)
                 (A) (A) (A) (A) (A) (A) (A) (A) (A) (A) (A) (A)
                 (A) (A) (A) (A) (A) (A) (A) (A) (A) (A) (A) (A)
                 (A) (A) (A) (A) (A) (A) (A) (A) (A) (A) (A) (A)
                 (A) (A) (A) (A) (A) (A) (A) (A) (A) (A) (A) (A)
                 (A) (A) (A) (A) (A) (A) (A) (A) (A) (A) (A) (A)
                 (A) (A) (A) (A) (A) (A) (A) (A) (A) (A) (A) (A)
                 (A) (A) (A) (A) (A) (A) (A) (A) (A) (A) (A) (A)
                 (A) (A) (A) (A) (A)
       Virtual   (A) (A) (A) (A) (A) (A) (A) (A) (A) (A) (A) (A)
                 (A) (A) (A) (A) (A) (A) (A) (A) (A) (A) (A) (A)
                 (A) (A) (A) (A) (A) (A) (A) (A) (A) (A) (A) (A)
                 (A) (A) (A) (A) (A) (A) (A) (A) (A) (A) (A) (A)
                 (A) (A) (A) (A) (A) (A) (A) (A) (A) (A) (A) (A)
                 (A) (A) (A) (A) (A) (A) (A) (A) (A) (A) (A) (A)
                 (A) (A) (A) (A) (A) (A) (A) (A) (A) (A) (A) (A)
                 (A) (A) (A) (A) (A) (A) (A) (A) (A) (A) (A) (A)
                 (A) (A) (A) (A) (A) (A) (A) (A) (A) (A) (A) (A)
                 (A) (A) (A) (A) (A) (A) (A) (A) (A) (A) (A) (A)
                 (A) (A) (A) (A) (A) (A) (A) (A) (A) (A) (A) (A)
                 (A) (A) (A) (A) (A) (A) (A) (A) (A) (A) (A) (A)
                 (A) (A) (A) (A) (A) (A) (A) (A) (A) (A) (A) (A)
                 (A) (A) (A) (A) (A) (A) (A) (A) (A) (A) (A) (A)
                 (A) (A) (A) (A) (A) (A) (A) (A) (A) (A) (A) (A)
                 (A) (A) (A) (A) (A) (A) (A) (A) (A) (A) (A) (A)
                 (A) (A) (A) (A) (A) (A) (A) (A) (A) (A) (A) (A)
                 (A) (A) (A) (A) (A) (A) (A) (A) (A) (A) (A) (A)
                 (A) (A) (A) (A) (A) (A) (A) (A) (A) (A) (A) (A)
                 (A) (A) (A) (A) (A) (A) (A) (A) (A) (A) (A) (A)
                 (A) (A) (A) (A) (A) (A) (A) (A) (A) (A) (A) (A)
                 (A) (A) (A) (A) (A) (A) (A) (A) (A) (A) (A) (A)
                 (A) (A) (A) (A) (A) (A) (A) (A) (A) (A) (A) (A)
                 (A) (A) (A) (A) (A) (A) (A) (A) (A) (A) (A) (A)
                 (A) (A) (A) (A) (A) (A) (A) (A) (A) (A) (A) (A)
                 (A) (A) (A) (A) (A) (A) (A) (A) (A) (A) (A) (A)
                 (A) (A) (A) (A) (A) (A) (A) (A) (A) (A) (A) (A)
                 (A) (A) (A) (A) (A) (A) (A) (A) (A) (A) (A) (A)
                 (A) (A) (A) (A) (A) (A) (A) (A) (A) (A) (A) (A)
                 (A) (A) (A) (A) (A) (A) (A) (A) (A) (A) (A) (A)
                 (A) (A) (A) (A) (A) (A) (A) (A) (A) (A) (A) (A)
                 (A) (A) (A) (A) (A)
 The electronic state is 1-A.
 Alpha  occ. eigenvalues -- -100.58926-100.58657 -76.37004 -76.36847  -9.95150
 Alpha  occ. eigenvalues --   -9.94970  -9.94080  -9.93978  -9.93842  -9.93799
 Alpha  occ. eigenvalues --   -9.92460  -9.92307  -9.92223  -9.92218  -9.91183
 Alpha  occ. eigenvalues --   -9.91110  -9.91110  -9.90904  -9.90709  -9.90589
 Alpha  occ. eigenvalues --   -9.89131  -9.89115  -9.88935  -9.88782  -9.87491
 Alpha  occ. eigenvalues --   -9.86430  -9.08447  -9.08193  -6.90745  -6.90493
 Alpha  occ. eigenvalues --   -6.90062  -6.90011  -6.89798  -6.89759  -6.35042
 Alpha  occ. eigenvalues --   -6.34928  -4.56885  -4.56772  -4.56744  -4.56626
 Alpha  occ. eigenvalues --   -4.56558  -4.56440  -3.19517  -1.96439  -1.96130
 Alpha  occ. eigenvalues --   -1.92538  -0.80823  -0.77727  -0.77516  -0.72403
 Alpha  occ. eigenvalues --   -0.72116  -0.71111  -0.70713  -0.68845  -0.68433
 Alpha  occ. eigenvalues --   -0.64378  -0.64059  -0.63743  -0.63358  -0.63150
 Alpha  occ. eigenvalues --   -0.62491  -0.58405  -0.58013  -0.56479  -0.55380
 Alpha  occ. eigenvalues --   -0.54116  -0.54057  -0.52414  -0.51602  -0.50409
 Alpha  occ. eigenvalues --   -0.48359  -0.46560  -0.44511  -0.44388  -0.43900
 Alpha  occ. eigenvalues --   -0.43507  -0.42220  -0.41767  -0.40585  -0.40173
 Alpha  occ. eigenvalues --   -0.39930  -0.39534  -0.38847  -0.38421  -0.37396
 Alpha  occ. eigenvalues --   -0.36845  -0.36668  -0.36320  -0.36122  -0.35509
 Alpha  occ. eigenvalues --   -0.35390  -0.34818  -0.34601  -0.33121  -0.32944
 Alpha  occ. eigenvalues --   -0.32341  -0.31934  -0.31571  -0.31198  -0.30681
 Alpha  occ. eigenvalues --   -0.30369  -0.30050  -0.29786  -0.29564  -0.29322
 Alpha  occ. eigenvalues --   -0.29125  -0.29080  -0.28893  -0.28515  -0.28351
 Alpha  occ. eigenvalues --   -0.28236  -0.27894  -0.27676  -0.26470  -0.25258
 Alpha  occ. eigenvalues --   -0.24874  -0.23782  -0.23592  -0.23222  -0.22833
 Alpha  occ. eigenvalues --   -0.18300  -0.18040  -0.17694  -0.17233  -0.16939
 Alpha virt. eigenvalues --   -0.08449  -0.08219  -0.07857  -0.00923  -0.00574
 Alpha virt. eigenvalues --    0.02422   0.02880   0.02954   0.03263   0.03635
 Alpha virt. eigenvalues --    0.04490   0.04632   0.05430   0.05842   0.07213
 Alpha virt. eigenvalues --    0.07568   0.08321   0.08819   0.09154   0.09490
 Alpha virt. eigenvalues --    0.10043   0.10200   0.10981   0.11246   0.11433
 Alpha virt. eigenvalues --    0.11755   0.12358   0.12476   0.12698   0.12932
 Alpha virt. eigenvalues --    0.13199   0.13840   0.14463   0.14546   0.14823
 Alpha virt. eigenvalues --    0.15154   0.15258   0.15568   0.15735   0.15899
 Alpha virt. eigenvalues --    0.16330   0.16681   0.16961   0.17418   0.17533
 Alpha virt. eigenvalues --    0.18057   0.18459   0.18780   0.19107   0.19531
 Alpha virt. eigenvalues --    0.19924   0.20424   0.20671   0.21077   0.21616
 Alpha virt. eigenvalues --    0.22203   0.22546   0.22894   0.23226   0.23488
 Alpha virt. eigenvalues --    0.23696   0.24248   0.24420   0.25998   0.26381
 Alpha virt. eigenvalues --    0.26855   0.27470   0.28218   0.29852   0.30852
 Alpha virt. eigenvalues --    0.31739   0.32628   0.35645   0.36900   0.37768
 Alpha virt. eigenvalues --    0.38866   0.39862   0.41041   0.41662   0.43212
 Alpha virt. eigenvalues --    0.43368   0.44023   0.45260   0.45471   0.46382
 Alpha virt. eigenvalues --    0.46744   0.47178   0.47783   0.48488   0.48803
 Alpha virt. eigenvalues --    0.49069   0.49226   0.50336   0.51114   0.51367
 Alpha virt. eigenvalues --    0.52256   0.52979   0.53357   0.53786   0.53976
 Alpha virt. eigenvalues --    0.54554   0.54901   0.55177   0.55953   0.56712
 Alpha virt. eigenvalues --    0.57060   0.57448   0.57894   0.58283   0.58520
 Alpha virt. eigenvalues --    0.58872   0.59348   0.60031   0.60541   0.60975
 Alpha virt. eigenvalues --    0.61116   0.61576   0.62479   0.62568   0.63120
 Alpha virt. eigenvalues --    0.63411   0.63863   0.64615   0.65463   0.65920
 Alpha virt. eigenvalues --    0.66425   0.66925   0.67477   0.68249   0.68743
 Alpha virt. eigenvalues --    0.69387   0.70122   0.71353   0.71768   0.72884
 Alpha virt. eigenvalues --    0.73557   0.74568   0.75152   0.75493   0.75976
 Alpha virt. eigenvalues --    0.76028   0.76940   0.77423   0.78359   0.79051
 Alpha virt. eigenvalues --    0.79342   0.80148   0.80557   0.80914   0.81499
 Alpha virt. eigenvalues --    0.81871   0.82100   0.82415   0.83108   0.83325
 Alpha virt. eigenvalues --    0.83731   0.84235   0.84541   0.85265   0.85792
 Alpha virt. eigenvalues --    0.85933   0.86143   0.86410   0.86865   0.87642
 Alpha virt. eigenvalues --    0.87689   0.88017   0.88389   0.88701   0.89137
 Alpha virt. eigenvalues --    0.89586   0.89860   0.90031   0.90395   0.90823
 Alpha virt. eigenvalues --    0.90894   0.91490   0.91941   0.92497   0.92665
 Alpha virt. eigenvalues --    0.93026   0.93942   0.94316   0.94471   0.95088
 Alpha virt. eigenvalues --    0.95469   0.95843   0.96504   0.97333   0.97702
 Alpha virt. eigenvalues --    0.98271   0.98760   0.99500   1.00077   1.00323
 Alpha virt. eigenvalues --    1.01456   1.02251   1.02747   1.03370   1.03917
 Alpha virt. eigenvalues --    1.04311   1.05598   1.06215   1.07431   1.07949
 Alpha virt. eigenvalues --    1.08837   1.10612   1.11500   1.12790   1.13832
 Alpha virt. eigenvalues --    1.14566   1.15224   1.15725   1.16456   1.18746
 Alpha virt. eigenvalues --    1.18760   1.22402   1.23040   1.23441   1.24892
 Alpha virt. eigenvalues --    1.26589   1.28449   1.31471   1.32802   1.33339
 Alpha virt. eigenvalues --    1.34643   1.36675   1.36765   1.38228   1.38875
 Alpha virt. eigenvalues --    1.39337   1.40224   1.40866   1.41958   1.43331
 Alpha virt. eigenvalues --    1.46289   1.46683   1.47393   1.50507   1.52009
 Alpha virt. eigenvalues --    1.52563   1.53059   1.56003   1.56296   1.57694
 Alpha virt. eigenvalues --    1.58459   1.59486   1.61662   1.62839   1.63319
 Alpha virt. eigenvalues --    1.64378   1.65871   1.66342   1.67784   1.69473
 Alpha virt. eigenvalues --    1.70677   1.71765   1.73852   1.74671   1.76688
 Alpha virt. eigenvalues --    1.77386   1.77930   1.78891   1.80782   1.82024
 Alpha virt. eigenvalues --    1.82916   1.83377   1.83563   1.84356   1.86817
 Alpha virt. eigenvalues --    1.87318   1.87919   1.89314   1.89913   1.90036
 Alpha virt. eigenvalues --    1.90860   1.91523   1.92043   1.92466   1.93301
 Alpha virt. eigenvalues --    1.94292   1.95029   1.96031   1.96429   1.97199
 Alpha virt. eigenvalues --    1.98225   1.99808   2.00214   2.00595   2.03179
 Alpha virt. eigenvalues --    2.03746   2.04067   2.05049   2.05182   2.06183
 Alpha virt. eigenvalues --    2.06862   2.08349   2.10503   2.13213   2.14687
 Alpha virt. eigenvalues --    2.15873   2.16744   2.17183   2.17489   2.18724
 Alpha virt. eigenvalues --    2.19309   2.19742   2.20220   2.20692   2.22456
 Alpha virt. eigenvalues --    2.24160   2.25207   2.26357   2.27627   2.28499
 Alpha virt. eigenvalues --    2.29483   2.29592   2.31273   2.31461   2.32245
 Alpha virt. eigenvalues --    2.33195   2.33483   2.35941   2.37006   2.38148
 Alpha virt. eigenvalues --    2.39370   2.46025   2.47588   2.49620   2.50286
 Alpha virt. eigenvalues --    2.50498   2.50988   2.51934   2.53370   2.54372
 Alpha virt. eigenvalues --    2.55510   2.57763   2.59221   2.59637   2.61674
 Alpha virt. eigenvalues --    2.64961   2.66321   2.66661   2.67996   2.70211
 Alpha virt. eigenvalues --    2.71543   2.74527   2.75860   2.95040   3.20406
 Alpha virt. eigenvalues --    3.45202   3.52120   3.98196   4.04954   4.06292
 Alpha virt. eigenvalues --    4.09285   4.11575   4.12470   4.16228   4.18033
 Alpha virt. eigenvalues --    4.20712   4.24336   4.26077   4.26536   4.30314
 Alpha virt. eigenvalues --    4.31703   4.33745   4.35840   4.38044   4.38736
 Alpha virt. eigenvalues --    4.41835   4.47634   4.51601   4.53900   4.54675
 Alpha virt. eigenvalues --    4.58180  32.02142
          Condensed to atoms (all electrons):
 Mulliken charges:
               1
     1  Cl  -0.263558
     2  P    0.690017
     3  P    0.665951
     4  C   -0.109225
     5  C   -0.100798
     6  C   -0.307157
     7  H    0.244934
     8  C   -0.321525
     9  H    0.184911
    10  C   -0.312510
    11  H    0.179705
    12  C   -0.311696
    13  H    0.245509
    14  C   -0.332078
    15  H    0.171133
    16  H    0.160898
    17  C   -0.314561
    18  H    0.161413
    19  H    0.182916
    20  C   -0.326517
    21  H    0.163941
    22  H    0.204577
    23  C   -0.321669
    24  H    0.174008
    25  H    0.154165
    26  C   -0.314328
    27  H    0.164040
    28  H    0.205628
    29  C   -0.315588
    30  H    0.155649
    31  H    0.212141
    32  C   -0.309075
    33  H    0.155208
    34  H    0.229715
    35  C   -0.309079
    36  H    0.154686
    37  H    0.166777
    38  C   -0.506251
    39  H    0.157014
    40  H    0.183507
    41  H    0.167245
    42  C   -0.532399
    43  H    0.148941
    44  H    0.185509
    45  H    0.276635
    46  C   -0.527422
    47  H    0.240387
    48  H    0.148389
    49  H    0.180561
    50  C   -0.507239
    51  H    0.160544
    52  H    0.196099
    53  H    0.186555
    54  C   -0.158500
    55  H    0.158607
    56  C   -0.131799
    57  H    0.158537
    58  C   -0.136467
    59  H    0.158880
    60  C   -0.165082
    61  H    0.158763
    62  Cl  -0.267293
    63  Pd  -0.692276
 Sum of Mulliken charges =  -0.00000
 Mulliken charges with hydrogens summed into heavy atoms:
               1
     1  Cl  -0.263558
     2  P    0.690017
     3  P    0.665951
     4  C   -0.109225
     5  C   -0.100798
     6  C   -0.062223
     8  C   -0.136613
    10  C   -0.132805
    12  C   -0.066188
    14  C   -0.000047
    17  C    0.029768
    20  C    0.042001
    23  C    0.006503
    26  C    0.055340
    29  C    0.052202
    32  C    0.075848
    35  C    0.012385
    38  C    0.001515
    42  C    0.078687
    46  C    0.041915
    50  C    0.035958
    54  C    0.000107
    56  C    0.026737
    58  C    0.022413
    60  C   -0.006319
    62  Cl  -0.267293
    63  Pd  -0.692276
 Electronic spatial extent (au):  <R**2>=          10990.9718
 Charge=             -0.0000 electrons
 Dipole moment (field-independent basis, Debye):
    X=              1.0565    Y=             13.0473    Z=              0.8487  Tot=             13.1175
 Quadrupole moment (field-independent basis, Debye-Ang):
   XX=           -185.6165   YY=           -227.4847   ZZ=           -201.4142
   XY=             -3.7473   XZ=             -0.0235   YZ=             -1.5171
 Traceless Quadrupole moment (field-independent basis, Debye-Ang):
   XX=             19.2220   YY=            -22.6462   ZZ=              3.4243
   XY=             -3.7473   XZ=             -0.0235   YZ=             -1.5171
 Octapole moment (field-independent basis, Debye-Ang**2):
  XXX=             -0.4642  YYY=             93.2747  ZZZ=            -10.7303  XYY=              6.0733
  XXY=             11.4929  XXZ=             -0.0153  XZZ=             -5.2932  YZZ=            -38.2721
  YYZ=             15.2104  XYZ=              0.6265
 Hexadecapole moment (field-independent basis, Debye-Ang**3):
 XXXX=          -6210.8340 YYYY=          -4912.4411 ZZZZ=          -3362.8574 XXXY=            -23.4036
 XXXZ=            -17.8706 YYYX=              8.6302 YYYZ=             15.0323 ZZZX=            -18.4016
 ZZZY=              6.6365 XXYY=          -1937.7386 XXZZ=          -1601.1610 YYZZ=          -1434.6222
 XXYZ=             -0.8776 YYXZ=             26.3460 ZZXY=              0.0092
 N-N= 4.048004539149D+03 E-N=-1.416247972580D+04  KE= 2.493535809519D+03
   1 Symmetry operations used in ECPInt.
 ECPInt:  NShTT=   17766 NPrTT=  111805 LenC2=   15840 LenP2D=   56076.
 LDataN:  DoStor=T MaxTD1= 6 Len=  172
 Calling FoFJK, ICntrl=      2527 FMM=T ISym2X=0 I1Cent= 4 IOpClX= 0 NMat=1 NMatS=1 NMatT=0.
 Defaulting to unpruned grid for atomic number  46.
 Defaulting to unpruned grid for atomic number  46.
 Defaulting to unpruned grid for atomic number  46.
 Defaulting to unpruned grid for atomic number  46.
 Defaulting to unpruned grid for atomic number  46.
 Defaulting to unpruned grid for atomic number  46.
 Defaulting to unpruned grid for atomic number  46.
 Defaulting to unpruned grid for atomic number  46.
 Defaulting to unpruned grid for atomic number  46.
 Defaulting to unpruned grid for atomic number  46.
 Defaulting to unpruned grid for atomic number  46.
 Defaulting to unpruned grid for atomic number  46.
 Defaulting to unpruned grid for atomic number  46.
 Defaulting to unpruned grid for atomic number  46.
 ***** Axes restored to original set *****
 -------------------------------------------------------------------
 Center     Atomic                   Forces (Hartrees/Bohr)
 Number     Number              X              Y              Z
 -------------------------------------------------------------------
      1       17          -0.008092144   -0.004436190    0.003127500
      2       15           0.044447674   -0.014336713    0.003393773
      3       15          -0.038195654   -0.024228239    0.001924651
      4        6          -0.002674671   -0.003636171    0.005076754
      5        6           0.002349823   -0.007149116    0.001371733
      6        6          -0.012638342    0.019046192    0.006721984
      7        1           0.008672386   -0.012437873   -0.001462195
      8        6          -0.012758058   -0.010549346   -0.003310089
      9        1           0.006548759    0.005829155   -0.004357117
     10        6           0.011054425   -0.006519748    0.010963125
     11        1          -0.005275010    0.009950864   -0.001154638
     12        6           0.008159745    0.014641360   -0.012280961
     13        1          -0.003552763   -0.011100533    0.004078428
     14        6           0.001262866    0.001050550   -0.006179104
     15        1          -0.007470141   -0.003584267    0.004227374
     16        1           0.000543991    0.012113104    0.000699365
     17        6          -0.006059188    0.000885595    0.004653191
     18        1          -0.003354686    0.005835720   -0.005846997
     19        1          -0.001592823   -0.009621868   -0.001634993
     20        6           0.003587413   -0.003128240   -0.006992512
     21        1           0.004534615    0.006526442    0.004350425
     22        1           0.000455689   -0.009318822    0.003421877
     23        6          -0.000459431    0.001213831    0.008186312
     24        1           0.007867540   -0.003070978   -0.003255837
     25        1          -0.001648550    0.011049116   -0.004507201
     26        6           0.006103137    0.005937018   -0.004940538
     27        1          -0.010437857   -0.002162371    0.002109477
     28        1           0.006762017   -0.005780677    0.004050721
     29        6           0.012075094    0.000144038   -0.000008835
     30        1          -0.008355061    0.002206150   -0.008089103
     31        1          -0.000460555   -0.004438485    0.009370870
     32        6          -0.009992426    0.000442331   -0.001459239
     33        1           0.006685027    0.007007593    0.005657179
     34        1           0.002296566   -0.009382987   -0.004972789
     35        6          -0.008385955   -0.007034615    0.002312115
     36        1          -0.001750879    0.010686302    0.002087978
     37        1           0.009973798   -0.001956963   -0.003236014
     38        6          -0.003242184   -0.008249493   -0.000180953
     39        1          -0.004811329    0.005585752   -0.005954325
     40        1           0.007626135    0.000722475   -0.003865071
     41        1          -0.001641253    0.002200198    0.008562790
     42        6          -0.012221389    0.000499948   -0.004971152
     43        1           0.002399812    0.005707412   -0.008378939
     44        1          -0.000061462   -0.008154875   -0.000112170
[...]
 0.00266126,-0.02661320,-0.00351011,-0.00549039,0.00003565,-0.00049992,
 0.00007249,-0.00016034,0.00004866,0.00010162,0.00000931,-0.00036125,0.
 00015079,0.00004115,0.00003315,0.00002727,0.00026566,-0.00028629,-0.00
 031282,0.00013826,0.00018502,0.00066526,-0.00001514,-0.00002451,0.0001
 5679,0.00005278,0.00005235,0.00002614,0.00007927,-0.00001244,-0.000004
 34,-0.00000606,0.00001106,0.00000505,0.00000590,0.00001246,-0.00000978
 ,0.00001446,-0.00000669,-0.00004448,-0.00002289,-0.00000165,-0.0000053
 9,-0.00000701,-0.00000170,0.00000638,0.00009695,0.00014498,0.00015134,
 -0.00000048,-0.00003015,-0.00003156,-0.00005125,0.00002421,-0.00007210
 ,0.00004221,-0.00078895,0.00013097,0.00002782,0.00028302,-0.00001808,0
 .00055839,0.00046180,-0.00010425,-0.00001624,0.00000908,-0.00006130,0.
 00000171,0.00000789,0.00001538,-0.00000201,-0.00000232,0.00001119,-0.0
 0013568,0.00004647,-0.00004993,0.00002041,-0.00005044,-0.00002762,-0.0
 0000286,0.00000236,-0.00001252,-0.00010690,0.00017155,0.00017261,0.000
 00609,0.00000914,-0.00004552,0.00001639,0.00001240,-0.00012045,0.00002
 158,-0.00019890,-0.00006715,0.00005223,-0.00010067,-0.00049767,-0.0000
 2070,0.00008382,0.00001862,0.00002368,-0.00000255,0.00003981,0.0000013
 7,-0.00000144,-0.00000374,-0.00000620,-0.00000429,-0.00002311,-0.00001
 026,0.00001046,0.00000637,-0.00000824,-0.00001343,0.00000083,-0.000004
 01,0.00000699,-0.00000763,0.00000900,-0.00000258,-0.00000786,0.0000071
 6,0.00000606,0.00001903,-0.00004385,0.00002711,-0.00004479,0.00000574,
 0.00001314,0.00001334,0.,-0.00002123,0.00000777,0.00003236,-0.00000268
 ,-0.00002219,-0.00011712,0.00002371,0.00001363,0.00003070,0.00001266,0
 .00003349,0.00004203,0.00003140,0.00001391,0.00002280,0.00001085,0.000
 00849,0.00029640,-0.00115656,0.00018685,0.00005450,0.00008813,-0.00036
 427,0.00204612,-0.00252551,0.00307539,0.00113429,0.00034643,0.00032855
 ,0.02192111,0.00813024,0.00412170,-0.00005583,0.00055182,-0.00113228,-
 0.05663242,-0.06555718,-0.00610690,0.06099212,0.06853750,-0.00004351,-
 0.00003843,-0.00000962,-0.00002340,0.00007231,0.00039266,0.00034081,-0
 .00009707,-0.00177634,-0.00120866,0.00228770,0.00555945,0.00566975,0.0
 0131376,0.00143998,-0.00005684,-0.00011140,0.00004061,-0.00001696,-0.0
 0000852,0.00001391,0.00010441,0.00019556,0.00015450,-0.00000038,0.0000
 7782,-0.00005220,-0.00008165,0.00110465,0.00046509,-0.00031636,-0.0000
 2652,-0.00084514,0.00001890,-0.00027482,0.00045935,0.00019760,0.000065
 66,-0.00014494,0.00004352,-0.00002463,0.00000950,0.00000215,0.00000737
 ,-0.00000047,-0.00000192,0.00001757,-0.00000066,-0.00000854,0.00002399
 ,-0.00000778,-0.00000163,-0.00000214,-0.00000308,0.00000322,0.,-0.0000
 0063,-0.00021396,-0.00017194,-0.00000965,-0.00006385,0.00001559,-0.000
 00929,0.00013900,-0.00002442,-0.00009539,0.00009138,-0.00028889,-0.000
 05030,0.00004353,0.00004080,-0.00000101,0.00018197,0.00014384,0.000175
 34,0.00001107,0.00000709,-0.00000317,-0.00000396,-0.00000477,-0.000002
 83,0.00000579,0.00000495,-0.00000584,0.00002535,0.00000196,-0.00001749
 ,0.00000378,0.00000932,0.00000122,0.00001395,0.00000955,0.00000520,0.0
 0013779,-0.00023188,-0.00018816,0.00000610,-0.00000828,-0.00000387,-0.
 00001064,-0.00004957,0.00010395,-0.00003245,-0.00021889,0.00004067,0.0
 0013008,-0.00048473,-0.00073808,-0.00003997,0.00007733,-0.00001824,0.0
 0000434,-0.00001496,-0.00001864,-0.00001619,0.00001064,-0.00000045,0.0
 0000943,-0.00000208,0.00001703,0.00000708,-0.00000196,-0.00001192,0.00
 001567,-0.00001130,0.00000309,-0.00001167,0.00000662,-0.00001627,-0.00
 000091,0.00000106,-0.00000388,-0.00000345,-0.00000222,0.00001614,0.000
 02074,0.00007263,0.00002102,-0.00000880,-0.00001333,0.00000133,0.00002
 059,-0.00002565,-0.00002708,-0.00000806,-0.00001909,0.00000783,-0.0001
 7505,0.00010384,-0.00007022,-0.00000259,-0.00000756,-0.00000788,0.0000
 7888,0.00005714,0.00002433,0.00005565,-0.00002561,-0.00002026,0.000301
 77,-0.00024333,-0.00051637,0.00033768,-0.00043008,-0.00117502,-0.00198
 441,0.00362726,0.00556398,-0.00050861,-0.00014830,-0.00002457,-0.01076
 438,-0.00246337,0.00110640,0.00113563,-0.00106460,-0.00312972,-0.05150
 924,-0.00646265,-0.04366420,0.05790842,0.00357660,0.03708051,-0.002465
 71,-0.00064533,0.00024669,-0.00258826,0.00092117,-0.00053463,-0.004570
 39,0.00329156,-0.00127304,-0.00245902,0.00001269,-0.00029065,0.0004491
 1,0.00020850,-0.00008468,-0.00048347,0.00127849,-0.00167036,0.00027297
 ,-0.00011453,-0.00009280,-0.00028615,0.00146904,0.00057741,-0.00047721
 ,-0.00010658,-0.00038799,-0.00022667,0.00013028,-0.00072207,0.00036770
 ,-0.00022801,0.00012956,-0.00007742,0.00043961,0.00245116,0.00018636,-
 0.00037736,-0.00078729,-0.00052473,-0.00040931,0.00075302,-0.00039057,
 0.00008272,-0.00017185,0.00001162,0.00007251,-0.00006780,-0.00013154,0
 .00027368,-0.00038451,-0.00029337,-0.00003904,0.00004992,-0.00001624,-
 0.00002359,0.00004554,-0.00112358,0.00062719,-0.00036671,0.00030290,-0
 .00075990,0.00003061,0.00069790,-0.00050120,0.00039379,0.00054713,-0.0
 0027252,-0.00078695,0.00027178,0.00027340,0.00001895,-0.00000312,-0.00
 030498,0.00023211,-0.00026917,-0.00022293,-0.00028134,-0.00002641,0.00
 011963,0.00018640,0.00005153,-0.00002637,-0.00001314,-0.00002760,0.000
 15148,0.00038533,-0.00002763,-0.00007488,-0.00014229,0.00016401,0.0000
 3271,-0.00000990,0.00025229,0.00028597,-0.00009524,0.00008496,-0.00006
 346,0.00006823,-0.00065060,0.00001915,0.00039550,0.00015485,-0.0004570
 1,-0.00039816,-0.00001528,-0.00022948,0.00031867,0.00007372,0.00002798
 ,-0.00007222,-0.00003213,-0.00007568,0.00012868,0.00002557,-0.00001828
 ,-0.00003583,0.00001174,-0.00000704,-0.00008727,-0.00000669,0.00010949
 ,0.00007742,0.00019668,-0.00000900,0.00013463,-0.00007402,0.00005828,-
 0.00014059,-0.00000757,-0.00008498,-0.00012944,-0.00030790,0.00008883,
 0.00023202,-0.00029603,-0.00026600,-0.00025500,0.00018623,-0.00010082,
 -0.00004358,0.00021385,-0.00006917,-0.00001352,0.00009355,0.00001345,-
 0.00001224,-0.00025518,0.00002436,0.00010358,0.00010405,0.00001816,0.0
 0004327,-0.00009995,-0.00000050,-0.00002291,0.00015146,-0.00010916,-0.
 00004153,0.00102833,0.00087473,-0.00002656,0.00006048,-0.00015336,0.00
 007864,-0.00019815,0.00001881,-0.00012645,0.00004074,0.00015354,-0.000
 00761,0.00011217,0.00012526,-0.00001821,0.00002530,0.00003495,0.000017
 15,0.00007142,-0.00001184,-0.00001482,0.00007146,0.00016608,0.00001113
 ,0.05796278,-0.00164258,0.00387812,-0.00148058,0.00288627,0.00298901,0
 .00115840,0.00150009,-0.00350128,0.00106334,0.00013417,0.00025414,-0.0
 0013910,0.00003494,-0.00067126,0.00033649,0.00022884,-0.00061785,0.000
 91012,-0.00016347,0.00003163,0.00006868,0.00042896,-0.00134095,-0.0005
 0065,0.00036761,0.00008912,0.00028999,0.00013234,0.00154456,-0.0003614
 2,0.00024455,0.00017538,0.00019686,0.00033880,0.00016793,0.00121341,0.
 00014562,-0.00110075,0.00010786,0.00029684,0.00022741,-0.00033901,0.00
 022089,-0.00005678,0.00006982,-0.00000602,-0.00003428,0.00003800,0.000
 15979,-0.00016083,0.00035173,0.00022686,0.00003485,-0.00005126,0.00004
 334,0.00002629,-0.00003493,-0.00114728,-0.00065524,-0.00054588,-0.0000
 4837,-0.00055097,0.00008097,0.00024172,-0.00144479,0.00006582,0.000251
 97,0.00004149,-0.00024180,-0.00001481,-0.00001927,0.00004756,-0.000026
 32,-0.00003498,0.00008794,0.00017720,0.00012483,0.00010229,0.00003460,
 -0.00006381,-0.00010137,-0.00004782,-0.00001564,0.00000670,-0.00005202
 ,-0.00014210,-0.00035877,-0.00001980,0.00004337,0.00010623,-0.00006210
 ,-0.00001307,-0.00001480,0.00007899,-0.00105831,-0.00132649,-0.0000401
 8,-0.00035923,-0.00005126,0.00003097,-0.00171743,-0.00045301,0.0002198
 9,-0.00046136,-0.00033436,0.00001011,-0.00008430,0.00019526,-0.0000516
 8,-0.00003136,-0.00004162,-0.00000331,0.00001316,-0.00004717,-0.000001
 04,0.00001244,0.00002375,0.00000235,0.00001323,0.00002423,-0.00000698,
 -0.00004637,-0.00003586,-0.00002651,0.00008814,0.00002920,-0.00002517,
 0.00000212,0.00002268,0.00004009,0.00008062,0.00015525,0.00017800,-0.0
 0018904,-0.00015007,-0.00029991,-0.00015470,0.00008466,0.00005195,0.00
 007212,0.00009876,0.00016373,-0.00000952,0.00001320,0.00000319,-0.0000
 2299,-0.00005396,0.00002737,-0.00009786,-0.00009579,-0.00000026,0.0000
 0213,0.00002772,0.00003058,0.00002399,0.00001925,-0.00006519,0.0000513
 3,-0.00002958,-0.00012450,-0.00019952,-0.00000854,-0.00001468,0.000049
 55,-0.00003689,0.00000421,0.00002601,0.00002668,-0.00000503,-0.0000324
 7,0.00001136,-0.00003443,-0.00007422,0.00000244,-0.00000405,-0.0000397
 2,0.00001165,0.00010908,-0.00008854,0.00000526,-0.00006406,-0.00005973
 ,-0.00000043,-0.03205037,0.03820200,0.00044069,-0.00095992,0.00067936,
 -0.00166114,0.00137845,0.00566097,-0.00053628,0.00116163,-0.00213697,-
 0.00025718,-0.00008658,-0.00017317,-0.00006893,0.00025839,0.00027274,-
 0.00080819,0.00110671,-0.00144313,0.00015695,-0.00004990,-0.00007401,0
 .00045662,-0.00063698,-0.00014412,0.00010788,0.00003030,0.00009886,0.0
 0008708,-0.00004625,-0.00058822,0.00006324,-0.00018415,0.00022804,0.00
 005312,0.00058422,-0.00067739,-0.00058021,0.00015455,0.00035198,-0.000
 48401,-0.00016809,0.00070635,-0.00027798,0.00003600,-0.00017512,0.0000
 0730,0.00002682,-0.00002185,0.00008626,0.00008788,0.00032243,0.0000551
 1,0.00000320,-0.00005985,0.00001795,-0.00000370,-0.00000250,-0.0001285
 7,0.00018810,0.00016944,0.00007201,-0.00010758,0.00009093,0.00030924,-
 0.00002255,-0.00021765,-0.00042459,0.00000780,-0.00035194,-0.00001152,
 -0.00004642,0.00007622,0.00019258,0.00012487,0.00021185,-0.00014949,-0
 .00009574,-0.00022848,0.00000188,0.00004326,0.00010169,0.00002815,-0.0
 0002136,0.00000954,-0.00006521,0.00003098,-0.00019486,-0.00007345,-0.0
 0002917,0.00001676,-0.00000421,-0.00000369,0.00003207,-0.00007152,-0.0
 0025251,-0.00134497,0.00001311,-0.00064262,0.00003154,0.00018928,-0.00
 100733,-0.00011609,-0.00016717,0.00058495,0.00038385,-0.00000488,0.000
 21383,-0.00025953,0.00002027,-0.00004659,0.00004381,0.00000459,-0.0000
 2527,0.00008072,0.00003604,-0.00002326,0.00000055,-0.00000263,-0.00000
 030,-0.00007575,-0.00002591,0.00005916,0.00004078,0.00013889,0.0001646
 5,0.00019996,-0.00006061,-0.00000177,-0.00004620,0.00003171,0.00001868
 ,0.00003167,-0.00007341,-0.00015986,-0.00013460,-0.00057808,-0.0004456
 7,0.00015737,0.00004152,0.00012211,-0.00002417,0.00032658,-0.00022887,
 -0.00003279,-0.00001451,0.00007974,0.00007138,0.00009372,-0.00020951,-
 0.00001867,-0.00001536,0.00008575,-0.00001511,-0.00001127,0.00006767,0
 .00013731,-0.00000054,-0.00000726,-0.00000304,0.00019385,0.00010686,-0
 .00011905,0.00000781,-0.00003218,-0.00000071,-0.00004923,0.00001594,0.
 00002253,0.00000239,0.00002940,0.00001229,0.00002481,0.00001238,-0.000
 00281,0.00000902,0.00000783,-0.00001413,-0.00001512,0.00000727,0.00003
 341,0.00003866,0.00003134,-0.00004862,0.01349574,-0.00963275,0.0111161
 6,-0.02748598,-0.02431873,0.00708459,-0.06738959,0.03697429,-0.0165107
 4,-0.04301338,-0.03803909,0.00584149,0.00468518,-0.00018989,0.00026771
 ,0.00526747,0.00498241,-0.00036982,-0.00275791,0.00302452,-0.00298127,
 -0.00089572,0.00062841,-0.00012341,-0.00125709,0.00187488,0.00009120,-
 0.00045197,-0.00018835,-0.00043243,-0.00039962,-0.00381503,0.00186614,
 -0.00092875,-0.00032723,-0.00092330,-0.00138654,-0.00543073,-0.0012137
 5,0.00008035,-0.00054855,0.00049715,-0.00108592,-0.00026842,0.00140662
 ,-0.00048954,0.00018390,-0.00033165,0.00002343,0.00002471,0.00006004,-
 0.00001363,0.00031025,-0.00053738,-0.00026360,-0.00012301,0.00005853,-
 0.00024243,-0.00012360,0.00002199,0.00041539,-0.00061998,0.00008627,-0
 .00029402,0.00038040,-0.00008382,-0.00057404,0.00007955,-0.00010996,-0
 .00097742,0.00042499,0.00130831,-0.00050096,-0.00031589,-0.00014203,-0
 .00008684,-0.00001126,-0.00009178,-0.00075475,-0.00041162,-0.00004112,
 0.00000476,0.00011681,0.00024074,0.00021700,0.00009378,0.00005110,0.00
 025835,0.00122311,-0.00011823,0.00011307,-0.00034204,0.00024171,-0.000
 60873,-0.00036869,-0.00027233,0.00004336,-0.00086132,0.00058110,0.0000
 0679,0.00023731,-0.00009705,-0.00007047,-0.00017216,-0.00072916,-0.001
 24603,0.00062424,0.00002346,-0.00000786,-0.00000165,-0.00010286,0.0000
 5690,-0.00018378,0.00043193,0.00008009,-0.00003932,-0.00007770,-0.0000
 1452,-0.00003735,-0.00000745,0.00001948,-0.00000779,-0.00002332,-0.000
 00671,0.00000040,0.00000004,-0.00001319,-0.00042738,-0.00062393,-0.000
 08003,-0.00003056,0.00012152,0.00003325,-0.00002446,-0.00009423,0.0000
 5377,-0.00005261,-0.00053430,0.00029048,0.00027347,-0.00007389,-0.0000
 4260,0.00005807,-0.00011817,-0.00018769,0.00005820,0.00003677,0.000047
 50,-0.00005860,-0.00001388,0.00006325,-0.00017225,-0.00004560,-0.00000
 261,0.00000490,0.00004318,0.00006601,0.00002277,-0.00002501,0.00009232
 ,0.00014588,-0.00002544,-0.00122949,-0.00128776,0.00007003,-0.00001677
 ,0.00005254,-0.00001108,0.00040212,-0.00012850,0.00027193,-0.00006680,
 -0.00014157,0.00001956,0.00037651,0.00065171,-0.00005977,-0.00016829,0
 .00017053,-0.00010684,-0.00229113,0.00073496,-0.00071514,0.00004616,0.
 00001041,0.00004089,-0.04583288,0.02700203,-0.01018282,0.19039251,-0.0
 2486459,-0.05148091,0.01332601,0.03455887,-0.05091229,0.01086449,-0.03
 451382,-0.08037481,0.00845852,0.00697694,-0.00675730,0.00357870,-0.002
 56744,-0.00789814,0.00236071,0.00039852,0.00212488,-0.00156457,0.00038
 505,-0.00042709,-0.00016376,-0.00215996,0.00533221,0.00107337,-0.00104
 361,-0.00033002,-0.00107117,-0.00136195,0.00051984,-0.00005641,0.00019
 958,0.00011065,0.00033603,0.00046962,0.00424042,0.00146222,-0.00055971
 ,-0.00021816,0.00048330,-0.00066823,-0.00071458,-0.00006374,-0.0004158
 5,0.00015070,0.00004779,0.00000923,-0.00001871,0.00002881,-0.00082578,
 0.00058214,-0.00080428,-0.00056814,-0.00017431,0.00026043,-0.00017823,
 -0.00006506,0.00003533,0.00006609,-0.00005017,-0.00095766,0.00002872,0
 .00001484,0.00011221,0.00001554,0.00016773,-0.00001772,0.00087587,-0.0
 0044751,-0.00073523,0.00048083,0.00019774,0.00015126,0.00002950,0.0000
 4767,0.00006180,-0.00022844,-0.00038542,0.00025873,-0.00005112,0.00011
 203,0.00010258,0.00001607,0.00003157,-0.00001859,0.00101716,0.00063892
 ,0.00070069,-0.00007013,-0.00008008,0.00016203,-0.00011631,-0.00015224
 ,-0.00022335,-0.00017601,-0.00047518,-0.00021712,0.00007460,0.00002645
 ,0.00005839,-0.00051821,0.00008296,-0.00028579,0.00055206,-0.00035563,
 0.00008622,0.00008814,0.00010298,-0.00002207,-0.00002479,0.00007886,-0
 .00019995,-0.00014757,-0.00007749,0.00001820,-0.00002804,0.00001898,0.
 00001678,0.00003896,0.00002662,0.00009739,0.00005947,0.00000827,-0.000
 04879,-0.00039457,-0.00016938,-0.00081687,-0.00018406,0.00005238,-0.00
 015362,-0.00003675,-0.00009656,-0.00019277,0.00030041,0.00007514,0.000
 77934,-0.00054749,-0.00026622,-0.00154150,0.00056869,-0.00052627,0.000
 15965,0.00018369,0.00015748,0.00021813,-0.00008559,0.00005404,-0.00005
 039,-0.00005185,0.00000161,-0.00006474,-0.00002606,0.00002370,-0.00000
 997,-0.00008101,0.00007283,0.00007179,0.00000832,-0.00008285,-0.000064
 09,-0.00234316,-0.00122152,-0.00020864,0.00018390,-0.00008913,0.000056
 54,0.00052794,-0.00075576,0.00040483,-0.00010579,-0.00028961,0.0000151
 4,-0.00008977,-0.00075601,0.00004708,0.00015284,-0.00015631,0.00003781
 ,0.00182313,0.00014338,0.00059003,-0.00016439,-0.00013591,0.00007086,0
 .02640895,-0.03311451,0.00834713,-0.00130027,0.22385811,0.00626818,0.0
 1139665,-0.01296539,-0.01653924,0.01160977,-0.03089684,0.00572335,0.00
 968149,-0.02708191,-0.00165959,0.00264352,0.00100468,0.00087522,0.0031
 8780,0.00127861,0.00426149,-0.00431721,0.00539391,-0.00024076,0.000058
 28,0.00040895,-0.00362777,0.00423844,0.00131701,-0.00070777,-0.0002241
 4,-0.00057572,-0.00200385,-0.00666424,0.00444237,-0.00178801,-0.000644
 84,-0.00167633,0.00234865,0.00477494,0.00183702,-0.00040071,0.00060350
 ,0.00025501,0.00184334,0.00038978,-0.00237633,0.00081874,-0.00009932,0
 .00067200,-0.00000766,-0.00003220,0.00001406,-0.00037338,-0.00032116,-
 0.00201927,-0.00054205,-0.00003408,0.00040857,-0.00014242,0.00000410,0
 .00004467,-0.00033230,-0.00088908,-0.00096603,-0.00054193,0.00030061,0
 .00025344,-0.00011332,0.00005391,0.00003224,0.00080779,-0.00024645,-0.
 00185464,0.00032505,0.00025112,0.00039271,0.00009460,0.00011544,0.0000
 1564,0.00008685,0.00021755,0.00052110,0.00007318,-0.00001246,-0.000088
 38,-0.00020236,-0.00005664,0.00013720,0.00048346,0.00064022,0.00060037
 ,0.00021505,0.00006259,-0.00008053,-0.00022395,-0.00041534,0.00020580,
 0.00054753,-0.00045309,0.00087589,-0.00002704,-0.00005501,0.00005598,-
 0.00032434,0.00007060,-0.00033419,0.00042445,-0.00025122,0.00016570,-0
 .00001242,0.00001806,-0.00000685,0.00005718,-0.00000864,-0.00021098,-0
 .00005139,0.00013305,-0.00003727,0.00006695,-0.00001331,0.00001984,-0.
 00003831,0.00012604,-0.00004637,-0.00000378,-0.00005317,-0.00000771,-0
 .00289023,-0.00134900,-0.00291450,0.00046962,0.00023230,0.00044554,0.0
 0006079,-0.00024740,0.00007834,0.00152573,0.00066175,0.00043532,-0.000
 94452,-0.00074427,-0.00186380,0.00056660,0.00037959,0.00105530,-0.0000
 0940,-0.00005961,0.00012322,-0.00005046,0.00002653,-0.00023460,-0.0004
 6560,0.00034879,-0.00013227,0.00019915,0.00003789,-0.00017349,0.000002
 74,-0.00004221,0.00011049,0.00026746,-0.00014580,0.00008278,0.00031261
 ,0.00029813,0.00081229,-0.00003527,0.00002640,0.00003861,0.00007485,0.
 00015775,-0.00026871,0.00006704,0.00002274,-0.00014282,0.00005049,0.00
 029193,-0.00024345,-0.00001748,0.00002107,-0.00015479,-0.00082452,0.00
 019414,0.00046688,0.00003302,0.00007721,0.00001619,-0.01099597,0.00941
 377,-0.01264707,0.01718666,-0.04538752,0.07598250\\-0.00000081,-0.0000
 0485,0.00000028,0.00000091,-0.00000398,0.00001742,-0.00000310,0.000007
 65,-0.00000942,-0.00000493,-0.00000077,-0.00000325,-0.00000139,-0.0000
 0238,0.00000154,0.00000332,0.00000314,-0.00001237,0.00000019,-0.000004
 41,-0.00000026,0.00000115,0.00000365,-0.00000782,0.00000129,-0.0000035
 4,0.00000014,-0.00000169,-0.00001211,0.00001005,0.00000125,0.00000437,
 0.00000031,0.00000072,0.00000912,-0.00000117,0.00000208,0.00000030,-0.
 00000044,-0.00000264,-0.00000577,-0.00000037,-0.00000048,-0.00000330,-
 0.00000160,-0.00000051,-0.00000112,0.00000087,0.00000176,0.00000141,-0
 .00000314,0.00000081,-0.00000207,-0.00000167,0.00000268,-0.00000335,-0
 .00000008,-0.00000139,0.00000006,-0.00000018,-0.00000042,0.00000300,0.
 00000058,0.00000165,0.00000199,0.00000020,-0.00000246,0.00000039,0.000
 00291,0.00000060,0.00000263,0.00000066,-0.00000030,0.00000358,0.000001
 73,0.00000215,-0.00000316,0.00000265,-0.00000111,-0.00000282,-0.000000
 57,-0.00000118,-0.00000141,-0.00000012,0.00000047,-0.00000404,0.000000
 22,0.00000074,0.00000020,-0.00000215,0.00000247,-0.00000090,-0.0000015
 6,-0.00000283,0.00000350,-0.00000407,-0.00000053,0.00000021,0.00000179
 ,0.00000027,-0.00000081,0.00000009,0.00000081,0.00000282,0.00000481,-0
 .00000017,0.00000256,0.00000044,0.00000035,0.00000297,-0.00000032,-0.0
 0000102,-0.00000196,-0.00000089,-0.00000181,-0.00000292,0.00000029,-0.
 00000156,-0.00000149,0.00000173,-0.00000131,-0.00000199,0.00000153,0.0
 0000388,-0.00000093,-0.00000051,0.00000082,0.00000196,-0.00000255,0.00
 000203,0.00000115,-0.00000173,0.00000013,0.00000121,-0.00000174,-0.000
 00156,-0.00000267,0.00000159,0.00000025,-0.00000074,-0.00000034,-0.000
 00110,0.00000013,0.00000020,0.00000019,-0.00000075,0.00000069,-0.00000
 009,0.00000080,-0.00000061,0.00000057,0.00000291,0.00000020,0.00000227
 ,0.00000209,-0.00000005,0.00000105,0.00000172,-0.00000015,0.00000169,0
 .00000167,0.00000080,-0.00000090,-0.00000078,-0.00000043,-0.00000076,-
 0.00000177,0.00000199,-0.00000220,-0.00000004,0.00000078,-0.00000128,0
 .00000064,0.00000103,-0.00000253,0.00000131,0.00000250,-0.00000112,0.0
 0000132,0.00000063,-0.00000059,0.00000049,0.00000151,-0.00000135,-0.00
 000022,-0.00000224,0.00000656,0.00000608,-0.00000036\\\@


 Age does not diminish the extreme disappointment of
 having a scoop of ice cream fall from the cone.
 -- Jim Fiebig
 Job cpu time:       0 days  5 hours  3 minutes 20.4 seconds.
 File lengths (MBytes):  RWF=   1987 Int=      0 D2E=      0 Chk=     72 Scr=      1
 Normal termination of Gaussian 09 at Tue Nov 16 17:18:30 2021.
