 Entering Gaussian System, Link 0=g09
 Input=SS_Et_DuPhos_5.com
 Output=SS_Et_DuPhos_5.log
 Initial command:
 /gstore/apps/gaussian/g09.e01-foss-2017a/g09/l1.exe "/local/21251416/Gau-20690.inp" -scrdir="/local/21251416/"
 Entering Link 1 = /gstore/apps/gaussian/g09.e01-foss-2017a/g09/l1.exe PID=     20691.
  
 Copyright (c) 1988,1990,1992,1993,1995,1998,2003,2009,2015,
            Gaussian, Inc.  All Rights Reserved.
  
 This is part of the Gaussian(R) 09 program.  It is based on
 the Gaussian(R) 03 system (copyright 2003, Gaussian, Inc.),
 the Gaussian(R) 98 system (copyright 1998, Gaussian, Inc.),
 the Gaussian(R) 94 system (copyright 1995, Gaussian, Inc.),
 the Gaussian 92(TM) system (copyright 1992, Gaussian, Inc.),
 the Gaussian 90(TM) system (copyright 1990, Gaussian, Inc.),
 the Gaussian 88(TM) system (copyright 1988, Gaussian, Inc.),
 the Gaussian 86(TM) system (copyright 1986, Carnegie Mellon
 University), and the Gaussian 82(TM) system (copyright 1983,
 Carnegie Mellon University). Gaussian is a federally registered
 trademark of Gaussian, Inc.
  
 This software contains proprietary and confidential information,
 including trade secrets, belonging to Gaussian, Inc.
  
 This software is provided under written license and may be
 used, copied, transmitted, or stored only in accord with that
 written license.
  
 The following legend is applicable only to US Government
 contracts under FAR:
  
                    RESTRICTED RIGHTS LEGEND
  
 Use, reproduction and disclosure by the US Government is
 subject to restrictions as set forth in subparagraphs (a)
 and (c) of the Commercial Computer Software - Restricted
 Rights clause in FAR 52.227-19.
  
 Gaussian, Inc.
 340 Quinnipiac St., Bldg. 40, Wallingford CT 06492
  
  
 ---------------------------------------------------------------
 Warning -- This program may not be used in any manner that
 competes with the business of Gaussian, Inc. or will provide
 assistance to any competitor of Gaussian, Inc.  The licensee
 of this program is prohibited from giving any competitor of
 Gaussian, Inc. access to this program.  By using this program,
 the user acknowledges that Gaussian, Inc. is engaged in the
 business of creating and licensing software in the field of
 computational chemistry and represents and warrants to the
 licensee that it is not a competitor of Gaussian, Inc. and that
 it will not use this program in any manner prohibited above.
 ---------------------------------------------------------------
  

 Cite this work as:
 Gaussian 09, Revision E.01,
 M. J. Frisch, G. W. Trucks, H. B. Schlegel, G. E. Scuseria, 
 M. A. Robb, J. R. Cheeseman, G. Scalmani, V. Barone, B. Mennucci, 
 G. A. Petersson, H. Nakatsuji, M. Caricato, X. Li, H. P. Hratchian, 
 A. F. Izmaylov, J. Bloino, G. Zheng, J. L. Sonnenberg, M. Hada, 
 M. Ehara, K. Toyota, R. Fukuda, J. Hasegawa, M. Ishida, T. Nakajima, 
 Y. Honda, O. Kitao, H. Nakai, T. Vreven, J. A. Montgomery, Jr., 
 J. E. Peralta, F. Ogliaro, M. Bearpark, J. J. Heyd, E. Brothers, 
 K. N. Kudin, V. N. Staroverov, T. Keith, R. Kobayashi, J. Normand, 
 K. Raghavachari, A. Rendell, J. C. Burant, S. S. Iyengar, J. Tomasi, 
 M. Cossi, N. Rega, J. M. Millam, M. Klene, J. E. Knox, J. B. Cross, 
 V. Bakken, C. Adamo, J. Jaramillo, R. Gomperts, R. E. Stratmann, 
 O. Yazyev, A. J. Austin, R. Cammi, C. Pomelli, J. W. Ochterski, 
 R. L. Martin, K. Morokuma, V. G. Zakrzewski, G. A. Voth, 
 P. Salvador, J. J. Dannenberg, S. Dapprich, A. D. Daniels, 
 O. Farkas, J. B. Foresman, J. V. Ortiz, J. Cioslowski, 
 and D. J. Fox, Gaussian, Inc., Wallingford CT, 2013.
 
 ******************************************
 Gaussian 09:  ES64L-G09RevE.01 30-Nov-2015
                16-Nov-2021 
 ******************************************
 %nprocs=14
 Will use up to   14 processors via shared memory.
 %mem=128GB
 %chk=SS_Et_DuPhos_5.chk
 ----------------------------------------------------------------------
 # PBEPBE gen 6D pseudo=read scf=maxcycles=500 denfit int=(grid=ultrafi
 ne) empiricaldispersion=GD3BJ opt freq=noraman
 ----------------------------------------------------------------------
 1/14=-1,18=20,19=15,26=4,38=1/1,3;
 2/9=110,12=2,17=6,18=5,40=1/2;
 3/5=7,8=2,11=2,16=1,17=8,25=1,30=1,71=1,74=1009,75=-5,82=47,124=41/1,2,3;
 4//1;
 5/5=2,7=500,38=5/2;
 6/7=2,8=2,9=2,10=2,28=1/1;
 7//1,2,3,16;
 1/14=-1,18=20,19=15,26=4/3(2);
 2/9=110/2;
 99//99;
 2/9=110/2;
 3/5=7,6=1,8=2,11=2,16=1,17=8,25=1,30=1,71=1,74=1009,75=-5,82=7,124=41/1,2,3;
 4/5=5,16=3,69=1/1;
 5/5=2,7=500,38=5/2;
 7//1,2,3,16;
 1/14=-1,18=20,19=15,26=4/3(-5);
 2/9=110/2;
 6/7=2,8=2,9=2,10=2,19=2,28=1/1;
 99/9=1/99;
 ------------
 SS_Et_DuPhos
 ------------
 Symbolic Z-matrix:
 Charge =  0 Multiplicity = 1
 Cl                   -1.2075   -3.8115    1.3904 
 P                    -1.6051   -0.6894    0.0413 
 P                     1.5357   -0.1288    0.2796 
 C                    -0.9775    1.0553   -0.3001 
 C                     0.4188    1.2923   -0.2099 
 C                    -3.1239   -0.7605    1.0461 
 H                    -3.3147   -1.8059    1.293 
 C                    -2.38     -1.1534   -1.5482 
 H                    -1.9353   -0.5845   -2.366 
 C                     2.5889    0.5485    1.6151 
 H                     2.6654    1.6306    1.509 
 C                     2.855    -0.4528   -0.9587 
 H                     2.9203   -1.5345   -1.0858 
 C                    -4.2221   -0.3234    0.0721 
 H                    -5.1796   -0.7565    0.364 
 H                    -4.3656    0.7537    0.1348 
 C                    -3.8626   -0.7318   -1.3794 
 H                    -4.0851    0.0989   -2.0501 
 H                    -4.5216   -1.5409   -1.6969 
 C                     3.9581   -0.0466    1.2761 
 H                     4.7592    0.4833    1.7924 
 H                     4.0044   -1.0855    1.6047 
 C                     4.1403    0.0163   -0.2525 
 H                     5.0017   -0.5711   -0.5722 
 H                     4.349     1.0502   -0.531 
 C                    -3.0297    0.0356    2.3552 
 H                    -2.6397    1.0341    2.1529 
 H                    -4.0284    0.1765    2.7699 
 C                    -2.2357   -2.6593   -1.8404 
 H                    -2.857    -2.9201   -2.6981 
 H                    -2.6339   -3.2327   -1.003 
 C                     2.0617    0.2396    3.0234 
 H                     2.85      0.4212    3.7548 
 H                     1.8117   -0.8182    3.1049 
 C                     2.6409    0.1851   -2.3445 
 H                     2.5608    1.2674   -2.2514 
 H                     3.5274    0.0078   -2.9544 
 C                    -2.1545   -0.6645    3.4041 
 H                    -2.0321   -0.0411    4.2899 
 H                    -1.1642   -0.8983    3.0162 
 H                    -2.6053   -1.6052    3.7222 
 C                    -0.8004   -3.1128   -2.1383 
 H                    -0.1042   -2.8471   -1.3461 
 H                    -0.7574   -4.1952   -2.2624 
 H                    -0.4415   -2.6649   -3.0641 
 C                     0.8412    1.0929    3.3923 
 H                     0.0468    1.0033    2.6525 
 H                     1.1069    2.1487    3.4492 
 H                     0.4371    0.8012    4.3616 
 C                     1.4183   -0.3504   -3.099 
 H                     1.5171   -1.4195   -3.2836 
 H                     0.4942   -0.1855   -2.5475 
 H                     1.3135    0.1433   -4.0652 
 C                    -1.8282    2.1162   -0.6769 
 H                    -2.8873    1.9612   -0.783 
 C                    -1.3091    3.3979   -0.938 
 H                    -1.9722    4.201    -1.2242 
 C                     0.073     3.6311   -0.832 
 H                     0.4742    4.6136   -1.0333 
 C                     0.9329    2.5792   -0.4702 
 H                     1.9944    2.7628   -0.3998 
 Cl                    2.077    -3.2492    1.5271 
 Pd                    0.2066   -2.0432    0.8366 
 

 GradGradGradGradGradGradGradGradGradGradGradGradGradGradGradGradGradGrad
 Berny optimization.
 Initialization pass.
                           ----------------------------
                           !    Initial Parameters    !
                           ! (Angstroms and Degrees)  !
 --------------------------                            --------------------------
 ! Name  Definition              Value          Derivative Info.                !
 --------------------------------------------------------------------------------
 ! R1    R(1,63)                 2.3309         estimate D2E/DX2                !
 ! R2    R(2,4)                  1.8853         estimate D2E/DX2                !
 ! R3    R(2,6)                  1.8225         estimate D2E/DX2                !
 ! R4    R(2,8)                  1.8282         estimate D2E/DX2                !
 ! R5    R(2,63)                 2.3974         estimate D2E/DX2                !
 ! R6    R(3,5)                  1.8726         estimate D2E/DX2                !
 ! R7    R(3,10)                 1.8307         estimate D2E/DX2                !
 ! R8    R(3,12)                 1.8382         estimate D2E/DX2                !
 ! R9    R(3,63)                 2.3962         estimate D2E/DX2                !
 ! R10   R(4,5)                  1.4191         estimate D2E/DX2                !
 ! R11   R(4,54)                 1.4111         estimate D2E/DX2                !
 ! R12   R(5,60)                 1.41           estimate D2E/DX2                !
 ! R13   R(6,7)                  1.091          estimate D2E/DX2                !
 ! R14   R(6,14)                 1.5316         estimate D2E/DX2                !
 ! R15   R(6,26)                 1.5351         estimate D2E/DX2                !
 ! R16   R(8,9)                  1.091          estimate D2E/DX2                !
 ! R17   R(8,17)                 1.5506         estimate D2E/DX2                !
 ! R18   R(8,29)                 1.5408         estimate D2E/DX2                !
 ! R19   R(10,11)                1.09           estimate D2E/DX2                !
 ! R20   R(10,20)                1.5309         estimate D2E/DX2                !
 ! R21   R(10,32)                1.5351         estimate D2E/DX2                !
 ! R22   R(12,13)                1.0911         estimate D2E/DX2                !
 ! R23   R(12,23)                1.5397         estimate D2E/DX2                !
 ! R24   R(12,35)                1.5405         estimate D2E/DX2                !
 ! R25   R(14,15)                1.0907         estimate D2E/DX2                !
 ! R26   R(14,16)                1.0884         estimate D2E/DX2                !
 ! R27   R(14,17)                1.5501         estimate D2E/DX2                !
 ! R28   R(17,18)                1.0906         estimate D2E/DX2                !
 ! R29   R(17,19)                1.0907         estimate D2E/DX2                !
 ! R30   R(20,21)                1.0905         estimate D2E/DX2                !
 ! R31   R(20,22)                1.0906         estimate D2E/DX2                !
 ! R32   R(20,23)                1.5407         estimate D2E/DX2                !
 ! R33   R(23,24)                1.0905         estimate D2E/DX2                !
 ! R34   R(23,25)                1.0909         estimate D2E/DX2                !
 ! R35   R(26,27)                1.0909         estimate D2E/DX2                !
 ! R36   R(26,28)                1.0905         estimate D2E/DX2                !
 ! R37   R(26,38)                1.535          estimate D2E/DX2                !
 ! R38   R(29,30)                1.0907         estimate D2E/DX2                !
 ! R39   R(29,31)                1.0902         estimate D2E/DX2                !
 ! R40   R(29,42)                1.5344         estimate D2E/DX2                !
 ! R41   R(32,33)                1.0906         estimate D2E/DX2                !
 ! R42   R(32,34)                1.09           estimate D2E/DX2                !
 ! R43   R(32,46)                1.5342         estimate D2E/DX2                !
 ! R44   R(35,36)                1.0892         estimate D2E/DX2                !
 ! R45   R(35,37)                1.0905         estimate D2E/DX2                !
 ! R46   R(35,50)                1.5332         estimate D2E/DX2                !
 ! R47   R(38,39)                1.0901         estimate D2E/DX2                !
 ! R48   R(38,40)                1.089          estimate D2E/DX2                !
 ! R49   R(38,41)                1.0906         estimate D2E/DX2                !
 ! R50   R(42,43)                1.0876         estimate D2E/DX2                !
 ! R51   R(42,44)                1.0903         estimate D2E/DX2                !
 ! R52   R(42,45)                1.0893         estimate D2E/DX2                !
 ! R53   R(46,47)                1.0892         estimate D2E/DX2                !
 ! R54   R(46,48)                1.0902         estimate D2E/DX2                !
 ! R55   R(46,49)                1.0899         estimate D2E/DX2                !
 ! R56   R(50,51)                1.0894         estimate D2E/DX2                !
 ! R57   R(50,52)                1.0887         estimate D2E/DX2                !
 ! R58   R(50,53)                1.0901         estimate D2E/DX2                !
 ! R59   R(54,55)                1.0756         estimate D2E/DX2                !
 ! R60   R(54,56)                1.4073         estimate D2E/DX2                !
 ! R61   R(56,57)                1.0801         estimate D2E/DX2                !
 ! R62   R(56,58)                1.4056         estimate D2E/DX2                !
 ! R63   R(58,59)                1.0802         estimate D2E/DX2                !
 ! R64   R(58,60)                1.406          estimate D2E/DX2                !
 ! R65   R(60,61)                1.0796         estimate D2E/DX2                !
 ! R66   R(62,63)                2.3302         estimate D2E/DX2                !
 ! A1    A(4,2,6)              114.4161         estimate D2E/DX2                !
 ! A2    A(4,2,8)              102.6227         estimate D2E/DX2                !
 ! A3    A(4,2,63)             109.3348         estimate D2E/DX2                !
 ! A4    A(6,2,8)               96.6739         estimate D2E/DX2                !
 ! A5    A(6,2,63)             115.1408         estimate D2E/DX2                !
 ! A6    A(8,2,63)             117.7368         estimate D2E/DX2                !
 ! A7    A(5,3,10)             104.6586         estimate D2E/DX2                !
 ! A8    A(5,3,12)             112.6903         estimate D2E/DX2                !
 ! A9    A(5,3,63)             109.648          estimate D2E/DX2                !
 ! A10   A(10,3,12)             98.2642         estimate D2E/DX2                !
 ! A11   A(10,3,63)            116.4301         estimate D2E/DX2                !
 ! A12   A(12,3,63)            114.4483         estimate D2E/DX2                !
 ! A13   A(2,4,5)              118.0712         estimate D2E/DX2                !
 ! A14   A(2,4,54)             122.9169         estimate D2E/DX2                !
 ! A15   A(5,4,54)             118.9849         estimate D2E/DX2                !
 ! A16   A(3,5,4)              118.4717         estimate D2E/DX2                !
 ! A17   A(3,5,60)             121.5618         estimate D2E/DX2                !
 ! A18   A(4,5,60)             119.9618         estimate D2E/DX2                !
 ! A19   A(2,6,7)              107.933          estimate D2E/DX2                !
 ! A20   A(2,6,14)             103.6389         estimate D2E/DX2                !
 ! A21   A(2,6,26)             113.5037         estimate D2E/DX2                !
 ! A22   A(7,6,14)             106.9769         estimate D2E/DX2                !
 ! A23   A(7,6,26)             108.3416         estimate D2E/DX2                !
 ! A24   A(14,6,26)            115.9971         estimate D2E/DX2                !
 ! A25   A(2,8,9)              110.2806         estimate D2E/DX2                !
 ! A26   A(2,8,17)             103.9821         estimate D2E/DX2                !
 ! A27   A(2,8,29)             111.9162         estimate D2E/DX2                !
 ! A28   A(9,8,17)             109.2425         estimate D2E/DX2                !
 ! A29   A(9,8,29)             109.2281         estimate D2E/DX2                !
 ! A30   A(17,8,29)            112.0823         estimate D2E/DX2                !
 ! A31   A(3,10,11)            109.6734         estimate D2E/DX2                !
 ! A32   A(3,10,20)            102.0737         estimate D2E/DX2                !
 ! A33   A(3,10,32)            113.4038         estimate D2E/DX2                !
 ! A34   A(11,10,20)           107.5526         estimate D2E/DX2                !
 ! A35   A(11,10,32)           108.2501         estimate D2E/DX2                !
 ! A36   A(20,10,32)           115.5983         estimate D2E/DX2                !
 ! A37   A(3,12,13)            107.2277         estimate D2E/DX2                !
 ! A38   A(3,12,23)            103.677          estimate D2E/DX2                !
 ! A39   A(3,12,35)            115.6748         estimate D2E/DX2                !
 ! A40   A(13,12,23)           107.7888         estimate D2E/DX2                !
 ! A41   A(13,12,35)           108.3031         estimate D2E/DX2                !
 ! A42   A(23,12,35)           113.7312         estimate D2E/DX2                !
 ! A43   A(6,14,15)            110.24           estimate D2E/DX2                !
 ! A44   A(6,14,16)            109.8964         estimate D2E/DX2                !
 ! A45   A(6,14,17)            110.732          estimate D2E/DX2                !
 ! A46   A(15,14,16)           105.1769         estimate D2E/DX2                !
 ! A47   A(15,14,17)           110.4618         estimate D2E/DX2                !
 ! A48   A(16,14,17)           110.1964         estimate D2E/DX2                !
 ! A49   A(8,17,14)            113.2858         estimate D2E/DX2                !
 ! A50   A(8,17,18)            109.5861         estimate D2E/DX2                !
 ! A51   A(8,17,19)            110.1393         estimate D2E/DX2                !
 ! A52   A(14,17,18)           109.1392         estimate D2E/DX2                !
 ! A53   A(14,17,19)           109.1401         estimate D2E/DX2                !
 ! A54   A(18,17,19)           105.2326         estimate D2E/DX2                !
 ! A55   A(10,20,21)           111.3026         estimate D2E/DX2                !
 ! A56   A(10,20,22)           109.9704         estimate D2E/DX2                !
 ! A57   A(10,20,23)           108.0344         estimate D2E/DX2                !
 ! A58   A(21,20,22)           106.8014         estimate D2E/DX2                !
 ! A59   A(21,20,23)           111.2865         estimate D2E/DX2                !
 ! A60   A(22,20,23)           109.4389         estimate D2E/DX2                !
 ! A61   A(12,23,20)           110.1143         estimate D2E/DX2                !
 ! A62   A(12,23,24)           111.1496         estimate D2E/DX2                !
 ! A63   A(12,23,25)           109.3508         estimate D2E/DX2                !
 ! A64   A(20,23,24)           111.2401         estimate D2E/DX2                !
 ! A65   A(20,23,25)           108.3369         estimate D2E/DX2                !
 ! A66   A(24,23,25)           106.5311         estimate D2E/DX2                !
 ! A67   A(6,26,27)            109.7845         estimate D2E/DX2                !
 ! A68   A(6,26,28)            109.5793         estimate D2E/DX2                !
 ! A69   A(6,26,38)            112.4072         estimate D2E/DX2                !
 ! A70   A(27,26,28)           106.2402         estimate D2E/DX2                !
 ! A71   A(27,26,38)           109.8977         estimate D2E/DX2                !
 ! A72   A(28,26,38)           108.7372         estimate D2E/DX2                !
 ! A73   A(8,29,30)            109.2372         estimate D2E/DX2                !
 ! A74   A(8,29,31)            109.5222         estimate D2E/DX2                !
 ! A75   A(8,29,42)            114.4113         estimate D2E/DX2                !
 ! A76   A(30,29,31)           105.6756         estimate D2E/DX2                !
 ! A77   A(30,29,42)           108.0283         estimate D2E/DX2                !
 ! A78   A(31,29,42)           109.5924         estimate D2E/DX2                !
 ! A79   A(10,32,33)           109.4815         estimate D2E/DX2                !
 ! A80   A(10,32,34)           110.0375         estimate D2E/DX2                !
 ! A81   A(10,32,46)           112.4492         estimate D2E/DX2                !
 ! A82   A(33,32,34)           106.0957         estimate D2E/DX2                !
 ! A83   A(33,32,46)           108.7328         estimate D2E/DX2                !
 ! A84   A(34,32,46)           109.8351         estimate D2E/DX2                !
 ! A85   A(12,35,36)           110.168          estimate D2E/DX2                !
 ! A86   A(12,35,37)           108.8321         estimate D2E/DX2                !
 ! A87   A(12,35,50)           114.1342         estimate D2E/DX2                !
 ! A88   A(36,35,37)           105.612          estimate D2E/DX2                !
 ! A89   A(36,35,50)           109.2966         estimate D2E/DX2                !
 ! A90   A(37,35,50)           108.4339         estimate D2E/DX2                !
 ! A91   A(26,38,39)           111.0054         estimate D2E/DX2                !
 ! A92   A(26,38,40)           111.9018         estimate D2E/DX2                !
 ! A93   A(26,38,41)           110.9185         estimate D2E/DX2                !
 ! A94   A(39,38,40)           108.0673         estimate D2E/DX2                !
 ! A95   A(39,38,41)           107.6194         estimate D2E/DX2                !
 ! A96   A(40,38,41)           107.1347         estimate D2E/DX2                !
 ! A97   A(29,42,43)           112.6533         estimate D2E/DX2                !
 ! A98   A(29,42,44)           110.6331         estimate D2E/DX2                !
 ! A99   A(29,42,45)           110.5899         estimate D2E/DX2                !
 ! A100  A(43,42,44)           107.4684         estimate D2E/DX2                !
 ! A101  A(43,42,45)           107.9214         estimate D2E/DX2                !
 ! A102  A(44,42,45)           107.3655         estimate D2E/DX2                !
 ! A103  A(32,46,47)           111.7853         estimate D2E/DX2                !
 ! A104  A(32,46,48)           110.9342         estimate D2E/DX2                !
 ! A105  A(32,46,49)           111.0961         estimate D2E/DX2                !
 ! A106  A(47,46,48)           107.0294         estimate D2E/DX2                !
 ! A107  A(47,46,49)           108.1564         estimate D2E/DX2                !
 ! A108  A(48,46,49)           107.6458         estimate D2E/DX2                !
 ! A109  A(35,50,51)           110.7212         estimate D2E/DX2                !
 ! A110  A(35,50,52)           112.003          estimate D2E/DX2                !
 ! A111  A(35,50,53)           110.7724         estimate D2E/DX2                !
 ! A112  A(51,50,52)           108.1469         estimate D2E/DX2                !
 ! A113  A(51,50,53)           107.6371         estimate D2E/DX2                !
 ! A114  A(52,50,53)           107.3851         estimate D2E/DX2                !
 ! A115  A(4,54,55)            120.7707         estimate D2E/DX2                !
 ! A116  A(4,54,56)            120.7911         estimate D2E/DX2                !
 ! A117  A(55,54,56)           118.434          estimate D2E/DX2                !
 ! A118  A(54,56,57)           119.994          estimate D2E/DX2                !
 ! A119  A(54,56,58)           119.987          estimate D2E/DX2                !
 ! A120  A(57,56,58)           120.0184         estimate D2E/DX2                !
 ! A121  A(56,58,59)           120.1355         estimate D2E/DX2                !
 ! A122  A(56,58,60)           119.7778         estimate D2E/DX2                !
 ! A123  A(59,58,60)           120.0857         estimate D2E/DX2                !
 ! A124  A(5,60,58)            120.4867         estimate D2E/DX2                !
 ! A125  A(5,60,61)            120.1116         estimate D2E/DX2                !
 ! A126  A(58,60,61)           119.4002         estimate D2E/DX2                !
 ! A127  A(1,63,2)              92.7944         estimate D2E/DX2                !
 ! A128  A(1,63,62)             91.3711         estimate D2E/DX2                !
 ! A129  A(2,63,3)              83.7363         estimate D2E/DX2                !
 ! A130  A(3,63,62)             92.129          estimate D2E/DX2                !
 ! A131  L(1,63,3,62,-1)       183.5001         estimate D2E/DX2                !
 ! A132  L(2,63,62,3,-1)       175.8653         estimate D2E/DX2                !
 ! A133  L(1,63,3,62,-2)       181.4322         estimate D2E/DX2                !
 ! A134  L(2,63,62,3,-2)       181.2574         estimate D2E/DX2                !
 ! D1    D(6,2,4,5)            137.9824         estimate D2E/DX2                !
 ! D2    D(6,2,4,54)           -43.9314         estimate D2E/DX2                !
 ! D3    D(8,2,4,5)           -118.5759         estimate D2E/DX2                !
 ! D4    D(8,2,4,54)            59.5102         estimate D2E/DX2                !
 ! D5    D(63,2,4,5)             7.158          estimate D2E/DX2                !
 ! D6    D(63,2,4,54)         -174.7558         estimate D2E/DX2                !
 ! D7    D(4,2,6,7)           -172.3811         estimate D2E/DX2                !
 ! D8    D(4,2,6,14)            74.3948         estimate D2E/DX2                !
 ! D9    D(4,2,6,26)           -52.2873         estimate D2E/DX2                !
 ! D10   D(8,2,6,7)             80.4763         estimate D2E/DX2                !
 ! D11   D(8,2,6,14)           -32.7477         estimate D2E/DX2                !
 ! D12   D(8,2,6,26)          -159.4299         estimate D2E/DX2                !
 ! D13   D(63,2,6,7)           -44.451          estimate D2E/DX2                !
 ! D14   D(63,2,6,14)         -157.675          estimate D2E/DX2                !
 ! D15   D(63,2,6,26)           75.6428         estimate D2E/DX2                !
 ! D16   D(4,2,8,9)             24.9735         estimate D2E/DX2                !
 ! D17   D(4,2,8,17)           -92.0327         estimate D2E/DX2                !
 ! D18   D(4,2,8,29)           146.7843         estimate D2E/DX2                !
 ! D19   D(6,2,8,9)            141.8901         estimate D2E/DX2                !
 ! D20   D(6,2,8,17)            24.8839         estimate D2E/DX2                !
 ! D21   D(6,2,8,29)           -96.2991         estimate D2E/DX2                !
 ! D22   D(63,2,8,9)           -95.0988         estimate D2E/DX2                !
 ! D23   D(63,2,8,17)          147.8951         estimate D2E/DX2                !
 ! D24   D(63,2,8,29)           26.712          estimate D2E/DX2                !
 ! D25   D(4,2,63,1)           171.0003         estimate D2E/DX2                !
 ! D26   D(4,2,63,3)            -7.4897         estimate D2E/DX2                !
 ! D27   D(6,2,63,1)            40.5658         estimate D2E/DX2                !
 ! D28   D(6,2,63,3)          -137.9242         estimate D2E/DX2                !
 ! D29   D(8,2,63,1)           -72.5021         estimate D2E/DX2                !
 ! D30   D(8,2,63,3)           109.0079         estimate D2E/DX2                !
 ! D31   D(10,3,5,4)          -130.609          estimate D2E/DX2                !
 ! D32   D(10,3,5,60)           48.5952         estimate D2E/DX2                !
 ! D33   D(12,3,5,4)           123.7026         estimate D2E/DX2                !
 ! D34   D(12,3,5,60)          -57.0932         estimate D2E/DX2                !
 ! D35   D(63,3,5,4)            -5.0238         estimate D2E/DX2                !
 ! D36   D(63,3,5,60)          174.1804         estimate D2E/DX2                !
 ! D37   D(5,3,10,11)          -25.5068         estimate D2E/DX2                !
 ! D38   D(5,3,10,20)         -139.3352         estimate D2E/DX2                !
 ! D39   D(5,3,10,32)           95.6336         estimate D2E/DX2                !
 ! D40   D(12,3,10,11)          90.6548         estimate D2E/DX2                !
 ! D41   D(12,3,10,20)         -23.1736         estimate D2E/DX2                !
 ! D42   D(12,3,10,32)        -148.2047         estimate D2E/DX2                !
 ! D43   D(63,3,10,11)        -146.7142         estimate D2E/DX2                !
 ! D44   D(63,3,10,20)          99.4574         estimate D2E/DX2                !
 ! D45   D(63,3,10,32)         -25.5738         estimate D2E/DX2                !
 ! D46   D(5,3,12,13)         -136.8933         estimate D2E/DX2                !
 ! D47   D(5,3,12,23)          109.2374         estimate D2E/DX2                !
 ! D48   D(5,3,12,35)          -15.9708         estimate D2E/DX2                !
 ! D49   D(10,3,12,13)         113.358          estimate D2E/DX2                !
 ! D50   D(10,3,12,23)          -0.5113         estimate D2E/DX2                !
 ! D51   D(10,3,12,35)        -125.7195         estimate D2E/DX2                !
 ! D52   D(63,3,12,13)         -10.7056         estimate D2E/DX2                !
 ! D53   D(63,3,12,23)        -124.5749         estimate D2E/DX2                !
 ! D54   D(63,3,12,35)         110.2169         estimate D2E/DX2                !
 ! D55   D(5,3,63,2)             6.9352         estimate D2E/DX2                !
 ! D56   D(5,3,63,62)         -174.3222         estimate D2E/DX2                !
 ! D57   D(10,3,63,2)          125.4595         estimate D2E/DX2                !
 ! D58   D(10,3,63,62)         -55.7979         estimate D2E/DX2                !
 ! D59   D(12,3,63,2)         -120.8179         estimate D2E/DX2                !
 ! D60   D(12,3,63,62)          57.9247         estimate D2E/DX2                !
 ! D61   D(2,4,5,3)             -1.4104         estimate D2E/DX2                !
 ! D62   D(2,4,5,60)           179.3723         estimate D2E/DX2                !
 ! D63   D(54,4,5,3)          -179.5738         estimate D2E/DX2                !
 ! D64   D(54,4,5,60)            1.2089         estimate D2E/DX2                !
 ! D65   D(2,4,54,55)            0.0796         estimate D2E/DX2                !
 ! D66   D(2,4,54,56)         -179.1663         estimate D2E/DX2                !
 ! D67   D(5,4,54,55)          178.1491         estimate D2E/DX2                !
 ! D68   D(5,4,54,56)           -1.0969         estimate D2E/DX2                !
 ! D69   D(3,5,60,58)         -179.7946         estimate D2E/DX2                !
 ! D70   D(3,5,60,61)            0.6494         estimate D2E/DX2                !
 ! D71   D(4,5,60,58)           -0.6021         estimate D2E/DX2                !
 ! D72   D(4,5,60,61)          179.8419         estimate D2E/DX2                !
 ! D73   D(2,6,14,15)          153.092          estimate D2E/DX2                !
 ! D74   D(2,6,14,16)          -91.4284         estimate D2E/DX2                !
 ! D75   D(2,6,14,17)           30.5478         estimate D2E/DX2                !
 ! D76   D(7,6,14,15)           39.1788         estimate D2E/DX2                !
 ! D77   D(7,6,14,16)          154.6584         estimate D2E/DX2                !
 ! D78   D(7,6,14,17)          -83.3654         estimate D2E/DX2                !
 ! D79   D(26,6,14,15)         -81.8147         estimate D2E/DX2                !
 ! D80   D(26,6,14,16)          33.665          estimate D2E/DX2                !
 ! D81   D(26,6,14,17)         155.6411         estimate D2E/DX2                !
 ! D82   D(2,6,26,27)           48.5796         estimate D2E/DX2                !
 ! D83   D(2,6,26,28)          164.9            estimate D2E/DX2                !
 ! D84   D(2,6,26,38)          -74.0733         estimate D2E/DX2                !
 ! D85   D(7,6,26,27)          168.4413         estimate D2E/DX2                !
 ! D86   D(7,6,26,28)          -75.2382         estimate D2E/DX2                !
 ! D87   D(7,6,26,38)           45.7885         estimate D2E/DX2                !
 ! D88   D(14,6,26,27)         -71.2991         estimate D2E/DX2                !
 ! D89   D(14,6,26,28)          45.0213         estimate D2E/DX2                !
 ! D90   D(14,6,26,38)         166.048          estimate D2E/DX2                !
 ! D91   D(2,8,17,14)           -9.844          estimate D2E/DX2                !
 ! D92   D(2,8,17,18)          112.296          estimate D2E/DX2                !
 ! D93   D(2,8,17,19)         -132.3937         estimate D2E/DX2                !
 ! D94   D(9,8,17,14)         -127.5707         estimate D2E/DX2                !
 ! D95   D(9,8,17,18)           -5.4307         estimate D2E/DX2                !
 ! D96   D(9,8,17,19)          109.8796         estimate D2E/DX2                !
 ! D97   D(29,8,17,14)         111.2279         estimate D2E/DX2                !
 ! D98   D(29,8,17,18)        -126.632          estimate D2E/DX2                !
 ! D99   D(29,8,17,19)         -11.3218         estimate D2E/DX2                !
 ! D100  D(2,8,29,30)          170.0825         estimate D2E/DX2                !
 ! D101  D(2,8,29,31)           54.7828         estimate D2E/DX2                !
 ! D102  D(2,8,29,42)          -68.6958         estimate D2E/DX2                !
 ! D103  D(9,8,29,30)          -67.5044         estimate D2E/DX2                !
 ! D104  D(9,8,29,31)          177.1959         estimate D2E/DX2                !
 ! D105  D(9,8,29,42)           53.7172         estimate D2E/DX2                !
 ! D106  D(17,8,29,30)          53.7052         estimate D2E/DX2                !
 ! D107  D(17,8,29,31)         -61.5945         estimate D2E/DX2                !
 ! D108  D(17,8,29,42)         174.9268         estimate D2E/DX2                !
 ! D109  D(3,10,20,21)         163.1204         estimate D2E/DX2                !
 ! D110  D(3,10,20,22)         -78.7285         estimate D2E/DX2                !
 ! D111  D(3,10,20,23)          40.6582         estimate D2E/DX2                !
 ! D112  D(11,10,20,21)         47.7325         estimate D2E/DX2                !
 ! D113  D(11,10,20,22)        165.8836         estimate D2E/DX2                !
 ! D114  D(11,10,20,23)        -74.7297         estimate D2E/DX2                !
 ! D115  D(32,10,20,21)        -73.3148         estimate D2E/DX2                !
 ! D116  D(32,10,20,22)         44.8363         estimate D2E/DX2                !
 ! D117  D(32,10,20,23)        164.2229         estimate D2E/DX2                !
 ! D118  D(3,10,32,33)         164.6241         estimate D2E/DX2                !
 ! D119  D(3,10,32,34)          48.3896         estimate D2E/DX2                !
 ! D120  D(3,10,32,46)         -74.395          estimate D2E/DX2                !
 ! D121  D(11,10,32,33)        -73.4387         estimate D2E/DX2                !
 ! D122  D(11,10,32,34)        170.3268         estimate D2E/DX2                !
 ! D123  D(11,10,32,46)         47.5423         estimate D2E/DX2                !
 ! D124  D(20,10,32,33)         47.2316         estimate D2E/DX2                !
 ! D125  D(20,10,32,34)        -69.0029         estimate D2E/DX2                !
 ! D126  D(20,10,32,46)        168.2125         estimate D2E/DX2                !
 ! D127  D(3,12,23,20)          24.9322         estimate D2E/DX2                !
 ! D128  D(3,12,23,24)         148.6673         estimate D2E/DX2                !
 ! D129  D(3,12,23,25)         -93.9961         estimate D2E/DX2                !
 ! D130  D(13,12,23,20)        -88.5333         estimate D2E/DX2                !
 ! D131  D(13,12,23,24)         35.2018         estimate D2E/DX2                !
 ! D132  D(13,12,23,25)        152.5384         estimate D2E/DX2                !
 ! D133  D(35,12,23,20)        151.3789         estimate D2E/DX2                !
 ! D134  D(35,12,23,24)        -84.886          estimate D2E/DX2                !
 ! D135  D(35,12,23,25)         32.4506         estimate D2E/DX2                !
 ! D136  D(3,12,35,36)          59.0674         estimate D2E/DX2                !
 ! D137  D(3,12,35,37)         174.4196         estimate D2E/DX2                !
 ! D138  D(3,12,35,50)         -64.3219         estimate D2E/DX2                !
 ! D139  D(13,12,35,36)        179.4081         estimate D2E/DX2                !
 ! D140  D(13,12,35,37)        -65.2397         estimate D2E/DX2                !
 ! D141  D(13,12,35,50)         56.0188         estimate D2E/DX2                !
 ! D142  D(23,12,35,36)        -60.795          estimate D2E/DX2                !
 ! D143  D(23,12,35,37)         54.5572         estimate D2E/DX2                !
 ! D144  D(23,12,35,50)        175.8157         estimate D2E/DX2                !
 ! D145  D(6,14,17,8)          -13.9032         estimate D2E/DX2                !
 ! D146  D(6,14,17,18)        -136.2921         estimate D2E/DX2                !
 ! D147  D(6,14,17,19)         109.1992         estimate D2E/DX2                !
 ! D148  D(15,14,17,8)        -136.3182         estimate D2E/DX2                !
 ! D149  D(15,14,17,18)        101.293          estimate D2E/DX2                !
 ! D150  D(15,14,17,19)        -13.2157         estimate D2E/DX2                !
 ! D151  D(16,14,17,8)         107.897          estimate D2E/DX2                !
 ! D152  D(16,14,17,18)        -14.4918         estimate D2E/DX2                !
 ! D153  D(16,14,17,19)       -129.0006         estimate D2E/DX2                !
 ! D154  D(10,20,23,12)        -44.8468         estimate D2E/DX2                !
 ! D155  D(10,20,23,24)       -168.5293         estimate D2E/DX2                !
 ! D156  D(10,20,23,25)         74.6997         estimate D2E/DX2                !
 ! D157  D(21,20,23,12)       -167.3189         estimate D2E/DX2                !
 ! D158  D(21,20,23,24)         68.9985         estimate D2E/DX2                !
 ! D159  D(21,20,23,25)        -47.7724         estimate D2E/DX2                !
 ! D160  D(22,20,23,12)         74.8756         estimate D2E/DX2                !
 ! D161  D(22,20,23,24)        -48.807          estimate D2E/DX2                !
 ! D162  D(22,20,23,25)       -165.5779         estimate D2E/DX2                !
 ! D163  D(6,26,38,39)         175.046          estimate D2E/DX2                !
 ! D164  D(6,26,38,40)          54.2206         estimate D2E/DX2                !
 ! D165  D(6,26,38,41)         -65.3578         estimate D2E/DX2                !
 ! D166  D(27,26,38,39)         52.4569         estimate D2E/DX2                !
 ! D167  D(27,26,38,40)        -68.3684         estimate D2E/DX2                !
 ! D168  D(27,26,38,41)        172.0531         estimate D2E/DX2                !
 ! D169  D(28,26,38,39)        -63.4456         estimate D2E/DX2                !
 ! D170  D(28,26,38,40)        175.7291         estimate D2E/DX2                !
 ! D171  D(28,26,38,41)         56.1506         estimate D2E/DX2                !
 ! D172  D(8,29,42,43)          55.487          estimate D2E/DX2                !
 ! D173  D(8,29,42,44)         175.7995         estimate D2E/DX2                !
 ! D174  D(8,29,42,45)         -65.3753         estimate D2E/DX2                !
 ! D175  D(30,29,42,43)        177.3725         estimate D2E/DX2                !
 ! D176  D(30,29,42,44)        -62.315          estimate D2E/DX2                !
 ! D177  D(30,29,42,45)         56.5102         estimate D2E/DX2                !
 ! D178  D(31,29,42,43)        -67.954          estimate D2E/DX2                !
 ! D179  D(31,29,42,44)         52.3586         estimate D2E/DX2                !
 ! D180  D(31,29,42,45)        171.1838         estimate D2E/DX2                !
 ! D181  D(10,32,46,47)         54.5478         estimate D2E/DX2                !
 ! D182  D(10,32,46,48)        -64.8303         estimate D2E/DX2                !
 ! D183  D(10,32,46,49)        175.4701         estimate D2E/DX2                !
 ! D184  D(33,32,46,47)        175.957          estimate D2E/DX2                !
 ! D185  D(33,32,46,48)         56.579          estimate D2E/DX2                !
 ! D186  D(33,32,46,49)        -63.1207         estimate D2E/DX2                !
 ! D187  D(34,32,46,47)        -68.3505         estimate D2E/DX2                !
 ! D188  D(34,32,46,48)        172.2714         estimate D2E/DX2                !
 ! D189  D(34,32,46,49)         52.5718         estimate D2E/DX2                !
 ! D190  D(12,35,50,51)        -61.2001         estimate D2E/DX2                !
 ! D191  D(12,35,50,52)         59.5982         estimate D2E/DX2                !
 ! D192  D(12,35,50,53)        179.4624         estimate D2E/DX2                !
 ! D193  D(36,35,50,51)        174.9406         estimate D2E/DX2                !
 ! D194  D(36,35,50,52)        -64.2611         estimate D2E/DX2                !
 ! D195  D(36,35,50,53)         55.6031         estimate D2E/DX2                !
 ! D196  D(37,35,50,51)         60.2786         estimate D2E/DX2                !
 ! D197  D(37,35,50,52)       -178.9231         estimate D2E/DX2                !
 ! D198  D(37,35,50,53)        -59.0589         estimate D2E/DX2                !
 ! D199  D(4,54,56,57)        -179.9153         estimate D2E/DX2                !
 ! D200  D(4,54,56,58)           0.3661         estimate D2E/DX2                !
 ! D201  D(55,54,56,57)          0.8214         estimate D2E/DX2                !
 ! D202  D(55,54,56,58)       -178.8971         estimate D2E/DX2                !
 ! D203  D(54,56,58,59)        179.9089         estimate D2E/DX2                !
 ! D204  D(54,56,58,60)          0.2617         estimate D2E/DX2                !
 ! D205  D(57,56,58,59)          0.1904         estimate D2E/DX2                !
 ! D206  D(57,56,58,60)       -179.4567         estimate D2E/DX2                !
 ! D207  D(56,58,60,5)          -0.1408         estimate D2E/DX2                !
 ! D208  D(56,58,60,61)        179.4183         estimate D2E/DX2                !
 ! D209  D(59,58,60,5)        -179.7881         estimate D2E/DX2                !
 ! D210  D(59,58,60,61)         -0.229          estimate D2E/DX2                !
 --------------------------------------------------------------------------------
 Trust Radius=3.00D-01 FncErr=1.00D-07 GrdErr=1.00D-06
 Number of steps in this run=    378 maximum allowed number of steps=    378.
 GradGradGradGradGradGradGradGradGradGradGradGradGradGradGradGradGradGrad

 Stoichiometry    C22H36Cl2P2Pd
 Framework group  C1[X(C22H36Cl2P2Pd)]
 Deg. of freedom   183
 Full point group                 C1      NOp   1
 Largest Abelian subgroup         C1      NOp   1
 Largest concise Abelian subgroup C1      NOp   1
                         Standard orientation:                         
 ---------------------------------------------------------------------
 Center     Atomic      Atomic             Coordinates (Angstroms)
 Number     Number       Type             X           Y           Z
 ---------------------------------------------------------------------
      1         17           0       -1.729948   -3.036081   -0.002885
      2         15           0       -1.560188    0.383581   -0.055468
      3         15           0        1.637323    0.277793   -0.035054
      4          6           0       -0.611512    1.994803    0.186167
      5          6           0        0.806637    1.942698    0.176265
      6          6           0       -3.003121    0.187331    1.040371
      7          1           0       -3.388092   -0.825207    0.910792
      8          6           0       -2.500878    0.700220   -1.590760
      9          1           0       -1.996407    1.456223   -2.194225
     10          6           0        2.879164    0.205838    1.308142
     11          1           0        3.167731    1.216839    1.595645
     12          6           0        2.791937    0.237815   -1.464803
     13          1           0        2.629020   -0.707128   -1.985411
     14          6           0       -4.042443    1.140750    0.443230
     15          1           0       -5.050069    0.795127    0.677371
     16          1           0       -3.960509    2.119229    0.912841
     17          6           0       -3.855167    1.265844   -1.090446
     18          1           0       -3.941538    2.314614   -1.376853
     19          1           0       -4.681441    0.762304   -1.593882
     20          6           0        4.077843   -0.433296    0.602131
     21          1           0        4.997463   -0.283276    1.168623
     22          1           0        3.930545   -1.510771    0.519754
     23          6           0        4.183179    0.179091   -0.807712
     24          1           0        4.888092   -0.375753   -1.427795
     25          1           0        4.581544    1.190302   -0.713771
     26          6           0       -2.676122    0.393360    2.525973
     27          1           0       -2.103447    1.312979    2.653921
     28          1           0       -3.600600    0.529052    3.088253
     29          6           0       -2.681941   -0.580041   -2.428665
     30          1           0       -3.390261   -0.384769   -3.234786
     31          1           0       -3.140772   -1.355396   -1.814753
     32          6           0        2.379884   -0.526419    2.561612
     33          1           0        3.228308   -0.773110    3.200880
     34          1           0        1.925267   -1.476982    2.282622
     35          6           0        2.634609    1.383986   -2.482023
     36          1           0        2.781278    2.344969   -1.990640
     37          1           0        3.431089    1.308720   -3.223138
     38          6           0       -1.904008   -0.790505    3.124814
     39          1           0       -1.608198   -0.583909    4.153437
     40          1           0       -1.005105   -1.019465    2.554399
     41          1           0       -2.517902   -1.691837    3.132563
     42          6           0       -1.387593   -1.117299   -3.053574
     43          1           0       -0.608725   -1.295516   -2.315690
     44          1           0       -1.572285   -2.060308   -3.568803
     45          1           0       -0.997611   -0.415541   -3.789767
     46          6           0        1.380671    0.311041    3.370354
     47          1           0        0.544495    0.645551    2.757724
     48          1           0        1.857976    1.204146    3.774201
     49          1           0        0.980654   -0.257933    4.209510
     50          6           0        1.288476    1.390432   -3.215961
     51          1           0        1.157647    0.473378   -3.789293
     52          1           0        0.449453    1.483077   -2.528383
     53          1           0        1.232199    2.226611   -3.913028
     54          6           0       -1.248800    3.244886    0.335612
     55          1           0       -2.321553    3.321346    0.317423
     56          6           0       -0.495708    4.422795    0.496160
     57          1           0       -0.996881    5.372664    0.610862
     58          6           0        0.908672    4.363552    0.501265
     59          1           0        1.489103    5.266384    0.622851
     60          6           0        1.555942    3.125858    0.340092
     61          1           0        2.634850    3.088659    0.335501
     62         17           0        1.602699   -3.125365   -0.094011
     63         46           0       -0.019509   -1.453212   -0.049638
 ---------------------------------------------------------------------
 Rotational constants (GHZ):      0.1635370      0.1455623      0.1182740
 General basis read from cards:  (6D, 7F)
 ======================================================================================================
                                       Pseudopotential Parameters
 ======================================================================================================
  Center     Atomic      Valence      Angular      Power
  Number     Number     Electrons     Momentum     of R      Exponent        Coefficient   SO-Coeffient
 ======================================================================================================
    1         17
                                   No pseudopotential on this center.
    2         15
                                   No pseudopotential on this center.
    3         15
                                   No pseudopotential on this center.
    4          6
                                   No pseudopotential on this center.
    5          6
                                   No pseudopotential on this center.
    6          6
                                   No pseudopotential on this center.
    7          1
                                   No pseudopotential on this center.
    8          6
                                   No pseudopotential on this center.
    9          1
                                   No pseudopotential on this center.
   10          6
                                   No pseudopotential on this center.
   11          1
                                   No pseudopotential on this center.
   12          6
                                   No pseudopotential on this center.
   13          1
                                   No pseudopotential on this center.
   14          6
                                   No pseudopotential on this center.
   15          1
                                   No pseudopotential on this center.
   16          1
                                   No pseudopotential on this center.
   17          6
                                   No pseudopotential on this center.
   18          1
                                   No pseudopotential on this center.
   19          1
                                   No pseudopotential on this center.
   20          6
                                   No pseudopotential on this center.
   21          1
                                   No pseudopotential on this center.
   22          1
                                   No pseudopotential on this center.
   23          6
                                   No pseudopotential on this center.
   24          1
                                   No pseudopotential on this center.
   25          1
                                   No pseudopotential on this center.
   26          6
                                   No pseudopotential on this center.
   27          1
                                   No pseudopotential on this center.
   28          1
                                   No pseudopotential on this center.
   29          6
                                   No pseudopotential on this center.
   30          1
                                   No pseudopotential on this center.
   31          1
                                   No pseudopotential on this center.
   32          6
                                   No pseudopotential on this center.
   33          1
                                   No pseudopotential on this center.
   34          1
                                   No pseudopotential on this center.
   35          6
                                   No pseudopotential on this center.
   36          1
                                   No pseudopotential on this center.
   37          1
                                   No pseudopotential on this center.
   38          6
                                   No pseudopotential on this center.
   39          1
                                   No pseudopotential on this center.
   40          1
                                   No pseudopotential on this center.
   41          1
                                   No pseudopotential on this center.
   42          6
                                   No pseudopotential on this center.
   43          1
                                   No pseudopotential on this center.
   44          1
                                   No pseudopotential on this center.
   45          1
                                   No pseudopotential on this center.
   46          6
                                   No pseudopotential on this center.
   47          1
                                   No pseudopotential on this center.
   48          1
                                   No pseudopotential on this center.
   49          1
                                   No pseudopotential on this center.
   50          6
                                   No pseudopotential on this center.
   51          1
                                   No pseudopotential on this center.
   52          1
                                   No pseudopotential on this center.
   53          1
                                   No pseudopotential on this center.
   54          6
                                   No pseudopotential on this center.
   55          1
                                   No pseudopotential on this center.
   56          6
                                   No pseudopotential on this center.
   57          1
                                   No pseudopotential on this center.
   58          6
                                   No pseudopotential on this center.
   59          1
                                   No pseudopotential on this center.
   60          6
                                   No pseudopotential on this center.
   61          1
                                   No pseudopotential on this center.
   62         17
                                   No pseudopotential on this center.
   63         46           18
                                      F and up 
                                                     0      598.3336444       -0.05631770    0.00000000
                                                     1      162.4298290      -20.12880360    0.00000000
                                                     2       51.5714771     -105.81979230    0.00000000
                                                     2       16.4888260      -42.57333450    0.00000000
                                                     2        5.8287656       -3.61650860    0.00000000
                                      S - F
                                                     0       73.3806304        3.00036510    0.00000000
                                                     1       14.7550438       32.43500930    0.00000000
                                                     2       17.8350204      459.08303830    0.00000000
                                                     2       12.7111477     -868.06290290    0.00000000
                                                     2        9.3292063      514.47260980    0.00000000
                                      P - F
                                                     0       55.6689877        4.95930990    0.00000000
                                                     1       64.2337771       21.17110290    0.00000000
                                                     2       17.6254952      605.05600920    0.00000000
                                                     2       11.9058155     -726.96418460    0.00000000
                                                     2        8.5100832      396.32748830    0.00000000
                                      D - F
                                                     0       49.9994728        3.05087450    0.00000000
                                                     1       39.7477547       22.25065800    0.00000000
                                                     2       11.4321366      674.83576980    0.00000000
                                                     2        9.1790080    -1040.85540480    0.00000000
                                                     2        7.5624429      505.93751470    0.00000000
 ======================================================================================================
 There are   502 symmetry adapted cartesian basis functions of A   symmetry.
 There are   502 symmetry adapted basis functions of A   symmetry.
   502 basis functions,  1017 primitive gaussians,   502 cartesian basis functions
   125 alpha electrons      125 beta electrons
       nuclear repulsion energy      4045.3045786762 Hartrees.
 NAtoms=   63 NActive=   63 NUniq=   63 SFac= 1.00D+00 NAtFMM=   60 NAOKFM=T Big=T
 Integral buffers will be    131072 words long.
 Raffenetti 2 integral format.
 Two-electron integral symmetry is turned on.
 Nuclear repulsion after empirical dispersion term =     4045.1909000596 Hartrees.
 Standard density basis: Auto (5D, 7F)
  2222 Density fitting functions
 There are  2222 symmetry adapted density basis functions of A   symmetry.
 One-electron integrals computed using PRISM.
   1 Symmetry operations used in ECPInt.
 ECPInt:  NShTT=   17766 NPrTT=  111805 LenC2=   15830 LenP2D=   55942.
 LDataN:  DoStor=T MaxTD1= 5 Len=  102
 NBasis=   502 RedAO= T EigKep=  5.05D-04  NBF=   502
 NBsUse=   502 1.00D-06 EigRej= -1.00D+00 NBFU=   502
 NBasis=      502 NBas6D=      502 NTT=      126253   NTT6D=   126253
 NDBShl=      478 NDBF=       2222 NDBF6D=     2624  NNucDB=        0
 IDenFi=        2 ISolve=        0 FullAP=F BlkAPC=T NucTyp=        0
 TolInv= 1.00D-06 TolIt=  1.00D-10 IR12=0.
 FoFCou: FMM=F IPFlag=           0 FMFlag=           0 FMFlg1=           0
         NFxFlg=           0 DoJE=F BraDBF=T KetDBF=T FulRan=T
         wScrn=  0.000000 ICntrl=     600 IOpCl=  3 I1Cent=           6 NGrid=           0
         NMat0=    1 NMatS0=   2624 NMatT0=    0 NMatD0=    1 NMtDS0=    0 NMtDT0=    0
 Petite list used in FoFCou.
 DBF EigKep=  3.66D-06 EigRej=  8.52D-07
 NDBF=   2222  NBFD=  2222
 NRank=  2221 NBFDU=  2221
 S*AI*S=  11.0196520951    
 Defaulting to unpruned grid for atomic number  46.
 ExpMin= 2.62D-02 ExpMax= 2.52D+04 ExpMxC= 3.78D+03 IAcc=3 IRadAn=         5 AccDes= 0.00D+00
 Harris functional with IExCor= 1009 and IRadAn=       5 diagonalized for initial guess.
 HarFok:  IExCor= 1009 AccDes= 0.00D+00 IRadAn=         5 IDoV= 1 UseB2=F ITyADJ=14
 ICtDFT=  3500011 ScaDFX=  1.000000  1.000000  1.000000  1.000000
 Defaulting to unpruned grid for atomic number  46.
 Defaulting to unpruned grid for atomic number  46.
 Defaulting to unpruned grid for atomic number  46.
 Defaulting to unpruned grid for atomic number  46.
 Defaulting to unpruned grid for atomic number  46.
 Defaulting to unpruned grid for atomic number  46.
 Defaulting to unpruned grid for atomic number  46.
 Defaulting to unpruned grid for atomic number  46.
 Defaulting to unpruned grid for atomic number  46.
 Defaulting to unpruned grid for atomic number  46.
 Defaulting to unpruned grid for atomic number  46.
 Defaulting to unpruned grid for atomic number  46.
 Defaulting to unpruned grid for atomic number  46.
 Defaulting to unpruned grid for atomic number  46.
 FoFCou: FMM=F IPFlag=           0 FMFlag=      100000 FMFlg1=        2001
         NFxFlg=           0 DoJE=T BraDBF=F KetDBF=T FulRan=T
         wScrn=  0.000000 ICntrl=     500 IOpCl=  0 I1Cent=   200000004 NGrid=           0
         NMat0=    1 NMatS0=      1 NMatT0=    0 NMatD0=    1 NMtDS0=    0 NMtDT0=    0
 Petite list used in FoFCou.
 Requested convergence on RMS density matrix=1.00D-08 within 500 cycles.
 Requested convergence on MAX density matrix=1.00D-06.
 Requested convergence on             energy=1.00D-06.
 No special actions if energy rises.
 FoFCou: FMM=F IPFlag=           0 FMFlag=      100000 FMFlg1=        2001
         NFxFlg=           0 DoJE=T BraDBF=T KetDBF=F FulRan=T
         wScrn=  0.000000 ICntrl=     500 IOpCl=  0 I1Cent=           5 NGrid=           0
         NMat0=    1 NMatS0=      1 NMatT0=    0 NMatD0=    1 NMtDS0=    0 NMtDT0=    0
 Symmetry not used in FoFCou.
 Defaulting to unpruned grid for atomic number  46.
 Defaulting to unpruned grid for atomic number  46.
 Defaulting to unpruned grid for atomic number  46.
 Defaulting to unpruned grid for atomic number  46.
 Defaulting to unpruned grid for atomic number  46.
 Defaulting to unpruned grid for atomic number  46.
 Defaulting to unpruned grid for atomic number  46.
 Defaulting to unpruned grid for atomic number  46.
 Defaulting to unpruned grid for atomic number  46.
 Defaulting to unpruned grid for atomic number  46.
 Defaulting to unpruned grid for atomic number  46.
 Defaulting to unpruned grid for atomic number  46.
 Defaulting to unpruned grid for atomic number  46.
 Defaulting to unpruned grid for atomic number  46.
 EnCoef did   100 forward-backward iterations
 Problem detected with inexpensive integrals.
 Switching to full accuracy and repeating last cycle.
 EnCoef did     3 forward-backward iterations
 EnCoef did   100 forward-backward iterations
 EnCoef did   100 forward-backward iterations
 EnCoef did     2 forward-backward iterations
 EnCoef did     4 forward-backward iterations
 EnCoef did     2 forward-backward iterations
 EnCoef did     1 forward-backward iterations
 Restarting incremental Fock formation.
 SCF Done:  E(RPBE-PBE) =  -2588.19837108     A.U. after   29 cycles
            NFock= 29  Conv=0.41D-08     -V/T= 2.0380

 **********************************************************************

            Population analysis using the SCF density.

 **********************************************************************

 Orbital symmetries:
       Occupied  (A) (A) (A) (A) (A) (A) (A) (A) (A) (A) (A) (A)
                 (A) (A) (A) (A) (A) (A) (A) (A) (A) (A) (A) (A)
                 (A) (A) (A) (A) (A) (A) (A) (A) (A) (A) (A) (A)
                 (A) (A) (A) (A) (A) (A) (A) (A) (A) (A) (A) (A)
                 (A) (A) (A) (A) (A) (A) (A) (A) (A) (A) (A) (A)
                 (A) (A) (A) (A) (A) (A) (A) (A) (A) (A) (A) (A)
                 (A) (A) (A) (A) (A) (A) (A) (A) (A) (A) (A) (A)
                 (A) (A) (A) (A) (A) (A) (A) (A) (A) (A) (A) (A)
                 (A) (A) (A) (A) (A) (A) (A) (A) (A) (A) (A) (A)
                 (A) (A) (A) (A) (A) (A) (A) (A) (A) (A) (A) (A)
                 (A) (A) (A) (A) (A)
       Virtual   (A) (A) (A) (A) (A) (A) (A) (A) (A) (A) (A) (A)
                 (A) (A) (A) (A) (A) (A) (A) (A) (A) (A) (A) (A)
                 (A) (A) (A) (A) (A) (A) (A) (A) (A) (A) (A) (A)
                 (A) (A) (A) (A) (A) (A) (A) (A) (A) (A) (A) (A)
                 (A) (A) (A) (A) (A) (A) (A) (A) (A) (A) (A) (A)
                 (A) (A) (A) (A) (A) (A) (A) (A) (A) (A) (A) (A)
                 (A) (A) (A) (A) (A) (A) (A) (A) (A) (A) (A) (A)
                 (A) (A) (A) (A) (A) (A) (A) (A) (A) (A) (A) (A)
                 (A) (A) (A) (A) (A) (A) (A) (A) (A) (A) (A) (A)
                 (A) (A) (A) (A) (A) (A) (A) (A) (A) (A) (A) (A)
                 (A) (A) (A) (A) (A) (A) (A) (A) (A) (A) (A) (A)
                 (A) (A) (A) (A) (A) (A) (A) (A) (A) (A) (A) (A)
                 (A) (A) (A) (A) (A) (A) (A) (A) (A) (A) (A) (A)
                 (A) (A) (A) (A) (A) (A) (A) (A) (A) (A) (A) (A)
                 (A) (A) (A) (A) (A) (A) (A) (A) (A) (A) (A) (A)
                 (A) (A) (A) (A) (A) (A) (A) (A) (A) (A) (A) (A)
                 (A) (A) (A) (A) (A) (A) (A) (A) (A) (A) (A) (A)
                 (A) (A) (A) (A) (A) (A) (A) (A) (A) (A) (A) (A)
                 (A) (A) (A) (A) (A) (A) (A) (A) (A) (A) (A) (A)
                 (A) (A) (A) (A) (A) (A) (A) (A) (A) (A) (A) (A)
                 (A) (A) (A) (A) (A) (A) (A) (A) (A) (A) (A) (A)
                 (A) (A) (A) (A) (A) (A) (A) (A) (A) (A) (A) (A)
                 (A) (A) (A) (A) (A) (A) (A) (A) (A) (A) (A) (A)
                 (A) (A) (A) (A) (A) (A) (A) (A) (A) (A) (A) (A)
                 (A) (A) (A) (A) (A) (A) (A) (A) (A) (A) (A) (A)
                 (A) (A) (A) (A) (A) (A) (A) (A) (A) (A) (A) (A)
                 (A) (A) (A) (A) (A) (A) (A) (A) (A) (A) (A) (A)
                 (A) (A) (A) (A) (A) (A) (A) (A) (A) (A) (A) (A)
                 (A) (A) (A) (A) (A) (A) (A) (A) (A) (A) (A) (A)
                 (A) (A) (A) (A) (A) (A) (A) (A) (A) (A) (A) (A)
                 (A) (A) (A) (A) (A) (A) (A) (A) (A) (A) (A) (A)
                 (A) (A) (A) (A) (A)
 The electronic state is 1-A.
 Alpha  occ. eigenvalues -- -100.58958-100.58625 -76.36909 -76.36858  -9.95233
 Alpha  occ. eigenvalues --   -9.95061  -9.94109  -9.94029  -9.93862  -9.93808
 Alpha  occ. eigenvalues --   -9.92374  -9.92251  -9.92064  -9.91986  -9.91238
 Alpha  occ. eigenvalues --   -9.91210  -9.91167  -9.90839  -9.90383  -9.89968
 Alpha  occ. eigenvalues --   -9.89235  -9.89226  -9.89213  -9.88176  -9.87229
 Alpha  occ. eigenvalues --   -9.86639  -9.08480  -9.08169  -6.90780  -6.90468
 Alpha  occ. eigenvalues --   -6.90095  -6.90044  -6.89774  -6.89734  -6.34988
 Alpha  occ. eigenvalues --   -6.34946  -4.56830  -4.56795  -4.56687  -4.56640
 Alpha  occ. eigenvalues --   -4.56499  -4.56455  -3.19611  -1.96533  -1.96207
 Alpha  occ. eigenvalues --   -1.92642  -0.80835  -0.77717  -0.77509  -0.72534
 Alpha  occ. eigenvalues --   -0.72066  -0.71126  -0.70728  -0.68957  -0.68368
 Alpha  occ. eigenvalues --   -0.64274  -0.64018  -0.63559  -0.63297  -0.63170
 Alpha  occ. eigenvalues --   -0.62450  -0.58346  -0.57496  -0.56130  -0.55092
 Alpha  occ. eigenvalues --   -0.54234  -0.54172  -0.52290  -0.51800  -0.50622
 Alpha  occ. eigenvalues --   -0.48749  -0.46834  -0.44389  -0.44266  -0.43897
 Alpha  occ. eigenvalues --   -0.43482  -0.42305  -0.41744  -0.40484  -0.40169
 Alpha  occ. eigenvalues --   -0.39650  -0.39444  -0.38258  -0.37611  -0.37220
 Alpha  occ. eigenvalues --   -0.37035  -0.36931  -0.36568  -0.36041  -0.35691
 Alpha  occ. eigenvalues --   -0.35595  -0.34732  -0.34247  -0.32978  -0.32482
 Alpha  occ. eigenvalues --   -0.31994  -0.31765  -0.31505  -0.31217  -0.30703
 Alpha  occ. eigenvalues --   -0.30349  -0.29849  -0.29769  -0.29475  -0.29361
 Alpha  occ. eigenvalues --   -0.29072  -0.28983  -0.28761  -0.28588  -0.28511
 Alpha  occ. eigenvalues --   -0.28258  -0.27854  -0.27753  -0.26478  -0.25411
 Alpha  occ. eigenvalues --   -0.24948  -0.23787  -0.23719  -0.23188  -0.22840
 Alpha  occ. eigenvalues --   -0.18457  -0.18115  -0.17698  -0.17266  -0.16990
 Alpha virt. eigenvalues --   -0.08657  -0.08035  -0.07880  -0.01125  -0.00818
 Alpha virt. eigenvalues --    0.02582   0.02727   0.03007   0.03346   0.03823
 Alpha virt. eigenvalues --    0.04855   0.05182   0.05431   0.06016   0.06847
 Alpha virt. eigenvalues --    0.07941   0.08234   0.08641   0.09041   0.09211
 Alpha virt. eigenvalues --    0.09800   0.10198   0.10817   0.11219   0.11650
 Alpha virt. eigenvalues --    0.11837   0.11939   0.12348   0.12768   0.12965
 Alpha virt. eigenvalues --    0.13310   0.13499   0.14207   0.14344   0.14892
 Alpha virt. eigenvalues --    0.15084   0.15387   0.15939   0.16081   0.16272
 Alpha virt. eigenvalues --    0.16869   0.17276   0.17379   0.17865   0.18086
 Alpha virt. eigenvalues --    0.18237   0.18671   0.18980   0.19680   0.20134
 Alpha virt. eigenvalues --    0.20480   0.20747   0.21058   0.21239   0.21520
 Alpha virt. eigenvalues --    0.22240   0.22437   0.22809   0.23019   0.23801
 Alpha virt. eigenvalues --    0.24024   0.24509   0.24820   0.25314   0.25582
 Alpha virt. eigenvalues --    0.26169   0.27654   0.27803   0.29404   0.31654
 Alpha virt. eigenvalues --    0.32128   0.32791   0.36171   0.36879   0.38583
 Alpha virt. eigenvalues --    0.38630   0.39452   0.41709   0.41776   0.43648
 Alpha virt. eigenvalues --    0.43964   0.44029   0.44470   0.46279   0.46390
 Alpha virt. eigenvalues --    0.46734   0.47183   0.47803   0.48058   0.48656
 Alpha virt. eigenvalues --    0.48699   0.49428   0.49626   0.50134   0.52065
 Alpha virt. eigenvalues --    0.52204   0.52709   0.53162   0.53205   0.53778
 Alpha virt. eigenvalues --    0.54751   0.55033   0.55562   0.56348   0.56586
 Alpha virt. eigenvalues --    0.57069   0.57641   0.57660   0.58037   0.58431
 Alpha virt. eigenvalues --    0.58673   0.59202   0.59779   0.60243   0.61067
 Alpha virt. eigenvalues --    0.61426   0.61567   0.61999   0.62991   0.63872
 Alpha virt. eigenvalues --    0.63891   0.64204   0.64741   0.64994   0.65739
 Alpha virt. eigenvalues --    0.66653   0.67172   0.67722   0.68079   0.68567
 Alpha virt. eigenvalues --    0.70024   0.70279   0.70905   0.70907   0.72362
 Alpha virt. eigenvalues --    0.72863   0.73552   0.74187   0.75104   0.75222
 Alpha virt. eigenvalues --    0.76282   0.76940   0.77489   0.77827   0.78919
 Alpha virt. eigenvalues --    0.79656   0.80011   0.80643   0.81154   0.81485
 Alpha virt. eigenvalues --    0.81941   0.82506   0.82765   0.83225   0.83725
 Alpha virt. eigenvalues --    0.83826   0.84159   0.85053   0.85255   0.85559
 Alpha virt. eigenvalues --    0.85718   0.86161   0.86626   0.86710   0.87050
 Alpha virt. eigenvalues --    0.87699   0.87783   0.88595   0.88700   0.88955
 Alpha virt. eigenvalues --    0.89191   0.89332   0.90217   0.90519   0.90628
 Alpha virt. eigenvalues --    0.91123   0.91386   0.91473   0.92195   0.92584
 Alpha virt. eigenvalues --    0.93121   0.93710   0.93959   0.94490   0.94609
 Alpha virt. eigenvalues --    0.94975   0.95519   0.95577   0.96622   0.97659
 Alpha virt. eigenvalues --    0.98282   0.98858   0.99190   1.00102   1.00620
 Alpha virt. eigenvalues --    1.01194   1.01396   1.02526   1.03162   1.03886
 Alpha virt. eigenvalues --    1.04592   1.04970   1.06680   1.07072   1.07982
 Alpha virt. eigenvalues --    1.08482   1.10417   1.11242   1.12748   1.13784
 Alpha virt. eigenvalues --    1.15301   1.16043   1.17027   1.18048   1.18783
 Alpha virt. eigenvalues --    1.19588   1.22627   1.23215   1.24753   1.24949
 Alpha virt. eigenvalues --    1.25915   1.27688   1.30577   1.32447   1.32879
 Alpha virt. eigenvalues --    1.34529   1.35973   1.37083   1.37401   1.38826
 Alpha virt. eigenvalues --    1.39659   1.39960   1.40956   1.42694   1.44255
 Alpha virt. eigenvalues --    1.45915   1.46269   1.48719   1.49246   1.50095
 Alpha virt. eigenvalues --    1.52281   1.53257   1.53742   1.55112   1.56772
 Alpha virt. eigenvalues --    1.58201   1.60747   1.62000   1.62861   1.64679
 Alpha virt. eigenvalues --    1.64987   1.66706   1.68264   1.68635   1.70495
 Alpha virt. eigenvalues --    1.71308   1.72369   1.73988   1.76461   1.77347
 Alpha virt. eigenvalues --    1.77588   1.78924   1.80441   1.81389   1.83016
 Alpha virt. eigenvalues --    1.83177   1.83830   1.84618   1.86094   1.86433
 Alpha virt. eigenvalues --    1.87252   1.88144   1.88743   1.89558   1.89907
 Alpha virt. eigenvalues --    1.90509   1.91643   1.92129   1.92720   1.94010
 Alpha virt. eigenvalues --    1.95394   1.95544   1.95951   1.96404   1.97018
 Alpha virt. eigenvalues --    1.97459   1.98804   1.99237   2.00904   2.02282
 Alpha virt. eigenvalues --    2.03805   2.03993   2.04249   2.05094   2.05640
 Alpha virt. eigenvalues --    2.07083   2.09825   2.10362   2.10743   2.13399
 Alpha virt. eigenvalues --    2.15083   2.15961   2.16817   2.17200   2.18513
 Alpha virt. eigenvalues --    2.18995   2.19758   2.20455   2.21469   2.21859
 Alpha virt. eigenvalues --    2.23883   2.24921   2.25363   2.28069   2.28971
 Alpha virt. eigenvalues --    2.29160   2.29969   2.31035   2.31606   2.32786
 Alpha virt. eigenvalues --    2.34461   2.34774   2.35551   2.36493   2.38152
 Alpha virt. eigenvalues --    2.41236   2.46086   2.47383   2.49738   2.50041
 Alpha virt. eigenvalues --    2.50359   2.51896   2.52338   2.52907   2.53796
 Alpha virt. eigenvalues --    2.54429   2.58445   2.59100   2.59566   2.64507
 Alpha virt. eigenvalues --    2.65400   2.65942   2.66369   2.67407   2.69748
 Alpha virt. eigenvalues --    2.71952   2.74923   2.75494   2.94969   3.20369
 Alpha virt. eigenvalues --    3.45797   3.52810   3.98131   4.04031   4.06436
 Alpha virt. eigenvalues --    4.09849   4.11392   4.12726   4.16290   4.18141
 Alpha virt. eigenvalues --    4.18486   4.24144   4.26158   4.26925   4.30526
 Alpha virt. eigenvalues --    4.31727   4.32557   4.36075   4.38150   4.39500
 Alpha virt. eigenvalues --    4.42523   4.46875   4.52187   4.52747   4.55887
 Alpha virt. eigenvalues --    4.58075  32.00098
          Condensed to atoms (all electrons):
 Mulliken charges:
               1
     1  Cl  -0.261886
     2  P    0.679726
     3  P    0.653763
     4  C   -0.102793
     5  C   -0.104663
     6  C   -0.295027
     7  H    0.241623
     8  C   -0.317596
     9  H    0.188644
    10  C   -0.299688
    11  H    0.174004
    12  C   -0.312369
    13  H    0.246332
    14  C   -0.331130
    15  H    0.173929
    16  H    0.163181
    17  C   -0.318068
    18  H    0.161475
    19  H    0.179468
    20  C   -0.343811
    21  H    0.162421
    22  H    0.226809
    23  C   -0.313322
    24  H    0.177696
    25  H    0.149957
    26  C   -0.322491
    27  H    0.160718
    28  H    0.162854
    29  C   -0.315625
    30  H    0.156558
    31  H    0.211274
    32  C   -0.316299
    33  H    0.160285
    34  H    0.246993
    35  C   -0.310829
    36  H    0.155409
    37  H    0.168640
    38  C   -0.515430
    39  H    0.155195
    40  H    0.243717
    41  H    0.190320
    42  C   -0.533414
    43  H    0.281710
    44  H    0.187752
    45  H    0.147503
    46  C   -0.509371
    47  H    0.185932
    48  H    0.150990
    49  H    0.175632
    50  C   -0.508912
    51  H    0.186200
    52  H    0.183737
    53  H    0.162945
    54  C   -0.163642
    55  H    0.157954
    56  C   -0.130365
    57  H    0.158820
    58  C   -0.136524
    59  H    0.159334
    60  C   -0.162473
    61  H    0.157090
    62  Cl  -0.264686
    63  Pd  -0.696175
 Sum of Mulliken charges =  -0.00000
 Mulliken charges with hydrogens summed into heavy atoms:
               1
     1  Cl  -0.261886
     2  P    0.679726
     3  P    0.653763
     4  C   -0.102793
     5  C   -0.104663
     6  C   -0.053405
     8  C   -0.128952
    10  C   -0.125685
    12  C   -0.066037
    14  C    0.005979
    17  C    0.022875
    20  C    0.045420
    23  C    0.014331
    26  C    0.001081
    29  C    0.052207
    32  C    0.090979
    35  C    0.013220
    38  C    0.073804
    42  C    0.083551
    46  C    0.003183
    50  C    0.023970
    54  C   -0.005688
    56  C    0.028455
    58  C    0.022810
    60  C   -0.005383
    62  Cl  -0.264686
    63  Pd  -0.696175
 Electronic spatial extent (au):  <R**2>=          10993.1807
 Charge=             -0.0000 electrons
 Dipole moment (field-independent basis, Debye):
    X=              0.3386    Y=             13.0268    Z=             -0.1033  Tot=             13.0317
 Quadrupole moment (field-independent basis, Debye-Ang):
   XX=           -185.5054   YY=           -226.4070   ZZ=           -201.8152
   XY=             -0.6489   XZ=             -0.3005   YZ=              0.1513
 Traceless Quadrupole moment (field-independent basis, Debye-Ang):
   XX=             19.0705   YY=            -21.8311   ZZ=              2.7607
   XY=             -0.6489   XZ=             -0.3005   YZ=              0.1513
 Octapole moment (field-independent basis, Debye-Ang**2):
  XXX=             -0.7214  YYY=             96.8849  ZZZ=            -10.1894  XYY=              1.9352
  XXY=             10.1124  XXZ=             -0.9860  XZZ=              2.5665  YZZ=            -39.3047
  YYZ=              8.3805  XYZ=             -0.0433
 Hexadecapole moment (field-independent basis, Debye-Ang**3):
 XXXX=          -6168.3535 YYYY=          -4814.8583 ZZZZ=          -3494.7046 XXXY=            -11.7176
 XXXZ=             -8.8635 YYYX=             10.5027 YYYZ=             61.6630 ZZZX=            -11.9246
 ZZZY=            -25.3809 XXYY=          -1914.8373 XXZZ=          -1613.6846 YYZZ=          -1436.2533
 XXYZ=              4.6574 YYXZ=             10.4341 ZZXY=              7.0339
 N-N= 4.045190900060D+03 E-N=-1.415689576551D+04  KE= 2.493562035947D+03
   1 Symmetry operations used in ECPInt.
 ECPInt:  NShTT=   17766 NPrTT=  111805 LenC2=   15830 LenP2D=   55942.
 LDataN:  DoStor=T MaxTD1= 6 Len=  172
 Calling FoFJK, ICntrl=      2527 FMM=T ISym2X=0 I1Cent= 4 IOpClX= 0 NMat=1 NMatS=1 NMatT=0.
 Defaulting to unpruned grid for atomic number  46.
 Defaulting to unpruned grid for atomic number  46.
 Defaulting to unpruned grid for atomic number  46.
 Defaulting to unpruned grid for atomic number  46.
 Defaulting to unpruned grid for atomic number  46.
 Defaulting to unpruned grid for atomic number  46.
 Defaulting to unpruned grid for atomic number  46.
 Defaulting to unpruned grid for atomic number  46.
 Defaulting to unpruned grid for atomic number  46.
 Defaulting to unpruned grid for atomic number  46.
 Defaulting to unpruned grid for atomic number  46.
 Defaulting to unpruned grid for atomic number  46.
 Defaulting to unpruned grid for atomic number  46.
 Defaulting to unpruned grid for atomic number  46.
 ***** Axes restored to original set *****
 -------------------------------------------------------------------
 Center     Atomic                   Forces (Hartrees/Bohr)
 Number     Number              X              Y              Z
 -------------------------------------------------------------------
      1       17          -0.008202162   -0.004707019    0.002096589
      2       15           0.045775733   -0.014238422    0.006970742
      3       15          -0.038713069   -0.016920084    0.008318801
      4        6          -0.004769831   -0.003322385    0.006020339
      5        6           0.002339713   -0.007518353   -0.000175606
      6        6          -0.012262824    0.017574657    0.003939505
      7        1           0.009495297   -0.012231175    0.000231497
      8        6          -0.013213484   -0.010336518   -0.004980064
      9        1           0.006969885    0.004378157   -0.004361144
     10        6           0.008715409   -0.007203137    0.013002957
     11        1          -0.002781823    0.012021129   -0.004070165
     12        6           0.010831645    0.010299743   -0.012618995
     13        1          -0.005390771   -0.009645914    0.002407383
     14        6           0.000163900   -0.000350353   -0.004015750
     15        1          -0.007368236   -0.004134887    0.003253484
     16        1           0.000177514    0.011696656    0.001230007
     17        6          -0.005178162    0.003281864    0.001779061
     18        1          -0.001613386    0.006931059   -0.005671844
     19        1          -0.002337765   -0.008703798   -0.003172085
     20        6           0.002074937   -0.004907458   -0.007320070
     21        1           0.005878809    0.005868020    0.004276896
     22        1          -0.002307112   -0.009418260    0.002874957
     23        6           0.000414718    0.002402898    0.008347419
     24        1           0.005969304   -0.005470221   -0.003078366
     25        1           0.001049346    0.010886977   -0.004293338
     26        6           0.007100765   -0.009086540    0.003398925
     27        1           0.002937361    0.010014514   -0.002828237
     28        1          -0.010317750    0.000819060    0.001641467
     29        6           0.012882342   -0.000457006    0.000979289
     30        1          -0.007571179    0.001784629   -0.008479264
     31        1          -0.001503447   -0.004424459    0.009080683
     32        6          -0.008183704    0.006823671   -0.002302668
     33        1           0.009086062    0.002555998    0.004992767
     34        1          -0.001199611   -0.009920011   -0.002221508
     35        6          -0.009217917   -0.006786025    0.001781602
     36        1          -0.000702873    0.010680278    0.002636291
     37        1           0.009695185   -0.002732086   -0.003477244
     38        6          -0.006684090    0.003186712   -0.002324183
     39        1           0.000619721    0.005892099    0.006646163
     40        1           0.007798164   -0.002975048   -0.003653478
     41        1          -0.002816126   -0.007717727    0.000869359
     42        6          -0.011906114    0.000077448   -0.005868908
[...]
 0167402,-0.00083349,-0.00084323,-0.00153369,-0.00424571,0.00282886,-0.
 02656434,-0.00274685,-0.00450900,0.00000266,-0.00049171,0.00012372,-0.
 00015577,0.00004755,0.00009549,0.00001352,-0.00032385,0.00014766,0.000
 03779,0.00003431,0.00002448,0.00018693,-0.00049721,-0.00018196,0.00034
 234,0.00030777,0.00078173,0.00008694,0.00003475,0.00024727,0.00002380,
 0.00005319,0.00000411,0.00007897,-0.00001401,-0.00000645,-0.00000609,0
 .00001088,0.00000357,0.00000598,0.00001454,-0.00000932,0.00001238,-0.0
 0000078,-0.00004124,-0.00002136,-0.00000215,-0.00000590,-0.00000602,-0
 .00000168,0.00000648,0.00008622,0.00019519,0.00004766,-0.00001112,-0.0
 0002777,-0.00002414,-0.00007872,0.00000746,-0.00003888,-0.00001832,-0.
 00051001,0.00008187,0.00005464,0.00018238,-0.00001098,0.00030723,0.000
 21392,-0.00003540,-0.00000854,-0.00001771,-0.00006523,0.00000866,0.000
 00766,-0.00001026,0.00000036,0.00000147,0.00001755,-0.00012575,0.00004
 517,-0.00005303,0.00002026,-0.00004735,-0.00002478,-0.00000053,0.00000
 227,-0.00001184,-0.00008323,0.00022199,0.00009524,0.00001662,0.0000113
 2,-0.00005576,0.00002800,-0.00000726,-0.00012290,0.00002210,-0.0003221
 8,-0.00008728,0.00018531,-0.00000293,-0.00066394,-0.00002751,0.0001208
 6,0.00002708,-0.00002263,0.00001174,0.00000335,0.00000180,0.00000165,0
 .00001464,0.00000318,-0.00000696,-0.00001154,0.00000633,0.00000086,0.0
 0000110,-0.00000543,-0.00001484,0.00000166,0.00000508,0.00000539,0.000
 01892,0.00000802,-0.00000291,-0.00000795,-0.00000536,0.00000762,-0.000
 00936,-0.00004509,0.00004651,-0.00002636,0.00000760,-0.00000344,0.0000
 1522,-0.00000264,-0.00000833,0.00000765,0.00002509,-0.00002005,-0.0000
 2359,-0.00013654,0.00006534,-0.00001952,0.00005491,0.00003137,0.000028
 40,0.00001803,-0.00000555,0.00000162,0.00002780,0.00000801,0.00003306,
 0.00022293,-0.00110500,0.00018927,0.00005385,0.00007141,-0.00040627,0.
 00199598,-0.00259405,0.00324163,0.00117782,0.00030912,0.00024101,0.022
 65221,0.00760655,0.00343330,-0.00008177,0.00049500,-0.00124260,-0.0505
 3313,-0.06211312,-0.00244196,0.05416593,0.06489794,-0.00005488,-0.0000
 5074,-0.00000775,0.00009562,-0.00005315,0.00044024,0.00043353,-0.00015
 079,-0.00175082,-0.00073486,0.00268967,0.00546469,0.00619983,0.0007016
 7,0.00148104,-0.00006215,-0.00004447,0.00005072,0.00000501,-0.00001516
 ,0.00000093,0.00008833,0.00022414,0.00014891,-0.00000424,0.00007805,-0
 .00005018,0.00019957,0.00136132,0.00020863,-0.00075640,0.00003104,-0.0
 0114331,0.00005089,-0.00026949,0.00051756,0.00019269,0.00004387,-0.000
 15937,0.00003111,-0.00002245,0.00001137,0.00000323,0.00000522,-0.00000
 006,-0.00000168,0.00001542,0.00000020,-0.00001281,0.00001965,-0.000007
 03,0.00000068,-0.00000118,-0.00000261,0.00000197,-0.00000031,-0.000000
 87,-0.00026087,-0.00034136,0.00004268,-0.00005610,0.00002556,-0.000003
 84,0.00017334,-0.00004204,-0.00006109,0.00007416,-0.00019194,-0.000032
 07,0.00005033,0.00001302,-0.00000162,0.00009371,0.00009482,0.00006371,
 -0.00000791,-0.00002707,-0.00001156,0.00000154,0.00000877,-0.00001173,
 -0.00000523,-0.00000037,-0.00000569,0.00003482,-0.00000126,-0.00001263
 ,0.00000291,0.00001293,0.00000404,0.00001495,0.00000950,0.00000587,0.0
 0008006,-0.00017352,-0.00012557,-0.00000204,-0.00003411,0.00002527,-0.
 00001264,-0.00005409,0.00007439,-0.00002508,-0.00030378,0.00001023,0.0
 0033401,-0.00061040,-0.00080118,-0.00004396,0.00009833,-0.00001009,0.0
 0000396,-0.00000856,0.00000500,0.00000829,-0.00000270,-0.00001505,-0.0
 0000309,0.00001178,0.00001344,-0.00000761,-0.00000141,-0.00000046,0.00
 001958,-0.00001270,0.00000486,-0.00000510,-0.00000351,0.00001741,-0.00
 000137,0.00000146,-0.00000374,-0.00001286,0.00000743,-0.00001907,0.000
 06258,0.00004645,0.00003488,0.00000684,0.00003085,-0.00000920,-0.00003
 524,-0.00005367,-0.00007807,-0.00000942,-0.00004348,0.00002721,-0.0001
 9504,0.00015322,-0.00008621,0.00009004,0.00004805,0.00003130,0.0000498
 1,-0.00004178,-0.00003325,-0.00000783,-0.00001491,-0.00002243,0.000167
 94,-0.00002708,-0.00060469,0.00027632,-0.00044543,-0.00118630,-0.00188
 157,0.00359625,0.00556986,-0.00052341,-0.00013325,0.00001231,-0.010470
 81,-0.00228662,0.00168225,0.00095308,-0.00119448,-0.00315605,-0.042765
 20,-0.00224191,-0.04066814,0.04814692,-0.00050048,0.03418855,-0.002948
 54,-0.00039885,-0.00013952,-0.00211127,0.00109791,-0.00165484,-0.00394
 118,0.00255433,-0.00129717,-0.00251158,0.00016418,-0.00039568,0.000393
 79,0.00018414,-0.00006699,-0.00028060,0.00091206,-0.00142931,0.0002116
 9,-0.00012032,-0.00008238,-0.00033060,0.00158428,0.00058701,-0.0004786
 6,-0.00011718,-0.00041436,-0.00049987,0.00026135,-0.00055845,0.0004488
 6,-0.00024695,0.00020494,0.00008055,0.00065022,0.00213326,-0.00000307,
 -0.00027429,-0.00074801,-0.00043674,-0.00035459,0.00060741,-0.00033316
 ,0.00008477,-0.00014650,0.00001324,0.00007120,-0.00005887,-0.00012397,
 0.00025808,-0.00043367,-0.00030244,-0.00003557,0.00004995,-0.00002047,
 -0.00002429,0.00004471,-0.00163051,-0.00025806,-0.00065649,0.00015466,
 -0.00106914,0.00014033,0.00028489,-0.00114295,0.00051836,0.00047562,-0
 .00027788,-0.00098927,0.00033020,0.00027730,-0.00002716,0.00004978,-0.
 00026753,0.00035779,-0.00024608,-0.00016570,-0.00016905,0.00004720,0.0
 0006460,0.00001455,-0.00002813,0.00009945,0.00015757,-0.00002797,0.000
 13795,0.00039618,-0.00001419,-0.00007069,-0.00014153,0.00015783,0.0000
 3129,-0.00001741,0.00038632,-0.00011589,0.00003734,0.00011986,0.000204
 27,0.00015904,-0.00058252,0.00019827,0.00001815,0.00026653,-0.00041000
 ,-0.00034955,-0.00005508,-0.00018780,0.00027752,0.00007025,0.00002496,
 -0.00011212,0.00018771,0.00003510,-0.00001139,-0.00005982,0.00008507,0
 .00016518,-0.00015007,-0.00010474,-0.00026766,0.00001351,-0.00000941,-
 0.00002561,0.00017356,-0.00003591,0.00012568,-0.00026868,0.00010970,0.
 00024952,-0.00000166,-0.00008638,-0.00012426,-0.00005818,0.00005638,-0
 .00012871,-0.00015918,-0.00001824,-0.00012684,0.00010306,-0.00011381,0
 .00009268,0.00007321,-0.00002436,-0.00001132,0.00003758,-0.00005656,-0
 .00007994,-0.00022881,0.00000245,0.00011131,-0.00008366,0.00001619,-0.
 00001738,0.00013181,-0.00009410,-0.00004022,0.00009875,0.00001635,0.00
 004829,0.00104624,0.00082150,0.00001458,0.00005510,-0.00015171,0.00007
 339,-0.00018245,0.00006297,-0.00009708,0.00005065,0.00014725,-0.000033
 38,0.00007564,0.00013076,-0.00001872,0.00002782,0.00003361,0.00001266,
 0.00007093,-0.00004377,0.00001048,0.00008480,0.00015167,-0.00001300,0.
 05734903,-0.00155260,0.00385382,-0.00170698,0.00279591,0.00303939,0.00
 169774,0.00189212,-0.00330339,0.00170662,0.00023065,0.00025646,-0.0001
 1195,-0.00001634,-0.00058581,0.00029444,0.00013645,-0.00053425,0.00087
 872,-0.00015488,0.00004015,0.00006968,0.00047159,-0.00147456,-0.000529
 31,0.00038340,0.00009636,0.00032780,0.00023032,0.00164115,-0.00053970,
 0.00026881,0.00015405,0.00022670,0.00034271,0.00028809,0.00062272,0.00
 007105,-0.00078129,0.00017420,0.00028944,0.00020923,-0.00030227,0.0002
 1009,-0.00006374,0.00006712,-0.00000540,-0.00003714,0.00003442,0.00015
 111,-0.00016573,0.00039724,0.00024645,0.00003563,-0.00005422,0.0000491
 0,0.00002696,-0.00003371,-0.00242653,-0.00122750,-0.00071261,-0.000200
 83,-0.00086864,0.00019790,-0.00040992,-0.00291805,0.00012728,0.0001258
 2,-0.00001728,-0.00031998,-0.00008200,-0.00002543,0.00004300,0.0000178
 1,0.00001273,0.00016100,0.00019798,0.00011822,0.00008478,-0.00002929,-
 0.00000403,-0.00002144,0.00001289,-0.00005652,-0.00010671,-0.00005454,
 -0.00014103,-0.00036796,-0.00001800,0.00004171,0.00010445,-0.00006687,
 -0.00001066,-0.00001253,0.00042301,-0.00034426,-0.00048173,-0.00011432
 ,-0.00010338,0.00000514,-0.00023541,-0.00084543,0.00006704,0.00020224,
 -0.00027717,-0.00026507,-0.00000368,-0.00004643,0.00011003,-0.00004273
 ,-0.00002781,-0.00004939,-0.00011678,-0.00005924,-0.00001042,0.0000050
 2,-0.00003809,-0.00006887,0.00005852,-0.00000045,0.00012592,0.00004604
 ,0.00001170,0.00002158,-0.00004037,0.00009101,0.00000252,0.00017015,-0
 .00017552,-0.00014601,0.00002929,0.00007850,0.00014995,-0.00001679,-0.
 00000237,0.00003031,-0.00021243,-0.00019774,0.00007887,-0.00000747,0.0
 0002319,-0.00000157,0.00010324,-0.00012705,-0.00003167,0.00002226,0.00
 000213,-0.00001464,0.00005104,-0.00008518,-0.00007142,0.00003866,0.000
 01972,0.00001770,-0.00005698,0.00005376,-0.00002422,-0.00000777,0.,0.0
 0002119,-0.00016931,-0.00021143,-0.00001501,-0.00002141,0.00005963,-0.
 00003542,0.00000496,0.00001809,0.00002514,-0.00000809,-0.00003473,0.00
 001238,-0.00002811,-0.00006639,0.00000954,-0.00000777,-0.00003509,0.00
 000807,0.00006557,-0.00007097,0.00000622,-0.00006114,-0.00005996,-0.00
 000267,-0.03027650,0.03899974,0.00014370,-0.00106294,0.00085927,-0.002
 17439,0.00153732,0.00530222,-0.00078528,0.00116131,-0.00239198,-0.0005
 1865,-0.00007151,-0.00025009,-0.00001970,0.00026457,0.00024071,-0.0007
 5798,0.00105002,-0.00164833,0.00017189,-0.00008254,-0.00009875,0.00039
 920,-0.00047429,-0.00002818,0.00004971,0.00002640,0.00006018,-0.000035
 75,-0.00013510,-0.00040411,0.00001187,-0.00018376,0.00012455,-0.000132
 49,0.00032020,-0.00070312,-0.00039499,0.00019682,0.00046458,-0.0005262
 4,-0.00016025,0.00073581,-0.00029772,0.00005375,-0.00018867,0.00001061
 ,0.00002933,-0.00002733,0.00004710,0.00011836,0.00025748,0.00001905,-0
 .00000219,-0.00004871,0.00001445,-0.00000686,0.00000228,-0.00017560,0.
 00022855,0.00051851,0.00005940,-0.00010769,0.00010535,0.00039906,-0.00
 000211,-0.00028985,-0.00032871,-0.00020328,-0.00038398,-0.00000896,-0.
 00005075,0.00006809,0.00015876,0.00006226,0.00027042,-0.00007751,-0.00
 010480,-0.00022421,0.00004377,0.00001534,0.00002672,0.00001918,0.00003
 176,0.00014420,-0.00006777,0.00004701,-0.00013060,-0.00006575,-0.00003
 679,-0.00000353,0.00001330,-0.00000016,0.00002715,0.00090881,0.0001266
 6,-0.00046976,-0.00002488,-0.00001294,0.00014152,-0.00074978,-0.000176
 97,0.00000163,-0.00007068,0.00059037,0.00042571,0.00001214,0.00020473,
 -0.00025342,0.00001855,-0.00003681,0.00001946,-0.00000854,0.00004520,0
 .00014363,-0.00002776,0.00004010,0.00011361,-0.00005036,-0.00002362,-0
 .00025598,-0.00002605,0.00000763,-0.00000269,0.00011800,0.00015625,0.0
 0017491,-0.00006192,-0.00013515,-0.00004298,0.00002993,0.00001001,0.00
 001699,-0.00005332,0.00000158,-0.00005164,-0.00054192,-0.00034662,0.00
 011064,0.00013639,-0.00005588,0.00003923,0.00020298,-0.00025878,-0.000
 03148,-0.00001301,0.00004979,0.00000233,0.00005268,-0.00013551,0.00001
 679,-0.00001123,0.00004427,0.00008985,0.00001413,-0.00000498,0.0000010
 8,-0.00000327,0.00006237,-0.00001701,0.00027406,0.00017506,-0.00013246
 ,0.00000918,-0.00004660,0.00000107,-0.00006386,0.00003329,0.00002603,0
 .00000764,0.00004462,0.00000859,0.00002592,0.00002979,-0.00001061,0.00
 000981,0.00001348,-0.00001588,-0.00000933,0.00000650,0.00003904,0.0000
 4306,0.00003757,-0.00004736,0.01904436,-0.01490377,0.01306397,-0.02862
 957,-0.02517138,0.00670926,-0.06638994,0.03730075,-0.01889420,-0.04506
 434,-0.03670891,0.00725053,0.00472972,-0.00050544,0.00021852,0.0053748
 1,0.00440635,-0.00075615,-0.00309108,0.00321093,-0.00380738,-0.0006097
 8,0.00060713,-0.00009760,-0.00093984,0.00157954,0.00005486,-0.00042252
 ,-0.00016370,-0.00041612,-0.00023805,-0.00371640,0.00197847,-0.0009196
 0,-0.00031433,-0.00095512,-0.00205195,-0.00553203,-0.00003789,0.000108
 58,-0.00072350,0.00068717,-0.00124116,-0.00022483,0.00153584,-0.000539
 06,0.00020720,-0.00037586,0.00000516,0.00002324,0.00005884,0.00000538,
 0.00034242,-0.00043341,-0.00024289,-0.00012607,0.00004467,-0.00023681,
 -0.00012489,0.00001795,0.00080417,-0.00046293,0.00031038,-0.00013492,0
 .00047973,-0.00015230,-0.00063997,0.00007301,-0.00018271,-0.00073731,0
 .00040569,0.00121454,-0.00045044,-0.00020863,-0.00008212,-0.00011508,-
 0.00000221,-0.00013863,-0.00047419,-0.00047108,-0.00006022,0.00008152,
 -0.00008718,0.00000777,0.00008450,0.00004595,0.00026514,0.00026168,0.0
 0116566,-0.00012665,0.00008628,-0.00035705,0.00025334,-0.00058671,-0.0
 0036283,-0.00032681,-0.00080854,-0.00063368,0.00030676,-0.00003388,-0.
 00003272,-0.00012241,0.00057309,-0.00031168,-0.00029901,-0.00148691,0.
 00074547,0.00006512,-0.00000392,-0.00000573,-0.00010276,0.00002733,-0.
 00021845,0.00050200,-0.00065951,0.00066342,0.00047760,0.00006962,-0.00
 011095,0.00009222,0.00025315,0.00014826,0.00007052,-0.00019783,-0.0000
 8481,0.00011066,0.00009214,-0.00033966,-0.00049255,-0.00003250,-0.0000
 9891,-0.00047428,0.00003254,-0.00001826,-0.00010104,-0.00010592,-0.000
 03771,0.00009176,0.00009632,0.00026380,-0.00017171,0.00008675,0.000068
 22,0.00003687,-0.00006878,0.00014459,0.00007300,0.00004641,-0.00003047
 ,0.00000889,0.00006508,-0.00015080,-0.00009443,0.00004840,0.00000909,-
 0.00001303,0.00013121,0.00021711,-0.00012025,-0.00000185,-0.00000029,0
 .00003955,-0.00123097,-0.00125610,-0.00000127,-0.00000471,0.00003511,-
 0.00001662,0.00042109,-0.00020045,0.00022951,-0.00007953,-0.00013457,0
 .00004694,0.00040006,0.00061923,-0.00003596,-0.00016303,0.00016852,-0.
 00008739,-0.00221157,0.00072915,-0.00071099,0.00007490,0.00000689,0.00
 002478,-0.04497154,0.02710056,-0.01438534,0.19185632,-0.02503712,-0.04
 987466,0.01243267,0.03457229,-0.05090515,0.01260219,-0.03374310,-0.076
 11076,0.01051472,0.00659912,-0.00671863,0.00424638,-0.00270200,-0.0076
 7077,0.00275732,0.00087052,0.00179092,-0.00157025,0.00030267,-0.000446
 26,-0.00006445,-0.00224460,0.00550048,0.00109126,-0.00103729,-0.000337
 80,-0.00112434,-0.00126299,0.00075936,-0.00004356,0.00016792,0.0001389
 5,0.00041538,0.00096969,0.00427937,0.00066383,-0.00067674,0.00012981,0
 .00041835,-0.00055823,-0.00074305,-0.00015244,-0.00038280,0.00017282,0
 .00006175,-0.00000414,0.00000392,0.00002519,-0.00084042,0.00060205,-0.
 00091121,-0.00059680,-0.00017207,0.00025494,-0.00018780,-0.00006950,0.
 00003343,-0.00006087,-0.00039658,-0.00095340,-0.00001653,0.00003302,0.
 00012522,0.00003313,0.00034222,-0.00006324,0.00058250,-0.00035673,-0.0
 0077445,0.00042175,0.00010798,0.00012907,0.00006472,0.00002638,0.00011
 323,-0.00065775,-0.00021293,0.00038969,-0.00002417,0.00007911,-0.00000
 037,-0.00003398,0.00015886,0.00002818,0.00101323,0.00060657,0.00077782
 ,-0.00007667,-0.00007068,0.00015887,-0.00010777,-0.00017737,-0.0002819
 0,-0.00010554,-0.00071388,-0.00010829,0.00002212,0.00018709,0.00003339
 ,-0.00031380,0.00005572,-0.00024086,0.00079980,-0.00047439,0.00010499,
 0.00009168,0.00009864,-0.00001052,-0.00002564,0.00010667,-0.00029263,0
 .00112193,-0.00001326,-0.00042219,-0.00021819,-0.00000071,0.00009017,-
 0.00030438,-0.00034437,-0.00000658,-0.00008797,0.00004800,0.00003472,-
 0.00031692,-0.00014255,-0.00074069,0.00019023,0.00007232,0.00063522,-0
 .00002654,-0.00010616,-0.00018536,-0.00017699,0.00005585,-0.00014613,0
 .00018309,-0.00020152,0.00001580,-0.00005666,0.00016849,-0.00000404,-0
 .00004467,0.00006845,-0.00003644,-0.00005836,0.00001014,-0.00005726,-0
 .00001172,0.00004306,-0.00004313,-0.00007414,0.00006910,0.00008028,0.0
 0000338,-0.00002154,-0.00005402,-0.00003166,0.00002010,-0.00002050,-0.
 00240174,-0.00109898,-0.00001437,0.00016340,-0.00009353,0.00008659,0.0
 0051693,-0.00076317,0.00031233,-0.00010866,-0.00028474,0.00000515,-0.0
 0009313,-0.00072828,0.00008698,0.00014782,-0.00017199,0.00003122,0.001
 83443,0.00012595,0.00052079,-0.00014907,-0.00013812,0.00007383,0.02602
 356,-0.03414769,0.01200037,-0.00183836,0.21784645,0.00612332,0.0109192
 8,-0.01270356,-0.01974497,0.01402439,-0.03300199,0.00735421,0.01140893
 ,-0.02941900,-0.00121099,0.00266658,0.00093046,0.00135110,0.00363637,0
 .00112096,0.00389878,-0.00395884,0.00579198,-0.00039040,0.00012947,0.0
 0043396,-0.00340322,0.00437121,0.00116771,-0.00072933,-0.00024561,-0.0
 0064449,-0.00216728,-0.00680112,0.00478319,-0.00204586,-0.00068160,-0.
 00195774,0.00281606,0.00444672,0.00131860,-0.00038603,0.00071438,0.000
 20806,0.00182902,0.00026908,-0.00226149,0.00077900,-0.00011910,0.00065
 800,0.00000375,-0.00003309,0.00003500,-0.00024542,-0.00033208,-0.00202
 077,-0.00053556,-0.00003161,0.00039137,-0.00015712,-0.00000240,0.00003
 480,-0.00007003,-0.00071253,-0.00052664,-0.00040660,0.00040525,0.00015
 575,-0.00016177,0.00006449,0.00000811,0.00065028,-0.00030302,-0.001616
 97,0.00027333,0.00020215,0.00035030,0.00014057,0.00010545,0.00000137,-
 0.00041205,0.00030696,0.00039379,-0.00009176,0.00009291,-0.00006686,-0
 .00000175,0.00003853,-0.00016201,0.00052975,0.00069928,0.00055062,0.00
 018954,0.00003228,-0.00003747,-0.00029161,-0.00045247,0.00016083,-0.00
 018499,-0.00079610,0.00107383,-0.00019445,-0.00010120,-0.00002532,0.00
 047792,-0.00005224,0.00010981,0.00051250,-0.00025992,0.00007578,-0.000
 01504,0.00002042,-0.00001086,0.00005451,-0.00000084,-0.00023803,0.0015
 1823,-0.00063316,-0.00107166,-0.00008393,-0.00004464,-0.00010226,-0.00
 090689,0.00004202,0.00060896,0.00010534,0.00011329,-0.00000799,-0.0024
 2637,-0.00131780,-0.00269145,0.00147494,0.00067587,0.00054240,0.000016
 77,-0.00024668,0.00003370,0.00038347,0.00021310,0.00038802,0.00014575,
 0.00008923,0.00000253,-0.00012852,0.00028405,0.00005789,-0.00013760,0.
 00004427,-0.00003076,0.00002794,-0.00000625,-0.00008398,-0.00036148,0.
 00025533,-0.00002030,-0.00001444,-0.00003857,0.00012119,0.00011353,-0.
 00031070,0.00006232,0.00016285,0.00002490,-0.00012837,0.00030470,0.000
 25862,0.00074667,-0.00003217,0.00005074,0.00003871,0.00001986,0.000081
 26,-0.00025702,0.00005639,0.00000870,-0.00013437,0.00016598,0.00028632
 ,-0.00023743,-0.00004255,0.00003329,-0.00015924,-0.00105700,0.00037690
 ,0.00039265,0.00003744,0.00008441,-0.00000844,-0.01476837,0.01303385,-
 0.01549086,0.02128875,-0.05302869,0.08236803\\-0.00000504,-0.00000364,
 0.00000125,-0.00000775,-0.00000165,0.00000197,-0.00000776,0.00001099,0
 .00001583,0.00000292,0.00000137,-0.00000095,-0.00000277,-0.00000079,-0
 .00000298,-0.00000235,-0.00000487,-0.00000345,0.00000147,0.00000211,0.
 00000039,-0.00000747,0.00000720,-0.00000607,0.00000115,-0.00000078,0.0
 0000171,0.00000057,-0.00000502,0.00000530,0.00000316,0.00000204,-0.000
 00293,0.00000738,-0.00000791,-0.00000565,-0.00000030,0.00000024,-0.000
 00357,0.00000238,0.00000006,-0.00000212,-0.00000119,0.00000159,-0.0000
 0186,0.00000168,0.00000542,-0.00000073,-0.00000152,0.00000515,-0.00000
 106,0.00000111,0.00000020,-0.00000070,-0.00000051,0.00000076,0.0000004
 1,-0.00000065,-0.00000311,0.00000284,0.00000091,-0.00000229,0.00000050
 ,0.00000062,-0.00000397,-0.00000045,-0.00000085,-0.00000130,-0.0000031
 4,0.00000084,-0.00000235,0.00000262,0.,-0.00000134,0.00000136,-0.00000
 367,0.00001216,0.00000279,0.00000026,-0.00000135,0.00000003,-0.0000004
 7,0.00000202,-0.00000237,0.00000204,0.00000213,-0.00000288,-0.00000126
 ,-0.00000052,-0.00000013,-0.00000131,0.00000061,0.00000168,-0.00000385
 ,0.00000092,-0.00000169,0.00000066,0.00000122,0.00000117,-0.00000297,-
 0.00000071,-0.00000121,-0.00000300,-0.00000176,0.00000153,0.00000134,-
 0.00000183,-0.00000081,0.00000239,-0.00000207,-0.00000084,-0.00000062,
 -0.00000165,0.00000150,0.00000131,-0.00000055,0.00000239,0.00000273,0.
 00000081,-0.00000261,-0.00000257,0.00000217,-0.00000022,-0.00000141,-0
 .00000077,-0.00000285,0.00000091,-0.00000029,0.00000438,-0.00000178,-0
 .00000014,-0.00000173,-0.00000081,-0.00000078,-0.00000072,-0.00000111,
 -0.00000154,-0.00000273,-0.00000096,0.00000198,0.00000248,0.00000089,-
 0.00000091,0.00000026,0.00000098,-0.00000281,0.00000079,0.00000164,-0.
 00000065,0.00000127,0.00000147,-0.00000178,0.00000101,0.00000248,0.000
 00037,-0.00000293,0.00000113,0.00000030,-0.00000089,0.00000322,-0.0000
 0364,0.00000233,-0.00000246,-0.00000081,0.00000061,0.00000402,0.000002
 48,-0.00000033,0.00000163,0.00000106,-0.00000097,-0.00000072,0.0000004
 6,-0.00000233,0.00000257,0.00000056,0.00000056,-0.00000047,-0.00000397
 ,0.00000405,0.00000218,-0.00000023,0.00000133,-0.00000379,0.00000037,0
 .00000058,0.00001337,0.00000103,-0.00000101\\\@


 YOU ARE IN A MAZE OF TWISTY LITTLE PASSAGES.
 Job cpu time:       0 days  4 hours 54 minutes 57.1 seconds.
 File lengths (MBytes):  RWF=   1987 Int=      0 D2E=      0 Chk=     72 Scr=      1
 Normal termination of Gaussian 09 at Tue Nov 16 17:22:42 2021.
