 Entering Gaussian System, Link 0=g09
 Input=SS_Et_DuPhos_2.com
 Output=SS_Et_DuPhos_2.log
 Initial command:
 /gstore/apps/gaussian/g09.e01-foss-2017a/g09/l1.exe "/local/21251413/Gau-17393.inp" -scrdir="/local/21251413/"
 Entering Link 1 = /gstore/apps/gaussian/g09.e01-foss-2017a/g09/l1.exe PID=     17394.
  
 Copyright (c) 1988,1990,1992,1993,1995,1998,2003,2009,2015,
            Gaussian, Inc.  All Rights Reserved.
  
 This is part of the Gaussian(R) 09 program.  It is based on
 the Gaussian(R) 03 system (copyright 2003, Gaussian, Inc.),
 the Gaussian(R) 98 system (copyright 1998, Gaussian, Inc.),
 the Gaussian(R) 94 system (copyright 1995, Gaussian, Inc.),
 the Gaussian 92(TM) system (copyright 1992, Gaussian, Inc.),
 the Gaussian 90(TM) system (copyright 1990, Gaussian, Inc.),
 the Gaussian 88(TM) system (copyright 1988, Gaussian, Inc.),
 the Gaussian 86(TM) system (copyright 1986, Carnegie Mellon
 University), and the Gaussian 82(TM) system (copyright 1983,
 Carnegie Mellon University). Gaussian is a federally registered
 trademark of Gaussian, Inc.
  
 This software contains proprietary and confidential information,
 including trade secrets, belonging to Gaussian, Inc.
  
 This software is provided under written license and may be
 used, copied, transmitted, or stored only in accord with that
 written license.
  
 The following legend is applicable only to US Government
 contracts under FAR:
  
                    RESTRICTED RIGHTS LEGEND
  
 Use, reproduction and disclosure by the US Government is
 subject to restrictions as set forth in subparagraphs (a)
 and (c) of the Commercial Computer Software - Restricted
 Rights clause in FAR 52.227-19.
  
 Gaussian, Inc.
 340 Quinnipiac St., Bldg. 40, Wallingford CT 06492
  
  
 ---------------------------------------------------------------
 Warning -- This program may not be used in any manner that
 competes with the business of Gaussian, Inc. or will provide
 assistance to any competitor of Gaussian, Inc.  The licensee
 of this program is prohibited from giving any competitor of
 Gaussian, Inc. access to this program.  By using this program,
 the user acknowledges that Gaussian, Inc. is engaged in the
 business of creating and licensing software in the field of
 computational chemistry and represents and warrants to the
 licensee that it is not a competitor of Gaussian, Inc. and that
 it will not use this program in any manner prohibited above.
 ---------------------------------------------------------------
  

 Cite this work as:
 Gaussian 09, Revision E.01,
 M. J. Frisch, G. W. Trucks, H. B. Schlegel, G. E. Scuseria, 
 M. A. Robb, J. R. Cheeseman, G. Scalmani, V. Barone, B. Mennucci, 
 G. A. Petersson, H. Nakatsuji, M. Caricato, X. Li, H. P. Hratchian, 
 A. F. Izmaylov, J. Bloino, G. Zheng, J. L. Sonnenberg, M. Hada, 
 M. Ehara, K. Toyota, R. Fukuda, J. Hasegawa, M. Ishida, T. Nakajima, 
 Y. Honda, O. Kitao, H. Nakai, T. Vreven, J. A. Montgomery, Jr., 
 J. E. Peralta, F. Ogliaro, M. Bearpark, J. J. Heyd, E. Brothers, 
 K. N. Kudin, V. N. Staroverov, T. Keith, R. Kobayashi, J. Normand, 
 K. Raghavachari, A. Rendell, J. C. Burant, S. S. Iyengar, J. Tomasi, 
 M. Cossi, N. Rega, J. M. Millam, M. Klene, J. E. Knox, J. B. Cross, 
 V. Bakken, C. Adamo, J. Jaramillo, R. Gomperts, R. E. Stratmann, 
 O. Yazyev, A. J. Austin, R. Cammi, C. Pomelli, J. W. Ochterski, 
 R. L. Martin, K. Morokuma, V. G. Zakrzewski, G. A. Voth, 
 P. Salvador, J. J. Dannenberg, S. Dapprich, A. D. Daniels, 
 O. Farkas, J. B. Foresman, J. V. Ortiz, J. Cioslowski, 
 and D. J. Fox, Gaussian, Inc., Wallingford CT, 2013.
 
 ******************************************
 Gaussian 09:  ES64L-G09RevE.01 30-Nov-2015
                16-Nov-2021 
 ******************************************
 %nprocs=14
 Will use up to   14 processors via shared memory.
 %mem=128GB
 %chk=SS_Et_DuPhos_2.chk
 ----------------------------------------------------------------------
 # PBEPBE gen 6D pseudo=read scf=maxcycles=500 denfit int=(grid=ultrafi
 ne) empiricaldispersion=GD3BJ opt freq=noraman
 ----------------------------------------------------------------------
 1/14=-1,18=20,19=15,26=4,38=1/1,3;
 2/9=110,12=2,17=6,18=5,40=1/2;
 3/5=7,8=2,11=2,16=1,17=8,25=1,30=1,71=1,74=1009,75=-5,82=47,124=41/1,2,3;
 4//1;
 5/5=2,7=500,38=5/2;
 6/7=2,8=2,9=2,10=2,28=1/1;
 7//1,2,3,16;
 1/14=-1,18=20,19=15,26=4/3(2);
 2/9=110/2;
 99//99;
 2/9=110/2;
 3/5=7,6=1,8=2,11=2,16=1,17=8,25=1,30=1,71=1,74=1009,75=-5,82=7,124=41/1,2,3;
 4/5=5,16=3,69=1/1;
 5/5=2,7=500,38=5/2;
 7//1,2,3,16;
 1/14=-1,18=20,19=15,26=4/3(-5);
 2/9=110/2;
 6/7=2,8=2,9=2,10=2,19=2,28=1/1;
 99/9=1/99;
 ------------
 SS_Et_DuPhos
 ------------
 Symbolic Z-matrix:
 Charge =  0 Multiplicity = 1
 Cl                   -1.1195   -3.9323    1.1662 
 P                    -1.5858   -0.7076    0.1017 
 P                     1.5692   -0.1429    0.3232 
 C                    -0.9459    1.0164   -0.3027 
 C                     0.4427    1.271    -0.1649 
 C                    -2.9768   -0.7088    1.3165 
 H                    -2.7409   -1.3873    2.1376 
 C                    -2.5154   -1.1674   -1.4184 
 H                    -2.2687   -0.4995   -2.2451 
 C                     2.5243    0.4671    1.766 
 H                     2.3168    1.5297    1.8979 
 C                     2.947    -0.2908   -0.884 
 H                     3.2227   -1.3451   -0.9379 
 C                    -4.1366   -1.3039    0.5006 
 H                    -4.1134   -2.3896    0.6056 
 H                    -5.1088   -0.9865    0.879 
 C                    -3.9756   -0.9524   -0.9892 
 H                    -4.2417    0.0946   -1.1323 
 H                    -4.6683   -1.5251   -1.6069 
 C                     3.9858    0.2971    1.3211 
 H                     4.6418    0.9913    1.8473 
 H                     4.3286   -0.7075    1.5742 
 C                     4.0924    0.4717   -0.2029 
 H                     5.0622    0.1356   -0.5714 
 H                     4.0205    1.5335   -0.44 
 C                    -3.352     0.6614    1.9219 
 H                    -3.638     1.3583    1.137 
 H                    -4.2486    0.535     2.5297 
 C                    -2.2812   -2.6261   -1.8609 
 H                    -2.9553   -2.8576   -2.6864 
 H                    -2.5675   -3.3052   -1.0593 
 C                     2.2094   -0.2673    3.0825 
 H                     2.8362    0.1453    3.874 
 H                     2.4929   -1.3158    3.0019 
 C                     2.6474    0.2057   -2.312 
 H                     2.4486    1.2769   -2.3052 
 H                     3.5427    0.0778   -2.9214 
 C                    -2.278     1.2991    2.8105 
 H                    -2.6332    2.2425    3.2253 
 H                    -1.3639    1.5152    2.261 
 H                    -2.0271    0.6471    3.6467 
 C                    -0.8524   -2.946    -2.3126 
 H                    -0.1123   -2.7068   -1.5522 
 H                    -0.7516   -4.0067   -2.544 
 H                    -0.6047   -2.3917   -3.2171 
 C                     0.7446   -0.1817    3.5206 
 H                     0.0705   -0.6191    2.7858 
 H                     0.4528    0.8569    3.6745 
 H                     0.5902   -0.7099    4.4617 
 C                     1.4817   -0.5101   -2.9992 
 H                     1.6628   -1.5835   -3.0516 
 H                     0.5424   -0.3444   -2.4731 
 H                     1.3506   -0.1455   -4.0181 
 C                    -1.7942    2.0517   -0.7486 
 H                    -2.8473    1.8697   -0.8896 
 C                    -1.2835    3.337    -1.0076 
 H                    -1.9446    4.1241   -1.3396 
 C                     0.0868    3.5969   -0.8293 
 H                     0.481     4.5836   -1.0237 
 C                     0.946     2.5646   -0.4115 
 H                     1.9999    2.7655   -0.2947 
 Cl                    2.1671   -3.3755    1.1794 
 Pd                    0.2646   -2.1148    0.7048 
 

 GradGradGradGradGradGradGradGradGradGradGradGradGradGradGradGradGradGrad
 Berny optimization.
 Initialization pass.
                           ----------------------------
                           !    Initial Parameters    !
                           ! (Angstroms and Degrees)  !
 --------------------------                            --------------------------
 ! Name  Definition              Value          Derivative Info.                !
 --------------------------------------------------------------------------------
 ! R1    R(1,63)                 2.3306         estimate D2E/DX2                !
 ! R2    R(2,4)                  1.8829         estimate D2E/DX2                !
 ! R3    R(2,6)                  1.8468         estimate D2E/DX2                !
 ! R4    R(2,8)                  1.8402         estimate D2E/DX2                !
 ! R5    R(2,63)                 2.4016         estimate D2E/DX2                !
 ! R6    R(3,5)                  1.8725         estimate D2E/DX2                !
 ! R7    R(3,10)                 1.8347         estimate D2E/DX2                !
 ! R8    R(3,12)                 1.8378         estimate D2E/DX2                !
 ! R9    R(3,63)                 2.395          estimate D2E/DX2                !
 ! R10   R(4,5)                  1.4185         estimate D2E/DX2                !
 ! R11   R(4,54)                 1.4108         estimate D2E/DX2                !
 ! R12   R(5,60)                 1.4098         estimate D2E/DX2                !
 ! R13   R(6,7)                  1.091          estimate D2E/DX2                !
 ! R14   R(6,14)                 1.5378         estimate D2E/DX2                !
 ! R15   R(6,26)                 1.5443         estimate D2E/DX2                !
 ! R16   R(8,9)                  1.091          estimate D2E/DX2                !
 ! R17   R(8,17)                 1.5371         estimate D2E/DX2                !
 ! R18   R(8,29)                 1.5422         estimate D2E/DX2                !
 ! R19   R(10,11)                1.0907         estimate D2E/DX2                !
 ! R20   R(10,20)                1.5371         estimate D2E/DX2                !
 ! R21   R(10,32)                1.54           estimate D2E/DX2                !
 ! R22   R(12,13)                1.0911         estimate D2E/DX2                !
 ! R23   R(12,23)                1.5353         estimate D2E/DX2                !
 ! R24   R(12,35)                1.5413         estimate D2E/DX2                !
 ! R25   R(14,15)                1.091          estimate D2E/DX2                !
 ! R26   R(14,16)                1.0905         estimate D2E/DX2                !
 ! R27   R(14,17)                1.5391         estimate D2E/DX2                !
 ! R28   R(17,18)                1.0897         estimate D2E/DX2                !
 ! R29   R(17,19)                1.0906         estimate D2E/DX2                !
 ! R30   R(20,21)                1.0905         estimate D2E/DX2                !
 ! R31   R(20,22)                1.0912         estimate D2E/DX2                !
 ! R32   R(20,23)                1.5377         estimate D2E/DX2                !
 ! R33   R(23,24)                1.0905         estimate D2E/DX2                !
 ! R34   R(23,25)                1.0903         estimate D2E/DX2                !
 ! R35   R(26,27)                1.0879         estimate D2E/DX2                !
 ! R36   R(26,28)                1.0905         estimate D2E/DX2                !
 ! R37   R(26,38)                1.5329         estimate D2E/DX2                !
 ! R38   R(29,30)                1.0906         estimate D2E/DX2                !
 ! R39   R(29,31)                1.0889         estimate D2E/DX2                !
 ! R40   R(29,42)                1.5323         estimate D2E/DX2                !
 ! R41   R(32,33)                1.0907         estimate D2E/DX2                !
 ! R42   R(32,34)                1.0891         estimate D2E/DX2                !
 ! R43   R(32,46)                1.5313         estimate D2E/DX2                !
 ! R44   R(35,36)                1.0895         estimate D2E/DX2                !
 ! R45   R(35,37)                1.0905         estimate D2E/DX2                !
 ! R46   R(35,50)                1.5308         estimate D2E/DX2                !
 ! R47   R(38,39)                1.0901         estimate D2E/DX2                !
 ! R48   R(38,40)                1.0882         estimate D2E/DX2                !
 ! R49   R(38,41)                1.0896         estimate D2E/DX2                !
 ! R50   R(42,43)                1.0877         estimate D2E/DX2                !
 ! R51   R(42,44)                1.0903         estimate D2E/DX2                !
 ! R52   R(42,45)                1.0894         estimate D2E/DX2                !
 ! R53   R(46,47)                1.0889         estimate D2E/DX2                !
 ! R54   R(46,48)                1.0897         estimate D2E/DX2                !
 ! R55   R(46,49)                1.0902         estimate D2E/DX2                !
 ! R56   R(50,51)                1.0898         estimate D2E/DX2                !
 ! R57   R(50,52)                1.0893         estimate D2E/DX2                !
 ! R58   R(50,53)                1.0901         estimate D2E/DX2                !
 ! R59   R(54,55)                1.078          estimate D2E/DX2                !
 ! R60   R(54,56)                1.4071         estimate D2E/DX2                !
 ! R61   R(56,57)                1.0802         estimate D2E/DX2                !
 ! R62   R(56,58)                1.4061         estimate D2E/DX2                !
 ! R63   R(58,59)                1.0802         estimate D2E/DX2                !
 ! R64   R(58,60)                1.4066         estimate D2E/DX2                !
 ! R65   R(60,61)                1.0792         estimate D2E/DX2                !
 ! R66   R(62,63)                2.3311         estimate D2E/DX2                !
 ! A1    A(4,2,6)              113.444          estimate D2E/DX2                !
 ! A2    A(4,2,8)              102.8881         estimate D2E/DX2                !
 ! A3    A(4,2,63)             109.1826         estimate D2E/DX2                !
 ! A4    A(6,2,8)               99.3648         estimate D2E/DX2                !
 ! A5    A(6,2,63)             114.5038         estimate D2E/DX2                !
 ! A6    A(8,2,63)             116.7598         estimate D2E/DX2                !
 ! A7    A(5,3,10)             105.4928         estimate D2E/DX2                !
 ! A8    A(5,3,12)             109.9108         estimate D2E/DX2                !
 ! A9    A(5,3,63)             109.6041         estimate D2E/DX2                !
 ! A10   A(10,3,12)             98.8034         estimate D2E/DX2                !
 ! A11   A(10,3,63)            115.596          estimate D2E/DX2                !
 ! A12   A(12,3,63)            116.537          estimate D2E/DX2                !
 ! A13   A(2,4,5)              118.4363         estimate D2E/DX2                !
 ! A14   A(2,4,54)             122.3753         estimate D2E/DX2                !
 ! A15   A(5,4,54)             119.1849         estimate D2E/DX2                !
 ! A16   A(3,5,4)              118.6021         estimate D2E/DX2                !
 ! A17   A(3,5,60)             121.5786         estimate D2E/DX2                !
 ! A18   A(4,5,60)             119.8144         estimate D2E/DX2                !
 ! A19   A(2,6,7)              109.4276         estimate D2E/DX2                !
 ! A20   A(2,6,14)             102.6682         estimate D2E/DX2                !
 ! A21   A(2,6,26)             116.123          estimate D2E/DX2                !
 ! A22   A(7,6,14)             108.7667         estimate D2E/DX2                !
 ! A23   A(7,6,26)             108.0173         estimate D2E/DX2                !
 ! A24   A(14,6,26)            111.599          estimate D2E/DX2                !
 ! A25   A(2,8,9)              111.0223         estimate D2E/DX2                !
 ! A26   A(2,8,17)             102.3738         estimate D2E/DX2                !
 ! A27   A(2,8,29)             113.368          estimate D2E/DX2                !
 ! A28   A(9,8,17)             109.9227         estimate D2E/DX2                !
 ! A29   A(9,8,29)             109.103          estimate D2E/DX2                !
 ! A30   A(17,8,29)            110.8964         estimate D2E/DX2                !
 ! A31   A(3,10,11)            108.6624         estimate D2E/DX2                !
 ! A32   A(3,10,20)            103.3314         estimate D2E/DX2                !
 ! A33   A(3,10,32)            114.0332         estimate D2E/DX2                !
 ! A34   A(11,10,20)           108.883          estimate D2E/DX2                !
 ! A35   A(11,10,32)           108.8031         estimate D2E/DX2                !
 ! A36   A(20,10,32)           112.8984         estimate D2E/DX2                !
 ! A37   A(3,12,13)            107.4366         estimate D2E/DX2                !
 ! A38   A(3,12,23)            103.1752         estimate D2E/DX2                !
 ! A39   A(3,12,35)            115.9092         estimate D2E/DX2                !
 ! A40   A(13,12,23)           108.2581         estimate D2E/DX2                !
 ! A41   A(13,12,35)           108.3384         estimate D2E/DX2                !
 ! A42   A(23,12,35)           113.3316         estimate D2E/DX2                !
 ! A43   A(6,14,15)            108.5413         estimate D2E/DX2                !
 ! A44   A(6,14,16)            112.064          estimate D2E/DX2                !
 ! A45   A(6,14,17)            110.2596         estimate D2E/DX2                !
 ! A46   A(15,14,16)           105.9748         estimate D2E/DX2                !
 ! A47   A(15,14,17)           108.5536         estimate D2E/DX2                !
 ! A48   A(16,14,17)           111.2643         estimate D2E/DX2                !
 ! A49   A(8,17,14)            109.7371         estimate D2E/DX2                !
 ! A50   A(8,17,18)            109.2506         estimate D2E/DX2                !
 ! A51   A(8,17,19)            111.8259         estimate D2E/DX2                !
 ! A52   A(14,17,18)           108.7224         estimate D2E/DX2                !
 ! A53   A(14,17,19)           111.215          estimate D2E/DX2                !
 ! A54   A(18,17,19)           105.9659         estimate D2E/DX2                !
 ! A55   A(10,20,21)           111.2169         estimate D2E/DX2                !
 ! A56   A(10,20,22)           109.4731         estimate D2E/DX2                !
 ! A57   A(10,20,23)           109.89           estimate D2E/DX2                !
 ! A58   A(21,20,22)           106.5687         estimate D2E/DX2                !
 ! A59   A(21,20,23)           111.3622         estimate D2E/DX2                !
 ! A60   A(22,20,23)           108.218          estimate D2E/DX2                !
 ! A61   A(12,23,20)           109.3637         estimate D2E/DX2                !
 ! A62   A(12,23,24)           111.1291         estimate D2E/DX2                !
 ! A63   A(12,23,25)           109.7538         estimate D2E/DX2                !
 ! A64   A(20,23,24)           111.196          estimate D2E/DX2                !
 ! A65   A(20,23,25)           108.7556         estimate D2E/DX2                !
 ! A66   A(24,23,25)           106.5766         estimate D2E/DX2                !
 ! A67   A(6,26,27)            110.4516         estimate D2E/DX2                !
 ! A68   A(6,26,28)            108.3854         estimate D2E/DX2                !
 ! A69   A(6,26,38)            115.2234         estimate D2E/DX2                !
 ! A70   A(27,26,28)           105.0829         estimate D2E/DX2                !
 ! A71   A(27,26,38)           109.6293         estimate D2E/DX2                !
 ! A72   A(28,26,38)           107.5279         estimate D2E/DX2                !
 ! A73   A(8,29,30)            108.9099         estimate D2E/DX2                !
 ! A74   A(8,29,31)            109.7996         estimate D2E/DX2                !
 ! A75   A(8,29,42)            115.0656         estimate D2E/DX2                !
 ! A76   A(30,29,31)           105.2072         estimate D2E/DX2                !
 ! A77   A(30,29,42)           107.9933         estimate D2E/DX2                !
 ! A78   A(31,29,42)           109.389          estimate D2E/DX2                !
 ! A79   A(10,32,33)           108.8113         estimate D2E/DX2                !
 ! A80   A(10,32,34)           110.0351         estimate D2E/DX2                !
 ! A81   A(10,32,46)           114.4255         estimate D2E/DX2                !
 ! A82   A(33,32,34)           105.5628         estimate D2E/DX2                !
 ! A83   A(33,32,46)           108.7212         estimate D2E/DX2                !
 ! A84   A(34,32,46)           108.9037         estimate D2E/DX2                !
 ! A85   A(12,35,36)           110.2681         estimate D2E/DX2                !
 ! A86   A(12,35,37)           108.6856         estimate D2E/DX2                !
 ! A87   A(12,35,50)           114.413          estimate D2E/DX2                !
 ! A88   A(36,35,37)           105.5808         estimate D2E/DX2                !
 ! A89   A(36,35,50)           108.8799         estimate D2E/DX2                !
 ! A90   A(37,35,50)           108.6302         estimate D2E/DX2                !
 ! A91   A(26,38,39)           110.6295         estimate D2E/DX2                !
 ! A92   A(26,38,40)           112.2363         estimate D2E/DX2                !
 ! A93   A(26,38,41)           110.9324         estimate D2E/DX2                !
 ! A94   A(39,38,40)           107.0977         estimate D2E/DX2                !
 ! A95   A(39,38,41)           107.5099         estimate D2E/DX2                !
 ! A96   A(40,38,41)           108.235          estimate D2E/DX2                !
 ! A97   A(29,42,43)           112.4867         estimate D2E/DX2                !
 ! A98   A(29,42,44)           110.6021         estimate D2E/DX2                !
 ! A99   A(29,42,45)           110.5216         estimate D2E/DX2                !
 ! A100  A(43,42,44)           107.4212         estimate D2E/DX2                !
 ! A101  A(43,42,45)           108.2901         estimate D2E/DX2                !
 ! A102  A(44,42,45)           107.3236         estimate D2E/DX2                !
 ! A103  A(32,46,47)           112.1276         estimate D2E/DX2                !
 ! A104  A(32,46,48)           110.4765         estimate D2E/DX2                !
 ! A105  A(32,46,49)           110.8158         estimate D2E/DX2                !
 ! A106  A(47,46,48)           108.2027         estimate D2E/DX2                !
 ! A107  A(47,46,49)           107.4718         estimate D2E/DX2                !
 ! A108  A(48,46,49)           107.5737         estimate D2E/DX2                !
 ! A109  A(35,50,51)           110.8292         estimate D2E/DX2                !
 ! A110  A(35,50,52)           111.635          estimate D2E/DX2                !
 ! A111  A(35,50,53)           110.7798         estimate D2E/DX2                !
 ! A112  A(51,50,52)           108.4418         estimate D2E/DX2                !
 ! A113  A(51,50,53)           107.7264         estimate D2E/DX2                !
 ! A114  A(52,50,53)           107.2689         estimate D2E/DX2                !
 ! A115  A(4,54,55)            120.3226         estimate D2E/DX2                !
 ! A116  A(4,54,56)            120.682          estimate D2E/DX2                !
 ! A117  A(55,54,56)           118.9941         estimate D2E/DX2                !
 ! A118  A(54,56,57)           120.0029         estimate D2E/DX2                !
 ! A119  A(54,56,58)           119.948          estimate D2E/DX2                !
 ! A120  A(57,56,58)           120.0488         estimate D2E/DX2                !
 ! A121  A(56,58,59)           120.1113         estimate D2E/DX2                !
 ! A122  A(56,58,60)           119.8225         estimate D2E/DX2                !
 ! A123  A(59,58,60)           120.0623         estimate D2E/DX2                !
 ! A124  A(5,60,58)            120.4847         estimate D2E/DX2                !
 ! A125  A(5,60,61)            120.0336         estimate D2E/DX2                !
 ! A126  A(58,60,61)           119.4752         estimate D2E/DX2                !
 ! A127  A(1,63,2)              92.8132         estimate D2E/DX2                !
 ! A128  A(1,63,62)             91.2967         estimate D2E/DX2                !
 ! A129  A(2,63,3)              84.1029         estimate D2E/DX2                !
 ! A130  A(3,63,62)             91.8997         estimate D2E/DX2                !
 ! A131  L(1,63,3,62,-1)       183.1964         estimate D2E/DX2                !
 ! A132  L(2,63,62,3,-1)       176.0026         estimate D2E/DX2                !
 ! A133  L(1,63,3,62,-2)       182.9736         estimate D2E/DX2                !
 ! A134  L(2,63,62,3,-2)       182.2358         estimate D2E/DX2                !
 ! D1    D(6,2,4,5)            126.8749         estimate D2E/DX2                !
 ! D2    D(6,2,4,54)           -53.8066         estimate D2E/DX2                !
 ! D3    D(8,2,4,5)           -126.7951         estimate D2E/DX2                !
 ! D4    D(8,2,4,54)            52.5234         estimate D2E/DX2                !
 ! D5    D(63,2,4,5)            -2.1395         estimate D2E/DX2                !
 ! D6    D(63,2,4,54)          177.179          estimate D2E/DX2                !
 ! D7    D(4,2,6,7)           -127.3809         estimate D2E/DX2                !
 ! D8    D(4,2,6,14)           117.2195         estimate D2E/DX2                !
 ! D9    D(4,2,6,26)            -4.8161         estimate D2E/DX2                !
 ! D10   D(8,2,6,7)            124.0821         estimate D2E/DX2                !
 ! D11   D(8,2,6,14)             8.6825         estimate D2E/DX2                !
 ! D12   D(8,2,6,26)          -113.3531         estimate D2E/DX2                !
 ! D13   D(63,2,6,7)            -1.1347         estimate D2E/DX2                !
 ! D14   D(63,2,6,14)         -116.5343         estimate D2E/DX2                !
 ! D15   D(63,2,6,26)          121.4301         estimate D2E/DX2                !
 ! D16   D(4,2,8,9)             14.7072         estimate D2E/DX2                !
 ! D17   D(4,2,8,17)          -102.5538         estimate D2E/DX2                !
 ! D18   D(4,2,8,29)           137.9358         estimate D2E/DX2                !
 ! D19   D(6,2,8,9)            131.5396         estimate D2E/DX2                !
 ! D20   D(6,2,8,17)            14.2787         estimate D2E/DX2                !
 ! D21   D(6,2,8,29)          -105.2318         estimate D2E/DX2                !
 ! D22   D(63,2,8,9)          -104.8229         estimate D2E/DX2                !
 ! D23   D(63,2,8,17)          137.9161         estimate D2E/DX2                !
 ! D24   D(63,2,8,29)           18.4057         estimate D2E/DX2                !
 ! D25   D(4,2,63,1)           177.2478         estimate D2E/DX2                !
 ! D26   D(4,2,63,3)             0.3468         estimate D2E/DX2                !
 ! D27   D(6,2,63,1)            48.8212         estimate D2E/DX2                !
 ! D28   D(6,2,63,3)          -128.0797         estimate D2E/DX2                !
 ! D29   D(8,2,63,1)           -66.6538         estimate D2E/DX2                !
 ! D30   D(8,2,63,3)           116.4452         estimate D2E/DX2                !
 ! D31   D(10,3,5,4)          -127.7375         estimate D2E/DX2                !
 ! D32   D(10,3,5,60)           53.0712         estimate D2E/DX2                !
 ! D33   D(12,3,5,4)           126.6391         estimate D2E/DX2                !
 ! D34   D(12,3,5,60)          -52.5522         estimate D2E/DX2                !
 ! D35   D(63,3,5,4)            -2.6642         estimate D2E/DX2                !
 ! D36   D(63,3,5,60)          178.1445         estimate D2E/DX2                !
 ! D37   D(5,3,10,11)           -8.0296         estimate D2E/DX2                !
 ! D38   D(5,3,10,20)         -123.5666         estimate D2E/DX2                !
 ! D39   D(5,3,10,32)          113.5113         estimate D2E/DX2                !
 ! D40   D(12,3,10,11)         105.5822         estimate D2E/DX2                !
 ! D41   D(12,3,10,20)          -9.9547         estimate D2E/DX2                !
 ! D42   D(12,3,10,32)        -132.8769         estimate D2E/DX2                !
 ! D43   D(63,3,10,11)        -129.2841         estimate D2E/DX2                !
 ! D44   D(63,3,10,20)         115.1789         estimate D2E/DX2                !
 ! D45   D(63,3,10,32)          -7.7432         estimate D2E/DX2                !
 ! D46   D(5,3,12,13)         -148.7298         estimate D2E/DX2                !
 ! D47   D(5,3,12,23)           97.0159         estimate D2E/DX2                !
 ! D48   D(5,3,12,35)          -27.4508         estimate D2E/DX2                !
 ! D49   D(10,3,12,13)         101.175          estimate D2E/DX2                !
 ! D50   D(10,3,12,23)         -13.0794         estimate D2E/DX2                !
 ! D51   D(10,3,12,35)        -137.546          estimate D2E/DX2                !
 ! D52   D(63,3,12,13)         -23.2964         estimate D2E/DX2                !
 ! D53   D(63,3,12,23)        -137.5508         estimate D2E/DX2                !
 ! D54   D(63,3,12,35)          97.9826         estimate D2E/DX2                !
 ! D55   D(5,3,63,2)             0.957          estimate D2E/DX2                !
 ! D56   D(5,3,63,62)          178.7211         estimate D2E/DX2                !
 ! D57   D(10,3,63,2)          119.9711         estimate D2E/DX2                !
 ! D58   D(10,3,63,62)         -62.2648         estimate D2E/DX2                !
 ! D59   D(12,3,63,2)         -124.6308         estimate D2E/DX2                !
 ! D60   D(12,3,63,62)          53.1334         estimate D2E/DX2                !
 ! D61   D(2,4,5,3)              3.1667         estimate D2E/DX2                !
 ! D62   D(2,4,5,60)          -177.6273         estimate D2E/DX2                !
 ! D63   D(54,4,5,3)          -176.174          estimate D2E/DX2                !
 ! D64   D(54,4,5,60)            3.032          estimate D2E/DX2                !
 ! D65   D(2,4,54,55)           -1.2446         estimate D2E/DX2                !
 ! D66   D(2,4,54,56)          178.3425         estimate D2E/DX2                !
 ! D67   D(5,4,54,55)          178.069          estimate D2E/DX2                !
 ! D68   D(5,4,54,56)           -2.3439         estimate D2E/DX2                !
 ! D69   D(3,5,60,58)          177.4169         estimate D2E/DX2                !
 ! D70   D(3,5,60,61)           -1.6501         estimate D2E/DX2                !
 ! D71   D(4,5,60,58)           -1.7647         estimate D2E/DX2                !
 ! D72   D(4,5,60,61)          179.1682         estimate D2E/DX2                !
 ! D73   D(2,6,14,15)           88.6496         estimate D2E/DX2                !
 ! D74   D(2,6,14,16)         -154.6602         estimate D2E/DX2                !
 ! D75   D(2,6,14,17)          -30.1366         estimate D2E/DX2                !
 ! D76   D(7,6,14,15)          -27.2268         estimate D2E/DX2                !
 ! D77   D(7,6,14,16)           89.4634         estimate D2E/DX2                !
 ! D78   D(7,6,14,17)         -146.013          estimate D2E/DX2                !
 ! D79   D(26,6,14,15)        -146.2957         estimate D2E/DX2                !
 ! D80   D(26,6,14,16)         -29.6056         estimate D2E/DX2                !
 ! D81   D(26,6,14,17)          94.9181         estimate D2E/DX2                !
 ! D82   D(2,6,26,27)           59.1938         estimate D2E/DX2                !
 ! D83   D(2,6,26,28)          173.8145         estimate D2E/DX2                !
 ! D84   D(2,6,26,38)          -65.6954         estimate D2E/DX2                !
 ! D85   D(7,6,26,27)         -177.5035         estimate D2E/DX2                !
 ! D86   D(7,6,26,28)          -62.8828         estimate D2E/DX2                !
 ! D87   D(7,6,26,38)           57.6073         estimate D2E/DX2                !
 ! D88   D(14,6,26,27)         -57.9903         estimate D2E/DX2                !
 ! D89   D(14,6,26,28)          56.6304         estimate D2E/DX2                !
 ! D90   D(14,6,26,38)         177.1205         estimate D2E/DX2                !
 ! D91   D(2,8,17,14)          -34.0191         estimate D2E/DX2                !
 ! D92   D(2,8,17,18)           85.0925         estimate D2E/DX2                !
 ! D93   D(2,8,17,19)         -157.9251         estimate D2E/DX2                !
 ! D94   D(9,8,17,14)         -152.0635         estimate D2E/DX2                !
 ! D95   D(9,8,17,18)          -32.9519         estimate D2E/DX2                !
 ! D96   D(9,8,17,19)           84.0305         estimate D2E/DX2                !
 ! D97   D(29,8,17,14)          87.207          estimate D2E/DX2                !
 ! D98   D(29,8,17,18)        -153.6814         estimate D2E/DX2                !
 ! D99   D(29,8,17,19)         -36.699          estimate D2E/DX2                !
 ! D100  D(2,8,29,30)          173.0137         estimate D2E/DX2                !
 ! D101  D(2,8,29,31)           58.3036         estimate D2E/DX2                !
 ! D102  D(2,8,29,42)          -65.6073         estimate D2E/DX2                !
 ! D103  D(9,8,29,30)          -62.7087         estimate D2E/DX2                !
 ! D104  D(9,8,29,31)         -177.4188         estimate D2E/DX2                !
 ! D105  D(9,8,29,42)           58.6704         estimate D2E/DX2                !
 ! D106  D(17,8,29,30)          58.5048         estimate D2E/DX2                !
 ! D107  D(17,8,29,31)         -56.2052         estimate D2E/DX2                !
 ! D108  D(17,8,29,42)         179.8839         estimate D2E/DX2                !
 ! D109  D(3,10,20,21)         154.8142         estimate D2E/DX2                !
 ! D110  D(3,10,20,22)         -87.6872         estimate D2E/DX2                !
 ! D111  D(3,10,20,23)          31.0351         estimate D2E/DX2                !
 ! D112  D(11,10,20,21)         39.4347         estimate D2E/DX2                !
 ! D113  D(11,10,20,22)        156.9333         estimate D2E/DX2                !
 ! D114  D(11,10,20,23)        -84.3443         estimate D2E/DX2                !
 ! D115  D(32,10,20,21)        -81.5136         estimate D2E/DX2                !
 ! D116  D(32,10,20,22)         35.985          estimate D2E/DX2                !
 ! D117  D(32,10,20,23)        154.7073         estimate D2E/DX2                !
 ! D118  D(3,10,32,33)         178.7501         estimate D2E/DX2                !
 ! D119  D(3,10,32,34)          63.5416         estimate D2E/DX2                !
 ! D120  D(3,10,32,46)         -59.4394         estimate D2E/DX2                !
 ! D121  D(11,10,32,33)        -59.7869         estimate D2E/DX2                !
 ! D122  D(11,10,32,34)       -174.9954         estimate D2E/DX2                !
 ! D123  D(11,10,32,46)         62.0236         estimate D2E/DX2                !
 ! D124  D(20,10,32,33)         61.2068         estimate D2E/DX2                !
 ! D125  D(20,10,32,34)        -54.0016         estimate D2E/DX2                !
 ! D126  D(20,10,32,46)       -176.9826         estimate D2E/DX2                !
 ! D127  D(3,12,23,20)          33.1103         estimate D2E/DX2                !
 ! D128  D(3,12,23,24)         156.2494         estimate D2E/DX2                !
 ! D129  D(3,12,23,25)         -86.1204         estimate D2E/DX2                !
 ! D130  D(13,12,23,20)        -80.5488         estimate D2E/DX2                !
 ! D131  D(13,12,23,24)         42.5904         estimate D2E/DX2                !
 ! D132  D(13,12,23,25)        160.2205         estimate D2E/DX2                !
 ! D133  D(35,12,23,20)        159.2453         estimate D2E/DX2                !
 ! D134  D(35,12,23,24)        -77.6155         estimate D2E/DX2                !
 ! D135  D(35,12,23,25)         40.0146         estimate D2E/DX2                !
 ! D136  D(3,12,35,36)          63.8876         estimate D2E/DX2                !
 ! D137  D(3,12,35,37)         179.1742         estimate D2E/DX2                !
 ! D138  D(3,12,35,50)         -59.2346         estimate D2E/DX2                !
 ! D139  D(13,12,35,36)       -175.3171         estimate D2E/DX2                !
 ! D140  D(13,12,35,37)        -60.0305         estimate D2E/DX2                !
 ! D141  D(13,12,35,50)         61.5607         estimate D2E/DX2                !
 ! D142  D(23,12,35,36)        -55.1569         estimate D2E/DX2                !
 ! D143  D(23,12,35,37)         60.1297         estimate D2E/DX2                !
 ! D144  D(23,12,35,50)       -178.2791         estimate D2E/DX2                !
 ! D145  D(6,14,17,8)           44.3794         estimate D2E/DX2                !
 ! D146  D(6,14,17,18)         -75.0563         estimate D2E/DX2                !
 ! D147  D(6,14,17,19)         168.6414         estimate D2E/DX2                !
 ! D148  D(15,14,17,8)         -74.3992         estimate D2E/DX2                !
 ! D149  D(15,14,17,18)        166.165          estimate D2E/DX2                !
 ! D150  D(15,14,17,19)         49.8628         estimate D2E/DX2                !
 ! D151  D(16,14,17,8)         169.3609         estimate D2E/DX2                !
 ! D152  D(16,14,17,18)         49.9252         estimate D2E/DX2                !
 ! D153  D(16,14,17,19)        -66.3771         estimate D2E/DX2                !
 ! D154  D(10,20,23,12)        -43.9415         estimate D2E/DX2                !
 ! D155  D(10,20,23,24)       -167.041          estimate D2E/DX2                !
 ! D156  D(10,20,23,25)         75.9045         estimate D2E/DX2                !
 ! D157  D(21,20,23,12)       -167.6358         estimate D2E/DX2                !
 ! D158  D(21,20,23,24)         69.2647         estimate D2E/DX2                !
 ! D159  D(21,20,23,25)        -47.7898         estimate D2E/DX2                !
 ! D160  D(22,20,23,12)         75.5502         estimate D2E/DX2                !
 ! D161  D(22,20,23,24)        -47.5492         estimate D2E/DX2                !
 ! D162  D(22,20,23,25)       -164.6038         estimate D2E/DX2                !
 ! D163  D(6,26,38,39)        -177.978          estimate D2E/DX2                !
 ! D164  D(6,26,38,40)          62.4646         estimate D2E/DX2                !
 ! D165  D(6,26,38,41)         -58.7555         estimate D2E/DX2                !
 ! D166  D(27,26,38,39)         56.7061         estimate D2E/DX2                !
 ! D167  D(27,26,38,40)        -62.8513         estimate D2E/DX2                !
 ! D168  D(27,26,38,41)        175.9286         estimate D2E/DX2                !
 ! D169  D(28,26,38,39)        -57.0203         estimate D2E/DX2                !
 ! D170  D(28,26,38,40)       -176.5777         estimate D2E/DX2                !
 ! D171  D(28,26,38,41)         62.2022         estimate D2E/DX2                !
 ! D172  D(8,29,42,43)          56.0606         estimate D2E/DX2                !
 ! D173  D(8,29,42,44)         176.1782         estimate D2E/DX2                !
 ! D174  D(8,29,42,45)         -65.1117         estimate D2E/DX2                !
 ! D175  D(30,29,42,43)        177.9362         estimate D2E/DX2                !
 ! D176  D(30,29,42,44)        -61.9462         estimate D2E/DX2                !
 ! D177  D(30,29,42,45)         56.764          estimate D2E/DX2                !
 ! D178  D(31,29,42,43)        -68.0669         estimate D2E/DX2                !
 ! D179  D(31,29,42,44)         52.0507         estimate D2E/DX2                !
 ! D180  D(31,29,42,45)        170.7609         estimate D2E/DX2                !
 ! D181  D(10,32,46,47)         60.5658         estimate D2E/DX2                !
 ! D182  D(10,32,46,48)        -60.218          estimate D2E/DX2                !
 ! D183  D(10,32,46,49)       -179.3463         estimate D2E/DX2                !
 ! D184  D(33,32,46,47)       -177.5743         estimate D2E/DX2                !
 ! D185  D(33,32,46,48)         61.6419         estimate D2E/DX2                !
 ! D186  D(33,32,46,49)        -57.4864         estimate D2E/DX2                !
 ! D187  D(34,32,46,47)        -63.0244         estimate D2E/DX2                !
 ! D188  D(34,32,46,48)        176.1918         estimate D2E/DX2                !
 ! D189  D(34,32,46,49)         57.0635         estimate D2E/DX2                !
 ! D190  D(12,35,50,51)        -57.9204         estimate D2E/DX2                !
 ! D191  D(12,35,50,52)         63.0779         estimate D2E/DX2                !
 ! D192  D(12,35,50,53)       -177.4446         estimate D2E/DX2                !
 ! D193  D(36,35,50,51)        178.2116         estimate D2E/DX2                !
 ! D194  D(36,35,50,52)        -60.7901         estimate D2E/DX2                !
 ! D195  D(36,35,50,53)         58.6873         estimate D2E/DX2                !
 ! D196  D(37,35,50,51)         63.7013         estimate D2E/DX2                !
 ! D197  D(37,35,50,52)       -175.3004         estimate D2E/DX2                !
 ! D198  D(37,35,50,53)        -55.823          estimate D2E/DX2                !
 ! D199  D(4,54,56,57)        -179.4164         estimate D2E/DX2                !
 ! D200  D(4,54,56,58)           0.3565         estimate D2E/DX2                !
 ! D201  D(55,54,56,57)          0.1761         estimate D2E/DX2                !
 ! D202  D(55,54,56,58)        179.949          estimate D2E/DX2                !
 ! D203  D(54,56,58,59)       -179.7647         estimate D2E/DX2                !
 ! D204  D(54,56,58,60)          0.9508         estimate D2E/DX2                !
 ! D205  D(57,56,58,59)          0.008          estimate D2E/DX2                !
 ! D206  D(57,56,58,60)       -179.2764         estimate D2E/DX2                !
 ! D207  D(56,58,60,5)          -0.2408         estimate D2E/DX2                !
 ! D208  D(56,58,60,61)        178.8315         estimate D2E/DX2                !
 ! D209  D(59,58,60,5)        -179.5255         estimate D2E/DX2                !
 ! D210  D(59,58,60,61)         -0.4533         estimate D2E/DX2                !
 --------------------------------------------------------------------------------
 Trust Radius=3.00D-01 FncErr=1.00D-07 GrdErr=1.00D-06
 Number of steps in this run=    378 maximum allowed number of steps=    378.
 GradGradGradGradGradGradGradGradGradGradGradGradGradGradGradGradGradGrad

 Stoichiometry    C22H36Cl2P2Pd
 Framework group  C1[X(C22H36Cl2P2Pd)]
 Deg. of freedom   183
 Full point group                 C1      NOp   1
 Largest Abelian subgroup         C1      NOp   1
 Largest concise Abelian subgroup C1      NOp   1
                         Standard orientation:                         
 ---------------------------------------------------------------------
 Center     Atomic      Atomic             Coordinates (Angstroms)
 Number     Number       Type             X           Y           Z
 ---------------------------------------------------------------------
      1         17           0        1.560532   -3.128231   -0.347679
      2         15           0        1.562140    0.276237    0.050926
      3         15           0       -1.649838    0.318088   -0.007510
      4          6           0        0.677679    1.933629    0.177277
      5          6           0       -0.739134    1.949939    0.110969
      6          6           0        2.868149    0.237978   -1.254255
      7          1           0        2.699909   -0.616771   -1.911001
      8          6           0        2.633585    0.267671    1.546991
      9          1           0        2.328126    1.042650    2.251609
     10          6           0       -2.766262    0.483808   -1.453927
     11          1           0       -2.738594    1.517924   -1.799487
     12          6           0       -2.919422    0.212263    1.317064
     13          1           0       -3.019832   -0.839235    1.590439
     14          6           0        4.150276   -0.007516   -0.441325
     15          1           0        4.295232   -1.083977   -0.338726
     16          1           0        5.037519    0.367402   -0.952539
     17          6           0        4.015475    0.604677    0.964386
     18          1           0        4.118174    1.686714    0.885990
     19          1           0        4.822957    0.273298    1.618246
     20          6           0       -4.155780    0.193336   -0.864279
     21          1           0       -4.941583    0.665965   -1.454424
     22          1           0       -4.346767   -0.880614   -0.895064
     23          6           0       -4.206858    0.648809    0.603495
     24          1           0       -5.089279    0.254157    1.108322
     25          1           0       -4.292894    1.735395    0.630584
     26          6           0        2.986527    1.500976   -2.134911
     27          1           0        3.199266    2.373720   -1.521238
     28          1           0        3.857832    1.389263   -2.781160
     29          6           0        2.659575   -1.092737    2.272990
     30          1           0        3.405375   -1.054986    3.067856
     31          1           0        3.007206   -1.867806    1.591721
     32          6           0       -2.409274   -0.442656   -2.631171
     33          1           0       -3.135558   -0.291229   -3.430652
     34          1           0       -2.516863   -1.484385   -2.332098
     35          6           0       -2.626703    1.020140    2.596559
     36          1           0       -2.602262    2.086095    2.372554
     37          1           0       -3.456010    0.885890    3.291912
     38          6           0        1.778260    1.785913   -3.034159
     39          1           0        1.955357    2.670077   -3.646630
     40          1           0        0.872241    1.970457   -2.460311
     41          1           0        1.590188    0.951662   -3.709393
     42          6           0        1.326605   -1.522363    2.894642
     43          1           0        0.518018   -1.549413    2.167574
     44          1           0        1.409153   -2.519319    3.328294
     45          1           0        1.042491   -0.842223    3.696772
     46          6           0       -1.002653   -0.232155   -3.198626
     47          1           0       -0.228829   -0.411928   -2.453952
     48          1           0       -0.889239    0.786676   -3.568279
     49          1           0       -0.816640   -0.907897   -4.033656
     50          6           0       -1.326391    0.633034    3.305649
     51          1           0       -1.330583   -0.423433    3.573215
     52          1           0       -0.455277    0.826856    2.681057
     53          1           0       -1.200670    1.207393    4.223573
     54          6           0        1.372387    3.149477    0.348683
     55          1           0        2.447073    3.155081    0.432611
     56          6           0        0.677556    4.371782    0.404109
     57          1           0        1.221278    5.297125    0.526216
     58          6           0       -0.724241    4.387884    0.295637
     59          1           0       -1.260002    5.325033    0.334031
     60          6           0       -1.428663    3.178915    0.152084
     61          1           0       -2.505857    3.196305    0.088366
     62         17           0       -1.768708   -3.072033   -0.189750
     63         46           0       -0.069356   -1.477807   -0.120751
 ---------------------------------------------------------------------
 Rotational constants (GHZ):      0.1646856      0.1457261      0.1162549
 General basis read from cards:  (6D, 7F)
 ======================================================================================================
                                       Pseudopotential Parameters
 ======================================================================================================
  Center     Atomic      Valence      Angular      Power
  Number     Number     Electrons     Momentum     of R      Exponent        Coefficient   SO-Coeffient
 ======================================================================================================
    1         17
                                   No pseudopotential on this center.
    2         15
                                   No pseudopotential on this center.
    3         15
                                   No pseudopotential on this center.
    4          6
                                   No pseudopotential on this center.
    5          6
                                   No pseudopotential on this center.
    6          6
                                   No pseudopotential on this center.
    7          1
                                   No pseudopotential on this center.
    8          6
                                   No pseudopotential on this center.
    9          1
                                   No pseudopotential on this center.
   10          6
                                   No pseudopotential on this center.
   11          1
                                   No pseudopotential on this center.
   12          6
                                   No pseudopotential on this center.
   13          1
                                   No pseudopotential on this center.
   14          6
                                   No pseudopotential on this center.
   15          1
                                   No pseudopotential on this center.
   16          1
                                   No pseudopotential on this center.
   17          6
                                   No pseudopotential on this center.
   18          1
                                   No pseudopotential on this center.
   19          1
                                   No pseudopotential on this center.
   20          6
                                   No pseudopotential on this center.
   21          1
                                   No pseudopotential on this center.
   22          1
                                   No pseudopotential on this center.
   23          6
                                   No pseudopotential on this center.
   24          1
                                   No pseudopotential on this center.
   25          1
                                   No pseudopotential on this center.
   26          6
                                   No pseudopotential on this center.
   27          1
                                   No pseudopotential on this center.
   28          1
                                   No pseudopotential on this center.
   29          6
                                   No pseudopotential on this center.
   30          1
                                   No pseudopotential on this center.
   31          1
                                   No pseudopotential on this center.
   32          6
                                   No pseudopotential on this center.
   33          1
                                   No pseudopotential on this center.
   34          1
                                   No pseudopotential on this center.
   35          6
                                   No pseudopotential on this center.
   36          1
                                   No pseudopotential on this center.
   37          1
                                   No pseudopotential on this center.
   38          6
                                   No pseudopotential on this center.
   39          1
                                   No pseudopotential on this center.
   40          1
                                   No pseudopotential on this center.
   41          1
                                   No pseudopotential on this center.
   42          6
                                   No pseudopotential on this center.
   43          1
                                   No pseudopotential on this center.
   44          1
                                   No pseudopotential on this center.
   45          1
                                   No pseudopotential on this center.
   46          6
                                   No pseudopotential on this center.
   47          1
                                   No pseudopotential on this center.
   48          1
                                   No pseudopotential on this center.
   49          1
                                   No pseudopotential on this center.
   50          6
                                   No pseudopotential on this center.
   51          1
                                   No pseudopotential on this center.
   52          1
                                   No pseudopotential on this center.
   53          1
                                   No pseudopotential on this center.
   54          6
                                   No pseudopotential on this center.
   55          1
                                   No pseudopotential on this center.
   56          6
                                   No pseudopotential on this center.
   57          1
                                   No pseudopotential on this center.
   58          6
                                   No pseudopotential on this center.
   59          1
                                   No pseudopotential on this center.
   60          6
                                   No pseudopotential on this center.
   61          1
                                   No pseudopotential on this center.
   62         17
                                   No pseudopotential on this center.
   63         46           18
                                      F and up 
                                                     0      598.3336444       -0.05631770    0.00000000
                                                     1      162.4298290      -20.12880360    0.00000000
                                                     2       51.5714771     -105.81979230    0.00000000
                                                     2       16.4888260      -42.57333450    0.00000000
                                                     2        5.8287656       -3.61650860    0.00000000
                                      S - F
                                                     0       73.3806304        3.00036510    0.00000000
                                                     1       14.7550438       32.43500930    0.00000000
                                                     2       17.8350204      459.08303830    0.00000000
                                                     2       12.7111477     -868.06290290    0.00000000
                                                     2        9.3292063      514.47260980    0.00000000
                                      P - F
                                                     0       55.6689877        4.95930990    0.00000000
                                                     1       64.2337771       21.17110290    0.00000000
                                                     2       17.6254952      605.05600920    0.00000000
                                                     2       11.9058155     -726.96418460    0.00000000
                                                     2        8.5100832      396.32748830    0.00000000
                                      D - F
                                                     0       49.9994728        3.05087450    0.00000000
                                                     1       39.7477547       22.25065800    0.00000000
                                                     2       11.4321366      674.83576980    0.00000000
                                                     2        9.1790080    -1040.85540480    0.00000000
                                                     2        7.5624429      505.93751470    0.00000000
 ======================================================================================================
 There are   502 symmetry adapted cartesian basis functions of A   symmetry.
 There are   502 symmetry adapted basis functions of A   symmetry.
   502 basis functions,  1017 primitive gaussians,   502 cartesian basis functions
   125 alpha electrons      125 beta electrons
       nuclear repulsion energy      4045.4336386983 Hartrees.
 NAtoms=   63 NActive=   63 NUniq=   63 SFac= 1.00D+00 NAtFMM=   60 NAOKFM=T Big=T
 Integral buffers will be    131072 words long.
 Raffenetti 2 integral format.
 Two-electron integral symmetry is turned on.
 Nuclear repulsion after empirical dispersion term =     4045.3193892142 Hartrees.
 Standard density basis: Auto (5D, 7F)
  2222 Density fitting functions
 There are  2222 symmetry adapted density basis functions of A   symmetry.
 One-electron integrals computed using PRISM.
   1 Symmetry operations used in ECPInt.
 ECPInt:  NShTT=   17766 NPrTT=  111805 LenC2=   15828 LenP2D=   56002.
 LDataN:  DoStor=T MaxTD1= 5 Len=  102
 NBasis=   502 RedAO= T EigKep=  5.02D-04  NBF=   502
 NBsUse=   502 1.00D-06 EigRej= -1.00D+00 NBFU=   502
 NBasis=      502 NBas6D=      502 NTT=      126253   NTT6D=   126253
 NDBShl=      478 NDBF=       2222 NDBF6D=     2624  NNucDB=        0
 IDenFi=        2 ISolve=        0 FullAP=F BlkAPC=T NucTyp=        0
 TolInv= 1.00D-06 TolIt=  1.00D-10 IR12=0.
 FoFCou: FMM=F IPFlag=           0 FMFlag=           0 FMFlg1=           0
         NFxFlg=           0 DoJE=F BraDBF=T KetDBF=T FulRan=T
         wScrn=  0.000000 ICntrl=     600 IOpCl=  3 I1Cent=           6 NGrid=           0
         NMat0=    1 NMatS0=   2624 NMatT0=    0 NMatD0=    1 NMtDS0=    0 NMtDT0=    0
 Petite list used in FoFCou.
 DBF EigKep=  3.78D-06 EigRej=  7.93D-07
 NDBF=   2222  NBFD=  2222
 NRank=  2221 NBFDU=  2221
 S*AI*S=  11.0661195155    
 Defaulting to unpruned grid for atomic number  46.
 ExpMin= 2.62D-02 ExpMax= 2.52D+04 ExpMxC= 3.78D+03 IAcc=3 IRadAn=         5 AccDes= 0.00D+00
 Harris functional with IExCor= 1009 and IRadAn=       5 diagonalized for initial guess.
 HarFok:  IExCor= 1009 AccDes= 0.00D+00 IRadAn=         5 IDoV= 1 UseB2=F ITyADJ=14
 ICtDFT=  3500011 ScaDFX=  1.000000  1.000000  1.000000  1.000000
 Defaulting to unpruned grid for atomic number  46.
 Defaulting to unpruned grid for atomic number  46.
 Defaulting to unpruned grid for atomic number  46.
 Defaulting to unpruned grid for atomic number  46.
 Defaulting to unpruned grid for atomic number  46.
 Defaulting to unpruned grid for atomic number  46.
 Defaulting to unpruned grid for atomic number  46.
 Defaulting to unpruned grid for atomic number  46.
 Defaulting to unpruned grid for atomic number  46.
 Defaulting to unpruned grid for atomic number  46.
 Defaulting to unpruned grid for atomic number  46.
 Defaulting to unpruned grid for atomic number  46.
 Defaulting to unpruned grid for atomic number  46.
 Defaulting to unpruned grid for atomic number  46.
 FoFCou: FMM=F IPFlag=           0 FMFlag=      100000 FMFlg1=        2001
         NFxFlg=           0 DoJE=T BraDBF=F KetDBF=T FulRan=T
         wScrn=  0.000000 ICntrl=     500 IOpCl=  0 I1Cent=   200000004 NGrid=           0
         NMat0=    1 NMatS0=      1 NMatT0=    0 NMatD0=    1 NMtDS0=    0 NMtDT0=    0
 Petite list used in FoFCou.
 Requested convergence on RMS density matrix=1.00D-08 within 500 cycles.
 Requested convergence on MAX density matrix=1.00D-06.
 Requested convergence on             energy=1.00D-06.
 No special actions if energy rises.
 FoFCou: FMM=F IPFlag=           0 FMFlag=      100000 FMFlg1=        2001
         NFxFlg=           0 DoJE=T BraDBF=T KetDBF=F FulRan=T
         wScrn=  0.000000 ICntrl=     500 IOpCl=  0 I1Cent=           5 NGrid=           0
         NMat0=    1 NMatS0=      1 NMatT0=    0 NMatD0=    1 NMtDS0=    0 NMtDT0=    0
 Symmetry not used in FoFCou.
 Defaulting to unpruned grid for atomic number  46.
 Defaulting to unpruned grid for atomic number  46.
 Defaulting to unpruned grid for atomic number  46.
 Defaulting to unpruned grid for atomic number  46.
 Defaulting to unpruned grid for atomic number  46.
 Defaulting to unpruned grid for atomic number  46.
 Defaulting to unpruned grid for atomic number  46.
 Defaulting to unpruned grid for atomic number  46.
 Defaulting to unpruned grid for atomic number  46.
 Defaulting to unpruned grid for atomic number  46.
 Defaulting to unpruned grid for atomic number  46.
 Defaulting to unpruned grid for atomic number  46.
 Defaulting to unpruned grid for atomic number  46.
 Defaulting to unpruned grid for atomic number  46.
 EnCoef did     6 forward-backward iterations
 EnCoef did   100 forward-backward iterations
 Problem detected with inexpensive integrals.
 Switching to full accuracy and repeating last cycle.
 EnCoef did     2 forward-backward iterations
 EnCoef did     2 forward-backward iterations
 EnCoef did     2 forward-backward iterations
 EnCoef did     3 forward-backward iterations
 EnCoef did     2 forward-backward iterations
 EnCoef did     1 forward-backward iterations
 Restarting incremental Fock formation.
 SCF Done:  E(RPBE-PBE) =  -2588.20049801     A.U. after   28 cycles
            NFock= 28  Conv=0.43D-08     -V/T= 2.0380

 **********************************************************************

            Population analysis using the SCF density.

 **********************************************************************

 Orbital symmetries:
       Occupied  (A) (A) (A) (A) (A) (A) (A) (A) (A) (A) (A) (A)
                 (A) (A) (A) (A) (A) (A) (A) (A) (A) (A) (A) (A)
                 (A) (A) (A) (A) (A) (A) (A) (A) (A) (A) (A) (A)
                 (A) (A) (A) (A) (A) (A) (A) (A) (A) (A) (A) (A)
                 (A) (A) (A) (A) (A) (A) (A) (A) (A) (A) (A) (A)
                 (A) (A) (A) (A) (A) (A) (A) (A) (A) (A) (A) (A)
                 (A) (A) (A) (A) (A) (A) (A) (A) (A) (A) (A) (A)
                 (A) (A) (A) (A) (A) (A) (A) (A) (A) (A) (A) (A)
                 (A) (A) (A) (A) (A) (A) (A) (A) (A) (A) (A) (A)
                 (A) (A) (A) (A) (A) (A) (A) (A) (A) (A) (A) (A)
                 (A) (A) (A) (A) (A)
       Virtual   (A) (A) (A) (A) (A) (A) (A) (A) (A) (A) (A) (A)
                 (A) (A) (A) (A) (A) (A) (A) (A) (A) (A) (A) (A)
                 (A) (A) (A) (A) (A) (A) (A) (A) (A) (A) (A) (A)
                 (A) (A) (A) (A) (A) (A) (A) (A) (A) (A) (A) (A)
                 (A) (A) (A) (A) (A) (A) (A) (A) (A) (A) (A) (A)
                 (A) (A) (A) (A) (A) (A) (A) (A) (A) (A) (A) (A)
                 (A) (A) (A) (A) (A) (A) (A) (A) (A) (A) (A) (A)
                 (A) (A) (A) (A) (A) (A) (A) (A) (A) (A) (A) (A)
                 (A) (A) (A) (A) (A) (A) (A) (A) (A) (A) (A) (A)
                 (A) (A) (A) (A) (A) (A) (A) (A) (A) (A) (A) (A)
                 (A) (A) (A) (A) (A) (A) (A) (A) (A) (A) (A) (A)
                 (A) (A) (A) (A) (A) (A) (A) (A) (A) (A) (A) (A)
                 (A) (A) (A) (A) (A) (A) (A) (A) (A) (A) (A) (A)
                 (A) (A) (A) (A) (A) (A) (A) (A) (A) (A) (A) (A)
                 (A) (A) (A) (A) (A) (A) (A) (A) (A) (A) (A) (A)
                 (A) (A) (A) (A) (A) (A) (A) (A) (A) (A) (A) (A)
                 (A) (A) (A) (A) (A) (A) (A) (A) (A) (A) (A) (A)
                 (A) (A) (A) (A) (A) (A) (A) (A) (A) (A) (A) (A)
                 (A) (A) (A) (A) (A) (A) (A) (A) (A) (A) (A) (A)
                 (A) (A) (A) (A) (A) (A) (A) (A) (A) (A) (A) (A)
                 (A) (A) (A) (A) (A) (A) (A) (A) (A) (A) (A) (A)
                 (A) (A) (A) (A) (A) (A) (A) (A) (A) (A) (A) (A)
                 (A) (A) (A) (A) (A) (A) (A) (A) (A) (A) (A) (A)
                 (A) (A) (A) (A) (A) (A) (A) (A) (A) (A) (A) (A)
                 (A) (A) (A) (A) (A) (A) (A) (A) (A) (A) (A) (A)
                 (A) (A) (A) (A) (A) (A) (A) (A) (A) (A) (A) (A)
                 (A) (A) (A) (A) (A) (A) (A) (A) (A) (A) (A) (A)
                 (A) (A) (A) (A) (A) (A) (A) (A) (A) (A) (A) (A)
                 (A) (A) (A) (A) (A) (A) (A) (A) (A) (A) (A) (A)
                 (A) (A) (A) (A) (A) (A) (A) (A) (A) (A) (A) (A)
                 (A) (A) (A) (A) (A) (A) (A) (A) (A) (A) (A) (A)
                 (A) (A) (A) (A) (A)
 The electronic state is 1-A.
 Alpha  occ. eigenvalues -- -100.58914-100.58698 -76.37105 -76.36822  -9.95126
 Alpha  occ. eigenvalues --   -9.94962  -9.94072  -9.94031  -9.93857  -9.93823
 Alpha  occ. eigenvalues --   -9.92461  -9.92297  -9.92258  -9.92169  -9.91111
 Alpha  occ. eigenvalues --   -9.91097  -9.91064  -9.90890  -9.90626  -9.90525
 Alpha  occ. eigenvalues --   -9.88982  -9.88969  -9.88847  -9.88779  -9.87368
 Alpha  occ. eigenvalues --   -9.86478  -9.08436  -9.08231  -6.90735  -6.90529
 Alpha  occ. eigenvalues --   -6.90050  -6.90000  -6.89836  -6.89801  -6.35131
 Alpha  occ. eigenvalues --   -6.34902  -4.56981  -4.56838  -4.56746  -4.56638
 Alpha  occ. eigenvalues --   -4.56599  -4.56413  -3.19468  -1.96395  -1.96097
 Alpha  occ. eigenvalues --   -1.92472  -0.80820  -0.77753  -0.77549  -0.72379
 Alpha  occ. eigenvalues --   -0.72249  -0.71120  -0.70758  -0.68774  -0.68285
 Alpha  occ. eigenvalues --   -0.64396  -0.64073  -0.63701  -0.63352  -0.63088
 Alpha  occ. eigenvalues --   -0.62337  -0.58431  -0.57453  -0.56239  -0.55784
 Alpha  occ. eigenvalues --   -0.54411  -0.53943  -0.52379  -0.51146  -0.50440
 Alpha  occ. eigenvalues --   -0.48630  -0.46924  -0.44553  -0.44380  -0.43891
 Alpha  occ. eigenvalues --   -0.43089  -0.42349  -0.41718  -0.41010  -0.40201
 Alpha  occ. eigenvalues --   -0.39570  -0.39492  -0.38548  -0.38150  -0.37313
 Alpha  occ. eigenvalues --   -0.36918  -0.36811  -0.36426  -0.36187  -0.35550
 Alpha  occ. eigenvalues --   -0.35353  -0.34862  -0.33412  -0.32946  -0.32915
 Alpha  occ. eigenvalues --   -0.32635  -0.32083  -0.31595  -0.31388  -0.30835
 Alpha  occ. eigenvalues --   -0.30369  -0.30210  -0.29748  -0.29529  -0.29297
 Alpha  occ. eigenvalues --   -0.29197  -0.29046  -0.28757  -0.28479  -0.28372
 Alpha  occ. eigenvalues --   -0.28259  -0.28094  -0.27141  -0.26483  -0.25320
 Alpha  occ. eigenvalues --   -0.24973  -0.23775  -0.23584  -0.23147  -0.22848
 Alpha  occ. eigenvalues --   -0.18281  -0.18013  -0.17688  -0.17247  -0.16935
 Alpha virt. eigenvalues --   -0.08484  -0.08168  -0.07824  -0.01158  -0.00469
 Alpha virt. eigenvalues --    0.02408   0.02628   0.03064   0.03153   0.03599
 Alpha virt. eigenvalues --    0.04564   0.04659   0.05123   0.05956   0.07139
 Alpha virt. eigenvalues --    0.08016   0.08294   0.08750   0.09271   0.09723
 Alpha virt. eigenvalues --    0.09908   0.10224   0.10920   0.11150   0.11514
 Alpha virt. eigenvalues --    0.11585   0.12120   0.12628   0.12864   0.13267
 Alpha virt. eigenvalues --    0.13733   0.13963   0.14149   0.14451   0.14752
 Alpha virt. eigenvalues --    0.15054   0.15245   0.15587   0.15809   0.15963
 Alpha virt. eigenvalues --    0.16415   0.16850   0.17096   0.17535   0.18146
 Alpha virt. eigenvalues --    0.18543   0.18733   0.18967   0.19344   0.19794
 Alpha virt. eigenvalues --    0.19996   0.20520   0.20764   0.21092   0.21701
 Alpha virt. eigenvalues --    0.22302   0.22628   0.22833   0.22862   0.22989
 Alpha virt. eigenvalues --    0.23838   0.24361   0.25018   0.25425   0.25858
 Alpha virt. eigenvalues --    0.26492   0.27366   0.28155   0.29469   0.29981
 Alpha virt. eigenvalues --    0.32340   0.32842   0.35789   0.36455   0.37510
 Alpha virt. eigenvalues --    0.38542   0.39508   0.40843   0.41398   0.43071
 Alpha virt. eigenvalues --    0.43602   0.44416   0.45270   0.45820   0.46248
 Alpha virt. eigenvalues --    0.46873   0.47368   0.47694   0.48107   0.48589
 Alpha virt. eigenvalues --    0.48966   0.49157   0.49414   0.50399   0.50925
 Alpha virt. eigenvalues --    0.51999   0.52305   0.53040   0.53601   0.53914
 Alpha virt. eigenvalues --    0.54110   0.54776   0.54985   0.55399   0.56489
 Alpha virt. eigenvalues --    0.57185   0.57322   0.57784   0.57965   0.58608
 Alpha virt. eigenvalues --    0.59203   0.59337   0.59812   0.60381   0.60560
 Alpha virt. eigenvalues --    0.61323   0.61478   0.62162   0.62618   0.63261
 Alpha virt. eigenvalues --    0.63341   0.63837   0.64633   0.65726   0.66072
 Alpha virt. eigenvalues --    0.66588   0.66740   0.67898   0.68489   0.69307
 Alpha virt. eigenvalues --    0.70090   0.70383   0.70983   0.72110   0.72711
 Alpha virt. eigenvalues --    0.74466   0.74933   0.75534   0.75971   0.76245
 Alpha virt. eigenvalues --    0.76723   0.76843   0.77600   0.78418   0.78969
 Alpha virt. eigenvalues --    0.79547   0.80102   0.80647   0.81055   0.81463
 Alpha virt. eigenvalues --    0.81776   0.82018   0.82869   0.83242   0.83440
 Alpha virt. eigenvalues --    0.83705   0.84701   0.84749   0.85623   0.85834
 Alpha virt. eigenvalues --    0.86325   0.86386   0.86764   0.87155   0.87414
 Alpha virt. eigenvalues --    0.87718   0.88122   0.88338   0.88858   0.89124
 Alpha virt. eigenvalues --    0.89223   0.89409   0.90155   0.90840   0.91108
 Alpha virt. eigenvalues --    0.91721   0.91873   0.92027   0.92522   0.93229
 Alpha virt. eigenvalues --    0.93481   0.93737   0.93957   0.94584   0.94786
 Alpha virt. eigenvalues --    0.94949   0.95431   0.96075   0.96776   0.97233
 Alpha virt. eigenvalues --    0.98144   0.98673   0.99485   1.00269   1.01007
 Alpha virt. eigenvalues --    1.01264   1.02195   1.02520   1.03297   1.04146
 Alpha virt. eigenvalues --    1.04770   1.05822   1.06353   1.07516   1.08636
 Alpha virt. eigenvalues --    1.09414   1.10524   1.11813   1.12532   1.13059
 Alpha virt. eigenvalues --    1.14521   1.15326   1.16190   1.16252   1.18061
 Alpha virt. eigenvalues --    1.20524   1.21936   1.22791   1.23854   1.25832
 Alpha virt. eigenvalues --    1.27034   1.28893   1.31206   1.32679   1.34014
 Alpha virt. eigenvalues --    1.34267   1.36635   1.36808   1.37311   1.38370
 Alpha virt. eigenvalues --    1.39327   1.40206   1.40561   1.42443   1.42921
 Alpha virt. eigenvalues --    1.44604   1.46012   1.46731   1.47541   1.50910
 Alpha virt. eigenvalues --    1.52144   1.52389   1.53100   1.54008   1.56351
 Alpha virt. eigenvalues --    1.57498   1.59230   1.60863   1.61524   1.62916
 Alpha virt. eigenvalues --    1.64258   1.67623   1.68247   1.69614   1.71421
 Alpha virt. eigenvalues --    1.72894   1.73858   1.75402   1.75712   1.76529
 Alpha virt. eigenvalues --    1.77588   1.78244   1.79065   1.81332   1.82109
 Alpha virt. eigenvalues --    1.82529   1.83293   1.83383   1.83807   1.84930
 Alpha virt. eigenvalues --    1.86340   1.87396   1.89421   1.90097   1.90649
 Alpha virt. eigenvalues --    1.91236   1.91497   1.92425   1.93090   1.93638
 Alpha virt. eigenvalues --    1.94657   1.95528   1.96153   1.96603   1.97316
 Alpha virt. eigenvalues --    1.98032   1.98624   2.00612   2.00810   2.01202
 Alpha virt. eigenvalues --    2.03672   2.03759   2.04746   2.05168   2.06075
 Alpha virt. eigenvalues --    2.07409   2.09672   2.10950   2.13061   2.14939
 Alpha virt. eigenvalues --    2.15489   2.16677   2.17148   2.17625   2.18785
 Alpha virt. eigenvalues --    2.19471   2.20591   2.21730   2.22408   2.23057
 Alpha virt. eigenvalues --    2.24435   2.25356   2.27529   2.28126   2.28688
 Alpha virt. eigenvalues --    2.28862   2.29894   2.31091   2.31666   2.32501
 Alpha virt. eigenvalues --    2.33147   2.34067   2.36458   2.37449   2.38542
 Alpha virt. eigenvalues --    2.39869   2.45740   2.47711   2.48821   2.50115
 Alpha virt. eigenvalues --    2.50329   2.50603   2.50808   2.53177   2.54057
 Alpha virt. eigenvalues --    2.55432   2.57403   2.59523   2.59784   2.61975
 Alpha virt. eigenvalues --    2.65169   2.66455   2.67752   2.68993   2.70199
 Alpha virt. eigenvalues --    2.70960   2.73970   2.76001   2.94965   3.20464
 Alpha virt. eigenvalues --    3.45699   3.52497   3.98088   4.04794   4.07759
 Alpha virt. eigenvalues --    4.08979   4.11462   4.12662   4.15913   4.17722
 Alpha virt. eigenvalues --    4.20159   4.24261   4.25466   4.27186   4.31037
 Alpha virt. eigenvalues --    4.31329   4.32449   4.36082   4.38143   4.39578
 Alpha virt. eigenvalues --    4.46067   4.50393   4.51936   4.53422   4.54635
 Alpha virt. eigenvalues --    4.59117  31.94574
          Condensed to atoms (all electrons):
 Mulliken charges:
               1
     1  Cl  -0.266911
     2  P    0.695047
     3  P    0.663903
     4  C   -0.111944
     5  C   -0.098070
     6  C   -0.304546
     7  H    0.240335
     8  C   -0.311241
     9  H    0.182829
    10  C   -0.310699
    11  H    0.179356
    12  C   -0.312181
    13  H    0.245489
    14  C   -0.330381
    15  H    0.206966
    16  H    0.164694
    17  C   -0.321955
    18  H    0.156065
    19  H    0.172056
    20  C   -0.327142
    21  H    0.163945
    22  H    0.205411
    23  C   -0.321360
    24  H    0.173967
    25  H    0.153856
    26  C   -0.307454
    27  H    0.151303
    28  H    0.167762
    29  C   -0.307059
    30  H    0.152811
    31  H    0.213736
    32  C   -0.311565
    33  H    0.155087
    34  H    0.231236
    35  C   -0.308888
    36  H    0.154565
    37  H    0.166718
    38  C   -0.503555
    39  H    0.160880
    40  H    0.179816
    41  H    0.183529
    42  C   -0.531044
    43  H    0.272785
    44  H    0.186131
    45  H    0.148857
    46  C   -0.520835
    47  H    0.235936
    48  H    0.148542
    49  H    0.180441
    50  C   -0.506421
    51  H    0.194527
    52  H    0.185778
    53  H    0.160476
    54  C   -0.161036
    55  H    0.159874
    56  C   -0.133676
    57  H    0.158976
    58  C   -0.136753
    59  H    0.159097
    60  C   -0.164149
    61  H    0.158811
    62  Cl  -0.267065
    63  Pd  -0.695666
 Sum of Mulliken charges =  -0.00000
 Mulliken charges with hydrogens summed into heavy atoms:
               1
     1  Cl  -0.266911
     2  P    0.695047
     3  P    0.663903
     4  C   -0.111944
     5  C   -0.098070
     6  C   -0.064211
     8  C   -0.128411
    10  C   -0.131343
    12  C   -0.066692
    14  C    0.041279
    17  C    0.006166
    20  C    0.042214
    23  C    0.006463
    26  C    0.011611
    29  C    0.059487
    32  C    0.074759
    35  C    0.012396
    38  C    0.020671
    42  C    0.076729
    46  C    0.044085
    50  C    0.034360
    54  C   -0.001162
    56  C    0.025300
    58  C    0.022344
    60  C   -0.005338
    62  Cl  -0.267065
    63  Pd  -0.695666
 Electronic spatial extent (au):  <R**2>=          11027.2138
 Charge=             -0.0000 electrons
 Dipole moment (field-independent basis, Debye):
    X=              0.2752    Y=             13.0249    Z=              1.1262  Tot=             13.0764
 Quadrupole moment (field-independent basis, Debye-Ang):
   XX=           -185.3762   YY=           -226.9295   ZZ=           -201.7377
   XY=             -1.3304   XZ=              0.0383   YZ=             -2.4893
 Traceless Quadrupole moment (field-independent basis, Debye-Ang):
   XX=             19.3050   YY=            -22.2484   ZZ=              2.9434
   XY=             -1.3304   XZ=              0.0383   YZ=             -2.4893
 Octapole moment (field-independent basis, Debye-Ang**2):
  XXX=             -4.0073  YYY=             93.9214  ZZZ=            -10.0829  XYY=              1.8842
  XXY=             10.7565  XXZ=              0.2649  XZZ=             -1.9497  YZZ=            -37.7935
  YYZ=             15.4338  XYZ=             -2.7947
 Hexadecapole moment (field-independent basis, Debye-Ang**3):
 XXXX=          -6298.3227 YYYY=          -4893.2998 ZZZZ=          -3342.0991 XXXY=             -4.9599
 XXXZ=            -11.8849 YYYX=             -6.9578 YYYZ=             14.6373 ZZZX=            -17.2338
 ZZZY=              7.6232 XXYY=          -1953.1551 XXZZ=          -1603.8341 YYZZ=          -1424.0967
 XXYZ=            -15.4156 YYXZ=             17.6010 ZZXY=              6.8132
 N-N= 4.045319389214D+03 E-N=-1.415713811170D+04  KE= 2.493548287518D+03
   1 Symmetry operations used in ECPInt.
 ECPInt:  NShTT=   17766 NPrTT=  111805 LenC2=   15828 LenP2D=   56002.
 LDataN:  DoStor=T MaxTD1= 6 Len=  172
 Calling FoFJK, ICntrl=      2527 FMM=T ISym2X=0 I1Cent= 4 IOpClX= 0 NMat=1 NMatS=1 NMatT=0.
 Defaulting to unpruned grid for atomic number  46.
 Defaulting to unpruned grid for atomic number  46.
 Defaulting to unpruned grid for atomic number  46.
 Defaulting to unpruned grid for atomic number  46.
 Defaulting to unpruned grid for atomic number  46.
 Defaulting to unpruned grid for atomic number  46.
 Defaulting to unpruned grid for atomic number  46.
 Defaulting to unpruned grid for atomic number  46.
 Defaulting to unpruned grid for atomic number  46.
 Defaulting to unpruned grid for atomic number  46.
 Defaulting to unpruned grid for atomic number  46.
 Defaulting to unpruned grid for atomic number  46.
 Defaulting to unpruned grid for atomic number  46.
 Defaulting to unpruned grid for atomic number  46.
 ***** Axes restored to original set *****
 -------------------------------------------------------------------
 Center     Atomic                   Forces (Hartrees/Bohr)
 Number     Number              X              Y              Z
 -------------------------------------------------------------------
      1       17          -0.008553087   -0.004280068    0.003270582
      2       15           0.044454228   -0.007632073    0.003634255
      3       15          -0.038645375   -0.023813584    0.002245093
      4        6          -0.001642332   -0.004488240    0.004348904
      5        6           0.002499295   -0.006460727    0.001361050
      6        6          -0.017421547    0.016006966    0.002766141
      7        1           0.009042116   -0.005651181    0.003164166
      8        6          -0.014239514   -0.015665878   -0.003629030
      9        1           0.006119784    0.006652043   -0.004207902
     10        6           0.010982312   -0.007070152    0.010904159
     11        1          -0.005092513    0.010053480   -0.000853506
     12        6           0.008461359    0.014906368   -0.012360558
     13        1          -0.003611104   -0.010987536    0.003876033
     14        6           0.001613384   -0.008221971   -0.009638899
     15        1           0.001567983   -0.009217839    0.000844080
     16        1          -0.006873269    0.005228599    0.004021341
     17        6          -0.002441625    0.004593814    0.007679152
     18        1          -0.003125808    0.011537957   -0.001485522
     19        1          -0.004288406   -0.006122937   -0.005562225
     20        6           0.003436396   -0.003173103   -0.007070074
     21        1           0.004657941    0.006369270    0.004407031
     22        1           0.000287929   -0.009323564    0.003350725
     23        6          -0.000248695    0.001138218    0.008267149
     24        1           0.007774900   -0.003192999   -0.003411948
     25        1          -0.001530297    0.011110440   -0.004428049
     26        6           0.011854272    0.000403653    0.004022773
     27        1          -0.002187362    0.006895426   -0.009019990
     28        1          -0.008876939   -0.005172212    0.004250806
     29        6           0.012041563   -0.000088407    0.000385222
     30        1          -0.008331924    0.002608204   -0.008317684
     31        1           0.000192586   -0.004747644    0.009496940
     32        6          -0.010335763    0.000594865   -0.001194226
     33        1           0.007048734    0.006704243    0.005629674
     34        1           0.002094588   -0.009528700   -0.005485235
     35        6          -0.008463656   -0.006957970    0.002283661
     36        1          -0.001591567    0.010645579    0.002447887
     37        1           0.009948472   -0.002064904   -0.003257887
     38        6          -0.006483240   -0.002915855   -0.004608186
     39        1          -0.003810525    0.007588119    0.003082091
     40        1           0.007513846    0.000938173   -0.004679721
     41        1           0.002617048   -0.005743561    0.005953368
     42        6          -0.012388534    0.000084764   -0.004767985
[...]
 2688151,-0.00311275,-0.00500197,0.00001911,-0.00034728,0.00002124,-0.0
 0009140,-0.00000196,0.00005824,0.00005846,-0.00038067,0.00014803,0.000
 02589,0.00002678,0.00002039,0.00025648,-0.00021754,-0.00032422,0.00010
 090,0.00015994,0.00065752,-0.00002142,-0.00010850,0.00009756,0.0000648
 9,0.00005227,0.00003058,-0.00006087,0.00003669,0.00006571,-0.00000339,
 0.00000179,-0.00000707,-0.00003513,-0.00001879,-0.00001157,0.00002009,
 -0.00001676,0.00001816,-0.00000045,0.00000753,0.00000003,-0.00002091,0
 .00000094,-0.00001046,0.00009641,0.00013732,0.00017934,0.00000366,-0.0
 0003019,-0.00003405,-0.00004039,0.00002846,-0.00008441,0.00005713,-0.0
 0089885,0.00015235,0.00002260,0.00031639,-0.00002225,0.00069868,0.0005
 0403,-0.00014210,0.00007118,-0.00005702,-0.00002905,0.00000887,0.00000
 738,-0.00001327,-0.00000760,0.00000464,0.00000118,-0.00012865,0.000056
 58,-0.00006366,0.00001497,-0.00005564,-0.00002568,-0.00000456,0.000005
 76,-0.00001137,-0.00009495,0.00013984,0.00017637,0.00000497,0.00001276
 ,-0.00004272,0.00001132,0.00001424,-0.00011235,0.00003157,-0.00017337,
 -0.00005943,0.00000324,0.00000429,-0.00042802,-0.00001711,0.00007539,0
 .00001518,-0.00000848,0.00000878,-0.00000205,0.00000538,0.00000389,0.0
 0001283,-0.00000424,-0.00000670,-0.00002878,-0.00001284,-0.00000676,0.
 00001143,-0.00001296,-0.00001007,-0.00000067,0.00000896,0.00000440,0.0
 0001811,0.00001017,-0.00000286,-0.00000745,-0.00000230,0.00000539,-0.0
 0000951,-0.00004715,0.00002800,-0.00004331,0.00000789,0.00001086,0.000
 01386,0.00000155,-0.00002234,0.00000575,0.00003196,-0.00000119,-0.0000
 2198,-0.00011226,0.00001922,0.00002531,0.00003932,0.00003042,0.0000105
 7,0.00002806,0.00001470,0.00000502,0.00003181,0.00001410,0.00003355,0.
 00027186,-0.00116302,0.00019616,0.00004572,0.00009702,-0.00036009,0.00
 207755,-0.00262913,0.00299349,0.00115604,0.00033924,0.00030921,0.02228
 021,0.00794567,0.00378761,-0.00008333,0.00056746,-0.00111442,-0.054323
 30,-0.06442650,-0.00483413,0.05845477,0.06711976,-0.00004194,-0.000035
 19,-0.00000675,0.00003384,0.00006493,0.00037490,0.00033005,-0.00011109
 ,-0.00181779,-0.00112845,0.00226329,0.00567506,0.00579559,0.00128968,0
 .00132164,-0.00008137,-0.00001579,0.00003690,0.00001422,0.00000178,0.0
 0000206,0.00007643,0.00021337,0.00013066,-0.00000328,0.00004930,-0.000
 04123,-0.00014057,0.00099364,0.00054707,-0.00023713,-0.00006751,-0.000
 81602,0.00004385,-0.00032089,0.00042309,0.00019875,0.00006491,-0.00014
 280,-0.00001557,0.00000004,0.00000770,0.00000139,-0.00000178,0.0000009
 2,-0.00000444,-0.00000156,-0.00000662,-0.00000519,-0.00000497,-0.00000
 309,0.00000477,0.00000170,-0.00000564,0.00000049,-0.00000094,0.0000003
 0,-0.00021313,-0.00012041,-0.00002173,-0.00007023,0.00001464,-0.000010
 26,0.00012818,-0.00002192,-0.00010359,0.00010618,-0.00029056,-0.000069
 29,0.00003895,0.00003558,-0.00000035,0.00021316,0.00013197,0.00026329,
 0.00001337,-0.00006147,0.00003913,-0.00000909,0.00000169,-0.00003278,-
 0.00000564,0.00000392,-0.00000330,0.00003021,-0.00000283,-0.00001745,0
 .00000451,0.00000930,0.00000241,0.00001279,0.00000929,0.00000368,0.000
 14162,-0.00022260,-0.00020430,0.00000677,-0.00000819,-0.00000379,-0.00
 000700,-0.00005333,0.00010508,-0.00003032,-0.00020444,0.00006348,0.000
 08184,-0.00037945,-0.00072086,-0.00003448,0.00006933,-0.00002200,0.000
 00622,0.00000449,-0.00001490,0.00000356,-0.00000346,-0.00000036,-0.000
 00270,-0.00000506,0.00001014,0.00000539,0.00000274,-0.00000858,0.00001
 095,-0.00001110,0.00000504,-0.00000272,-0.00000061,0.00001313,-0.00000
 070,0.00000126,-0.00000424,-0.00000986,0.00000520,-0.00001684,0.000022
 21,0.00006488,0.00001802,-0.00001061,-0.00001302,0.00000076,0.00001779
 ,-0.00002073,-0.00002452,-0.00000836,-0.00001606,0.00000583,-0.0001650
 0,0.00009073,-0.00006637,0.00007481,0.00005789,0.00001966,0.00005824,-
 0.00002172,-0.00000995,-0.00000139,-0.00000591,-0.00000538,0.00028627,
 -0.00024092,-0.00049849,0.00031456,-0.00042216,-0.00118746,-0.00188469
 ,0.00348481,0.00570890,-0.00047853,-0.00012922,-0.00000919,-0.01026065
 ,-0.00225412,0.00135575,0.00104775,-0.00104821,-0.00318817,-0.04734423
 ,-0.00519926,-0.04205875,0.05302147,0.00231512,0.03503173,-0.00254760,
 -0.00067322,0.00037506,-0.00278583,0.00108569,-0.00041091,-0.00457550,
 0.00331015,-0.00104510,-0.00239927,-0.00003066,-0.00034744,0.00046740,
 0.00022613,-0.00008490,-0.00030807,0.00134891,-0.00117954,0.00019393,-
 0.00013355,-0.00014731,-0.00048870,0.00141397,0.00057197,-0.00043197,-
 0.00003802,-0.00036349,-0.00016172,0.00016870,-0.00078651,0.00035618,-
 0.00022676,0.00012412,-0.00009513,0.00038306,0.00249107,0.00024603,-0.
 00038721,-0.00084347,-0.00013491,0.00032189,0.00013416,0.00011007,-0.0
 0001024,0.00000495,-0.00026216,-0.00005704,-0.00000627,-0.00014512,-0.
 00040472,-0.00056290,-0.00001459,0.00007804,0.00001741,-0.00031642,0.0
 0003143,0.00002372,-0.00103010,0.00076061,-0.00027487,0.00031701,-0.00
 069877,0.00000697,0.00080483,-0.00038091,0.00034851,0.00056236,-0.0002
 9765,-0.00072417,0.00026483,0.00026871,0.00002708,-0.00002585,-0.00031
 910,0.00020365,-0.00053530,-0.00070653,0.00019024,0.00003671,0.0000402
 8,-0.00000820,-0.00012493,0.00030485,0.00018409,0.00000735,0.00029654,
 0.00036801,-0.00006234,-0.00008463,-0.00012091,0.00016381,0.00001638,0
 .00000110,0.00027098,0.00027793,-0.00015942,0.00008734,-0.00009320,0.0
 0005581,-0.00063617,-0.00005469,0.00035459,0.00013099,-0.00049685,-0.0
 0040472,0.00000162,-0.00023174,0.00033940,0.00007648,0.00003418,-0.000
 06532,-0.00009817,0.00006337,-0.00006101,0.00002342,0.00008584,0.00006
 773,0.00002861,-0.00001788,-0.00005942,-0.00000756,-0.00005633,0.00002
 379,0.00022495,-0.00001829,0.00016658,-0.00033150,0.00012413,0.0002154
 0,-0.00001683,-0.00009065,-0.00013178,-0.00007647,0.00005655,-0.000156
 76,-0.00038187,-0.00030346,-0.00025817,0.00023731,-0.00005062,-0.00003
 900,0.00024446,-0.00006675,-0.00002031,0.00009618,0.00001923,0.0000010
 7,-0.00027147,0.00004475,0.00011344,-0.00010858,-0.00000679,-0.0000262
 2,0.00015862,-0.00012943,-0.00005020,0.00010927,0.00001733,0.00003950,
 0.00100030,0.00085219,-0.00001663,0.00007464,-0.00015376,0.00006424,-0
 .00018982,0.00003498,-0.00009731,0.00004366,0.00014955,-0.00001199,0.0
 0009997,0.00012867,-0.00002098,0.00002650,0.00003381,0.00001308,0.0000
 7387,-0.00000955,-0.00000814,0.00006730,0.00016678,0.00001151,0.057180
 52,-0.00166675,0.00386243,-0.00147145,0.00313028,0.00277632,0.00112586
 ,0.00143766,-0.00367268,0.00089183,0.00015137,0.00031620,-0.00012468,0
 .00000961,-0.00068368,0.00030773,0.00011664,-0.00086977,0.00067552,-0.
 00011521,0.00003623,0.00009771,0.00056678,-0.00134011,-0.00045991,0.00
 034950,0.00003527,0.00026315,0.00013499,0.00151170,-0.00031557,0.00022
 835,0.00017392,0.00017919,0.00031552,0.00007219,0.00134257,0.00014567,
 -0.00126200,0.00011275,0.00002989,-0.00013701,-0.00002024,-0.00000817,
 0.00002070,0.00000932,0.00014321,0.00004374,-0.00001526,0.00013716,0.0
 0033395,0.00046176,0.00000661,-0.00003402,-0.00001246,0.00026457,-0.00
 002696,-0.00002377,-0.00091878,-0.00052914,-0.00048088,-0.00003742,-0.
 00047553,0.00006123,0.00028749,-0.00115164,0.00001794,0.00029437,0.000
 03065,-0.00020589,-0.00000559,-0.00001719,0.00005016,-0.00004437,-0.00
 005200,0.00006823,0.00033041,0.00039438,-0.00012677,-0.00002283,-0.000
 01542,0.00001593,0.00008194,-0.00016950,-0.00010006,-0.00009347,-0.000
 23210,-0.00039784,-0.00000412,0.00005288,0.00009950,-0.00006947,-0.000
 00810,-0.00001553,0.00003013,-0.00116416,-0.00152601,-0.00003339,-0.00
 039147,-0.00007640,-0.00000687,-0.00189363,-0.00061943,0.00021098,-0.0
 0053115,-0.00034271,0.00002010,-0.00008918,0.00022345,-0.00005521,-0.0
 0003372,-0.00003647,0.00004889,-0.00004669,0.00004230,-0.00001058,-0.0
 0004417,-0.00003203,-0.00001951,0.00002976,-0.00000049,-0.00001756,0.0
 0001528,-0.00000472,-0.00001386,0.00011035,0.00005099,0.00022470,-0.00
 024544,-0.00016645,0.00005717,0.00009319,0.00016153,-0.00002826,0.0000
 0321,0.00002243,-0.00030220,-0.00016107,0.00010496,0.00004267,0.000054
 66,0.00010440,0.00017338,-0.00000701,0.00000888,-0.00000375,-0.0000239
 9,-0.00006714,0.00002929,-0.00011103,-0.00010479,0.00002686,0.00002419
 ,0.00001888,-0.00007341,0.00005752,-0.00003039,0.00000070,0.00000566,0
 .00003029,-0.00012563,-0.00019895,-0.00001967,-0.00002287,0.00004996,-
 0.00003246,0.00000060,0.00001963,0.00002340,-0.00000576,-0.00003200,0.
 00001351,-0.00003023,-0.00006998,0.00000610,-0.00000447,-0.00003947,0.
 00001075,0.00009715,-0.00008379,0.00000245,-0.00006542,-0.00005976,0.0
 0000204,-0.03242784,0.03893991,0.00059117,-0.00089084,0.00072743,-0.00
 151019,0.00140677,0.00551134,-0.00048645,0.00112945,-0.00206475,-0.000
 24749,-0.00006316,-0.00018404,-0.00008490,0.00026390,0.00028512,-0.000
 69685,0.00103930,-0.00102305,0.00012851,-0.00003546,-0.00014831,0.0005
 1815,-0.00074779,-0.00020511,0.00009977,0.00001335,0.00008399,0.000086
 48,0.00002943,-0.00063837,0.00007213,-0.00018710,0.00024495,0.00012826
 ,0.00070421,-0.00064764,-0.00062395,0.00017368,0.00019848,-0.00019699,
 0.00016104,0.00026069,-0.00000856,-0.00000783,-0.00002593,-0.00015299,
 -0.00006420,-0.00005012,0.00004578,0.00005365,0.00033081,0.00000165,0.
 00001162,0.00001211,0.00007553,-0.00001316,-0.00005663,-0.00010346,0.0
 0016689,0.00012731,0.00006802,-0.00010084,0.00009073,0.00023030,-0.000
 05391,-0.00022496,-0.00047222,0.00006894,-0.00033995,-0.00001321,-0.00
 005098,0.00007710,0.00020668,0.00014516,0.00020715,-0.00041545,-0.0003
 9569,0.00015648,0.00003209,0.00001981,0.00001625,-0.00007537,0.0001914
 6,0.00011807,-0.00008955,0.00001490,-0.00021396,-0.00007553,-0.0000261
 0,0.00002308,-0.00001959,0.00000508,0.00003050,-0.00016592,-0.00046121
 ,-0.00152439,0.00001359,-0.00070272,-0.00000911,0.00021142,-0.00120778
 ,-0.00024446,-0.00018737,0.00058907,0.00036623,-0.00000977,0.00021336,
 -0.00026484,0.00002144,-0.00005076,0.00005112,-0.00001344,0.00006556,-
 0.00006099,0.00002067,0.00002067,0.00003773,0.00001157,0.00000478,-0.0
 0006344,-0.00004149,-0.00004926,0.00005115,0.00019482,0.00017195,0.000
 24284,-0.00007698,-0.00018939,-0.00018094,0.00002690,0.00001985,0.0000
 1785,-0.00005888,-0.00000613,-0.00004627,-0.00061489,-0.00044277,0.000
 20302,0.00004783,0.00013158,-0.00005024,0.00033829,-0.00023742,-0.0000
 5350,-0.00002061,0.00008286,0.00008145,0.00011476,-0.00024653,-0.00004
 133,-0.00001598,0.00007847,0.00016439,-0.00000036,-0.00002176,0.000005
 71,-0.00002172,0.00009774,-0.00001373,0.00018002,0.00010251,-0.0001122
 0,0.00001159,-0.00002423,-0.00000817,-0.00004507,0.00002072,0.00002880
 ,0.00000324,0.00002758,0.00000999,0.00001717,0.00000955,-0.00000469,0.
 00000831,0.00000534,-0.00001389,-0.00000753,-0.00000212,0.00003164,0.0
 0003684,0.00002465,-0.00004926,0.01201867,-0.00860558,0.01090045,-0.02
 748230,-0.02445791,0.00781662,-0.06689368,0.03695518,-0.01581012,-0.04
 418531,-0.03918932,0.00528077,0.00470989,-0.00000265,0.00058794,0.0051
 2809,0.00475966,-0.00027708,-0.00288421,0.00371335,-0.00232524,-0.0002
 5646,0.00115518,0.00020212,-0.00140951,0.00202905,-0.00017377,-0.00046
 056,-0.00013989,-0.00035179,-0.00049721,-0.00400519,0.00186907,-0.0009
 6267,-0.00031734,-0.00094344,-0.00141630,-0.00538903,-0.00127983,-0.00
 007718,-0.00059321,0.00051477,-0.00008915,0.00054473,0.00051587,-0.000
 57428,-0.00026740,-0.00015052,-0.00020277,-0.00037252,0.00001432,-0.00
 009698,-0.00036458,-0.00069523,-0.00009196,-0.00003191,0.00007047,-0.0
 0029046,0.00010174,0.00003047,0.00033922,-0.00065142,0.00000482,-0.000
 32774,0.00036414,-0.00005907,-0.00056382,0.00008786,-0.00010360,-0.001
 03756,0.00042078,0.00131603,-0.00051464,-0.00033514,-0.00014935,-0.000
 07279,-0.00001261,-0.00007812,-0.00129351,-0.00101101,0.00082445,0.000
 06102,-0.00008980,-0.00008870,-0.00021840,0.00050297,0.00020125,0.0003
 7522,0.00121041,-0.00011139,0.00009128,-0.00032112,0.00027211,-0.00070
 085,-0.00034104,-0.00018069,0.00009160,-0.00094741,0.00058423,-0.00000
 428,0.00027222,-0.00008377,-0.00009483,-0.00015394,-0.00071878,-0.0011
 7232,0.00061165,-0.00000877,-0.00000609,0.00000287,-0.00010381,0.00006
 547,-0.00016014,0.00041776,0.00006590,0.00005015,-0.00014221,-0.000004
 02,0.00000294,0.00002591,0.00005357,-0.00001004,0.00001933,0.00002139,
 -0.00000105,0.00003624,-0.00016937,-0.00053963,-0.00089509,0.00019551,
 -0.00021540,-0.00053482,0.00002860,-0.00005093,-0.00010391,-0.00006450
 ,-0.00001808,0.00012050,0.00031729,0.00027396,-0.00010161,0.00000092,0
 .00011612,-0.00009060,-0.00020431,0.00005374,0.00004282,0.00005611,-0.
 00005739,-0.00001006,0.00005631,-0.00021044,-0.00002631,0.00007969,0.0
 0003038,-0.00004111,0.00011334,0.00017720,0.00005446,-0.00000012,0.000
 01040,0.00004692,-0.00118499,-0.00131371,0.00007059,-0.00004040,0.0000
 4745,-0.00001777,0.00041211,-0.00015524,0.00020437,-0.00007025,-0.0001
 4415,0.00002822,0.00037340,0.00063703,-0.00007385,-0.00016281,0.000169
 14,-0.00009645,-0.00221472,0.00073595,-0.00066545,0.00004293,0.0000182
 0,0.00003956,-0.04522358,0.02710837,-0.00900889,0.19053802,-0.02437276
 ,-0.05039185,0.01466150,0.03407807,-0.05163394,0.01011497,-0.03624272,
 -0.08099443,0.00809703,0.00699418,-0.00703970,0.00334122,-0.00247674,-
 0.00781124,0.00215794,0.00043916,0.00254641,-0.00083183,0.00035428,0.0
 0000611,0.00014915,-0.00242960,0.00546178,0.00095699,-0.00101674,-0.00
 021970,-0.00096873,-0.00140208,0.00047015,-0.00010180,0.00021902,0.000
 10500,0.00032176,0.00048915,0.00415100,0.00156951,-0.00047634,-0.00027
 073,0.00048228,0.00024163,0.00014261,-0.00086586,-0.00021074,-0.000049
 97,-0.00016030,-0.00011541,-0.00012720,0.00019894,-0.00069746,-0.00089
 088,-0.00126682,-0.00007094,-0.00000121,0.00008723,-0.00069150,0.00007
 316,0.00015325,0.00009638,0.00002180,-0.00094611,0.00003709,0.00000387
 ,0.00010511,0.00001538,0.00015092,-0.00001326,0.00094833,-0.00047241,-
 0.00070820,0.00049563,0.00021157,0.00015107,0.00001697,0.00003634,0.00
 005215,-0.00043771,-0.00065880,0.00045608,-0.00006209,-0.00006648,-0.0
 0004692,-0.00008955,0.00027886,0.00008996,0.00115391,0.00076753,0.0007
 6023,-0.00010033,-0.00005940,0.00018348,-0.00016608,-0.00015114,-0.000
 15749,-0.00025489,-0.00046233,-0.00025289,0.00010809,0.00000715,0.0000
 4176,-0.00044704,0.00011673,-0.00017216,0.00046227,-0.00033453,0.00009
 437,0.00008746,0.00009733,-0.00002117,-0.00001396,0.00006894,-0.000174
 52,-0.00018706,-0.00002095,0.00007593,0.00005947,0.00002808,0.00000638
 ,0.00008181,0.00000945,0.00010751,0.00004445,0.00005481,-0.00004987,-0
 .00074783,-0.00028108,-0.00121394,0.00039555,0.00029548,0.00072596,-0.
 00005665,-0.00014142,-0.00019023,-0.00016522,0.00005745,-0.00016214,-0
 .00071636,-0.00018897,-0.00162890,0.00070694,-0.00044004,-0.00002345,0
 .00021448,0.00015778,0.00026971,-0.00006932,0.00007637,-0.00003491,-0.
 00005008,-0.00003517,-0.00002956,-0.00009401,0.00007540,0.00006320,-0.
 00005141,-0.00002093,0.00004044,-0.00002732,0.00003004,-0.00000165,-0.
 00238907,-0.00125304,-0.00017730,0.00019615,-0.00011772,0.00005906,0.0
 0053867,-0.00073490,0.00040660,-0.00010962,-0.00028108,0.00001606,-0.0
 0012794,-0.00074670,0.00006012,0.00015334,-0.00016138,0.00003079,0.001
 87686,0.00011626,0.00056904,-0.00015823,-0.00013355,0.00006891,0.02651
 222,-0.03316037,0.00761984,-0.00029214,0.22373485,0.00669657,0.0125278
 4,-0.01325374,-0.01510847,0.01108430,-0.02911802,0.00566156,0.00968580
 ,-0.02617343,-0.00138956,0.00258192,0.00108539,0.00072902,0.00294896,0
 .00137294,0.00413648,-0.00414655,0.00370350,-0.00023688,-0.00054722,0.
 00071863,-0.00397818,0.00433341,0.00142485,-0.00053023,-0.00007090,-0.
 00033019,-0.00209930,-0.00658755,0.00429284,-0.00172017,-0.00058802,-0
 .00159460,0.00245320,0.00476502,0.00187391,-0.00040009,0.00061413,0.00
 023089,0.00084886,-0.00056410,-0.00089657,0.00013671,0.00005967,0.0001
 3648,0.00038870,0.00031033,0.00024011,-0.00032882,-0.00062411,-0.00206
 748,-0.00011593,0.00009600,-0.00002289,-0.00056811,0.00013582,0.000368
 05,-0.00038975,-0.00089550,-0.00109688,-0.00057189,0.00027592,0.000279
 26,-0.00011038,0.00004791,0.00004304,0.00084316,-0.00024262,-0.0018641
 3,0.00034003,0.00025741,0.00039619,0.00008396,0.00010622,0.00001296,0.
 00130001,0.00107238,-0.00066395,0.00002605,-0.00003797,0.00007607,0.00
 025663,-0.00049665,-0.00032829,0.00047976,0.00066184,0.00064186,0.0002
 6775,0.00004709,-0.00012437,-0.00017093,-0.00039835,0.00018993,0.00050
 583,-0.00043868,0.00084954,0.00002334,-0.00006174,0.00003333,-0.000345
 78,0.00012068,-0.00030862,0.00032746,-0.00024287,0.00020455,-0.0000058
 9,0.00000458,-0.00001194,0.00005884,-0.00003794,-0.00017792,-0.0000741
 9,-0.00006714,0.00016053,0.00002187,-0.00003496,-0.00003636,-0.0000287
 0,0.00011794,-0.00009644,-0.00005484,0.00004210,0.00005637,-0.00376236
 ,-0.00146618,-0.00340644,0.00207368,0.00036866,0.00023515,0.00014752,-
 0.00024802,0.00020864,0.00059003,0.00026456,0.00054664,-0.00129104,-0.
 00084369,-0.00224931,0.00082042,0.00035705,0.00091364,0.00004490,-0.00
 002926,0.00017350,-0.00004663,0.00006033,-0.00023821,-0.00053034,0.000
 44955,-0.00025127,0.00001708,-0.00006064,0.00008126,0.00039979,-0.0003
 1805,0.00003611,0.00023420,0.00004147,-0.00021108,0.00028577,0.0002353
 7,0.00075868,-0.00005559,0.00000869,0.00004362,0.00008603,0.00013766,-
 0.00025323,0.00006124,0.00001469,-0.00013505,0.00003751,0.00027448,-0.
 00024769,-0.00001218,0.00001838,-0.00014909,-0.00071389,0.00016076,0.0
 0049321,0.00003054,0.00007699,0.00002574,-0.01006356,0.00882835,-0.012
 12969,0.01428919,-0.04414556,0.07552948\\-0.00000703,-0.00000294,0.000
 00188,-0.00002358,-0.00000163,0.00000332,0.00002224,0.00001011,-0.0000
 1283,0.00000645,0.00000091,0.00000478,-0.00000562,-0.00000208,-0.00000
 469,0.00001426,-0.00000579,-0.00000525,-0.00000521,0.00000483,0.000001
 09,0.00000665,0.00000097,-0.00000287,0.00000164,-0.00000196,0.00000233
 ,-0.00000357,0.00000055,-0.00000285,0.00000128,-0.00000264,-0.00000131
 ,-0.00000460,-0.00000790,0.00000378,-0.00000139,0.00000242,0.00000047,
 -0.00000828,0.00000384,0.00000572,-0.00000019,0.00000518,-0.00000146,0
 .00000192,-0.00000229,-0.00000239,-0.00000386,-0.00000315,-0.00000297,
 0.00000202,-0.00000769,-0.00000115,0.00000094,0.00000153,-0.00000067,0
 .00000278,0.00000166,0.00000500,-0.00000284,0.00000014,0.00000064,-0.0
 0000265,0.00000522,-0.00000048,0.00000127,0.00000327,-0.00000162,-0.00
 000188,0.00000079,0.00000152,-0.00000048,-0.00000310,0.00000298,-0.000
 00693,0.00000529,-0.00000329,-0.00000337,-0.00000513,0.00001147,0.0000
 0133,0.00000157,-0.00000232,0.00000039,-0.00000149,-0.00000190,0.00000
 306,-0.00000112,0.00000132,0.00000036,0.00000287,-0.00000398,-0.000000
 29,-0.00000074,0.00000365,-0.00000470,-0.00000025,-0.00000045,-0.00000
 077,0.00000573,0.00000450,0.00000740,0.00000312,-0.00000011,0.00000084
 ,-0.00000453,-0.00000120,0.00000063,-0.00000064,0.00000400,0.00000167,
 0.00000301,-0.00000131,0.00000102,0.00000011,-0.00000356,-0.00000480,0
 .00000020,0.00000420,-0.00000055,0.00000075,-0.00000101,0.00000185,0.0
 0000101,-0.00000226,0.00000347,-0.00000168,-0.00000287,0.00000291,0.00
 000041,0.00000367,0.00000142,-0.00000341,0.00000354,-0.00000464,0.0000
 0908,0.00000364,-0.00000094,0.00000044,0.00000630,-0.00000156,-0.00000
 168,-0.00000106,-0.00000409,0.00000067,-0.00000286,-0.00000710,0.00000
 132,0.00000502,0.00000048,-0.00000246,0.00000157,0.00000026,-0.0000024
 4,0.00000342,0.00000171,-0.00000170,0.00000358,-0.00000107,0.00000256,
 -0.00001442,0.00000893,0.00000056,-0.00000692,-0.00000431,0.00000009,-
 0.00000172,0.00000230,-0.00000175,-0.00000124,0.00000274,0.00000094,0.
 00000193,-0.00000085,-0.00000291,-0.00000283,0.00000223,0.00000424,-0.
 00000181,-0.00000221,-0.00000118,-0.00000141,0.00000205,0.00000261,0.0
 0000229,0.00001089,-0.00001371,0.00000145\\\@


 UNLESS WE CHANGE DIRECTIONS, WE WILL WIND UP WHERE WE ARE HEADED.
     -- CONFUCIUS
 Job cpu time:       0 days  4 hours 59 minutes 17.1 seconds.
 File lengths (MBytes):  RWF=   1987 Int=      0 D2E=      0 Chk=     72 Scr=      1
 Normal termination of Gaussian 09 at Tue Nov 16 17:15:12 2021.
