 Entering Gaussian System, Link 0=g09
 Input=SS_Et_DuPhos_4.com
 Output=SS_Et_DuPhos_4.log
 Initial command:
 /gstore/apps/gaussian/g09.e01-foss-2017a/g09/l1.exe "/local/21251415/Gau-29006.inp" -scrdir="/local/21251415/"
 Entering Link 1 = /gstore/apps/gaussian/g09.e01-foss-2017a/g09/l1.exe PID=     29007.
  
 Copyright (c) 1988,1990,1992,1993,1995,1998,2003,2009,2015,
            Gaussian, Inc.  All Rights Reserved.
  
 This is part of the Gaussian(R) 09 program.  It is based on
 the Gaussian(R) 03 system (copyright 2003, Gaussian, Inc.),
 the Gaussian(R) 98 system (copyright 1998, Gaussian, Inc.),
 the Gaussian(R) 94 system (copyright 1995, Gaussian, Inc.),
 the Gaussian 92(TM) system (copyright 1992, Gaussian, Inc.),
 the Gaussian 90(TM) system (copyright 1990, Gaussian, Inc.),
 the Gaussian 88(TM) system (copyright 1988, Gaussian, Inc.),
 the Gaussian 86(TM) system (copyright 1986, Carnegie Mellon
 University), and the Gaussian 82(TM) system (copyright 1983,
 Carnegie Mellon University). Gaussian is a federally registered
 trademark of Gaussian, Inc.
  
 This software contains proprietary and confidential information,
 including trade secrets, belonging to Gaussian, Inc.
  
 This software is provided under written license and may be
 used, copied, transmitted, or stored only in accord with that
 written license.
  
 The following legend is applicable only to US Government
 contracts under FAR:
  
                    RESTRICTED RIGHTS LEGEND
  
 Use, reproduction and disclosure by the US Government is
 subject to restrictions as set forth in subparagraphs (a)
 and (c) of the Commercial Computer Software - Restricted
 Rights clause in FAR 52.227-19.
  
 Gaussian, Inc.
 340 Quinnipiac St., Bldg. 40, Wallingford CT 06492
  
  
 ---------------------------------------------------------------
 Warning -- This program may not be used in any manner that
 competes with the business of Gaussian, Inc. or will provide
 assistance to any competitor of Gaussian, Inc.  The licensee
 of this program is prohibited from giving any competitor of
 Gaussian, Inc. access to this program.  By using this program,
 the user acknowledges that Gaussian, Inc. is engaged in the
 business of creating and licensing software in the field of
 computational chemistry and represents and warrants to the
 licensee that it is not a competitor of Gaussian, Inc. and that
 it will not use this program in any manner prohibited above.
 ---------------------------------------------------------------
  

 Cite this work as:
 Gaussian 09, Revision E.01,
 M. J. Frisch, G. W. Trucks, H. B. Schlegel, G. E. Scuseria, 
 M. A. Robb, J. R. Cheeseman, G. Scalmani, V. Barone, B. Mennucci, 
 G. A. Petersson, H. Nakatsuji, M. Caricato, X. Li, H. P. Hratchian, 
 A. F. Izmaylov, J. Bloino, G. Zheng, J. L. Sonnenberg, M. Hada, 
 M. Ehara, K. Toyota, R. Fukuda, J. Hasegawa, M. Ishida, T. Nakajima, 
 Y. Honda, O. Kitao, H. Nakai, T. Vreven, J. A. Montgomery, Jr., 
 J. E. Peralta, F. Ogliaro, M. Bearpark, J. J. Heyd, E. Brothers, 
 K. N. Kudin, V. N. Staroverov, T. Keith, R. Kobayashi, J. Normand, 
 K. Raghavachari, A. Rendell, J. C. Burant, S. S. Iyengar, J. Tomasi, 
 M. Cossi, N. Rega, J. M. Millam, M. Klene, J. E. Knox, J. B. Cross, 
 V. Bakken, C. Adamo, J. Jaramillo, R. Gomperts, R. E. Stratmann, 
 O. Yazyev, A. J. Austin, R. Cammi, C. Pomelli, J. W. Ochterski, 
 R. L. Martin, K. Morokuma, V. G. Zakrzewski, G. A. Voth, 
 P. Salvador, J. J. Dannenberg, S. Dapprich, A. D. Daniels, 
 O. Farkas, J. B. Foresman, J. V. Ortiz, J. Cioslowski, 
 and D. J. Fox, Gaussian, Inc., Wallingford CT, 2013.
 
 ******************************************
 Gaussian 09:  ES64L-G09RevE.01 30-Nov-2015
                16-Nov-2021 
 ******************************************
 %nprocs=14
 Will use up to   14 processors via shared memory.
 %mem=128GB
 %chk=SS_Et_DuPhos_4.chk
 ----------------------------------------------------------------------
 # PBEPBE gen 6D pseudo=read scf=maxcycles=500 denfit int=(grid=ultrafi
 ne) empiricaldispersion=GD3BJ opt freq=noraman
 ----------------------------------------------------------------------
 1/14=-1,18=20,19=15,26=4,38=1/1,3;
 2/9=110,12=2,17=6,18=5,40=1/2;
 3/5=7,8=2,11=2,16=1,17=8,25=1,30=1,71=1,74=1009,75=-5,82=47,124=41/1,2,3;
 4//1;
 5/5=2,7=500,38=5/2;
 6/7=2,8=2,9=2,10=2,28=1/1;
 7//1,2,3,16;
 1/14=-1,18=20,19=15,26=4/3(2);
 2/9=110/2;
 99//99;
 2/9=110/2;
 3/5=7,6=1,8=2,11=2,16=1,17=8,25=1,30=1,71=1,74=1009,75=-5,82=7,124=41/1,2,3;
 4/5=5,16=3,69=1/1;
 5/5=2,7=500,38=5/2;
 7//1,2,3,16;
 1/14=-1,18=20,19=15,26=4/3(-5);
 2/9=110/2;
 6/7=2,8=2,9=2,10=2,19=2,28=1/1;
 99/9=1/99;
 ------------
 SS_Et_DuPhos
 ------------
 Symbolic Z-matrix:
 Charge =  0 Multiplicity = 1
 Cl                   -1.2291   -3.8341    1.2799 
 P                    -1.6456   -0.6477    0.1184 
 P                     1.496    -0.1103    0.2736 
 C                    -1.0147    1.0601   -0.3327 
 C                     0.3826    1.2932   -0.2818 
 C                    -3.0239   -0.6355    1.3328 
 H                    -2.8268   -1.4393    2.0434 
 C                    -2.6105   -1.1124   -1.3704 
 H                    -3.0004   -0.2023   -1.8265 
 C                     2.4151    0.6495    1.6669 
 H                     2.4978    1.7207    1.4821 
 C                     2.9202   -0.4181   -0.8452 
 H                     3.0155   -1.5001   -0.9458 
 C                    -4.2512   -1.0436    0.4965 
 H                    -4.9629   -1.613     1.0953 
 H                    -4.7749   -0.1471    0.162 
 C                    -3.8063   -1.8393   -0.7477 
 H                    -4.6235   -1.944    -1.462 
 H                    -3.5152   -2.8472   -0.449 
 C                     3.8151    0.0602    1.47 
 H                     4.5628    0.6133    2.0392 
 H                     3.84     -0.9691    1.8302 
 C                     4.1329    0.0835   -0.0392 
 H                     5.024    -0.5037   -0.2639 
 H                     4.3582    1.1112   -0.3272 
 C                    -3.2089    0.6658    2.1363 
 H                    -3.4708    1.4872    1.4706 
 H                    -4.063     0.5438    2.8033 
 C                    -1.8642   -1.8751   -2.4852 
 H                    -1.2804   -1.1559   -3.0588 
 H                    -2.5985   -2.2699   -3.1883 
 C                     1.8112    0.4947    3.0785 
 H                     1.0036    1.2182    3.1854 
 H                     2.5601    0.7947    3.8122 
 C                     2.8111    0.1768   -2.2621 
 H                     2.7769    1.2643   -2.2139 
 H                     3.7217   -0.065    -2.8114 
 C                    -1.9885    1.0665    2.975 
 H                    -2.2072    1.9466    3.5798 
 H                    -1.1348    1.3126    2.3467 
 H                    -1.6903    0.2647    3.6507 
 C                    -0.9308   -3.0111   -2.0522 
 H                    -1.4647   -3.7688   -1.4802 
 H                    -0.5084   -3.5077   -2.9259 
 H                    -0.0926   -2.6458   -1.4634 
 C                     1.2682   -0.8871    3.4599 
 H                     2.0385   -1.653     3.3808 
 H                     0.4178   -1.1729    2.8454 
 H                     0.9227   -0.8857    4.4938 
 C                     1.6072   -0.3301   -3.0665 
 H                     1.602    -1.4182   -3.1308 
 H                     0.6664   -0.0146   -2.6198 
 H                     1.6284    0.0628   -4.083 
 C                    -1.8799    2.0973   -0.7374 
 H                    -2.9447    1.926    -0.7856 
 C                    -1.3661    3.3616   -1.0805 
 H                    -2.0355    4.1516   -1.3878 
 C                     0.02      3.5952   -1.023 
 H                     0.4164    4.5652   -1.285 
 C                     0.8899    2.5637   -0.6235 
 H                     1.9521    2.7518   -0.5808 
 Cl                    2.0762   -3.3503    1.1908 
 Pd                    0.1861   -2.0613    0.7402 
 

 GradGradGradGradGradGradGradGradGradGradGradGradGradGradGradGradGradGrad
 Berny optimization.
 Initialization pass.
                           ----------------------------
                           !    Initial Parameters    !
                           ! (Angstroms and Degrees)  !
 --------------------------                            --------------------------
 ! Name  Definition              Value          Derivative Info.                !
 --------------------------------------------------------------------------------
 ! R1    R(1,63)                 2.3317         estimate D2E/DX2                !
 ! R2    R(2,4)                  1.8757         estimate D2E/DX2                !
 ! R3    R(2,6)                  1.837          estimate D2E/DX2                !
 ! R4    R(2,8)                  1.834          estimate D2E/DX2                !
 ! R5    R(2,63)                 2.3958         estimate D2E/DX2                !
 ! R6    R(3,5)                  1.8756         estimate D2E/DX2                !
 ! R7    R(3,10)                 1.8339         estimate D2E/DX2                !
 ! R8    R(3,12)                 1.8371         estimate D2E/DX2                !
 ! R9    R(3,63)                 2.3958         estimate D2E/DX2                !
 ! R10   R(4,5)                  1.4175         estimate D2E/DX2                !
 ! R11   R(4,54)                 1.41           estimate D2E/DX2                !
 ! R12   R(5,60)                 1.4101         estimate D2E/DX2                !
 ! R13   R(6,7)                  1.0908         estimate D2E/DX2                !
 ! R14   R(6,14)                 1.5402         estimate D2E/DX2                !
 ! R15   R(6,26)                 1.5405         estimate D2E/DX2                !
 ! R16   R(8,9)                  1.0901         estimate D2E/DX2                !
 ! R17   R(8,17)                 1.5317         estimate D2E/DX2                !
 ! R18   R(8,29)                 1.5432         estimate D2E/DX2                !
 ! R19   R(10,11)                1.0902         estimate D2E/DX2                !
 ! R20   R(10,20)                1.5317         estimate D2E/DX2                !
 ! R21   R(10,32)                1.5431         estimate D2E/DX2                !
 ! R22   R(12,13)                1.0908         estimate D2E/DX2                !
 ! R23   R(12,23)                1.5401         estimate D2E/DX2                !
 ! R24   R(12,35)                1.5406         estimate D2E/DX2                !
 ! R25   R(14,15)                1.0905         estimate D2E/DX2                !
 ! R26   R(14,16)                1.0908         estimate D2E/DX2                !
 ! R27   R(14,17)                1.5424         estimate D2E/DX2                !
 ! R28   R(17,18)                1.0904         estimate D2E/DX2                !
 ! R29   R(17,19)                1.0908         estimate D2E/DX2                !
 ! R30   R(20,21)                1.0904         estimate D2E/DX2                !
 ! R31   R(20,22)                1.0908         estimate D2E/DX2                !
 ! R32   R(20,23)                1.5425         estimate D2E/DX2                !
 ! R33   R(23,24)                1.0906         estimate D2E/DX2                !
 ! R34   R(23,25)                1.0908         estimate D2E/DX2                !
 ! R35   R(26,27)                1.0892         estimate D2E/DX2                !
 ! R36   R(26,28)                1.0905         estimate D2E/DX2                !
 ! R37   R(26,38)                1.5341         estimate D2E/DX2                !
 ! R38   R(29,30)                1.0895         estimate D2E/DX2                !
 ! R39   R(29,31)                1.0906         estimate D2E/DX2                !
 ! R40   R(29,42)                1.5327         estimate D2E/DX2                !
 ! R41   R(32,33)                1.0895         estimate D2E/DX2                !
 ! R42   R(32,34)                1.0905         estimate D2E/DX2                !
 ! R43   R(32,46)                1.5329         estimate D2E/DX2                !
 ! R44   R(35,36)                1.0891         estimate D2E/DX2                !
 ! R45   R(35,37)                1.0906         estimate D2E/DX2                !
 ! R46   R(35,50)                1.5341         estimate D2E/DX2                !
 ! R47   R(38,39)                1.09           estimate D2E/DX2                !
 ! R48   R(38,40)                1.0882         estimate D2E/DX2                !
 ! R49   R(38,41)                1.0901         estimate D2E/DX2                !
 ! R50   R(42,43)                1.0892         estimate D2E/DX2                !
 ! R51   R(42,44)                1.0901         estimate D2E/DX2                !
 ! R52   R(42,45)                1.0875         estimate D2E/DX2                !
 ! R53   R(46,47)                1.0891         estimate D2E/DX2                !
 ! R54   R(46,48)                1.0874         estimate D2E/DX2                !
 ! R55   R(46,49)                1.0901         estimate D2E/DX2                !
 ! R56   R(50,51)                1.09           estimate D2E/DX2                !
 ! R57   R(50,52)                1.0882         estimate D2E/DX2                !
 ! R58   R(50,53)                1.09           estimate D2E/DX2                !
 ! R59   R(54,55)                1.0796         estimate D2E/DX2                !
 ! R60   R(54,56)                1.4072         estimate D2E/DX2                !
 ! R61   R(56,57)                1.0801         estimate D2E/DX2                !
 ! R62   R(56,58)                1.4068         estimate D2E/DX2                !
 ! R63   R(58,59)                1.0801         estimate D2E/DX2                !
 ! R64   R(58,60)                1.4072         estimate D2E/DX2                !
 ! R65   R(60,61)                1.0796         estimate D2E/DX2                !
 ! R66   R(62,63)                2.3317         estimate D2E/DX2                !
 ! A1    A(4,2,6)              113.9107         estimate D2E/DX2                !
 ! A2    A(4,2,8)              102.2652         estimate D2E/DX2                !
 ! A3    A(4,2,63)             110.0279         estimate D2E/DX2                !
 ! A4    A(6,2,8)               98.2553         estimate D2E/DX2                !
 ! A5    A(6,2,63)             113.9521         estimate D2E/DX2                !
 ! A6    A(8,2,63)             117.6082         estimate D2E/DX2                !
 ! A7    A(5,3,10)             102.2661         estimate D2E/DX2                !
 ! A8    A(5,3,12)             113.9064         estimate D2E/DX2                !
 ! A9    A(5,3,63)             110.0274         estimate D2E/DX2                !
 ! A10   A(10,3,12)             98.2547         estimate D2E/DX2                !
 ! A11   A(10,3,63)            117.6083         estimate D2E/DX2                !
 ! A12   A(12,3,63)            113.956          estimate D2E/DX2                !
 ! A13   A(2,4,5)              118.2066         estimate D2E/DX2                !
 ! A14   A(2,4,54)             122.1676         estimate D2E/DX2                !
 ! A15   A(5,4,54)             119.617          estimate D2E/DX2                !
 ! A16   A(3,5,4)              118.2118         estimate D2E/DX2                !
 ! A17   A(3,5,60)             122.1687         estimate D2E/DX2                !
 ! A18   A(4,5,60)             119.6106         estimate D2E/DX2                !
 ! A19   A(2,6,7)              106.8688         estimate D2E/DX2                !
 ! A20   A(2,6,14)             103.7188         estimate D2E/DX2                !
 ! A21   A(2,6,26)             116.1365         estimate D2E/DX2                !
 ! A22   A(7,6,14)             107.6049         estimate D2E/DX2                !
 ! A23   A(7,6,26)             107.7205         estimate D2E/DX2                !
 ! A24   A(14,6,26)            114.2886         estimate D2E/DX2                !
 ! A25   A(2,8,9)              108.4385         estimate D2E/DX2                !
 ! A26   A(2,8,17)             101.5936         estimate D2E/DX2                !
 ! A27   A(2,8,29)             117.2081         estimate D2E/DX2                !
 ! A28   A(9,8,17)             106.6826         estimate D2E/DX2                !
 ! A29   A(9,8,29)             106.4599         estimate D2E/DX2                !
 ! A30   A(17,8,29)            115.8929         estimate D2E/DX2                !
 ! A31   A(3,10,11)            108.4408         estimate D2E/DX2                !
 ! A32   A(3,10,20)            101.5963         estimate D2E/DX2                !
 ! A33   A(3,10,32)            117.212          estimate D2E/DX2                !
 ! A34   A(11,10,20)           106.6735         estimate D2E/DX2                !
 ! A35   A(11,10,32)           106.4587         estimate D2E/DX2                !
 ! A36   A(20,10,32)           115.8935         estimate D2E/DX2                !
 ! A37   A(3,12,13)            106.8632         estimate D2E/DX2                !
 ! A38   A(3,12,23)            103.719          estimate D2E/DX2                !
 ! A39   A(3,12,35)            116.137          estimate D2E/DX2                !
 ! A40   A(13,12,23)           107.6095         estimate D2E/DX2                !
 ! A41   A(13,12,35)           107.7215         estimate D2E/DX2                !
 ! A42   A(23,12,35)           114.288          estimate D2E/DX2                !
 ! A43   A(6,14,15)            111.1144         estimate D2E/DX2                !
 ! A44   A(6,14,16)            109.3482         estimate D2E/DX2                !
 ! A45   A(6,14,17)            110.1721         estimate D2E/DX2                !
 ! A46   A(15,14,16)           106.5095         estimate D2E/DX2                !
 ! A47   A(15,14,17)           111.211          estimate D2E/DX2                !
 ! A48   A(16,14,17)           108.3668         estimate D2E/DX2                !
 ! A49   A(8,17,14)            107.9571         estimate D2E/DX2                !
 ! A50   A(8,17,18)            111.3672         estimate D2E/DX2                !
 ! A51   A(8,17,19)            109.9677         estimate D2E/DX2                !
 ! A52   A(14,17,18)           111.2093         estimate D2E/DX2                !
 ! A53   A(14,17,19)           109.4362         estimate D2E/DX2                !
 ! A54   A(18,17,19)           106.8978         estimate D2E/DX2                !
 ! A55   A(10,20,21)           111.3767         estimate D2E/DX2                !
 ! A56   A(10,20,22)           109.9663         estimate D2E/DX2                !
 ! A57   A(10,20,23)           107.956          estimate D2E/DX2                !
 ! A58   A(21,20,22)           106.8951         estimate D2E/DX2                !
 ! A59   A(21,20,23)           111.2114         estimate D2E/DX2                !
 ! A60   A(22,20,23)           109.4295         estimate D2E/DX2                !
 ! A61   A(12,23,20)           110.1758         estimate D2E/DX2                !
 ! A62   A(12,23,24)           111.1126         estimate D2E/DX2                !
 ! A63   A(12,23,25)           109.3484         estimate D2E/DX2                !
 ! A64   A(20,23,24)           111.2113         estimate D2E/DX2                !
 ! A65   A(20,23,25)           108.3677         estimate D2E/DX2                !
 ! A66   A(24,23,25)           106.506          estimate D2E/DX2                !
 ! A67   A(6,26,27)            110.3106         estimate D2E/DX2                !
 ! A68   A(6,26,28)            108.5761         estimate D2E/DX2                !
 ! A69   A(6,26,38)            114.2211         estimate D2E/DX2                !
 ! A70   A(27,26,28)           105.6554         estimate D2E/DX2                !
 ! A71   A(27,26,38)           109.1741         estimate D2E/DX2                !
 ! A72   A(28,26,38)           108.5355         estimate D2E/DX2                !
 ! A73   A(8,29,30)            108.2522         estimate D2E/DX2                !
 ! A74   A(8,29,31)            108.6039         estimate D2E/DX2                !
 ! A75   A(8,29,42)            117.1768         estimate D2E/DX2                !
 ! A76   A(30,29,31)           105.0891         estimate D2E/DX2                !
 ! A77   A(30,29,42)           108.1595         estimate D2E/DX2                !
 ! A78   A(31,29,42)           108.896          estimate D2E/DX2                !
 ! A79   A(10,32,33)           108.2531         estimate D2E/DX2                !
 ! A80   A(10,32,34)           108.6091         estimate D2E/DX2                !
 ! A81   A(10,32,46)           117.172          estimate D2E/DX2                !
 ! A82   A(33,32,34)           105.0908         estimate D2E/DX2                !
 ! A83   A(33,32,46)           108.1565         estimate D2E/DX2                !
 ! A84   A(34,32,46)           108.8966         estimate D2E/DX2                !
 ! A85   A(12,35,36)           110.3102         estimate D2E/DX2                !
 ! A86   A(12,35,37)           108.5716         estimate D2E/DX2                !
 ! A87   A(12,35,50)           114.2197         estimate D2E/DX2                !
 ! A88   A(36,35,37)           105.6582         estimate D2E/DX2                !
 ! A89   A(36,35,50)           109.178          estimate D2E/DX2                !
 ! A90   A(37,35,50)           108.5354         estimate D2E/DX2                !
 ! A91   A(26,38,39)           110.7704         estimate D2E/DX2                !
 ! A92   A(26,38,40)           111.5627         estimate D2E/DX2                !
 ! A93   A(26,38,41)           111.3691         estimate D2E/DX2                !
 ! A94   A(39,38,40)           107.1672         estimate D2E/DX2                !
 ! A95   A(39,38,41)           107.7476         estimate D2E/DX2                !
 ! A96   A(40,38,41)           108.0366         estimate D2E/DX2                !
 ! A97   A(29,42,43)           111.4349         estimate D2E/DX2                !
 ! A98   A(29,42,44)           110.3151         estimate D2E/DX2                !
 ! A99   A(29,42,45)           111.9231         estimate D2E/DX2                !
 ! A100  A(43,42,44)           107.0934         estimate D2E/DX2                !
 ! A101  A(43,42,45)           109.0955         estimate D2E/DX2                !
 ! A102  A(44,42,45)           106.7559         estimate D2E/DX2                !
 ! A103  A(32,46,47)           111.4264         estimate D2E/DX2                !
 ! A104  A(32,46,48)           111.922          estimate D2E/DX2                !
 ! A105  A(32,46,49)           110.3102         estimate D2E/DX2                !
 ! A106  A(47,46,48)           109.1012         estimate D2E/DX2                !
 ! A107  A(47,46,49)           107.0943         estimate D2E/DX2                !
 ! A108  A(48,46,49)           106.7648         estimate D2E/DX2                !
 ! A109  A(35,50,51)           111.3783         estimate D2E/DX2                !
 ! A110  A(35,50,52)           111.557          estimate D2E/DX2                !
 ! A111  A(35,50,53)           110.7708         estimate D2E/DX2                !
 ! A112  A(51,50,52)           108.0297         estimate D2E/DX2                !
 ! A113  A(51,50,53)           107.7526         estimate D2E/DX2                !
 ! A114  A(52,50,53)           107.1649         estimate D2E/DX2                !
 ! A115  A(4,54,55)            120.0868         estimate D2E/DX2                !
 ! A116  A(4,54,56)            120.4536         estimate D2E/DX2                !
 ! A117  A(55,54,56)           119.4596         estimate D2E/DX2                !
 ! A118  A(54,56,57)           120.0148         estimate D2E/DX2                !
 ! A119  A(54,56,58)           119.9319         estimate D2E/DX2                !
 ! A120  A(57,56,58)           120.0532         estimate D2E/DX2                !
 ! A121  A(56,58,59)           120.0524         estimate D2E/DX2                !
 ! A122  A(56,58,60)           119.9303         estimate D2E/DX2                !
 ! A123  A(59,58,60)           120.0173         estimate D2E/DX2                !
 ! A124  A(5,60,58)            120.4539         estimate D2E/DX2                !
 ! A125  A(5,60,61)            120.0918         estimate D2E/DX2                !
 ! A126  A(58,60,61)           119.4543         estimate D2E/DX2                !
 ! A127  A(1,63,2)              92.5587         estimate D2E/DX2                !
 ! A128  A(1,63,62)             91.5445         estimate D2E/DX2                !
 ! A129  A(2,63,3)              83.5107         estimate D2E/DX2                !
 ! A130  A(3,63,62)             92.5572         estimate D2E/DX2                !
 ! A131  L(1,63,3,62,-1)       184.1016         estimate D2E/DX2                !
 ! A132  L(2,63,62,3,-1)       176.0679         estimate D2E/DX2                !
 ! A133  L(1,63,3,62,-2)       183.0166         estimate D2E/DX2                !
 ! A134  L(2,63,62,3,-2)       183.25           estimate D2E/DX2                !
 ! D1    D(6,2,4,5)            130.4981         estimate D2E/DX2                !
 ! D2    D(6,2,4,54)           -50.587          estimate D2E/DX2                !
 ! D3    D(8,2,4,5)           -124.6026         estimate D2E/DX2                !
 ! D4    D(8,2,4,54)            54.3123         estimate D2E/DX2                !
 ! D5    D(63,2,4,5)             1.1311         estimate D2E/DX2                !
 ! D6    D(63,2,4,54)         -179.9539         estimate D2E/DX2                !
 ! D7    D(4,2,6,7)           -137.9094         estimate D2E/DX2                !
 ! D8    D(4,2,6,14)           108.5526         estimate D2E/DX2                !
 ! D9    D(4,2,6,26)           -17.7057         estimate D2E/DX2                !
 ! D10   D(8,2,6,7)            114.6846         estimate D2E/DX2                !
 ! D11   D(8,2,6,14)             1.1466         estimate D2E/DX2                !
 ! D12   D(8,2,6,26)          -125.1117         estimate D2E/DX2                !
 ! D13   D(63,2,6,7)           -10.5449         estimate D2E/DX2                !
 ! D14   D(63,2,6,14)         -124.0829         estimate D2E/DX2                !
 ! D15   D(63,2,6,26)          109.6588         estimate D2E/DX2                !
 ! D16   D(4,2,8,9)            -29.3946         estimate D2E/DX2                !
 ! D17   D(4,2,8,17)          -141.5616         estimate D2E/DX2                !
 ! D18   D(4,2,8,29)            91.0857         estimate D2E/DX2                !
 ! D19   D(6,2,8,9)             87.3917         estimate D2E/DX2                !
 ! D20   D(6,2,8,17)           -24.7753         estimate D2E/DX2                !
 ! D21   D(6,2,8,29)          -152.128          estimate D2E/DX2                !
 ! D22   D(63,2,8,9)          -150.0056         estimate D2E/DX2                !
 ! D23   D(63,2,8,17)           97.8275         estimate D2E/DX2                !
 ! D24   D(63,2,8,29)          -29.5252         estimate D2E/DX2                !
 ! D25   D(4,2,63,1)           176.4457         estimate D2E/DX2                !
 ! D26   D(4,2,63,3)            -0.3079         estimate D2E/DX2                !
 ! D27   D(6,2,63,1)            47.1012         estimate D2E/DX2                !
 ! D28   D(6,2,63,3)          -129.6524         estimate D2E/DX2                !
 ! D29   D(8,2,63,1)           -67.0798         estimate D2E/DX2                !
 ! D30   D(8,2,63,3)           116.1666         estimate D2E/DX2                !
 ! D31   D(10,3,5,4)          -124.6019         estimate D2E/DX2                !
 ! D32   D(10,3,5,60)           54.3066         estimate D2E/DX2                !
 ! D33   D(12,3,5,4)           130.5006         estimate D2E/DX2                !
 ! D34   D(12,3,5,60)          -50.5909         estimate D2E/DX2                !
 ! D35   D(63,3,5,4)             1.1323         estimate D2E/DX2                !
 ! D36   D(63,3,5,60)         -179.9592         estimate D2E/DX2                !
 ! D37   D(5,3,10,11)          -29.3966         estimate D2E/DX2                !
 ! D38   D(5,3,10,20)         -141.5554         estimate D2E/DX2                !
 ! D39   D(5,3,10,32)           91.0865         estimate D2E/DX2                !
 ! D40   D(12,3,10,11)          87.3852         estimate D2E/DX2                !
 ! D41   D(12,3,10,20)         -24.7735         estimate D2E/DX2                !
 ! D42   D(12,3,10,32)        -152.1316         estimate D2E/DX2                !
 ! D43   D(63,3,10,11)        -150.0075         estimate D2E/DX2                !
 ! D44   D(63,3,10,20)          97.8337         estimate D2E/DX2                !
 ! D45   D(63,3,10,32)         -29.5244         estimate D2E/DX2                !
 ! D46   D(5,3,12,13)         -137.9066         estimate D2E/DX2                !
 ! D47   D(5,3,12,23)          108.5524         estimate D2E/DX2                !
 ! D48   D(5,3,12,35)          -17.7055         estimate D2E/DX2                !
 ! D49   D(10,3,12,13)         114.688          estimate D2E/DX2                !
 ! D50   D(10,3,12,23)           1.147          estimate D2E/DX2                !
 ! D51   D(10,3,12,35)        -125.1108         estimate D2E/DX2                !
 ! D52   D(63,3,12,13)         -10.5431         estimate D2E/DX2                !
 ! D53   D(63,3,12,23)        -124.0841         estimate D2E/DX2                !
 ! D54   D(63,3,12,35)         109.6581         estimate D2E/DX2                !
 ! D55   D(5,3,63,2)            -0.3092         estimate D2E/DX2                !
 ! D56   D(5,3,63,62)          176.4409         estimate D2E/DX2                !
 ! D57   D(10,3,63,2)          116.1661         estimate D2E/DX2                !
 ! D58   D(10,3,63,62)         -67.0838         estimate D2E/DX2                !
 ! D59   D(12,3,63,2)         -129.6507         estimate D2E/DX2                !
 ! D60   D(12,3,63,62)          47.0994         estimate D2E/DX2                !
 ! D61   D(2,4,5,3)             -1.481          estimate D2E/DX2                !
 ! D62   D(2,4,5,60)           179.5817         estimate D2E/DX2                !
 ! D63   D(54,4,5,3)           179.5755         estimate D2E/DX2                !
 ! D64   D(54,4,5,60)            0.6383         estimate D2E/DX2                !
 ! D65   D(2,4,54,55)            0.6679         estimate D2E/DX2                !
 ! D66   D(2,4,54,56)         -179.3684         estimate D2E/DX2                !
 ! D67   D(5,4,54,55)          179.568          estimate D2E/DX2                !
 ! D68   D(5,4,54,56)           -0.4683         estimate D2E/DX2                !
 ! D69   D(3,5,60,58)         -179.364          estimate D2E/DX2                !
 ! D70   D(3,5,60,61)            0.6783         estimate D2E/DX2                !
 ! D71   D(4,5,60,58)           -0.4703         estimate D2E/DX2                !
 ! D72   D(4,5,60,61)          179.572          estimate D2E/DX2                !
 ! D73   D(2,6,14,15)          147.4303         estimate D2E/DX2                !
 ! D74   D(2,6,14,16)          -95.2822         estimate D2E/DX2                !
 ! D75   D(2,6,14,17)           23.7161         estimate D2E/DX2                !
 ! D76   D(7,6,14,15)           34.4233         estimate D2E/DX2                !
 ! D77   D(7,6,14,16)          151.7108         estimate D2E/DX2                !
 ! D78   D(7,6,14,17)          -89.2909         estimate D2E/DX2                !
 ! D79   D(26,6,14,15)         -85.15           estimate D2E/DX2                !
 ! D80   D(26,6,14,16)          32.1375         estimate D2E/DX2                !
 ! D81   D(26,6,14,17)         151.1358         estimate D2E/DX2                !
 ! D82   D(2,6,26,27)           63.8153         estimate D2E/DX2                !
 ! D83   D(2,6,26,28)          179.1525         estimate D2E/DX2                !
 ! D84   D(2,6,26,38)          -59.5875         estimate D2E/DX2                !
 ! D85   D(7,6,26,27)         -176.4408         estimate D2E/DX2                !
 ! D86   D(7,6,26,28)          -61.1036         estimate D2E/DX2                !
 ! D87   D(7,6,26,38)           60.1564         estimate D2E/DX2                !
 ! D88   D(14,6,26,27)         -56.9324         estimate D2E/DX2                !
 ! D89   D(14,6,26,28)          58.4048         estimate D2E/DX2                !
 ! D90   D(14,6,26,38)         179.6648         estimate D2E/DX2                !
 ! D91   D(2,8,17,14)           41.7033         estimate D2E/DX2                !
 ! D92   D(2,8,17,18)          164.0586         estimate D2E/DX2                !
 ! D93   D(2,8,17,19)          -77.6321         estimate D2E/DX2                !
 ! D94   D(9,8,17,14)          -71.7838         estimate D2E/DX2                !
 ! D95   D(9,8,17,18)           50.5715         estimate D2E/DX2                !
 ! D96   D(9,8,17,19)          168.8808         estimate D2E/DX2                !
 ! D97   D(29,8,17,14)         169.904          estimate D2E/DX2                !
 ! D98   D(29,8,17,18)         -67.7407         estimate D2E/DX2                !
 ! D99   D(29,8,17,19)          50.5686         estimate D2E/DX2                !
 ! D100  D(2,8,29,30)          -78.7347         estimate D2E/DX2                !
 ! D101  D(2,8,29,31)          167.6722         estimate D2E/DX2                !
 ! D102  D(2,8,29,42)           43.828          estimate D2E/DX2                !
 ! D103  D(9,8,29,30)           42.7808         estimate D2E/DX2                !
 ! D104  D(9,8,29,31)          -70.8122         estimate D2E/DX2                !
 ! D105  D(9,8,29,42)          165.3436         estimate D2E/DX2                !
 ! D106  D(17,8,29,30)         161.2157         estimate D2E/DX2                !
 ! D107  D(17,8,29,31)          47.6227         estimate D2E/DX2                !
 ! D108  D(17,8,29,42)         -76.2215         estimate D2E/DX2                !
 ! D109  D(3,10,20,21)         164.0608         estimate D2E/DX2                !
 ! D110  D(3,10,20,22)         -77.6282         estimate D2E/DX2                !
 ! D111  D(3,10,20,23)          41.6977         estimate D2E/DX2                !
 ! D112  D(11,10,20,21)         50.5734         estimate D2E/DX2                !
 ! D113  D(11,10,20,22)        168.8843         estimate D2E/DX2                !
 ! D114  D(11,10,20,23)        -71.7898         estimate D2E/DX2                !
 ! D115  D(32,10,20,21)        -67.7311         estimate D2E/DX2                !
 ! D116  D(32,10,20,22)         50.5799         estimate D2E/DX2                !
 ! D117  D(32,10,20,23)        169.9058         estimate D2E/DX2                !
 ! D118  D(3,10,32,33)         -78.7304         estimate D2E/DX2                !
 ! D119  D(3,10,32,34)         167.6715         estimate D2E/DX2                !
 ! D120  D(3,10,32,46)          43.8257         estimate D2E/DX2                !
 ! D121  D(11,10,32,33)         42.7897         estimate D2E/DX2                !
 ! D122  D(11,10,32,34)        -70.8084         estimate D2E/DX2                !
 ! D123  D(11,10,32,46)        165.3458         estimate D2E/DX2                !
 ! D124  D(20,10,32,33)        161.2126         estimate D2E/DX2                !
 ! D125  D(20,10,32,34)         47.6144         estimate D2E/DX2                !
 ! D126  D(20,10,32,46)        -76.2313         estimate D2E/DX2                !
 ! D127  D(3,12,23,20)          23.713          estimate D2E/DX2                !
 ! D128  D(3,12,23,24)         147.429          estimate D2E/DX2                !
 ! D129  D(3,12,23,25)         -95.2888         estimate D2E/DX2                !
 ! D130  D(13,12,23,20)        -89.2896         estimate D2E/DX2                !
 ! D131  D(13,12,23,24)         34.4264         estimate D2E/DX2                !
 ! D132  D(13,12,23,25)        151.7086         estimate D2E/DX2                !
 ! D133  D(35,12,23,20)        151.133          estimate D2E/DX2                !
 ! D134  D(35,12,23,24)        -85.1511         estimate D2E/DX2                !
 ! D135  D(35,12,23,25)         32.1312         estimate D2E/DX2                !
 ! D136  D(3,12,35,36)          63.816          estimate D2E/DX2                !
 ! D137  D(3,12,35,37)         179.1537         estimate D2E/DX2                !
 ! D138  D(3,12,35,50)         -59.5907         estimate D2E/DX2                !
 ! D139  D(13,12,35,36)       -176.4463         estimate D2E/DX2                !
 ! D140  D(13,12,35,37)        -61.1086         estimate D2E/DX2                !
 ! D141  D(13,12,35,50)         60.147          estimate D2E/DX2                !
 ! D142  D(23,12,35,36)        -56.9318         estimate D2E/DX2                !
 ! D143  D(23,12,35,37)         58.4059         estimate D2E/DX2                !
 ! D144  D(23,12,35,50)        179.6615         estimate D2E/DX2                !
 ! D145  D(6,14,17,8)          -44.8167         estimate D2E/DX2                !
 ! D146  D(6,14,17,18)        -167.269          estimate D2E/DX2                !
 ! D147  D(6,14,17,19)          74.855          estimate D2E/DX2                !
 ! D148  D(15,14,17,8)        -168.4749         estimate D2E/DX2                !
 ! D149  D(15,14,17,18)         69.0729         estimate D2E/DX2                !
 ! D150  D(15,14,17,19)        -48.8031         estimate D2E/DX2                !
 ! D151  D(16,14,17,8)          74.7789         estimate D2E/DX2                !
 ! D152  D(16,14,17,18)        -47.6733         estimate D2E/DX2                !
 ! D153  D(16,14,17,19)       -165.5493         estimate D2E/DX2                !
 ! D154  D(10,20,23,12)        -44.811          estimate D2E/DX2                !
 ! D155  D(10,20,23,24)       -168.4697         estimate D2E/DX2                !
 ! D156  D(10,20,23,25)         74.7877         estimate D2E/DX2                !
 ! D157  D(21,20,23,12)       -167.2757         estimate D2E/DX2                !
 ! D158  D(21,20,23,24)         69.0657         estimate D2E/DX2                !
 ! D159  D(21,20,23,25)        -47.6769         estimate D2E/DX2                !
 ! D160  D(22,20,23,12)         74.8546         estimate D2E/DX2                !
 ! D161  D(22,20,23,24)        -48.8041         estimate D2E/DX2                !
 ! D162  D(22,20,23,25)       -165.5467         estimate D2E/DX2                !
 ! D163  D(6,26,38,39)        -175.4561         estimate D2E/DX2                !
 ! D164  D(6,26,38,40)          65.2486         estimate D2E/DX2                !
 ! D165  D(6,26,38,41)         -55.5567         estimate D2E/DX2                !
 ! D166  D(27,26,38,39)         60.5297         estimate D2E/DX2                !
 ! D167  D(27,26,38,40)        -58.7657         estimate D2E/DX2                !
 ! D168  D(27,26,38,41)       -179.5709         estimate D2E/DX2                !
 ! D169  D(28,26,38,39)        -54.1737         estimate D2E/DX2                !
 ! D170  D(28,26,38,40)       -173.469          estimate D2E/DX2                !
 ! D171  D(28,26,38,41)         65.7257         estimate D2E/DX2                !
 ! D172  D(8,29,42,43)          57.9417         estimate D2E/DX2                !
 ! D173  D(8,29,42,44)         176.7617         estimate D2E/DX2                !
 ! D174  D(8,29,42,45)         -64.5281         estimate D2E/DX2                !
 ! D175  D(30,29,42,43)       -179.4478         estimate D2E/DX2                !
 ! D176  D(30,29,42,44)        -60.6278         estimate D2E/DX2                !
 ! D177  D(30,29,42,45)         58.0823         estimate D2E/DX2                !
 ! D178  D(31,29,42,43)        -65.7542         estimate D2E/DX2                !
 ! D179  D(31,29,42,44)         53.0658         estimate D2E/DX2                !
 ! D180  D(31,29,42,45)        171.7759         estimate D2E/DX2                !
 ! D181  D(10,32,46,47)         57.9477         estimate D2E/DX2                !
 ! D182  D(10,32,46,48)        -64.5226         estimate D2E/DX2                !
 ! D183  D(10,32,46,49)        176.7602         estimate D2E/DX2                !
 ! D184  D(33,32,46,47)       -179.4465         estimate D2E/DX2                !
 ! D185  D(33,32,46,48)         58.0832         estimate D2E/DX2                !
 ! D186  D(33,32,46,49)        -60.634          estimate D2E/DX2                !
 ! D187  D(34,32,46,47)        -65.7521         estimate D2E/DX2                !
 ! D188  D(34,32,46,48)        171.7776         estimate D2E/DX2                !
 ! D189  D(34,32,46,49)         53.0604         estimate D2E/DX2                !
 ! D190  D(12,35,50,51)        -55.5479         estimate D2E/DX2                !
 ! D191  D(12,35,50,52)         65.2511         estimate D2E/DX2                !
 ! D192  D(12,35,50,53)       -175.46           estimate D2E/DX2                !
 ! D193  D(36,35,50,51)       -179.5637         estimate D2E/DX2                !
 ! D194  D(36,35,50,52)        -58.7647         estimate D2E/DX2                !
 ! D195  D(36,35,50,53)         60.5242         estimate D2E/DX2                !
 ! D196  D(37,35,50,51)         65.7277         estimate D2E/DX2                !
 ! D197  D(37,35,50,52)       -173.4733         estimate D2E/DX2                !
 ! D198  D(37,35,50,53)        -54.1844         estimate D2E/DX2                !
 ! D199  D(4,54,56,57)        -179.8868         estimate D2E/DX2                !
 ! D200  D(4,54,56,58)           0.1235         estimate D2E/DX2                !
 ! D201  D(55,54,56,57)          0.0771         estimate D2E/DX2                !
 ! D202  D(55,54,56,58)       -179.9126         estimate D2E/DX2                !
 ! D203  D(54,56,58,59)       -179.94           estimate D2E/DX2                !
 ! D204  D(54,56,58,60)          0.0502         estimate D2E/DX2                !
 ! D205  D(57,56,58,59)          0.0703         estimate D2E/DX2                !
 ! D206  D(57,56,58,60)       -179.9395         estimate D2E/DX2                !
 ! D207  D(56,58,60,5)           0.1255         estimate D2E/DX2                !
 ! D208  D(56,58,60,61)       -179.9165         estimate D2E/DX2                !
 ! D209  D(59,58,60,5)        -179.8842         estimate D2E/DX2                !
 ! D210  D(59,58,60,61)          0.0738         estimate D2E/DX2                !
 --------------------------------------------------------------------------------
 Trust Radius=3.00D-01 FncErr=1.00D-07 GrdErr=1.00D-06
 Number of steps in this run=    378 maximum allowed number of steps=    378.
 GradGradGradGradGradGradGradGradGradGradGradGradGradGradGradGradGradGrad

 Stoichiometry    C22H36Cl2P2Pd
 Framework group  C1[X(C22H36Cl2P2Pd)]
 Deg. of freedom   183
 Full point group                 C1      NOp   1
 Largest Abelian subgroup         C1      NOp   1
 Largest concise Abelian subgroup C1      NOp   1
                         Standard orientation:                         
 ---------------------------------------------------------------------
 Center     Atomic      Atomic             Coordinates (Angstroms)
 Number     Number       Type             X           Y           Z
 ---------------------------------------------------------------------
      1         17           0       -1.667309    3.066415   -0.110382
      2         15           0       -1.595365   -0.347286    0.020645
      3         15           0        1.595377   -0.347136   -0.020673
      4          6           0       -0.708681   -1.999999   -0.000291
      5          6           0        0.708843   -1.999879    0.000333
      6          6           0       -2.907839   -0.190268   -1.255044
      7          1           0       -2.820112    0.811460   -1.677822
      8          6           0       -2.677009   -0.504082    1.493385
      9          1           0       -2.928035   -1.556528    1.626330
     10          6           0        2.676999   -0.503872   -1.493375
     11          1           0        2.928181   -1.556343   -1.626315
     12          6           0        2.907894   -0.190108    1.255039
     13          1           0        2.820025    0.811621    1.677821
     14          6           0       -4.215122   -0.239981   -0.442179
     15          1           0       -4.988648    0.374373   -0.904261
     16          1           0       -4.595857   -1.262139   -0.432246
     17          6           0       -3.952770    0.195112    1.014177
     18          1           0       -4.801440   -0.043153    1.656044
     19          1           0       -3.820947    1.277262    1.051554
     20          6           0        3.952779    0.195285   -1.014202
     21          1           0        4.801506   -0.042840   -1.656013
     22          1           0        3.820923    1.277434   -1.051494
     23          6           0        4.215080   -0.239760    0.442218
     24          1           0        4.988582    0.374649    0.904332
     25          1           0        4.595912   -1.261885    0.432353
     26          6           0       -2.846762   -1.197496   -2.419080
     27          1           0       -2.993833   -2.211580   -2.049691
     28          1           0       -3.684509   -1.004289   -3.089983
     29          6           0       -2.107442   -0.016641    2.842254
     30          1           0       -1.434405   -0.782999    3.225404
     31          1           0       -2.921757    0.033670    3.565976
     32          6           0        2.107499   -0.016544   -2.842246
     33          1           0        1.434467   -0.782921   -3.225380
     34          1           0        2.921707    0.033826   -3.565914
     35          6           0        2.846872   -1.197410    2.419099
     36          1           0        2.993969   -2.211349    2.049723
     37          1           0        3.684682   -1.004099    3.089990
     38          6           0       -1.547412   -1.141093   -3.232630
     39          1           0       -1.596116   -1.817283   -4.086202
     40          1           0       -0.688221   -1.439386   -2.635184
     41          1           0       -1.360970   -0.137112   -3.614256
     42          6           0       -1.358730    1.320763    2.843714
     43          1           0       -1.988979    2.130159    2.477644
     44          1           0       -1.055860    1.583849    3.857341
     45          1           0       -0.451009    1.278589    2.246242
     46          6           0        1.358603    1.320931   -2.843669
     47          1           0        1.988897    2.130235   -2.477641
     48          1           0        0.451013    1.278668   -2.246202
     49          1           0        1.055811    1.583964   -3.857302
     50          6           0        1.547545   -1.140997    3.232702
     51          1           0        1.360928   -0.137148    3.614257
     52          1           0        0.688377   -1.439328    2.635194
     53          1           0        1.596233   -1.817225    4.086187
     54          6           0       -1.405409   -3.225832    0.006190
     55          1           0       -2.484919   -3.234749    0.012806
     56          6           0       -0.703250   -4.445310    0.003338
     57          1           0       -1.244148   -5.380217    0.006496
     58          6           0        0.703556   -4.445287   -0.003412
     59          1           0        1.244482   -5.380201   -0.006590
     60          6           0        1.405666   -3.225716   -0.006228
     61          1           0        2.485180   -3.234666   -0.012781
     62         17           0        1.667095    3.066535    0.110435
     63         46           0       -0.000067    1.440065   -0.000031
 ---------------------------------------------------------------------
 Rotational constants (GHZ):      0.1644257      0.1473503      0.1186739
 General basis read from cards:  (6D, 7F)
 ======================================================================================================
                                       Pseudopotential Parameters
 ======================================================================================================
  Center     Atomic      Valence      Angular      Power
  Number     Number     Electrons     Momentum     of R      Exponent        Coefficient   SO-Coeffient
 ======================================================================================================
    1         17
                                   No pseudopotential on this center.
    2         15
                                   No pseudopotential on this center.
    3         15
                                   No pseudopotential on this center.
    4          6
                                   No pseudopotential on this center.
    5          6
                                   No pseudopotential on this center.
    6          6
                                   No pseudopotential on this center.
    7          1
                                   No pseudopotential on this center.
    8          6
                                   No pseudopotential on this center.
    9          1
                                   No pseudopotential on this center.
   10          6
                                   No pseudopotential on this center.
   11          1
                                   No pseudopotential on this center.
   12          6
                                   No pseudopotential on this center.
   13          1
                                   No pseudopotential on this center.
   14          6
                                   No pseudopotential on this center.
   15          1
                                   No pseudopotential on this center.
   16          1
                                   No pseudopotential on this center.
   17          6
                                   No pseudopotential on this center.
   18          1
                                   No pseudopotential on this center.
   19          1
                                   No pseudopotential on this center.
   20          6
                                   No pseudopotential on this center.
   21          1
                                   No pseudopotential on this center.
   22          1
                                   No pseudopotential on this center.
   23          6
                                   No pseudopotential on this center.
   24          1
                                   No pseudopotential on this center.
   25          1
                                   No pseudopotential on this center.
   26          6
                                   No pseudopotential on this center.
   27          1
                                   No pseudopotential on this center.
   28          1
                                   No pseudopotential on this center.
   29          6
                                   No pseudopotential on this center.
   30          1
                                   No pseudopotential on this center.
   31          1
                                   No pseudopotential on this center.
   32          6
                                   No pseudopotential on this center.
   33          1
                                   No pseudopotential on this center.
   34          1
                                   No pseudopotential on this center.
   35          6
                                   No pseudopotential on this center.
   36          1
                                   No pseudopotential on this center.
   37          1
                                   No pseudopotential on this center.
   38          6
                                   No pseudopotential on this center.
   39          1
                                   No pseudopotential on this center.
   40          1
                                   No pseudopotential on this center.
   41          1
                                   No pseudopotential on this center.
   42          6
                                   No pseudopotential on this center.
   43          1
                                   No pseudopotential on this center.
   44          1
                                   No pseudopotential on this center.
   45          1
                                   No pseudopotential on this center.
   46          6
                                   No pseudopotential on this center.
   47          1
                                   No pseudopotential on this center.
   48          1
                                   No pseudopotential on this center.
   49          1
                                   No pseudopotential on this center.
   50          6
                                   No pseudopotential on this center.
   51          1
                                   No pseudopotential on this center.
   52          1
                                   No pseudopotential on this center.
   53          1
                                   No pseudopotential on this center.
   54          6
                                   No pseudopotential on this center.
   55          1
                                   No pseudopotential on this center.
   56          6
                                   No pseudopotential on this center.
   57          1
                                   No pseudopotential on this center.
   58          6
                                   No pseudopotential on this center.
   59          1
                                   No pseudopotential on this center.
   60          6
                                   No pseudopotential on this center.
   61          1
                                   No pseudopotential on this center.
   62         17
                                   No pseudopotential on this center.
   63         46           18
                                      F and up 
                                                     0      598.3336444       -0.05631770    0.00000000
                                                     1      162.4298290      -20.12880360    0.00000000
                                                     2       51.5714771     -105.81979230    0.00000000
                                                     2       16.4888260      -42.57333450    0.00000000
                                                     2        5.8287656       -3.61650860    0.00000000
                                      S - F
                                                     0       73.3806304        3.00036510    0.00000000
                                                     1       14.7550438       32.43500930    0.00000000
                                                     2       17.8350204      459.08303830    0.00000000
                                                     2       12.7111477     -868.06290290    0.00000000
                                                     2        9.3292063      514.47260980    0.00000000
                                      P - F
                                                     0       55.6689877        4.95930990    0.00000000
                                                     1       64.2337771       21.17110290    0.00000000
                                                     2       17.6254952      605.05600920    0.00000000
                                                     2       11.9058155     -726.96418460    0.00000000
                                                     2        8.5100832      396.32748830    0.00000000
                                      D - F
                                                     0       49.9994728        3.05087450    0.00000000
                                                     1       39.7477547       22.25065800    0.00000000
                                                     2       11.4321366      674.83576980    0.00000000
                                                     2        9.1790080    -1040.85540480    0.00000000
                                                     2        7.5624429      505.93751470    0.00000000
 ======================================================================================================
 There are   502 symmetry adapted cartesian basis functions of A   symmetry.
 There are   502 symmetry adapted basis functions of A   symmetry.
   502 basis functions,  1017 primitive gaussians,   502 cartesian basis functions
   125 alpha electrons      125 beta electrons
       nuclear repulsion energy      4057.1629036521 Hartrees.
 NAtoms=   63 NActive=   63 NUniq=   63 SFac= 1.00D+00 NAtFMM=   60 NAOKFM=T Big=T
 Integral buffers will be    131072 words long.
 Raffenetti 2 integral format.
 Two-electron integral symmetry is turned on.
 Nuclear repulsion after empirical dispersion term =     4057.0484610057 Hartrees.
 Standard density basis: Auto (5D, 7F)
  2222 Density fitting functions
 There are  2222 symmetry adapted density basis functions of A   symmetry.
 One-electron integrals computed using PRISM.
   1 Symmetry operations used in ECPInt.
 ECPInt:  NShTT=   17766 NPrTT=  111805 LenC2=   15844 LenP2D=   56066.
 LDataN:  DoStor=T MaxTD1= 5 Len=  102
 NBasis=   502 RedAO= T EigKep=  5.10D-04  NBF=   502
 NBsUse=   502 1.00D-06 EigRej= -1.00D+00 NBFU=   502
 NBasis=      502 NBas6D=      502 NTT=      126253   NTT6D=   126253
 NDBShl=      478 NDBF=       2222 NDBF6D=     2624  NNucDB=        0
 IDenFi=        2 ISolve=        0 FullAP=F BlkAPC=T NucTyp=        0
 TolInv= 1.00D-06 TolIt=  1.00D-10 IR12=0.
 FoFCou: FMM=F IPFlag=           0 FMFlag=           0 FMFlg1=           0
         NFxFlg=           0 DoJE=F BraDBF=T KetDBF=T FulRan=T
         wScrn=  0.000000 ICntrl=     600 IOpCl=  3 I1Cent=           6 NGrid=           0
         NMat0=    1 NMatS0=   2624 NMatT0=    0 NMatD0=    1 NMtDS0=    0 NMtDT0=    0
 Petite list used in FoFCou.
 DBF EigKep=  3.76D-06 EigRej=  7.75D-07
 NDBF=   2222  NBFD=  2222
 NRank=  2221 NBFDU=  2221
 S*AI*S=  11.0597037332    
 Defaulting to unpruned grid for atomic number  46.
 ExpMin= 2.62D-02 ExpMax= 2.52D+04 ExpMxC= 3.78D+03 IAcc=3 IRadAn=         5 AccDes= 0.00D+00
 Harris functional with IExCor= 1009 and IRadAn=       5 diagonalized for initial guess.
 HarFok:  IExCor= 1009 AccDes= 0.00D+00 IRadAn=         5 IDoV= 1 UseB2=F ITyADJ=14
 ICtDFT=  3500011 ScaDFX=  1.000000  1.000000  1.000000  1.000000
 Defaulting to unpruned grid for atomic number  46.
 Defaulting to unpruned grid for atomic number  46.
 Defaulting to unpruned grid for atomic number  46.
 Defaulting to unpruned grid for atomic number  46.
 Defaulting to unpruned grid for atomic number  46.
 Defaulting to unpruned grid for atomic number  46.
 Defaulting to unpruned grid for atomic number  46.
 Defaulting to unpruned grid for atomic number  46.
 Defaulting to unpruned grid for atomic number  46.
 Defaulting to unpruned grid for atomic number  46.
 Defaulting to unpruned grid for atomic number  46.
 Defaulting to unpruned grid for atomic number  46.
 Defaulting to unpruned grid for atomic number  46.
 Defaulting to unpruned grid for atomic number  46.
 FoFCou: FMM=F IPFlag=           0 FMFlag=      100000 FMFlg1=        2001
         NFxFlg=           0 DoJE=T BraDBF=F KetDBF=T FulRan=T
         wScrn=  0.000000 ICntrl=     500 IOpCl=  0 I1Cent=   200000004 NGrid=           0
         NMat0=    1 NMatS0=      1 NMatT0=    0 NMatD0=    1 NMtDS0=    0 NMtDT0=    0
 Petite list used in FoFCou.
 Requested convergence on RMS density matrix=1.00D-08 within 500 cycles.
 Requested convergence on MAX density matrix=1.00D-06.
 Requested convergence on             energy=1.00D-06.
 No special actions if energy rises.
 FoFCou: FMM=F IPFlag=           0 FMFlag=      100000 FMFlg1=        2001
         NFxFlg=           0 DoJE=T BraDBF=T KetDBF=F FulRan=T
         wScrn=  0.000000 ICntrl=     500 IOpCl=  0 I1Cent=           5 NGrid=           0
         NMat0=    1 NMatS0=      1 NMatT0=    0 NMatD0=    1 NMtDS0=    0 NMtDT0=    0
 Symmetry not used in FoFCou.
 Defaulting to unpruned grid for atomic number  46.
 Defaulting to unpruned grid for atomic number  46.
 Defaulting to unpruned grid for atomic number  46.
 Defaulting to unpruned grid for atomic number  46.
 Defaulting to unpruned grid for atomic number  46.
 Defaulting to unpruned grid for atomic number  46.
 Defaulting to unpruned grid for atomic number  46.
 Defaulting to unpruned grid for atomic number  46.
 Defaulting to unpruned grid for atomic number  46.
 Defaulting to unpruned grid for atomic number  46.
 Defaulting to unpruned grid for atomic number  46.
 Defaulting to unpruned grid for atomic number  46.
 Defaulting to unpruned grid for atomic number  46.
 Defaulting to unpruned grid for atomic number  46.
 EnCoef did     6 forward-backward iterations
 EnCoef did   100 forward-backward iterations
 Problem detected with inexpensive integrals.
 Switching to full accuracy and repeating last cycle.
 EnCoef did     3 forward-backward iterations
 EnCoef did     2 forward-backward iterations
 EnCoef did     2 forward-backward iterations
 EnCoef did     3 forward-backward iterations
 EnCoef did     2 forward-backward iterations
 Restarting incremental Fock formation.
 SCF Done:  E(RPBE-PBE) =  -2588.19410063     A.U. after   27 cycles
            NFock= 27  Conv=0.88D-08     -V/T= 2.0379

 **********************************************************************

            Population analysis using the SCF density.

 **********************************************************************

 Orbital symmetries:
       Occupied  (A) (A) (A) (A) (A) (A) (A) (A) (A) (A) (A) (A)
                 (A) (A) (A) (A) (A) (A) (A) (A) (A) (A) (A) (A)
                 (A) (A) (A) (A) (A) (A) (A) (A) (A) (A) (A) (A)
                 (A) (A) (A) (A) (A) (A) (A) (A) (A) (A) (A) (A)
                 (A) (A) (A) (A) (A) (A) (A) (A) (A) (A) (A) (A)
                 (A) (A) (A) (A) (A) (A) (A) (A) (A) (A) (A) (A)
                 (A) (A) (A) (A) (A) (A) (A) (A) (A) (A) (A) (A)
                 (A) (A) (A) (A) (A) (A) (A) (A) (A) (A) (A) (A)
                 (A) (A) (A) (A) (A) (A) (A) (A) (A) (A) (A) (A)
                 (A) (A) (A) (A) (A) (A) (A) (A) (A) (A) (A) (A)
                 (A) (A) (A) (A) (A)
       Virtual   (A) (A) (A) (A) (A) (A) (A) (A) (A) (A) (A) (A)
                 (A) (A) (A) (A) (A) (A) (A) (A) (A) (A) (A) (A)
                 (A) (A) (A) (A) (A) (A) (A) (A) (A) (A) (A) (A)
                 (A) (A) (A) (A) (A) (A) (A) (A) (A) (A) (A) (A)
                 (A) (A) (A) (A) (A) (A) (A) (A) (A) (A) (A) (A)
                 (A) (A) (A) (A) (A) (A) (A) (A) (A) (A) (A) (A)
                 (A) (A) (A) (A) (A) (A) (A) (A) (A) (A) (A) (A)
                 (A) (A) (A) (A) (A) (A) (A) (A) (A) (A) (A) (A)
                 (A) (A) (A) (A) (A) (A) (A) (A) (A) (A) (A) (A)
                 (A) (A) (A) (A) (A) (A) (A) (A) (A) (A) (A) (A)
                 (A) (A) (A) (A) (A) (A) (A) (A) (A) (A) (A) (A)
                 (A) (A) (A) (A) (A) (A) (A) (A) (A) (A) (A) (A)
                 (A) (A) (A) (A) (A) (A) (A) (A) (A) (A) (A) (A)
                 (A) (A) (A) (A) (A) (A) (A) (A) (A) (A) (A) (A)
                 (A) (A) (A) (A) (A) (A) (A) (A) (A) (A) (A) (A)
                 (A) (A) (A) (A) (A) (A) (A) (A) (A) (A) (A) (A)
                 (A) (A) (A) (A) (A) (A) (A) (A) (A) (A) (A) (A)
                 (A) (A) (A) (A) (A) (A) (A) (A) (A) (A) (A) (A)
                 (A) (A) (A) (A) (A) (A) (A) (A) (A) (A) (A) (A)
                 (A) (A) (A) (A) (A) (A) (A) (A) (A) (A) (A) (A)
                 (A) (A) (A) (A) (A) (A) (A) (A) (A) (A) (A) (A)
                 (A) (A) (A) (A) (A) (A) (A) (A) (A) (A) (A) (A)
                 (A) (A) (A) (A) (A) (A) (A) (A) (A) (A) (A) (A)
                 (A) (A) (A) (A) (A) (A) (A) (A) (A) (A) (A) (A)
                 (A) (A) (A) (A) (A) (A) (A) (A) (A) (A) (A) (A)
                 (A) (A) (A) (A) (A) (A) (A) (A) (A) (A) (A) (A)
                 (A) (A) (A) (A) (A) (A) (A) (A) (A) (A) (A) (A)
                 (A) (A) (A) (A) (A) (A) (A) (A) (A) (A) (A) (A)
                 (A) (A) (A) (A) (A) (A) (A) (A) (A) (A) (A) (A)
                 (A) (A) (A) (A) (A) (A) (A) (A) (A) (A) (A) (A)
                 (A) (A) (A) (A) (A) (A) (A) (A) (A) (A) (A) (A)
                 (A) (A) (A) (A) (A)
 The electronic state is 1-A.
 Alpha  occ. eigenvalues -- -100.58716-100.58716 -76.36875 -76.36875  -9.94994
 Alpha  occ. eigenvalues --   -9.94963  -9.94097  -9.94096  -9.93891  -9.93857
 Alpha  occ. eigenvalues --   -9.92221  -9.92220  -9.92219  -9.92219  -9.91111
 Alpha  occ. eigenvalues --   -9.91111  -9.90830  -9.90830  -9.90141  -9.90141
 Alpha  occ. eigenvalues --   -9.89856  -9.89855  -9.89083  -9.89082  -9.86234
 Alpha  occ. eigenvalues --   -9.86233  -9.08257  -9.08256  -6.90556  -6.90555
 Alpha  occ. eigenvalues --   -6.89859  -6.89859  -6.89827  -6.89826  -6.34958
 Alpha  occ. eigenvalues --   -6.34957  -4.56812  -4.56811  -4.56653  -4.56652
 Alpha  occ. eigenvalues --   -4.56461  -4.56461  -3.19584  -1.96496  -1.96225
 Alpha  occ. eigenvalues --   -1.92620  -0.80815  -0.77617  -0.77454  -0.72446
 Alpha  occ. eigenvalues --   -0.72327  -0.71121  -0.70784  -0.68729  -0.68529
 Alpha  occ. eigenvalues --   -0.64304  -0.63814  -0.63435  -0.63364  -0.63031
 Alpha  occ. eigenvalues --   -0.62283  -0.58525  -0.57679  -0.56187  -0.55457
 Alpha  occ. eigenvalues --   -0.54808  -0.54687  -0.52144  -0.51405  -0.49983
 Alpha  occ. eigenvalues --   -0.47986  -0.46208  -0.44428  -0.44311  -0.43665
 Alpha  occ. eigenvalues --   -0.43213  -0.42457  -0.41715  -0.40809  -0.40339
 Alpha  occ. eigenvalues --   -0.39507  -0.39299  -0.38935  -0.38611  -0.37924
 Alpha  occ. eigenvalues --   -0.37368  -0.37029  -0.36797  -0.35942  -0.35003
 Alpha  occ. eigenvalues --   -0.34835  -0.33730  -0.33664  -0.33108  -0.32310
 Alpha  occ. eigenvalues --   -0.32141  -0.32091  -0.31694  -0.31271  -0.31105
 Alpha  occ. eigenvalues --   -0.30807  -0.30072  -0.29614  -0.29583  -0.29423
 Alpha  occ. eigenvalues --   -0.29267  -0.29213  -0.28770  -0.28690  -0.28464
 Alpha  occ. eigenvalues --   -0.28419  -0.27671  -0.27604  -0.26461  -0.25342
 Alpha  occ. eigenvalues --   -0.24879  -0.23875  -0.23775  -0.23022  -0.22617
 Alpha  occ. eigenvalues --   -0.18151  -0.17719  -0.17472  -0.17303  -0.16991
 Alpha virt. eigenvalues --   -0.08560  -0.08134  -0.07869  -0.01201  -0.00765
 Alpha virt. eigenvalues --    0.02496   0.02932   0.03105   0.03368   0.03753
 Alpha virt. eigenvalues --    0.04223   0.04428   0.05520   0.06326   0.07149
 Alpha virt. eigenvalues --    0.07686   0.08301   0.08915   0.09483   0.09916
 Alpha virt. eigenvalues --    0.10230   0.11092   0.11206   0.11593   0.12091
 Alpha virt. eigenvalues --    0.12227   0.12660   0.12764   0.13082   0.13340
 Alpha virt. eigenvalues --    0.13508   0.13918   0.14240   0.14494   0.15071
 Alpha virt. eigenvalues --    0.15163   0.15257   0.15271   0.15677   0.16158
 Alpha virt. eigenvalues --    0.16454   0.16532   0.17428   0.17663   0.18045
 Alpha virt. eigenvalues --    0.18207   0.18299   0.18457   0.18993   0.19593
 Alpha virt. eigenvalues --    0.19973   0.20414   0.20995   0.21247   0.21500
 Alpha virt. eigenvalues --    0.21701   0.22139   0.22229   0.22822   0.22825
 Alpha virt. eigenvalues --    0.23427   0.24271   0.24997   0.25270   0.25812
 Alpha virt. eigenvalues --    0.26490   0.27175   0.27750   0.29210   0.29626
 Alpha virt. eigenvalues --    0.32770   0.33132   0.35548   0.37480   0.38478
 Alpha virt. eigenvalues --    0.38544   0.39065   0.39850   0.41417   0.43613
 Alpha virt. eigenvalues --    0.43720   0.44422   0.45003   0.45510   0.46491
 Alpha virt. eigenvalues --    0.46913   0.47578   0.47830   0.48071   0.49039
 Alpha virt. eigenvalues --    0.49175   0.50013   0.50146   0.50703   0.51803
 Alpha virt. eigenvalues --    0.52214   0.53226   0.53552   0.54135   0.54560
 Alpha virt. eigenvalues --    0.55455   0.55656   0.55791   0.56203   0.56643
 Alpha virt. eigenvalues --    0.56955   0.57100   0.57500   0.57718   0.57999
 Alpha virt. eigenvalues --    0.58513   0.58964   0.59237   0.59739   0.60159
 Alpha virt. eigenvalues --    0.61236   0.61668   0.61835   0.62864   0.63842
 Alpha virt. eigenvalues --    0.63957   0.64223   0.64916   0.65047   0.65624
 Alpha virt. eigenvalues --    0.67076   0.67393   0.67880   0.68255   0.68670
 Alpha virt. eigenvalues --    0.69857   0.70023   0.70512   0.71529   0.72704
 Alpha virt. eigenvalues --    0.73492   0.74033   0.75208   0.75463   0.75575
 Alpha virt. eigenvalues --    0.76049   0.76884   0.77666   0.78635   0.78899
 Alpha virt. eigenvalues --    0.79480   0.80550   0.80564   0.81550   0.81576
 Alpha virt. eigenvalues --    0.82207   0.82386   0.83159   0.83717   0.84185
 Alpha virt. eigenvalues --    0.84326   0.84349   0.84957   0.85006   0.85580
 Alpha virt. eigenvalues --    0.85662   0.85764   0.86323   0.86565   0.87521
 Alpha virt. eigenvalues --    0.87604   0.87789   0.87842   0.88072   0.88571
 Alpha virt. eigenvalues --    0.89029   0.90059   0.90151   0.90644   0.90836
 Alpha virt. eigenvalues --    0.91674   0.91978   0.92235   0.92290   0.93065
 Alpha virt. eigenvalues --    0.93336   0.94119   0.94617   0.94760   0.95218
 Alpha virt. eigenvalues --    0.95779   0.95865   0.96229   0.96683   0.97089
 Alpha virt. eigenvalues --    0.97586   0.97859   0.99788   1.00526   1.01265
 Alpha virt. eigenvalues --    1.01521   1.03269   1.03383   1.03656   1.04518
 Alpha virt. eigenvalues --    1.05103   1.05870   1.06554   1.07409   1.09610
 Alpha virt. eigenvalues --    1.09744   1.10828   1.12158   1.13302   1.13441
 Alpha virt. eigenvalues --    1.16438   1.16471   1.16815   1.18183   1.19314
 Alpha virt. eigenvalues --    1.19969   1.21328   1.23395   1.24897   1.25530
 Alpha virt. eigenvalues --    1.25679   1.28492   1.31058   1.32165   1.33704
 Alpha virt. eigenvalues --    1.33948   1.35199   1.35950   1.36710   1.38006
 Alpha virt. eigenvalues --    1.38642   1.39718   1.40991   1.41231   1.43750
 Alpha virt. eigenvalues --    1.45473   1.46320   1.46907   1.48417   1.50575
 Alpha virt. eigenvalues --    1.51306   1.51953   1.54654   1.55438   1.57316
 Alpha virt. eigenvalues --    1.59160   1.60709   1.60737   1.64743   1.65048
 Alpha virt. eigenvalues --    1.66102   1.67065   1.67759   1.68158   1.70026
 Alpha virt. eigenvalues --    1.70872   1.73759   1.74180   1.74464   1.76744
 Alpha virt. eigenvalues --    1.77418   1.77632   1.78989   1.80768   1.81463
 Alpha virt. eigenvalues --    1.81948   1.82062   1.82700   1.84363   1.85216
 Alpha virt. eigenvalues --    1.85594   1.86840   1.88449   1.88919   1.90718
 Alpha virt. eigenvalues --    1.91287   1.91576   1.92427   1.93267   1.93467
 Alpha virt. eigenvalues --    1.94963   1.95238   1.96140   1.96325   1.97166
 Alpha virt. eigenvalues --    1.97280   1.98289   1.98308   2.00618   2.02182
 Alpha virt. eigenvalues --    2.03717   2.04434   2.05013   2.05807   2.06906
 Alpha virt. eigenvalues --    2.07046   2.08546   2.09006   2.12642   2.14424
 Alpha virt. eigenvalues --    2.15027   2.17056   2.18414   2.18471   2.19092
 Alpha virt. eigenvalues --    2.19236   2.20133   2.20580   2.21488   2.22269
 Alpha virt. eigenvalues --    2.24912   2.24985   2.26375   2.28809   2.28866
 Alpha virt. eigenvalues --    2.29523   2.30822   2.31079   2.31638   2.32526
 Alpha virt. eigenvalues --    2.33067   2.33843   2.34305   2.35873   2.37207
 Alpha virt. eigenvalues --    2.37857   2.44970   2.47713   2.48742   2.49677
 Alpha virt. eigenvalues --    2.50633   2.51751   2.51815   2.54043   2.56377
 Alpha virt. eigenvalues --    2.56800   2.57465   2.57678   2.58509   2.62239
 Alpha virt. eigenvalues --    2.63221   2.65690   2.65707   2.66900   2.69477
 Alpha virt. eigenvalues --    2.70162   2.74034   2.75462   2.94937   3.20503
 Alpha virt. eigenvalues --    3.45926   3.52893   3.97695   4.04017   4.07413
 Alpha virt. eigenvalues --    4.09306   4.11136   4.11350   4.15131   4.18441
 Alpha virt. eigenvalues --    4.18448   4.23659   4.25702   4.25720   4.30775
 Alpha virt. eigenvalues --    4.32594   4.32817   4.35960   4.37934   4.42205
 Alpha virt. eigenvalues --    4.42507   4.49423   4.51120   4.52665   4.53993
 Alpha virt. eigenvalues --    4.58636  32.42161
          Condensed to atoms (all electrons):
 Mulliken charges:
               1
     1  Cl  -0.262811
     2  P    0.689962
     3  P    0.689985
     4  C   -0.103686
     5  C   -0.103664
     6  C   -0.317753
     7  H    0.250632
     8  C   -0.304066
     9  H    0.176465
    10  C   -0.304061
    11  H    0.176457
    12  C   -0.317763
    13  H    0.250629
    14  C   -0.309403
    15  H    0.179092
    16  H    0.148794
    17  C   -0.343732
    18  H    0.162438
    19  H    0.221848
    20  C   -0.343740
    21  H    0.162444
    22  H    0.221843
    23  C   -0.309409
    24  H    0.179087
    25  H    0.148791
    26  C   -0.308866
    27  H    0.151940
    28  H    0.169773
    29  C   -0.310047
    30  H    0.161374
    31  H    0.161918
    32  C   -0.310079
    33  H    0.161370
    34  H    0.161943
    35  C   -0.308867
    36  H    0.151976
    37  H    0.169758
    38  C   -0.511581
    39  H    0.163253
    40  H    0.183302
    41  H    0.191611
    42  C   -0.513819
    43  H    0.212619
    44  H    0.157901
    45  H    0.260439
    46  C   -0.513828
    47  H    0.212621
    48  H    0.260473
    49  H    0.157899
    50  C   -0.511600
    51  H    0.191638
    52  H    0.183287
    53  H    0.163260
    54  C   -0.162798
    55  H    0.156993
    56  C   -0.135804
    57  H    0.159125
    58  C   -0.135795
    59  H    0.159129
    60  C   -0.162836
    61  H    0.156994
    62  Cl  -0.262815
    63  Pd  -0.750239
 Sum of Mulliken charges =  -0.00000
 Mulliken charges with hydrogens summed into heavy atoms:
               1
     1  Cl  -0.262811
     2  P    0.689962
     3  P    0.689985
     4  C   -0.103686
     5  C   -0.103664
     6  C   -0.067121
     8  C   -0.127601
    10  C   -0.127603
    12  C   -0.067135
    14  C    0.018483
    17  C    0.040553
    20  C    0.040547
    23  C    0.018470
    26  C    0.012847
    29  C    0.013245
    32  C    0.013234
    35  C    0.012867
    38  C    0.026585
    42  C    0.117139
    46  C    0.117165
    50  C    0.026584
    54  C   -0.005805
    56  C    0.023321
    58  C    0.023334
    60  C   -0.005842
    62  Cl  -0.262815
    63  Pd  -0.750239
 Electronic spatial extent (au):  <R**2>=          10922.3063
 Charge=             -0.0000 electrons
 Dipole moment (field-independent basis, Debye):
    X=              0.0004    Y=            -13.0161    Z=             -0.0001  Tot=             13.0161
 Quadrupole moment (field-independent basis, Debye-Ang):
   XX=           -186.3013   YY=           -226.5889   ZZ=           -201.0298
   XY=              0.0008   XZ=             -0.0262   YZ=             -0.0004
 Traceless Quadrupole moment (field-independent basis, Debye-Ang):
   XX=             18.3387   YY=            -21.9489   ZZ=              3.6102
   XY=              0.0008   XZ=             -0.0262   YZ=             -0.0004
 Octapole moment (field-independent basis, Debye-Ang**2):
  XXX=              0.0017  YYY=            -98.7144  ZZZ=             -0.0046  XYY=              0.0029
  XXY=             -9.2052  XXZ=             -0.0049  XZZ=             -0.0006  YZZ=             37.1473
  YYZ=             -0.0004  XYZ=             -3.3826
 Hexadecapole moment (field-independent basis, Debye-Ang**3):
 XXXX=          -6146.8973 YYYY=          -4830.5561 ZZZZ=          -3402.8247 XXXY=              0.0019
 XXXZ=              1.1005 YYYX=             -0.0196 YYYZ=             -0.0046 ZZZX=             21.3267
 ZZZY=             -0.0055 XXYY=          -1910.2346 XXZZ=          -1584.3592 YYZZ=          -1443.9475
 XXYZ=             -0.0072 YYXZ=            -10.1572 ZZXY=              0.0025
 N-N= 4.057048461006D+03 E-N=-1.418072723863D+04  KE= 2.493581745181D+03
   1 Symmetry operations used in ECPInt.
 ECPInt:  NShTT=   17766 NPrTT=  111805 LenC2=   15844 LenP2D=   56066.
 LDataN:  DoStor=T MaxTD1= 6 Len=  172
 Calling FoFJK, ICntrl=      2527 FMM=T ISym2X=0 I1Cent= 4 IOpClX= 0 NMat=1 NMatS=1 NMatT=0.
 Defaulting to unpruned grid for atomic number  46.
 Defaulting to unpruned grid for atomic number  46.
 Defaulting to unpruned grid for atomic number  46.
 Defaulting to unpruned grid for atomic number  46.
 Defaulting to unpruned grid for atomic number  46.
 Defaulting to unpruned grid for atomic number  46.
 Defaulting to unpruned grid for atomic number  46.
 Defaulting to unpruned grid for atomic number  46.
 Defaulting to unpruned grid for atomic number  46.
 Defaulting to unpruned grid for atomic number  46.
 Defaulting to unpruned grid for atomic number  46.
 Defaulting to unpruned grid for atomic number  46.
 Defaulting to unpruned grid for atomic number  46.
 Defaulting to unpruned grid for atomic number  46.
 ***** Axes restored to original set *****
 -------------------------------------------------------------------
 Center     Atomic                   Forces (Hartrees/Bohr)
 Number     Number              X              Y              Z
 -------------------------------------------------------------------
      1       17          -0.009079206   -0.004779119    0.004264336
      2       15           0.041846613   -0.003951264    0.001577788
      3       15          -0.038830219   -0.015460617    0.004674519
      4        6          -0.000418545   -0.004700464    0.005376619
      5        6           0.002170795   -0.006527129   -0.001731085
      6        6          -0.015183307    0.011622549    0.004463750
      7        1           0.008875701   -0.008097520    0.002788745
      8        6          -0.006476832   -0.015237290   -0.007417425
      9        1          -0.001450667    0.012668948   -0.001541941
     10        6           0.009765550   -0.005658784    0.014193646
     11        1          -0.002243478    0.011028606   -0.006132936
     12        6           0.011684713    0.010570628   -0.011674171
     13        1          -0.006018541   -0.010277599    0.003154913
     14        6           0.000583190   -0.002588312   -0.008082883
     15        1          -0.004553424   -0.004723727    0.005562647
     16        1          -0.004704230    0.010387564   -0.002887483
     17        6          -0.000962722   -0.001283358    0.009290646
     18        1          -0.006292047    0.000382356   -0.006863240
     19        1           0.004114603   -0.008401020    0.003407425
     20        6           0.002098566   -0.006093494   -0.006949219
     21        1           0.005308062    0.005973087    0.004816212
     22        1          -0.001326961   -0.009571650    0.002410110
     23        6          -0.000511148    0.002485190    0.008141687
     24        1           0.006140521   -0.005574829   -0.002219353
     25        1           0.001390929    0.010967891   -0.004016251
     26        6           0.010843905   -0.003274355    0.001524046
     27        1          -0.002463580    0.007487107   -0.007774408
     28        1          -0.008705035   -0.003634665    0.004899796
     29        6           0.008985833   -0.002780266    0.007443721
     30        1           0.005142938    0.008419025   -0.005181081
     31        1          -0.009727480   -0.002407349   -0.004511143
     32        6          -0.007273947   -0.008964012   -0.003691380
     33        1          -0.007696013    0.008052843   -0.000147410
     34        1           0.009623435    0.003416574    0.004236985
     35        6          -0.009308558   -0.006510162    0.001599301
     36        1          -0.000396109    0.010999480    0.001823795
     37        1           0.009736642   -0.003210299   -0.002663614
     38        6          -0.007368987   -0.002640003   -0.002895865
     39        1          -0.002358711    0.007017984    0.004713524
     40        1           0.007548551    0.001455353   -0.005877812
     41        1           0.002619842   -0.006891623    0.004796999
     42        6          -0.012296600    0.001164179   -0.010438347
     43        1          -0.000822190   -0.004648217    0.007300771
[...]
 -0.00274772,-0.00238462,0.00006763,-0.00039475,0.00006253,-0.00012939,
 0.00001992,0.00007339,-0.00000025,-0.00029996,0.00017758,0.00005441,0.
 00004454,0.00003330,0.00019113,-0.00033587,-0.00011997,0.00017957,0.00
 018467,0.00060333,0.00010644,0.00004102,0.00018413,0.00000906,0.000015
 43,0.00001322,0.00000130,-0.00003714,0.00001289,-0.00002559,0.00000213
 ,-0.00001334,-0.00000066,0.00000396,-0.00000799,-0.00006558,0.00000018
 ,-0.00010089,-0.00004243,-0.00002320,0.00000769,-0.00000751,0.00000384
 ,-0.00000012,0.00003751,0.00017830,0.00005500,-0.00001098,-0.00002682,
 -0.00003078,-0.00005223,0.00000292,-0.00005413,0.00001098,-0.00053733,
 0.00009328,0.00005144,0.00018536,-0.00002124,0.00031702,0.00034103,-0.
 00003496,0.00004242,-0.00006516,-0.00005147,0.00001442,0.00001543,-0.0
 0001155,-0.00000193,0.00000904,0.00000789,-0.00008524,0.00000954,0.000
 00162,0.00000084,0.00001116,-0.00000776,0.00001879,-0.00001769,-0.0000
 2510,-0.00006844,0.00020834,0.00007673,0.00002167,-0.00001153,-0.00002
 529,-0.00000515,-0.00000503,-0.00004902,0.00006493,-0.00042688,-0.0000
 5777,0.00023765,-0.00003678,-0.00068177,-0.00003290,0.00014780,0.00001
 917,-0.00000700,0.00001084,0.00000917,0.00000406,0.00000258,0.00000936
 ,-0.00001027,0.00001500,-0.00003712,-0.00001263,-0.00000940,0.00000624
 ,-0.00000939,0.00000821,-0.00001966,0.00000431,0.00000203,0.00000082,0
 .00000346,-0.00001372,-0.00000472,0.00000510,0.00000153,0.00001783,0.0
 0001174,-0.00006801,-0.00010644,-0.00000037,-0.00000482,0.00001395,-0.
 00000113,0.00000127,0.00000988,0.00001079,0.00004627,-0.00003001,-0.00
 015487,0.00008550,-0.00003305,0.00005963,0.00003881,0.00003310,0.00002
 436,-0.00001711,-0.00000688,0.00002865,0.00001072,0.00003381,0.0001945
 5,-0.00103605,0.00017461,0.00001747,0.00006934,-0.00043719,0.00213698,
 -0.00255837,0.00320170,0.00119100,0.00027949,0.00009122,0.02289792,0.0
 0739311,0.00166214,-0.00017101,0.00045933,-0.00128962,-0.04908957,-0.0
 6104857,0.00207464,0.05249388,0.06372859,-0.00006677,-0.00005272,0.000
 00214,0.00020568,-0.00015269,0.00045245,0.00045001,-0.00031849,-0.0019
 0163,-0.00015229,0.00301269,0.00555816,0.00709474,0.00018960,0.0011919
 4,-0.00008725,0.00002082,0.00006504,0.00002658,-0.00001179,-0.00000087
 ,0.00017365,0.00022481,0.00007914,-0.00002683,0.00008486,-0.00004667,0
 .00017897,0.00131389,0.00018256,-0.00066464,0.00005230,-0.00109970,0.0
 0004433,-0.00022188,0.00051370,0.00017617,0.00002049,-0.00015464,0.000
 00400,0.00001109,0.00000511,0.00000215,-0.00000252,-0.00000449,-0.0000
 0125,0.00000024,0.00000020,-0.00000225,0.00002308,0.00003308,0.0000136
 3,0.00001055,-0.00000524,0.00000880,0.00000851,0.00000134,-0.00027028,
 -0.00036225,-0.00000474,-0.00006986,0.00002774,0.00000573,0.00017099,-
 0.00005072,-0.00003079,0.00012456,-0.00003315,-0.00008403,0.00003378,-
 0.00003631,0.00001528,0.00002349,0.00000265,0.00011152,0.00001150,-0.0
 0007969,0.00001759,-0.00000421,0.00002141,-0.00003779,-0.00000865,0.00
 000140,-0.00000808,0.00000541,-0.00000797,-0.00001221,-0.00000157,0.00
 001224,-0.00000428,0.00000247,0.00000499,0.00000066,0.00005562,-0.0002
 6949,-0.00008852,0.00003549,0.00002590,-0.00001688,0.00000862,0.000001
 83,-0.00001686,0.00001154,-0.00038783,0.00005594,0.00040758,-0.0005250
 2,-0.00084101,-0.00003918,0.00010072,-0.00001673,0.00000585,0.00000047
 ,-0.00001574,0.00000482,-0.00000411,-0.00000717,-0.00000291,0.00000550
 ,0.00001521,0.00000394,0.00000292,-0.00000540,0.00001352,-0.00000274,0
 .00000342,0.00000705,0.00000482,0.00000247,-0.00000864,-0.00000449,-0.
 00001102,-0.00000580,-0.00000196,0.00001114,0.00000362,0.00004902,0.00
 008699,0.00000253,-0.00001400,0.00000375,-0.00001156,-0.00001464,0.000
 00043,-0.00001844,-0.00004284,0.00001545,-0.00019840,0.00015466,-0.000
 11836,0.00008671,0.00005192,0.00002870,0.00005583,-0.00006187,-0.00002
 506,-0.00000600,-0.00001883,-0.00002584,-0.00001292,0.00020322,-0.0007
 0350,0.00016292,-0.00042810,-0.00120819,-0.00160826,0.00339368,0.00580
 082,-0.00050090,-0.00011338,0.00006793,-0.00927684,-0.00215544,0.00261
 446,0.00063331,-0.00126979,-0.00324369,-0.02120069,0.00286595,-0.03615
 868,0.02397546,-0.00535654,0.02900464,-0.00293862,-0.00026098,0.000361
 59,-0.00245471,0.00181730,0.00066646,-0.00364658,0.00226349,-0.0003567
 1,-0.00238764,0.00002737,-0.00042597,0.00042977,0.00027102,-0.00012091
 ,-0.00053907,0.00114655,-0.00157345,0.00025906,-0.00012516,-0.00015042
 ,-0.00032054,0.00159067,0.00015623,-0.00049407,-0.00035029,-0.00051213
 ,-0.00044609,0.00039305,-0.00112471,0.00049877,-0.00014633,0.00031076,
 -0.00009147,0.00016736,0.00282131,-0.00008168,-0.00055637,-0.00074733,
 -0.00019160,-0.00003990,0.00073074,-0.00028868,-0.00006190,-0.00011609
 ,-0.00005091,0.00004788,-0.00007712,-0.00001577,0.00010991,-0.00012451
 ,-0.00017606,-0.00005980,-0.00002734,0.00005151,0.00006486,0.00008557,
 -0.00093270,0.00019844,-0.00077406,0.00017650,-0.00083203,0.00010988,0
 .00051156,-0.00038076,0.00073530,0.00060112,-0.00019943,-0.00076308,0.
 00038470,0.00033535,-0.00002822,-0.00002955,-0.00029767,0.00021323,-0.
 00047519,-0.00046644,-0.00003753,0.00001918,0.00006559,0.00001039,-0.0
 0003423,0.00020450,0.00023013,-0.00022985,-0.00002132,0.00036899,0.000
 04600,0.00005336,-0.00004396,-0.00000161,-0.00003819,-0.00016553,0.000
 26776,-0.00003093,0.00035885,0.00005607,-0.00021667,-0.00009633,0.0000
 3094,0.00017618,0.00000335,0.00027791,-0.00073349,-0.00044237,-0.00003
 457,-0.00026062,0.00042465,0.00007951,0.00005799,-0.00013575,0.0000191
 1,0.00009611,0.00000954,-0.00001989,0.00008082,0.00009066,-0.00001639,
 -0.00004191,-0.00005890,-0.00000393,-0.00004773,-0.00005541,0.00036998
 ,0.00001631,0.00003962,0.00000577,0.00006319,0.00005769,-0.00007253,-0
 .00012960,-0.00022151,-0.00035956,0.00012300,0.00016873,-0.00161112,0.
 00005662,-0.00008581,0.00034833,-0.00001051,0.00041546,0.00071481,0.00
 052674,0.00055325,0.00045394,0.00003772,0.00008235,-0.00026019,0.00008
 919,0.00010307,-0.00011808,0.00000111,-0.00003264,0.00016979,-0.000137
 40,-0.00005053,0.00011133,0.00001006,0.00004664,0.00100485,0.00076537,
 -0.00012718,0.00007222,-0.00015688,0.00002187,-0.00020144,0.00006529,-
 0.00002683,0.00004542,0.00014961,-0.00001827,0.00008725,0.00012417,-0.
 00003924,0.00002815,0.00003176,-0.00000327,0.00003412,-0.00001312,0.00
 002508,0.00008455,0.00014988,-0.00000242,0.05550792,-0.00160133,0.0036
 8984,-0.00140108,0.00321371,0.00241964,0.00050505,0.00150664,-0.003683
 10,0.00138976,0.00030339,0.00032496,-0.00003857,0.00002590,-0.00046574
 ,0.00017520,0.00036692,-0.00069720,0.00092974,-0.00019334,0.00001214,0
 .00009818,0.00046678,-0.00162813,-0.00028447,0.00044284,0.00031484,0.0
 0049774,0.00013847,0.00116809,-0.00002333,0.00019398,0.00010680,0.0001
 6182,0.00015895,-0.00075970,0.00189717,-0.00006321,-0.00190106,0.00043
 321,0.00012992,0.00003931,-0.00040713,0.00019534,0.00002550,0.00006635
 ,0.00003408,-0.00001452,0.00005075,-0.00000308,-0.00009383,0.00012461,
 0.00014853,0.00006926,0.00000071,-0.00000250,-0.00001638,-0.00005763,-
 0.00150305,-0.00078472,-0.00082483,-0.00012015,-0.00064473,0.00011005,
 0.00003396,-0.00186560,0.00009196,0.00033046,0.00003662,-0.00021346,-0
 .00009638,0.00001123,0.00003865,-0.00006440,-0.00004909,0.00008653,0.0
 0033131,0.00030128,-0.00001381,-0.00001664,-0.00003094,0.00000827,0.00
 003817,-0.00013830,-0.00013808,0.00008415,-0.00014003,-0.00032841,-0.0
 0004606,0.00002473,0.00001920,-0.00004559,0.00011303,0.00008370,-0.000
 09682,0.00021649,-0.00008690,0.00003008,0.00005835,-0.00001557,-0.0000
 3831,-0.00004517,0.00003406,0.00024622,-0.00080970,-0.00044510,-0.0000
 0435,-0.00013034,0.00033836,-0.00005476,-0.00002719,-0.00005158,0.0000
 0837,-0.00004307,0.00003333,-0.00001194,-0.00003960,-0.00004325,-0.000
 01139,0.00002959,0.00001079,0.00000341,0.00000815,0.00001145,-0.000118
 83,0.00017144,0.00019639,0.00004741,-0.00007793,-0.00004728,0.00002646
 ,0.00006721,0.00016797,0.00029342,-0.00032420,-0.00012341,0.00102144,-
 0.00026310,-0.00127639,0.00018283,-0.00050436,-0.00018850,-0.00059917,
 -0.00060594,-0.00067211,-0.00006687,-0.00045033,-0.00022710,0.00000535
 ,-0.00014475,-0.00007894,0.00003906,0.00002184,0.00001512,-0.00006200,
 0.00008350,-0.00003364,0.00000648,0.00001294,0.00003691,-0.00020050,-0
 .00023031,0.00000419,-0.00002636,0.00006421,-0.00001912,0.00003771,0.0
 0001438,0.00001056,-0.00000791,-0.00003897,0.00001631,-0.00002573,-0.0
 0004259,-0.00000451,-0.00001087,-0.00003063,0.00001038,0.00001053,-0.0
 0005533,0.00001859,-0.00005363,-0.00004261,0.00001184,-0.03190607,0.04
 173212,0.00068258,-0.00067078,0.00071984,-0.00137503,0.00172022,0.0053
 5796,-0.00009117,0.00117489,-0.00225197,-0.00018939,-0.00000346,-0.000
 19459,-0.00022583,0.00014440,0.00027904,-0.00076790,0.00078488,-0.0011
 5878,0.00012587,-0.00003581,-0.00011310,0.00058912,-0.00091170,-0.0001
 1994,0.00021151,0.00015084,0.00024594,-0.00006943,-0.00009326,0.000216
 51,0.00001352,-0.00015614,0.00002760,0.00019887,0.00175760,-0.00103310
 ,-0.00045264,0.00040447,0.00000773,-0.00021134,0.00005982,0.00053343,-
 0.00017139,-0.00004692,-0.00009017,-0.00003118,0.00001072,-0.00002528,
 0.00010852,0.00005918,0.00015337,0.00005609,0.00000587,-0.00005002,0.0
 0000059,-0.00002445,-0.00003583,-0.00038788,0.00014233,0.00000596,0.00
 000512,-0.00027230,0.00016133,0.00042972,-0.00013640,-0.00011913,-0.00
 052645,0.00000205,-0.00050583,-0.00000677,-0.00008273,0.00004248,0.000
 23583,0.00014398,0.00032724,-0.00027816,-0.00024105,0.00000657,0.00003
 099,0.00000775,0.00002652,-0.00000643,0.00010422,0.00012588,-0.0000887
 4,-0.00014786,-0.00019993,0.00001292,-0.00000102,0.00003353,-0.0000735
 6,0.00008545,-0.00004872,0.00029010,0.00045061,-0.00046428,0.00000326,
 -0.00031249,0.00007545,-0.00010427,-0.00018833,0.00016937,-0.00018098,
 0.00075145,0.00043602,0.00002239,0.00026408,-0.00036624,0.00001720,-0.
 00006821,0.00005707,0.00008234,0.00014693,-0.00001135,-0.00002059,0.00
 001819,0.00004404,-0.00004085,-0.00001380,-0.00004619,-0.00004716,-0.0
 0004260,0.00000917,0.00024032,0.00017941,0.00033812,-0.00008639,-0.000
 04363,-0.00005454,-0.00003174,0.00000097,0.00001352,-0.00007061,-0.000
 20030,-0.00025812,0.00030808,-0.00086566,-0.00146425,0.00118051,-0.000
 23178,0.00019325,-0.00105817,-0.00030730,-0.00088343,0.00014431,-0.000
 74714,-0.00036904,0.00012996,-0.00030171,-0.00002948,-0.00000978,0.000
 10126,0.00016916,-0.00001254,-0.00000296,0.00000347,-0.00001488,0.0001
 1109,-0.00002838,0.00011899,0.00004330,-0.00012311,0.00001201,-0.00002
 096,-0.00001165,-0.00000366,0.00004343,0.00003439,0.00000053,0.0000246
 8,0.00000705,-0.00002108,-0.00000101,-0.00000766,0.00000820,-0.0000023
 6,-0.00001075,0.00006198,-0.00004346,0.00006754,0.00002285,-0.00000730
 ,-0.00005464,0.00869807,-0.00940783,0.01113823,-0.02822705,-0.02391412
 ,0.00854077,-0.06734450,0.03630155,-0.01849954,-0.04473608,-0.03636685
 ,0.00655500,0.00444300,-0.00022967,0.00055610,0.00508279,0.00422431,-0
 .00070220,-0.00331127,0.00284155,-0.00252062,-0.00079140,0.00142491,0.
 00018127,-0.00100508,0.00286128,0.00003138,-0.00062162,-0.00025623,-0.
 00061308,0.00001834,-0.00346196,0.00247425,-0.00086930,-0.00046941,-0.
 00093174,-0.00219194,-0.00562479,-0.00034792,-0.00028993,-0.00109748,0
 .00095323,-0.00080829,0.00030294,0.00124439,-0.00042586,-0.00002896,-0
 .00016266,-0.00009327,-0.00007138,-0.00006752,0.00067665,0.00081059,-0
 .00026104,0.00003204,-0.00044949,0.00014004,-0.00038487,-0.00042100,-0
 .00006586,0.00097906,-0.00055475,0.00042932,-0.00012424,0.00047682,-0.
 00018729,-0.00050682,0.00011603,-0.00029460,-0.00095920,0.00036736,0.0
 0139242,-0.00052873,-0.00021666,-0.00012653,-0.00010549,-0.00000463,-0
 .00011224,-0.00098413,-0.00091322,0.00044905,0.00004596,-0.00008659,-0
 .00010246,-0.00006592,0.00038150,0.00028505,-0.00033858,0.00030279,0.0
 0005990,0.00006228,-0.00010907,-0.00004771,0.00014568,-0.00019481,-0.0
 0001669,-0.00026550,-0.00011129,0.00028070,0.00004207,0.00006748,-0.00
 012563,0.00008127,0.00013200,-0.00012739,-0.00144174,0.00083962,-0.000
 08823,0.00000852,0.00001013,-0.00014833,0.00002584,-0.00017554,0.00054
 033,-0.00002395,0.00021007,-0.00015543,-0.00003508,0.00000889,0.000067
 62,0.00011651,-0.00019499,0.00009628,0.00005393,-0.00000502,0.00002531
 ,0.00002021,0.00008536,-0.00091405,-0.00032705,-0.00025597,-0.00011469
 ,-0.00003851,-0.00018360,0.00013902,0.00048575,-0.00047260,-0.00036301
 ,0.00023004,-0.00063280,-0.00087446,-0.00045078,0.00001974,-0.00025897
 ,0.00035730,0.00019491,-0.00048339,-0.00019052,0.00018417,-0.00006334,
 0.00002823,-0.00023363,-0.00001878,0.00006932,0.00001369,0.00000710,0.
 00006693,0.00023162,-0.00008159,-0.00001471,0.00001971,0.00005684,-0.0
 0112696,-0.00109185,0.00013595,0.00002603,0.00003905,0.00003117,0.0004
 1302,-0.00020554,0.00011959,-0.00005930,-0.00013176,0.00002472,0.00039
 182,0.00057976,-0.00011210,-0.00014557,0.00015410,-0.00007153,-0.00206
 611,0.00061965,-0.00049719,0.00008258,0.00004749,0.00002349,-0.0442235
 6,0.02694900,-0.00738636,0.19113775,-0.02419585,-0.04809280,0.01468926
 ,0.03504823,-0.05157121,0.01273767,-0.03431311,-0.07716895,0.01114939,
 0.00624856,-0.00660030,0.00351548,-0.00221516,-0.00738231,0.00258270,-
 0.00018787,0.00200283,-0.00176396,0.00029743,-0.00035505,0.00020131,-0
 .00205851,0.00658529,0.00015079,-0.00149970,-0.00082176,-0.00175903,-0
 .00145949,0.00087340,-0.00055392,0.00016281,0.00015025,0.00043085,0.00
 068732,0.00435262,0.00115014,-0.00042776,-0.00027321,0.00046271,-0.000
 26336,-0.00024814,0.00025072,-0.00035500,-0.00003846,0.00004274,0.0000
 3861,-0.00007406,-0.00004316,0.00028267,0.00058736,0.00031920,-0.00009
 863,-0.00033408,0.00009913,-0.00020308,-0.00003373,-0.00013742,-0.0001
 5063,-0.00041902,-0.00096009,-0.00007146,0.00002374,0.00016056,-0.0000
 0663,0.00031502,0.00010421,0.00067836,-0.00044257,-0.00077940,0.000469
 58,0.00014359,0.00014341,0.00003717,0.00001321,0.00007792,-0.00052667,
 -0.00056745,0.00031624,-0.00005963,-0.00002747,-0.00005209,-0.00000479
 ,0.00025242,0.00014194,0.00027339,-0.00007847,0.00087008,0.00005689,-0
 .00006926,-0.00005875,-0.00000338,-0.00001539,-0.00000431,0.00028690,-
 0.00053393,0.00045634,-0.00001178,0.00007678,0.00002823,0.00003311,0.0
 0032377,-0.00008293,0.00066312,-0.00047656,0.00009205,0.00007441,0.000
 04283,0.00001946,-0.00001000,0.00005647,-0.00027911,-0.00011716,-0.000
 23530,0.00002544,0.00013170,-0.00000757,-0.00005928,0.00007772,0.00009
 077,-0.00015179,0.00004084,0.00007371,-0.00002336,-0.00088152,-0.00039
 858,-0.00183485,-0.00024999,-0.00017314,-0.00002810,-0.00011253,-0.000
 20554,-0.00018395,0.00063395,0.00036554,0.00005600,-0.00147995,-0.0006
 7380,-0.00049695,0.00021741,0.00019236,0.00021138,0.00077021,0.0005367
 5,-0.00061225,0.00044062,0.00019495,0.00022548,-0.00004865,0.00000787,
 -0.00000792,-0.00007772,0.00006589,0.00005878,0.00000107,-0.00009679,0
 .00016616,-0.00001560,0.00002448,-0.00002272,-0.00234051,-0.00097630,0
 .00024494,0.00020949,-0.00012886,0.00004440,0.00051836,-0.00071965,0.0
 0025868,-0.00010938,-0.00026769,0.00002311,-0.00013297,-0.00069889,0.0
 0010709,0.00014562,-0.00016211,0.00001284,0.00183139,0.00019937,0.0003
 7538,-0.00015970,-0.00015745,0.00008548,0.02614367,-0.03431833,0.00673
 867,-0.00265242,0.21729293,0.00713113,0.01214015,-0.01311907,-0.016556
 06,0.01182682,-0.03004456,0.00708731,0.01244366,-0.02704820,-0.0013451
 4,0.00268493,0.00109153,0.00131839,0.00343126,0.00123367,0.00438108,-0
 .00304159,0.00471158,-0.00013800,-0.00053294,0.00063394,-0.00422235,0.
 00506617,0.00050074,-0.00144394,-0.00067680,-0.00133730,-0.00228241,-0
 .00686392,0.00518987,-0.00198951,-0.00094405,-0.00206133,0.00288989,0.
 00399825,0.00124273,-0.00014132,0.00097797,0.00005179,0.00107372,-0.00
 033786,-0.00191195,0.00055630,0.00013687,0.00040984,0.00015276,0.00001
 242,0.00009227,-0.00024641,-0.00006555,-0.00120464,-0.00028090,-0.0001
 4017,0.00032918,0.00003431,-0.00016701,0.00031078,0.00003245,-0.000634
 79,-0.00050058,-0.00037658,0.00030540,0.00012753,-0.00010050,0.0001793
 4,0.00008381,0.00077455,-0.00031279,-0.00156627,0.00026714,0.00022157,
 0.00033074,0.00013613,0.00009492,0.00001722,0.00062642,0.00072352,-0.0
 0023785,0.00003943,0.00000192,0.00003785,0.00007860,-0.00020260,-0.000
 28348,0.00068293,0.00106237,0.00121251,0.00005963,-0.00012181,0.000062
 43,0.00014918,-0.00043061,0.00020328,0.00079735,0.00044132,0.00159415,
 0.00003506,0.00013277,-0.00006336,-0.00000661,0.00038754,-0.00007179,0
 .00038209,-0.00021505,0.00012907,-0.00000862,0.00000910,0.00000497,0.0
 0006493,-0.00004007,-0.00017926,-0.00022256,-0.00045880,0.00011280,0.0
 0018324,-0.00007756,-0.00011751,-0.00002173,0.00051246,-0.00011109,-0.
 00007798,0.00003433,0.00011749,-0.00391485,-0.00087772,-0.00318249,0.0
 0024182,-0.00005405,0.00047548,0.00066158,-0.00001468,0.00013312,0.002
 25971,-0.00024876,-0.00020535,-0.00347897,-0.00232296,-0.00311538,0.00
 001237,0.00033456,0.00023416,0.00208880,0.00049721,-0.00024735,0.00042
 671,0.00021318,-0.00011516,-0.00039122,0.00040835,-0.00018263,-0.00003
 042,-0.00002076,0.00010988,0.00016594,-0.00047778,0.00012608,0.0002115
 4,0.00003743,-0.00016993,0.00048395,0.00019148,0.00071299,-0.00008566,
 0.00002888,0.00003348,-0.00007289,0.00011382,-0.00023524,0.00004472,0.
 00000348,-0.00014710,0.00011487,0.00025735,-0.00023474,-0.00004865,0.0
 0003917,-0.00016638,-0.00095957,0.00041112,0.00047644,0.00002685,0.000
 08344,0.00000549,-0.00933393,0.00876713,-0.01089731,0.01210391,-0.0489
 3098,0.07661838\\0.00000620,0.00000528,-0.00000264,0.00001546,0.000001
 13,0.00000528,-0.00001043,-0.00000284,-0.00000542,-0.00000304,0.000000
 15,0.00000182,0.00000277,-0.00000147,-0.00000408,-0.00000743,0.0000055
 7,-0.00000468,0.00000044,-0.00000329,0.00000145,-0.00000779,0.00000256
 ,-0.00000458,0.00000279,-0.00000018,-0.00000022,0.00000383,0.00000585,
 0.00000170,-0.00000183,-0.00000082,-0.00000091,0.00000511,0.00000885,-
 0.00000367,0.00000041,-0.00000194,0.00000116,0.00000347,0.00000245,0.0
 0000278,-0.00000278,-0.00000160,0.00000070,-0.00000151,-0.00000025,-0.
 00000042,0.00000505,0.00000028,0.00000306,-0.00000217,-0.00000025,-0.0
 0000125,-0.00000009,-0.00000101,-0.00000041,-0.00000353,-0.00000047,-0
 .00000166,0.00000199,0.00000196,0.00000111,-0.00000006,0.00000069,0.00
 000056,-0.00000311,-0.00000266,-0.00000260,0.00000311,-0.00000127,-0.0
 0000079,0.00000142,0.00000028,0.00000093,0.00000335,-0.00000627,-0.000
 00086,-0.00000050,0.00000017,-0.00000162,-0.00000191,0.00000058,0.0000
 0142,-0.00000023,-0.00000166,0.00000257,-0.00000095,0.00000032,-0.0000
 0035,-0.00000152,-0.00000102,-0.00000242,-0.00000192,-0.00000345,-0.00
 000189,-0.00000018,0.00000222,0.00000046,0.00000127,-0.00000002,0.0000
 0201,-0.00000147,-0.00000376,0.00000407,0.00000062,0.00000042,-0.00000
 071,0.00000173,0.00000007,-0.00000175,0.00000102,0.00000030,-0.0000006
 1,-0.00000106,0.00000104,0.00000039,0.00000040,0.00000071,0.00000073,0
 .00000035,-0.00000097,0.00000052,0.00000370,0.00000166,0.00000154,-0.0
 0000102,-0.00000055,0.00000069,-0.00000055,0.00000015,-0.00000143,-0.0
 0000040,-0.00000036,0.00000119,0.00000285,0.00000201,0.00000487,0.0000
 0107,-0.00000152,-0.00000123,-0.00000113,-0.00000233,-0.00000074,-0.00
 000061,0.00000063,0.00000132,-0.00000049,0.00000117,0.00000077,0.00000
 006,-0.00000103,0.00000072,-0.00000094,0.00000002,0.00000029,0.0000006
 9,0.00000096,-0.00000100,0.00000125,0.00000335,-0.00000188,-0.00000101
 ,-0.00000052,0.,0.00000109,-0.00000429,0.00000028,-0.00000134,0.000001
 22,0.00000062,0.00000056,-0.00000404,0.00000161,0.00000092,0.00000097,
 -0.00000113,-0.00000245,0.00000439,0.00000166,0.00000085,0.00000023,0.
 00000156,-0.00000749,-0.00000244,0.00000150,-0.00000289,-0.00000538,-0
 .00000040\\\@


 ... IT CAN BE VERY DIFFICULT, IN THESE COMPLEX TIMES,
 TO UNDERSTAND JUST HOW SCIENTISTS DO WHAT THEY DO.

                     DON MOSER IN THE FEBRUARY 1979 SMITHSONIAN
 Job cpu time:       0 days  4 hours 44 minutes 32.4 seconds.
 File lengths (MBytes):  RWF=   1987 Int=      0 D2E=      0 Chk=     72 Scr=      1
 Normal termination of Gaussian 09 at Tue Nov 16 17:09:34 2021.
