 Entering Gaussian System, Link 0=g09
 Input=SS_Et_DuPhos_4_SPE.com
 Output=SS_Et_DuPhos_4_SPE.log
 Initial command:
 /gstore/apps/gaussian/g09.e01-foss-2017a/g09/l1.exe "/local/22791412/Gau-23433.inp" -scrdir="/local/22791412/"
 Entering Link 1 = /gstore/apps/gaussian/g09.e01-foss-2017a/g09/l1.exe PID=     23434.
  
 Copyright (c) 1988,1990,1992,1993,1995,1998,2003,2009,2015,
            Gaussian, Inc.  All Rights Reserved.
  
 This is part of the Gaussian(R) 09 program.  It is based on
 the Gaussian(R) 03 system (copyright 2003, Gaussian, Inc.),
 the Gaussian(R) 98 system (copyright 1998, Gaussian, Inc.),
 the Gaussian(R) 94 system (copyright 1995, Gaussian, Inc.),
 the Gaussian 92(TM) system (copyright 1992, Gaussian, Inc.),
 the Gaussian 90(TM) system (copyright 1990, Gaussian, Inc.),
 the Gaussian 88(TM) system (copyright 1988, Gaussian, Inc.),
 the Gaussian 86(TM) system (copyright 1986, Carnegie Mellon
 University), and the Gaussian 82(TM) system (copyright 1983,
 Carnegie Mellon University). Gaussian is a federally registered
 trademark of Gaussian, Inc.
  
 This software contains proprietary and confidential information,
 including trade secrets, belonging to Gaussian, Inc.
  
 This software is provided under written license and may be
 used, copied, transmitted, or stored only in accord with that
 written license.
  
 The following legend is applicable only to US Government
 contracts under FAR:
  
                    RESTRICTED RIGHTS LEGEND
  
 Use, reproduction and disclosure by the US Government is
 subject to restrictions as set forth in subparagraphs (a)
 and (c) of the Commercial Computer Software - Restricted
 Rights clause in FAR 52.227-19.
  
 Gaussian, Inc.
 340 Quinnipiac St., Bldg. 40, Wallingford CT 06492
  
  
 ---------------------------------------------------------------
 Warning -- This program may not be used in any manner that
 competes with the business of Gaussian, Inc. or will provide
 assistance to any competitor of Gaussian, Inc.  The licensee
 of this program is prohibited from giving any competitor of
 Gaussian, Inc. access to this program.  By using this program,
 the user acknowledges that Gaussian, Inc. is engaged in the
 business of creating and licensing software in the field of
 computational chemistry and represents and warrants to the
 licensee that it is not a competitor of Gaussian, Inc. and that
 it will not use this program in any manner prohibited above.
 ---------------------------------------------------------------
  

 Cite this work as:
 Gaussian 09, Revision E.01,
 M. J. Frisch, G. W. Trucks, H. B. Schlegel, G. E. Scuseria, 
 M. A. Robb, J. R. Cheeseman, G. Scalmani, V. Barone, B. Mennucci, 
 G. A. Petersson, H. Nakatsuji, M. Caricato, X. Li, H. P. Hratchian, 
 A. F. Izmaylov, J. Bloino, G. Zheng, J. L. Sonnenberg, M. Hada, 
 M. Ehara, K. Toyota, R. Fukuda, J. Hasegawa, M. Ishida, T. Nakajima, 
 Y. Honda, O. Kitao, H. Nakai, T. Vreven, J. A. Montgomery, Jr., 
 J. E. Peralta, F. Ogliaro, M. Bearpark, J. J. Heyd, E. Brothers, 
 K. N. Kudin, V. N. Staroverov, T. Keith, R. Kobayashi, J. Normand, 
 K. Raghavachari, A. Rendell, J. C. Burant, S. S. Iyengar, J. Tomasi, 
 M. Cossi, N. Rega, J. M. Millam, M. Klene, J. E. Knox, J. B. Cross, 
 V. Bakken, C. Adamo, J. Jaramillo, R. Gomperts, R. E. Stratmann, 
 O. Yazyev, A. J. Austin, R. Cammi, C. Pomelli, J. W. Ochterski, 
 R. L. Martin, K. Morokuma, V. G. Zakrzewski, G. A. Voth, 
 P. Salvador, J. J. Dannenberg, S. Dapprich, A. D. Daniels, 
 O. Farkas, J. B. Foresman, J. V. Ortiz, J. Cioslowski, 
 and D. J. Fox, Gaussian, Inc., Wallingford CT, 2013.
 
 ******************************************
 Gaussian 09:  ES64L-G09RevE.01 30-Nov-2015
                 5-Dec-2021 
 ******************************************
 %nprocs=14
 Will use up to   14 processors via shared memory.
 %mem=128GB
 %chk=SS_Et_DuPhos_4_SPE.chk
 ----------------------------------------------------------------------
 # PBE1PBE gen pseudo=read int=(grid=ultrafine) empiricaldispersion=GD3
 BJ nmr=giao
 ----------------------------------------------------------------------
 1/38=1/1;
 2/12=2,17=6,18=5,40=1/2;
 3/5=7,11=2,16=1,17=8,25=1,30=1,74=-13,75=-5,124=41/1,2,8,3;
 4//1;
 5/5=2,38=5/2;
 8/6=1,10=90,11=11/1;
 10/13=100,45=16/2;
 6/7=2,8=2,9=2,10=2,28=1/1;
 99/9=1/99;
 --------------------
 SS_Et_DuPhos_4 title
 --------------------
 Symbolic Z-matrix:
 Charge =  0 Multiplicity = 1
 Cl                   -1.37118  -3.63327   1.30662 
 P                    -1.60778  -0.63904   0.04777 
 P                     1.45109  -0.07414   0.32976 
 C                    -1.01165   1.06055  -0.36113 
 C                     0.37769   1.30867  -0.25916 
 C                    -3.06936  -0.59405   1.23742 
 H                    -2.84737  -1.47232   1.87378 
 C                    -2.63811  -1.15244  -1.44063 
 H                    -2.99409  -0.18016  -1.84124 
 C                     2.44634   0.66603   1.74471 
 H                     2.48486   1.74391   1.48159 
 C                     2.94387  -0.32081  -0.79466 
 H                     3.02877  -1.4246   -0.78937 
 C                    -4.30132  -0.92676   0.36497 
 H                    -5.08456  -1.39708   0.98514 
 H                    -4.72921   0.00851  -0.04927 
 C                    -3.84763  -1.84401  -0.78241 
 H                    -4.64772  -2.00394  -1.52748 
 H                    -3.54752  -2.82742  -0.37919 
 C                     3.85269   0.08656   1.49795 
 H                     4.5965    0.61004   2.1253 
 H                     3.87097  -0.98607   1.76038 
 C                     4.13733   0.2608   -0.00281 
 H                     5.07139  -0.24308  -0.30763 
 H                     4.25368   1.33766  -0.23999 
 C                    -3.20318   0.65299   2.11737 
 H                    -3.37045   1.54827   1.48862 
 H                    -4.12279   0.52946   2.72147 
 C                    -1.94276  -1.89104  -2.59648 
 H                    -1.22004  -1.20045  -3.06896 
 H                    -2.72437  -2.07053  -3.36114 
 C                     1.88056   0.56822   3.17138 
 H                     0.95697   1.17374   3.22414 
 H                     2.61019   1.08299   3.82749 
 C                     2.80799   0.17369  -2.23838 
 H                     2.6668    1.27124  -2.25477 
 H                     3.77603  -0.01597  -2.74119 
 C                    -2.00516   0.88251   3.04394 
 H                    -2.1854    1.72976   3.72699 
 H                    -1.09558   1.11037   2.462 
 H                    -1.79317  -0.01363   3.65206 
 C                    -1.24341  -3.21116  -2.26107 
 H                    -1.91133  -3.91954  -1.74558 
 H                    -0.87937  -3.68854  -3.18714 
 H                    -0.37734  -3.05428  -1.59369 
 C                     1.60328  -0.83494   3.71779 
 H                     2.48314  -1.4939    3.64509 
 H                     0.79037  -1.33458   3.16136 
 H                     1.30343  -0.77202   4.77805 
 C                     1.68008  -0.50922  -3.01806 
 H                     1.77687  -1.60787  -2.98041 
 H                     0.695    -0.24901  -2.59401 
 H                     1.68082  -0.19763  -4.07625 
 C                    -1.87279   2.09078  -0.78421 
 H                    -2.94911   1.90586  -0.86852 
 C                    -1.36082   3.35554  -1.1021 
 H                    -2.03803   4.15139  -1.4277 
 C                     0.01659   3.60088  -1.00303 
 H                     0.41778   4.58771  -1.25446 
 C                     0.88204   2.5828   -0.58196 
 H                     1.95587   2.78372  -0.5028 
 Cl                    2.15766  -3.17229   1.04328 
 Pd                    0.15835  -1.88535   0.68368 
 
 Stoichiometry    C22H36Cl2P2Pd
 Framework group  C1[X(C22H36Cl2P2Pd)]
 Deg. of freedom   183
 Full point group                 C1      NOp   1
 Largest Abelian subgroup         C1      NOp   1
 Largest concise Abelian subgroup C1      NOp   1
                         Standard orientation:                         
 ---------------------------------------------------------------------
 Center     Atomic      Atomic             Coordinates (Angstroms)
 Number     Number       Type             X           Y           Z
 ---------------------------------------------------------------------
      1         17           0        1.754385    2.920905    0.325629
      2         15           0        1.561583   -0.315418    0.017174
      3         15           0       -1.561580   -0.315415   -0.017213
      4          6           0        0.707183   -1.952840    0.021378
      5          6           0       -0.707174   -1.952839   -0.021361
      6          6           0        2.862550   -0.208275    1.377152
      7          1           0        2.743004    0.844637    1.697587
      8          6           0        2.813361   -0.435875   -1.382472
      9          1           0        3.022884   -1.524960   -1.432789
     10          6           0       -2.813386   -0.435895    1.382401
     11          1           0       -3.022875   -1.524987    1.432698
     12          6           0       -2.862513   -0.208307   -1.377230
     13          1           0       -2.742962    0.844599   -1.697676
     14          6           0        4.216198   -0.340498    0.642464
     15          1           0        5.006088    0.177005    1.214775
     16          1           0        4.504205   -1.409381    0.579599
     17          6           0        4.056929    0.239350   -0.772487
     18          1           0        4.943691    0.046251   -1.402738
     19          1           0        3.903830    1.331563   -0.714419
     20          6           0       -4.056970    0.239283    0.772394
     21          1           0       -4.943740    0.046127    1.402616
     22          1           0       -3.903918    1.331503    0.714359
     23          6           0       -4.216183   -0.340531   -0.642579
     24          1           0       -5.006052    0.176981   -1.214911
     25          1           0       -4.504193   -1.409415   -0.579742
     26          6           0        2.675318   -1.133407    2.583962
     27          1           0        2.737469   -2.192030    2.267298
     28          1           0        3.536350   -0.967074    3.259861
     29          6           0        2.385802    0.008459   -2.791301
     30          1           0        1.599679   -0.680185   -3.152211
     31          1           0        3.260064   -0.169499   -3.448436
     32          6           0       -2.385890    0.008430    2.791256
     33          1           0       -1.599567   -0.680032    3.152083
     34          1           0       -3.260085   -0.169832    3.448396
     35          6           0       -2.675234   -1.133459   -2.584019
     36          1           0       -2.737470   -2.192079   -2.267362
     37          1           0       -3.536197   -0.967081   -3.259995
     38          6           0        1.368396   -0.892507    3.345804
     39          1           0        1.319938   -1.508101    4.259889
     40          1           0        0.495742   -1.151743    2.721960
     41          1           0        1.264761    0.167161    3.635938
     42          6           0        1.911120    1.455116   -2.953063
     43          1           0        2.642601    2.181600   -2.564722
     44          1           0        1.736289    1.675323   -4.020287
     45          1           0        0.968239    1.637034   -2.407204
     46          6           0       -1.911634    1.455213    2.953151
     47          1           0       -2.643348    2.181518    2.564914
     48          1           0       -0.968829    1.637471    2.407270
     49          1           0       -1.736820    1.675362    4.020389
     50          6           0       -1.368230   -0.892633   -3.345738
     51          1           0       -1.264516    0.167028   -3.635871
     52          1           0       -0.495652   -1.151901   -2.721800
     53          1           0       -1.319708   -1.508240   -4.259811
     54          6           0        1.402225   -3.176945    0.042406
     55          1           0        2.497114   -3.185441    0.072554
     56          6           0        0.700947   -4.389620    0.022337
     57          1           0        1.249455   -5.336604    0.041548
     58          6           0       -0.700942   -4.389620   -0.022146
     59          1           0       -1.249453   -5.336603   -0.041279
     60          6           0       -1.402218   -3.176945   -0.042284
     61          1           0       -2.497108   -3.185443   -0.072399
     62         17           0       -1.754244    2.921047   -0.325584
     63         46           0        0.000016    1.308801   -0.000009
 ---------------------------------------------------------------------
 Rotational constants (GHZ):      0.1685702      0.1410971      0.1196680
 General basis read from cards:  (5D, 7F)
 ======================================================================================================
                                       Pseudopotential Parameters
 ======================================================================================================
  Center     Atomic      Valence      Angular      Power
  Number     Number     Electrons     Momentum     of R      Exponent        Coefficient   SO-Coeffient
 ======================================================================================================
    1         17
                                   No pseudopotential on this center.
    2         15
                                   No pseudopotential on this center.
    3         15
                                   No pseudopotential on this center.
    4          6
                                   No pseudopotential on this center.
    5          6
                                   No pseudopotential on this center.
    6          6
                                   No pseudopotential on this center.
    7          1
                                   No pseudopotential on this center.
    8          6
                                   No pseudopotential on this center.
    9          1
                                   No pseudopotential on this center.
   10          6
                                   No pseudopotential on this center.
   11          1
                                   No pseudopotential on this center.
   12          6
                                   No pseudopotential on this center.
   13          1
                                   No pseudopotential on this center.
   14          6
                                   No pseudopotential on this center.
   15          1
                                   No pseudopotential on this center.
   16          1
                                   No pseudopotential on this center.
   17          6
                                   No pseudopotential on this center.
   18          1
                                   No pseudopotential on this center.
   19          1
                                   No pseudopotential on this center.
   20          6
                                   No pseudopotential on this center.
   21          1
                                   No pseudopotential on this center.
   22          1
                                   No pseudopotential on this center.
   23          6
                                   No pseudopotential on this center.
   24          1
                                   No pseudopotential on this center.
   25          1
                                   No pseudopotential on this center.
   26          6
                                   No pseudopotential on this center.
   27          1
                                   No pseudopotential on this center.
   28          1
                                   No pseudopotential on this center.
   29          6
                                   No pseudopotential on this center.
   30          1
                                   No pseudopotential on this center.
   31          1
                                   No pseudopotential on this center.
   32          6
                                   No pseudopotential on this center.
   33          1
                                   No pseudopotential on this center.
   34          1
                                   No pseudopotential on this center.
   35          6
                                   No pseudopotential on this center.
   36          1
                                   No pseudopotential on this center.
   37          1
                                   No pseudopotential on this center.
   38          6
                                   No pseudopotential on this center.
   39          1
                                   No pseudopotential on this center.
   40          1
                                   No pseudopotential on this center.
   41          1
                                   No pseudopotential on this center.
   42          6
                                   No pseudopotential on this center.
   43          1
                                   No pseudopotential on this center.
   44          1
                                   No pseudopotential on this center.
   45          1
                                   No pseudopotential on this center.
   46          6
                                   No pseudopotential on this center.
   47          1
                                   No pseudopotential on this center.
   48          1
                                   No pseudopotential on this center.
   49          1
                                   No pseudopotential on this center.
   50          6
                                   No pseudopotential on this center.
   51          1
                                   No pseudopotential on this center.
   52          1
                                   No pseudopotential on this center.
   53          1
                                   No pseudopotential on this center.
   54          6
                                   No pseudopotential on this center.
   55          1
                                   No pseudopotential on this center.
   56          6
                                   No pseudopotential on this center.
   57          1
                                   No pseudopotential on this center.
   58          6
                                   No pseudopotential on this center.
   59          1
                                   No pseudopotential on this center.
   60          6
                                   No pseudopotential on this center.
   61          1
                                   No pseudopotential on this center.
   62         17
                                   No pseudopotential on this center.
   63         46           18
                                      G and up 
                                                     2        1.0000000        0.00000000    0.00000000
                                      S - G
                                                     2       12.4300000      240.22904000    0.00000000
                                                     2        6.1707590       35.17194300    0.00000000
                                      P - G
                                                     2       11.0800000      170.41727600    0.00000000
                                                     2        5.8295540       28.47213300    0.00000000
                                      D - G
                                                     2        9.5100000       69.01384500    0.00000000
                                                     2        4.1397810       11.75086200    0.00000000
                                      F - G
                                                     2       13.2700000      -31.92955400    0.00000000
                                                     2        6.6300000       -5.39821700    0.00000000
 ======================================================================================================
 There are  1215 symmetry adapted cartesian basis functions of A   symmetry.
 There are  1082 symmetry adapted basis functions of A   symmetry.
  1082 basis functions,  1751 primitive gaussians,  1215 cartesian basis functions
   125 alpha electrons      125 beta electrons
       nuclear repulsion energy      4043.2116808960 Hartrees.
 NAtoms=   63 NActive=   63 NUniq=   63 SFac= 1.00D+00 NAtFMM=   60 NAOKFM=T Big=T
 Integral buffers will be    131072 words long.
 Raffenetti 2 integral format.
 Two-electron integral symmetry is turned on.
 Nuclear repulsion after empirical dispersion term =     4043.1069213361 Hartrees.
 One-electron integrals computed using PRISM.
   1 Symmetry operations used in ECPInt.
 ECPInt:  NShTT=  102378 NPrTT=  309252 LenC2=   90297 LenP2D=  190007.
 LDataN:  DoStor=T MaxTD1= 7 Len=  274
 NBasis=  1082 RedAO= T EigKep=  5.36D-06  NBF=  1082
 NBsUse=  1082 1.00D-06 EigRej= -1.00D+00 NBFU=  1082
 Defaulting to unpruned grid for atomic number  46.
 ExpMin= 1.60D-02 ExpMax= 6.95D+04 ExpMxC= 2.37D+03 IAcc=3 IRadAn=         5 AccDes= 0.00D+00
 Harris functional with IExCor= 1009 and IRadAn=       5 diagonalized for initial guess.
 HarFok:  IExCor= 1009 AccDes= 0.00D+00 IRadAn=         5 IDoV= 1 UseB2=F ITyADJ=14
 ICtDFT=  3500011 ScaDFX=  1.000000  1.000000  1.000000  1.000000
 Defaulting to unpruned grid for atomic number  46.
 Defaulting to unpruned grid for atomic number  46.
 Defaulting to unpruned grid for atomic number  46.
 Defaulting to unpruned grid for atomic number  46.
 Defaulting to unpruned grid for atomic number  46.
 Defaulting to unpruned grid for atomic number  46.
 Defaulting to unpruned grid for atomic number  46.
 Defaulting to unpruned grid for atomic number  46.
 Defaulting to unpruned grid for atomic number  46.
 Defaulting to unpruned grid for atomic number  46.
 Defaulting to unpruned grid for atomic number  46.
 Defaulting to unpruned grid for atomic number  46.
 Defaulting to unpruned grid for atomic number  46.
 Defaulting to unpruned grid for atomic number  46.
 FoFCou: FMM=F IPFlag=           0 FMFlag=      100000 FMFlg1=        2001
         NFxFlg=           0 DoJE=T BraDBF=F KetDBF=T FulRan=T
         wScrn=  0.000000 ICntrl=     500 IOpCl=  0 I1Cent=   200000004 NGrid=           0
         NMat0=    1 NMatS0=      1 NMatT0=    0 NMatD0=    1 NMtDS0=    0 NMtDT0=    0
 Petite list used in FoFCou.
 Requested convergence on RMS density matrix=1.00D-08 within 128 cycles.
 Requested convergence on MAX density matrix=1.00D-06.
 Requested convergence on             energy=1.00D-06.
 No special actions if energy rises.
 Defaulting to unpruned grid for atomic number  46.
 Defaulting to unpruned grid for atomic number  46.
 Defaulting to unpruned grid for atomic number  46.
 Defaulting to unpruned grid for atomic number  46.
 Defaulting to unpruned grid for atomic number  46.
 Defaulting to unpruned grid for atomic number  46.
 Defaulting to unpruned grid for atomic number  46.
 Defaulting to unpruned grid for atomic number  46.
 Defaulting to unpruned grid for atomic number  46.
 Defaulting to unpruned grid for atomic number  46.
 Defaulting to unpruned grid for atomic number  46.
 Defaulting to unpruned grid for atomic number  46.
 Defaulting to unpruned grid for atomic number  46.
 Defaulting to unpruned grid for atomic number  46.
 EnCoef did     5 forward-backward iterations
 EnCoef did   100 forward-backward iterations
 SCF Done:  E(RPBE1PBE) =  -2590.03562710     A.U. after   17 cycles
            NFock= 17  Conv=0.73D-08     -V/T= 2.0353
 DoSCS=F DFT=T ScalE2(SS,OS)=  1.000000  1.000000
 Range of M.O.s used for correlation:     1  1082
 NBasis=  1082 NAE=   125 NBE=   125 NFC=     0 NFV=     0
 NROrb=   1082 NOA=   125 NOB=   125 NVA=   957 NVB=   957

 **** Warning!!: The largest alpha MO coefficient is  0.59082084D+02

          Differentiating once with respect to magnetic field using GIAOs.
          Electric field/nuclear overlap derivatives assumed to be zero.
 Defaulting to unpruned grid for atomic number  46.
 FoFCou: FMM=F IPFlag=           0 FMFlag=      100000 FMFlg1=        2001
         NFxFlg=           0 DoJE=F BraDBF=F KetDBF=T FulRan=T
         wScrn=  0.000000 ICntrl=    6100 IOpCl=  0 I1Cent=           7 NGrid=          63
         NMat0=    1 NMatS0=      1 NMatT0=    0 NMatD0=    1 NMtDS0=    0 NMtDT0=    0
 Symmetry not used in FoFCou.
   1 Symmetry operations used in ECPInt.
 ECPInt:  NShTT=  102378 NPrTT=  309252 LenC2=  102379 LenP2D=  309252.
 LDataN:  DoStor=T MaxTD1= 8 Len=  415
 FoFJK:  IHMeth= 1 ICntrl=    6127 DoSepK=F KAlg= 0 I1Cent=   0 FoldK=F
 IRaf=         1 NMat=   1 IRICut=       1 DoRegI=T DoRafI=F ISym2E= 0.
 Defaulting to unpruned grid for atomic number  46.
 Defaulting to unpruned grid for atomic number  46.
 Defaulting to unpruned grid for atomic number  46.
 Defaulting to unpruned grid for atomic number  46.
 Defaulting to unpruned grid for atomic number  46.
 Defaulting to unpruned grid for atomic number  46.
 Defaulting to unpruned grid for atomic number  46.
 Defaulting to unpruned grid for atomic number  46.
 Defaulting to unpruned grid for atomic number  46.
 Defaulting to unpruned grid for atomic number  46.
 Defaulting to unpruned grid for atomic number  46.
 Defaulting to unpruned grid for atomic number  46.
 Defaulting to unpruned grid for atomic number  46.
 Defaulting to unpruned grid for atomic number  46.
          There are     3 degrees of freedom in the 1st order CPHF.  IDoFFX=0 NUNeed=     3.
      3 vectors produced by pass  0 Test12= 3.99D-12 3.33D-08 XBig12= 8.89D+01 2.23D+00.
 AX will form     3 AO Fock derivatives at one time.
      3 vectors produced by pass  1 Test12= 3.99D-12 3.33D-08 XBig12= 3.48D-01 2.10D-01.
      3 vectors produced by pass  2 Test12= 3.99D-12 3.33D-08 XBig12= 5.24D-03 3.02D-02.
      3 vectors produced by pass  3 Test12= 3.99D-12 3.33D-08 XBig12= 9.38D-05 3.80D-03.
      3 vectors produced by pass  4 Test12= 3.99D-12 3.33D-08 XBig12= 4.89D-07 1.44D-04.
      3 vectors produced by pass  5 Test12= 3.99D-12 3.33D-08 XBig12= 1.59D-09 1.03D-05.
      3 vectors produced by pass  6 Test12= 3.99D-12 3.33D-08 XBig12= 2.27D-11 3.12D-06.
      2 vectors produced by pass  7 Test12= 3.99D-12 3.33D-08 XBig12= 3.83D-13 2.87D-07.
 InvSVY:  IOpt=1 It=  1 EMax= 1.78D-15
 Solved reduced A of dimension    23 with     3 vectors.
 Calculating GIAO nuclear magnetic shielding tensors.
 SCF GIAO Magnetic shielding tensor (ppm):
      1  Cl   Isotropic =   940.7765   Anisotropy =   483.9056
   XX=   701.2409   YX=   101.9389   ZX=    71.6827
   XY=   108.1002   YY=   861.4389   ZY=    38.0414
   XZ=   -36.4923   YZ=  -114.3479   ZZ=  1259.6499
   Eigenvalues:   647.5069   911.4425  1263.3802
      2  P    Isotropic =   197.1889   Anisotropy =   144.8211
   XX=   252.1590   YX=   -20.9887   ZX=    20.1934
   XY=   -49.2158   YY=   255.3891   ZY=   -26.0991
   XZ=    21.5729   YZ=   -21.9606   ZZ=    84.0186
   Eigenvalues:    79.1807   218.6496   293.7363
      3  P    Isotropic =   197.1870   Anisotropy =   144.8136
   XX=   252.1599   YX=    20.9836   ZX=    20.1955
   XY=    49.2149   YY=   255.3790   ZY=    26.0999
   XZ=    21.5784   YZ=    21.9586   ZZ=    84.0220
   Eigenvalues:    79.1832   218.6483   293.7294
      4  C    Isotropic =    32.2824   Anisotropy =   178.5008
   XX=   -14.9023   YX=   -33.0738   ZX=    -6.7325
   XY=   -30.9458   YY=   -37.7136   ZY=     2.3048
   XZ=   -22.5025   YZ=    11.8257   ZZ=   149.4632
   Eigenvalues:   -60.3232     5.8875   151.2829
      5  C    Isotropic =    32.2822   Anisotropy =   178.5021
   XX=   -14.9038   YX=    33.0735   ZX=    -6.7320
   XY=    30.9456   YY=   -37.7154   ZY=    -2.2935
   XZ=   -22.4956   YZ=   -11.8175   ZZ=   149.4657
   Eigenvalues:   -60.3248     5.8877   151.2836
      6  C    Isotropic =   133.9919   Anisotropy =    24.8392
   XX=   148.4048   YX=     4.0914   ZX=     2.7405
   XY=     2.3819   YY=   109.6560   ZY=    -9.7934
   XZ=     4.6964   YZ=    -6.7202   ZZ=   143.9149
   Eigenvalues:   107.3809   144.0434   150.5514
      7  H    Isotropic =    26.8539   Anisotropy =     6.4205
   XX=    25.5682   YX=    -2.0209   ZX=     1.8290
   XY=    -2.9270   YY=    29.8297   ZY=    -0.0493
   XZ=     2.5483   YZ=    -0.0523   ZZ=    25.1638
   Eigenvalues:    22.7505    26.6769    31.1343
      8  C    Isotropic =   124.3812   Anisotropy =    24.4867
   XX=   138.8186   YX=    -2.9513   ZX=     2.8300
   XY=     6.2735   YY=   109.4859   ZY=    10.5481
   XZ=   -13.7350   YZ=    -4.6024   ZZ=   124.8391
   Eigenvalues:   108.6878   123.7502   140.7057
      9  H    Isotropic =    28.7180   Anisotropy =     5.7529
   XX=    27.2904   YX=    -2.1591   ZX=    -0.8139
   XY=    -1.7718   YY=    31.4483   ZY=     1.5016
   XZ=    -2.6635   YZ=    -0.1982   ZZ=    27.4152
   Eigenvalues:    25.4315    28.1693    32.5532
     10  C    Isotropic =   124.3834   Anisotropy =    24.4840
   XX=   138.8189   YX=     2.9517   ZX=     2.8299
   XY=    -6.2753   YY=   109.4889   ZY=   -10.5510
   XZ=   -13.7342   YZ=     4.6002   ZZ=   124.8424
   Eigenvalues:   108.6896   123.7546   140.7061
     11  H    Isotropic =    28.7179   Anisotropy =     5.7530
   XX=    27.2901   YX=     2.1588   ZX=    -0.8144
   XY=     1.7712   YY=    31.4487   ZY=    -1.5012
   XZ=    -2.6644   YZ=     0.1983   ZZ=    27.4148
   Eigenvalues:    25.4306    28.1698    32.5532
     12  C    Isotropic =   133.9925   Anisotropy =    24.8394
   XX=   148.4076   YX=    -4.0922   ZX=     2.7383
   XY=    -2.3824   YY=   109.6544   ZY=     9.7938
   XZ=     4.6956   YZ=     6.7202   ZZ=   143.9154
   Eigenvalues:   107.3794   144.0459   150.5521
     13  H    Isotropic =    26.8546   Anisotropy =     6.4183
   XX=    25.5699   YX=     2.0202   ZX=     1.8289
   XY=     2.9264   YY=    29.8292   ZY=     0.0484
   XZ=     2.5481   YZ=     0.0512   ZZ=    25.1647
   Eigenvalues:    22.7518    26.6785    31.1335
     14  C    Isotropic =   145.5797   Anisotropy =    21.8789
   XX=   153.1186   YX=    -0.9388   ZX=   -11.0118
   XY=    -6.1986   YY=   128.4855   ZY=   -12.7472
   XZ=     1.6868   YZ=    -7.2232   ZZ=   155.1351
   Eigenvalues:   124.3299   152.2436   160.1657
     15  H    Isotropic =    28.9922   Anisotropy =    11.0100
   XX=    34.1162   YX=     2.3528   ZX=     3.6307
   XY=     2.0551   YY=    25.0823   ZY=     0.3801
   XZ=     3.8903   YZ=     1.0122   ZZ=    27.7781
   Eigenvalues:    24.5574    26.0871    36.3322
     16  H    Isotropic =    29.8402   Anisotropy =     9.4316
   XX=    31.8126   YX=    -4.8288   ZX=    -0.1689
   XY=    -4.5535   YY=    30.9374   ZY=    -1.3697
   XZ=    -0.4798   YZ=    -1.1766   ZZ=    26.7705
   Eigenvalues:    25.5388    27.8538    36.1279
     17  C    Isotropic =   151.1973   Anisotropy =    26.2399
   XX=   165.2202   YX=     5.8787   ZX=     1.5299
   XY=    12.4773   YY=   125.8021   ZY=    -5.9633
   XZ=    -5.1248   YZ=    -4.1883   ZZ=   162.5697
   Eigenvalues:   123.2371   161.6643   168.6906
     18  H    Isotropic =    29.7089   Anisotropy =    12.2969
   XX=    35.5744   YX=    -0.4016   ZX=    -4.3323
   XY=    -0.1573   YY=    24.2866   ZY=    -0.8669
   XZ=    -4.6466   YZ=    -0.2425   ZZ=    29.2657
   Eigenvalues:    24.1481    27.0717    37.9068
     19  H    Isotropic =    28.0872   Anisotropy =     4.9900
   XX=    28.8242   YX=    -0.0079   ZX=    -0.5957
   XY=     0.1342   YY=    31.3665   ZY=    -0.7757
   XZ=    -0.5479   YZ=    -0.3457   ZZ=    24.0708
   Eigenvalues:    23.9622    28.8855    31.4138
     20  C    Isotropic =   151.1983   Anisotropy =    26.2413
   XX=   165.2228   YX=    -5.8769   ZX=     1.5279
   XY=   -12.4742   YY=   125.8032   ZY=     5.9641
   XZ=    -5.1256   YZ=     4.1876   ZZ=   162.5689
   Eigenvalues:   123.2393   161.6631   168.6925
     21  H    Isotropic =    29.7088   Anisotropy =    12.2968
   XX=    35.5745   YX=     0.4021   ZX=    -4.3321
   XY=     0.1578   YY=    24.2867   ZY=     0.8667
   XZ=    -4.6464   YZ=     0.2424   ZZ=    29.2653
   Eigenvalues:    24.1481    27.0717    37.9067
     22  H    Isotropic =    28.0875   Anisotropy =     4.9902
   XX=    28.8239   YX=     0.0071   ZX=    -0.5949
   XY=    -0.1350   YY=    31.3668   ZY=     0.7766
   XZ=    -0.5468   YZ=     0.3466   ZZ=    24.0718
   Eigenvalues:    23.9633    28.8849    31.4143
     23  C    Isotropic =   145.5802   Anisotropy =    21.8808
   XX=   153.1213   YX=     0.9397   ZX=   -11.0133
   XY=     6.1984   YY=   128.4846   ZY=    12.7483
   XZ=     1.6853   YZ=     7.2242   ZZ=   155.1346
   Eigenvalues:   124.3283   152.2448   160.1674
     24  H    Isotropic =    28.9922   Anisotropy =    11.0099
   XX=    34.1160   YX=    -2.3529   ZX=     3.6307
   XY=    -2.0551   YY=    25.0822   ZY=    -0.3802
   XZ=     3.8903   YZ=    -1.0124   ZZ=    27.7783
   Eigenvalues:    24.5573    26.0871    36.3321
     25  H    Isotropic =    29.8401   Anisotropy =     9.4315
   XX=    31.8124   YX=     4.8288   ZX=    -0.1689
   XY=     4.5533   YY=    30.9373   ZY=     1.3700
   XZ=    -0.4795   YZ=     1.1770   ZZ=    26.7706
   Eigenvalues:    25.5387    27.8539    36.1278
     26  C    Isotropic =   157.2558   Anisotropy =    23.6858
   XX=   155.8734   YX=    -3.2447   ZX=    -8.6178
   XY=     0.0242   YY=   150.3864   ZY=    -8.5282
   XZ=    -9.7319   YZ=    -8.6010   ZZ=   165.5074
   Eigenvalues:   143.7291   154.9919   173.0463
     27  H    Isotropic =    30.0006   Anisotropy =     6.3091
   XX=    27.5092   YX=    -2.1996   ZX=    -0.1605
   XY=    -2.0551   YY=    33.4660   ZY=    -0.5116
   XZ=     3.5215   YZ=     0.4673   ZZ=    29.0266
   Eigenvalues:    25.9833    29.8118    34.2066
     28  H    Isotropic =    29.6023   Anisotropy =    11.2439
   XX=    32.4882   YX=    -0.1050   ZX=     4.1178
   XY=    -0.8201   YY=    23.9256   ZY=    -2.0787
   XZ=     4.8478   YZ=    -1.2846   ZZ=    32.3930
   Eigenvalues:    23.5813    28.1272    37.0982
     29  C    Isotropic =   159.7160   Anisotropy =    12.1745
   XX=   154.1935   YX=    -4.7348   ZX=     2.1429
   XY=    -5.9711   YY=   157.8653   ZY=    -1.9432
   XZ=     0.6023   YZ=    -1.3424   ZZ=   167.0892
   Eigenvalues:   150.3687   160.9469   167.8323
     30  H    Isotropic =    29.7817   Anisotropy =     6.2899
   XX=    29.9438   YX=     2.8158   ZX=     2.0149
   XY=     3.0662   YY=    28.4529   ZY=     2.7735
   XZ=     0.7819   YZ=     1.0447   ZZ=    30.9485
   Eigenvalues:    26.0607    29.3095    33.9750
     31  H    Isotropic =    29.6715   Anisotropy =    11.7322
   XX=    29.7742   YX=    -3.0236   ZX=    -4.3567
   XY=    -3.2973   YY=    25.9446   ZY=     1.2892
   XZ=    -5.8212   YZ=     0.4210   ZZ=    33.2956
   Eigenvalues:    23.6986    27.8229    37.4930
     32  C    Isotropic =   159.7158   Anisotropy =    12.1728
   XX=   154.1896   YX=     4.7340   ZX=     2.1423
   XY=     5.9703   YY=   157.8692   ZY=     1.9427
   XZ=     0.6023   YZ=     1.3405   ZZ=   167.0885
   Eigenvalues:   150.3683   160.9481   167.8310
     33  H    Isotropic =    29.7815   Anisotropy =     6.2898
   XX=    29.9452   YX=    -2.8170   ZX=     2.0149
   XY=    -3.0675   YY=    28.4513   ZY=    -2.7722
   XZ=     0.7819   YZ=    -1.0431   ZZ=    30.9481
   Eigenvalues:    26.0593    29.3106    33.9747
     34  H    Isotropic =    29.6715   Anisotropy =    11.7321
   XX=    29.7720   YX=     3.0247   ZX=    -4.3564
   XY=     3.2986   YY=    25.9470   ZY=    -1.2907
   XZ=    -5.8212   YZ=    -0.4223   ZZ=    33.2955
   Eigenvalues:    23.6986    27.8230    37.4929
     35  C    Isotropic =   157.2554   Anisotropy =    23.6862
   XX=   155.8737   YX=     3.2446   ZX=    -8.6183
   XY=    -0.0252   YY=   150.3864   ZY=     8.5282
   XZ=    -9.7327   YZ=     8.6019   ZZ=   165.5062
   Eigenvalues:   143.7286   154.9914   173.0462
     36  H    Isotropic =    30.0007   Anisotropy =     6.3093
   XX=    27.5098   YX=     2.2001   ZX=    -0.1608
   XY=     2.0557   YY=    33.4657   ZY=     0.5119
   XZ=     3.5210   YZ=    -0.4669   ZZ=    29.0265
   Eigenvalues:    25.9839    29.8112    34.2069
     37  H    Isotropic =    29.6022   Anisotropy =    11.2440
   XX=    32.4875   YX=     0.1046   ZX=     4.1179
   XY=     0.8198   YY=    23.9256   ZY=     2.0786
   XZ=     4.8481   YZ=     1.2844   ZZ=    32.3935
   Eigenvalues:    23.5815    28.1269    37.0982
     38  C    Isotropic =   169.8502   Anisotropy =    21.1489
   XX=   175.5556   YX=    -2.5619   ZX=   -11.1481
   XY=    -3.6622   YY=   160.6177   ZY=    -2.1053
   XZ=    -7.5833   YZ=    -1.5484   ZZ=   173.3773
   Eigenvalues:   158.7064   166.8948   183.9495
     39  H    Isotropic =    30.8399   Anisotropy =    12.2878
   XX=    28.0359   YX=     0.2710   ZX=    -2.2550
   XY=    -0.3826   YY=    27.4411   ZY=    -4.7668
   XZ=    -0.5736   YZ=    -4.4011   ZZ=    37.0426
   Eigenvalues:    25.4675    28.0204    39.0318
     40  H    Isotropic =    31.2360   Anisotropy =     8.7914
   XX=    34.8617   YX=     0.1056   ZX=     2.5682
   XY=    -0.2956   YY=    24.9712   ZY=    -1.3539
   XZ=     2.7946   YZ=     2.0753   ZZ=    33.8752
   Eigenvalues:    24.9520    31.6591    37.0969
     41  H    Isotropic =    30.3474   Anisotropy =     6.1113
   XX=    28.4913   YX=    -3.0375   ZX=    -0.7187
   XY=    -2.1030   YY=    30.7159   ZY=     1.5589
   XZ=     0.0874   YZ=     3.3289   ZZ=    31.8351
   Eigenvalues:    26.5422    30.0785    34.4216
     42  C    Isotropic =   169.5699   Anisotropy =    11.1729
   XX=   168.3064   YX=    -1.2291   ZX=    -7.5846
   XY=    -3.6540   YY=   170.0288   ZY=     1.9352
   XZ=    -5.3670   YZ=     1.2297   ZZ=   170.3745
   Eigenvalues:   162.6805   169.0106   177.0185
     43  H    Isotropic =    29.9725   Anisotropy =     6.1152
   XX=    28.3575   YX=     3.2418   ZX=    -0.2750
   XY=     3.6665   YY=    31.8139   ZY=    -0.0472
   XZ=    -0.7749   YZ=    -0.8550   ZZ=    29.7461
   Eigenvalues:    26.2108    29.6574    34.0493
     44  H    Isotropic =    30.4695   Anisotropy =    11.5512
   XX=    26.8194   YX=    -0.4321   ZX=     0.0879
   XY=    -0.7757   YY=    28.2056   ZY=    -4.1166
   XZ=     0.0853   YZ=    -4.2982   ZZ=    36.3835
   Eigenvalues:    26.0627    27.1755    38.1703
     45  H    Isotropic =    28.8436   Anisotropy =    13.1295
   XX=    30.4259   YX=    -1.5301   ZX=    -6.7292
   XY=    -2.4128   YY=    23.8216   ZY=    -0.1966
   XZ=    -5.5360   YZ=    -1.2711   ZZ=    32.2832
   Eigenvalues:    22.3813    26.5529    37.5965
     46  C    Isotropic =   169.5763   Anisotropy =    11.1630
   XX=   168.3087   YX=     1.2319   ZX=    -7.5771
   XY=     3.6534   YY=   170.0412   ZY=    -1.9334
   XZ=    -5.3626   YZ=    -1.2301   ZZ=   170.3790
   Eigenvalues:   162.6892   169.0213   177.0183
     47  H    Isotropic =    29.9730   Anisotropy =     6.1176
   XX=    28.3608   YX=    -3.2430   ZX=    -0.2748
   XY=    -3.6680   YY=    31.8134   ZY=     0.0487
   XZ=    -0.7748   YZ=     0.8566   ZZ=    29.7449
   Eigenvalues:    26.2119    29.6558    34.0514
     48  H    Isotropic =    28.8438   Anisotropy =    13.1275
   XX=    30.4246   YX=     1.5315   ZX=    -6.7288
   XY=     2.4143   YY=    23.8250   ZY=     0.1957
   XZ=    -5.5364   YZ=     1.2700   ZZ=    32.2819
   Eigenvalues:    22.3826    26.5535    37.5955
     49  H    Isotropic =    30.4697   Anisotropy =    11.5517
   XX=    26.8189   YX=     0.4317   ZX=     0.0879
   XY=     0.7751   YY=    28.2061   ZY=     4.1168
   XZ=     0.0849   YZ=     4.2980   ZZ=    36.3840
   Eigenvalues:    26.0632    27.1750    38.1708
     50  C    Isotropic =   169.8498   Anisotropy =    21.1481
   XX=   175.5577   YX=     2.5619   ZX=   -11.1460
   XY=     3.6622   YY=   160.6155   ZY=     2.1058
   XZ=    -7.5821   YZ=     1.5492   ZZ=   173.3762
   Eigenvalues:   158.7048   166.8961   183.9485
     51  H    Isotropic =    30.3474   Anisotropy =     6.1108
   XX=    28.4923   YX=     3.0385   ZX=    -0.7188
   XY=     2.1042   YY=    30.7152   ZY=    -1.5583
   XZ=     0.0875   YZ=    -3.3285   ZZ=    31.8345
   Eigenvalues:    26.5417    30.0792    34.4212
     52  H    Isotropic =    31.2360   Anisotropy =     8.7917
   XX=    34.8610   YX=    -0.1057   ZX=     2.5686
   XY=     0.2958   YY=    24.9714   ZY=     1.3540
   XZ=     2.7951   YZ=    -2.0758   ZZ=    33.8758
   Eigenvalues:    24.9522    31.6587    37.0972
     53  H    Isotropic =    30.8399   Anisotropy =    12.2876
   XX=    28.0364   YX=    -0.2712   ZX=    -2.2553
   XY=     0.3824   YY=    27.4413   ZY=     4.7672
   XZ=    -0.5741   YZ=     4.4014   ZZ=    37.0421
   Eigenvalues:    25.4673    28.0208    39.0317
     54  C    Isotropic =    45.6584   Anisotropy =   184.6200
   XX=   -64.0351   YX=     4.6135   ZX=    -2.5951
   XY=     6.0356   YY=    32.3164   ZY=     2.0793
   XZ=    -1.0667   YZ=    -6.0438   ZZ=   168.6939
   Eigenvalues:   -64.3411    32.5780   168.7384
     55  H    Isotropic =    23.4933   Anisotropy =    11.4281
   XX=    20.4421   YX=    -0.0325   ZX=     0.2155
   XY=    -0.5420   YY=    31.0502   ZY=     0.2771
   XZ=     0.1695   YZ=     1.3546   ZZ=    18.9878
   Eigenvalues:    18.9037    20.4643    31.1121
     56  C    Isotropic =    49.2410   Anisotropy =   190.1452
   XX=     7.8851   YX=    40.8344   ZX=    -5.3576
   XY=    42.2876   YY=   -35.9650   ZY=     2.0415
   XZ=    -6.2796   YZ=     0.4250   ZZ=   175.8029
   Eigenvalues:   -61.0992    32.8178   176.0045
     57  H    Isotropic =    23.5752   Anisotropy =     5.5500
   XX=    25.2095   YX=     1.6497   ZX=     0.3325
   XY=     1.6270   YY=    25.9575   ZY=     0.1473
   XZ=     0.3099   YZ=     0.0933   ZZ=    19.5587
   Eigenvalues:    19.5404    23.9101    27.2752
     58  C    Isotropic =    49.2412   Anisotropy =   190.1445
   XX=     7.8856   YX=   -40.8348   ZX=    -5.3530
   XY=   -42.2879   YY=   -35.9649   ZY=    -2.0258
   XZ=    -6.2773   YZ=    -0.4077   ZZ=   175.8028
   Eigenvalues:   -61.0988    32.8181   176.0042
     59  H    Isotropic =    23.5753   Anisotropy =     5.5499
   XX=    25.2095   YX=    -1.6497   ZX=     0.3326
   XY=    -1.6271   YY=    25.9575   ZY=    -0.1476
   XZ=     0.3099   YZ=    -0.0938   ZZ=    19.5590
   Eigenvalues:    19.5407    23.9101    27.2752
     60  C    Isotropic =    45.6598   Anisotropy =   184.6210
   XX=   -64.0334   YX=    -4.6124   ZX=    -2.5880
   XY=    -6.0361   YY=    32.3170   ZY=    -2.0689
   XZ=    -1.0588   YZ=     6.0544   ZZ=   168.6959
   Eigenvalues:   -64.3393    32.5783   168.7405
     61  H    Isotropic =    23.4933   Anisotropy =    11.4281
   XX=    20.4420   YX=     0.0323   ZX=     0.2154
   XY=     0.5420   YY=    31.0501   ZY=    -0.2775
   XZ=     0.1692   YZ=    -1.3549   ZZ=    18.9880
   Eigenvalues:    18.9039    20.4641    31.1121
     62  Cl   Isotropic =   940.8216   Anisotropy =   483.9058
   XX=   701.2783   YX=  -101.9531   ZX=    71.6568
   XY=  -108.0989   YY=   861.4854   ZY=   -38.0588
   XZ=   -36.4922   YZ=   114.3044   ZZ=  1259.7009
   Eigenvalues:   647.5437   911.4956  1263.4254
     63  Pd   Isotropic =  -129.5748   Anisotropy =   208.2528
   XX=   -27.8453   YX=    -0.0007   ZX=   -16.8884
   XY=    -0.0055   YY=     9.2604   ZY=     0.0094
   XZ=    17.3812   YZ=     0.0067   ZZ=  -370.1396
   Eigenvalues:  -370.1397   -27.8451     9.2604
 End of Minotr F.D. properties file   721 does not exist.
 End of Minotr F.D. properties file   722 does not exist.
 End of Minotr F.D. properties file   788 does not exist.

 **********************************************************************

            Population analysis using the SCF density.

 **********************************************************************

 Orbital symmetries:
       Occupied  (A) (A) (A) (A) (A) (A) (A) (A) (A) (A) (A) (A)
                 (A) (A) (A) (A) (A) (A) (A) (A) (A) (A) (A) (A)
                 (A) (A) (A) (A) (A) (A) (A) (A) (A) (A) (A) (A)
                 (A) (A) (A) (A) (A) (A) (A) (A) (A) (A) (A) (A)
                 (A) (A) (A) (A) (A) (A) (A) (A) (A) (A) (A) (A)
                 (A) (A) (A) (A) (A) (A) (A) (A) (A) (A) (A) (A)
                 (A) (A) (A) (A) (A) (A) (A) (A) (A) (A) (A) (A)
                 (A) (A) (A) (A) (A) (A) (A) (A) (A) (A) (A) (A)
                 (A) (A) (A) (A) (A) (A) (A) (A) (A) (A) (A) (A)
                 (A) (A) (A) (A) (A) (A) (A) (A) (A) (A) (A) (A)
                 (A) (A) (A) (A) (A)
       Virtual   (A) (A) (A) (A) (A) (A) (A) (A) (A) (A) (A) (A)
                 (A) (A) (A) (A) (A) (A) (A) (A) (A) (A) (A) (A)
                 (A) (A) (A) (A) (A) (A) (A) (A) (A) (A) (A) (A)
                 (A) (A) (A) (A) (A) (A) (A) (A) (A) (A) (A) (A)
                 (A) (A) (A) (A) (A) (A) (A) (A) (A) (A) (A) (A)
                 (A) (A) (A) (A) (A) (A) (A) (A) (A) (A) (A) (A)
                 (A) (A) (A) (A) (A) (A) (A) (A) (A) (A) (A) (A)
                 (A) (A) (A) (A) (A) (A) (A) (A) (A) (A) (A) (A)
                 (A) (A) (A) (A) (A) (A) (A) (A) (A) (A) (A) (A)
                 (A) (A) (A) (A) (A) (A) (A) (A) (A) (A) (A) (A)
                 (A) (A) (A) (A) (A) (A) (A) (A) (A) (A) (A) (A)
                 (A) (A) (A) (A) (A) (A) (A) (A) (A) (A) (A) (A)
                 (A) (A) (A) (A) (A) (A) (A) (A) (A) (A) (A) (A)
                 (A) (A) (A) (A) (A) (A) (A) (A) (A) (A) (A) (A)
                 (A) (A) (A) (A) (A) (A) (A) (A) (A) (A) (A) (A)
                 (A) (A) (A) (A) (A) (A) (A) (A) (A) (A) (A) (A)
                 (A) (A) (A) (A) (A) (A) (A) (A) (A) (A) (A) (A)
                 (A) (A) (A) (A) (A) (A) (A) (A) (A) (A) (A) (A)
                 (A) (A) (A) (A) (A) (A) (A) (A) (A) (A) (A) (A)
                 (A) (A) (A) (A) (A) (A) (A) (A) (A) (A) (A) (A)
                 (A) (A) (A) (A) (A) (A) (A) (A) (A) (A) (A) (A)
                 (A) (A) (A) (A) (A) (A) (A) (A) (A) (A) (A) (A)
                 (A) (A) (A) (A) (A) (A) (A) (A) (A) (A) (A) (A)
                 (A) (A) (A) (A) (A) (A) (A) (A) (A) (A) (A) (A)
                 (A) (A) (A) (A) (A) (A) (A) (A) (A) (A) (A) (A)
                 (A) (A) (A) (A) (A) (A) (A) (A) (A) (A) (A) (A)
                 (A) (A) (A) (A) (A) (A) (A) (A) (A) (A) (A) (A)
                 (A) (A) (A) (A) (A) (A) (A) (A) (A) (A) (A) (A)
                 (A) (A) (A) (A) (A) (A) (A) (A) (A) (A) (A) (A)
                 (A) (A) (A) (A) (A) (A) (A) (A) (A) (A) (A) (A)
                 (A) (A) (A) (A) (A) (A) (A) (A) (A) (A) (A) (A)
                 (A) (A) (A) (A) (A) (A) (A) (A) (A) (A) (A) (A)
                 (A) (A) (A) (A) (A) (A) (A) (A) (A) (A) (A) (A)
                 (A) (A) (A) (A) (A) (A) (A) (A) (A) (A) (A) (A)
                 (A) (A) (A) (A) (A) (A) (A) (A) (A) (A) (A) (A)
                 (A) (A) (A) (A) (A) (A) (A) (A) (A) (A) (A) (A)
                 (A) (A) (A) (A) (A) (A) (A) (A) (A) (A) (A) (A)
                 (A) (A) (A) (A) (A) (A) (A) (A) (A) (A) (A) (A)
                 (A) (A) (A) (A) (A) (A) (A) (A) (A) (A) (A) (A)
                 (A) (A) (A) (A) (A) (A) (A) (A) (A) (A) (A) (A)
                 (A) (A) (A) (A) (A) (A) (A) (A) (A) (A) (A) (A)
                 (A) (A) (A) (A) (A) (A) (A) (A) (A) (A) (A) (A)
                 (A) (A) (A) (A) (A) (A) (A) (A) (A) (A) (A) (A)
                 (A) (A) (A) (A) (A) (A) (A) (A) (A) (A) (A) (A)
                 (A) (A) (A) (A) (A) (A) (A) (A) (A) (A) (A) (A)
                 (A) (A) (A) (A) (A) (A) (A) (A) (A) (A) (A) (A)
                 (A) (A) (A) (A) (A) (A) (A) (A) (A) (A) (A) (A)
                 (A) (A) (A) (A) (A) (A) (A) (A) (A) (A) (A) (A)
                 (A) (A) (A) (A) (A) (A) (A) (A) (A) (A) (A) (A)
                 (A) (A) (A) (A) (A) (A) (A) (A) (A) (A) (A) (A)
                 (A) (A) (A) (A) (A) (A) (A) (A) (A) (A) (A) (A)
                 (A) (A) (A) (A) (A) (A) (A) (A) (A) (A) (A) (A)
                 (A) (A) (A) (A) (A) (A) (A) (A) (A) (A) (A) (A)
                 (A) (A) (A) (A) (A) (A) (A) (A) (A) (A) (A) (A)
                 (A) (A) (A) (A) (A) (A) (A) (A) (A) (A) (A) (A)
                 (A) (A) (A) (A) (A) (A) (A) (A) (A) (A) (A) (A)
                 (A) (A) (A) (A) (A) (A) (A) (A) (A) (A) (A) (A)
                 (A) (A) (A) (A) (A) (A) (A) (A) (A) (A) (A) (A)
                 (A) (A) (A) (A) (A) (A) (A) (A) (A) (A) (A) (A)
                 (A) (A) (A) (A) (A) (A) (A) (A) (A) (A) (A) (A)
                 (A) (A) (A) (A) (A) (A) (A) (A) (A) (A) (A) (A)
                 (A) (A) (A) (A) (A) (A) (A) (A) (A) (A) (A) (A)
                 (A) (A) (A) (A) (A) (A) (A) (A) (A) (A) (A) (A)
                 (A) (A) (A) (A) (A) (A) (A) (A) (A) (A) (A) (A)
                 (A) (A) (A) (A) (A) (A) (A) (A) (A) (A) (A) (A)
                 (A) (A) (A) (A) (A) (A) (A) (A) (A) (A) (A) (A)
                 (A) (A) (A) (A) (A) (A) (A) (A) (A) (A) (A) (A)
                 (A) (A) (A) (A) (A) (A) (A) (A) (A) (A) (A) (A)
                 (A) (A) (A) (A) (A) (A) (A) (A) (A) (A) (A) (A)
                 (A) (A) (A) (A) (A) (A) (A) (A) (A) (A) (A) (A)
                 (A) (A) (A) (A) (A) (A) (A) (A) (A) (A) (A) (A)
                 (A) (A) (A) (A) (A) (A) (A) (A) (A) (A) (A) (A)
                 (A) (A) (A) (A) (A) (A) (A) (A) (A) (A) (A) (A)
                 (A) (A) (A) (A) (A) (A) (A) (A) (A) (A) (A) (A)
                 (A) (A) (A) (A) (A) (A) (A) (A) (A) (A) (A) (A)
                 (A) (A) (A) (A) (A) (A) (A) (A) (A) (A) (A) (A)
                 (A) (A) (A) (A) (A) (A) (A) (A) (A) (A) (A) (A)
                 (A) (A) (A) (A) (A) (A) (A) (A) (A) (A) (A) (A)
                 (A) (A) (A) (A) (A) (A) (A) (A) (A) (A) (A) (A)
                 (A) (A) (A) (A) (A) (A) (A) (A) (A)
 The electronic state is 1-A.
 Alpha  occ. eigenvalues -- -101.61007-101.61006 -77.25998 -77.25998 -10.28070
 Alpha  occ. eigenvalues --  -10.28019 -10.27331 -10.27330 -10.27076 -10.27020
 Alpha  occ. eigenvalues --  -10.25912 -10.25912 -10.25246 -10.25245 -10.24099
 Alpha  occ. eigenvalues --  -10.24099 -10.24095 -10.24095 -10.23381 -10.23381
 Alpha  occ. eigenvalues --  -10.23327 -10.23326 -10.22313 -10.22313 -10.20168
 Alpha  occ. eigenvalues --  -10.20168  -9.43524  -9.43524  -7.16680  -7.16679
 Alpha  occ. eigenvalues --   -7.16262  -7.16262  -7.16231  -7.16230  -6.65291
 Alpha  occ. eigenvalues --   -6.65291  -4.78907  -4.78907  -4.78794  -4.78794
 Alpha  occ. eigenvalues --   -4.78639  -4.78639  -3.52120  -2.19837  -2.19690
 Alpha  occ. eigenvalues --   -2.16500  -0.91996  -0.87590  -0.87498  -0.82350
 Alpha  occ. eigenvalues --   -0.82234  -0.81448  -0.80881  -0.78532  -0.78357
 Alpha  occ. eigenvalues --   -0.73967  -0.73355  -0.72577  -0.72403  -0.71884
 Alpha  occ. eigenvalues --   -0.70985  -0.67237  -0.66382  -0.64300  -0.63478
 Alpha  occ. eigenvalues --   -0.63184  -0.62981  -0.59783  -0.58906  -0.57629
 Alpha  occ. eigenvalues --   -0.55438  -0.53171  -0.51340  -0.50826  -0.50010
 Alpha  occ. eigenvalues --   -0.49992  -0.48999  -0.48332  -0.47628  -0.47038
 Alpha  occ. eigenvalues --   -0.46327  -0.45818  -0.45351  -0.44899  -0.44554
 Alpha  occ. eigenvalues --   -0.44037  -0.43145  -0.42935  -0.42525  -0.41571
 Alpha  occ. eigenvalues --   -0.41257  -0.40043  -0.39844  -0.39101  -0.38380
 Alpha  occ. eigenvalues --   -0.38321  -0.38208  -0.37625  -0.37290  -0.37175
 Alpha  occ. eigenvalues --   -0.36743  -0.36051  -0.35873  -0.35475  -0.35374
 Alpha  occ. eigenvalues --   -0.35068  -0.34671  -0.34573  -0.34461  -0.34232
 Alpha  occ. eigenvalues --   -0.33741  -0.33632  -0.33612  -0.33111  -0.30855
 Alpha  occ. eigenvalues --   -0.30826  -0.29711  -0.29123  -0.28384  -0.28241
 Alpha  occ. eigenvalues --   -0.25694  -0.24843  -0.24011  -0.23859  -0.23473
 Alpha virt. eigenvalues --   -0.06549  -0.06370  -0.06180  -0.00011   0.00104
 Alpha virt. eigenvalues --    0.01888   0.02447   0.02555   0.03651   0.03751
 Alpha virt. eigenvalues --    0.04788   0.05321   0.05337   0.05734   0.06010
 Alpha virt. eigenvalues --    0.06046   0.06917   0.07554   0.08074   0.08214
 Alpha virt. eigenvalues --    0.08722   0.08994   0.09219   0.09296   0.09879
 Alpha virt. eigenvalues --    0.10144   0.10554   0.10993   0.11426   0.11579
 Alpha virt. eigenvalues --    0.12008   0.12121   0.12272   0.12549   0.12957
 Alpha virt. eigenvalues --    0.12984   0.13390   0.13859   0.13888   0.14470
 Alpha virt. eigenvalues --    0.14576   0.14661   0.14900   0.15359   0.15520
 Alpha virt. eigenvalues --    0.15754   0.15913   0.16186   0.16666   0.17259
 Alpha virt. eigenvalues --    0.17442   0.17577   0.18000   0.18064   0.18839
 Alpha virt. eigenvalues --    0.19388   0.19636   0.19752   0.19900   0.19954
 Alpha virt. eigenvalues --    0.20283   0.20821   0.21051   0.21099   0.21768
 Alpha virt. eigenvalues --    0.22048   0.22246   0.22664   0.22766   0.23146
 Alpha virt. eigenvalues --    0.23455   0.23507   0.24352   0.24518   0.24727
 Alpha virt. eigenvalues --    0.25514   0.25799   0.25924   0.26316   0.26451
 Alpha virt. eigenvalues --    0.27000   0.27571   0.27603   0.27685   0.28241
 Alpha virt. eigenvalues --    0.28534   0.28644   0.28990   0.29553   0.30213
 Alpha virt. eigenvalues --    0.30386   0.30597   0.30928   0.31094   0.32381
 Alpha virt. eigenvalues --    0.32643   0.33265   0.33622   0.33937   0.34104
 Alpha virt. eigenvalues --    0.34610   0.34651   0.35712   0.35788   0.36162
 Alpha virt. eigenvalues --    0.36468   0.36629   0.36890   0.37454   0.37613
 Alpha virt. eigenvalues --    0.38492   0.38833   0.39361   0.39644   0.39748
 Alpha virt. eigenvalues --    0.40268   0.40279   0.40662   0.41009   0.41059
 Alpha virt. eigenvalues --    0.41061   0.41457   0.41779   0.41781   0.42105
 Alpha virt. eigenvalues --    0.42600   0.42657   0.42791   0.43111   0.43670
 Alpha virt. eigenvalues --    0.43808   0.43954   0.44149   0.44693   0.45005
 Alpha virt. eigenvalues --    0.45163   0.45551   0.45644   0.45661   0.46069
 Alpha virt. eigenvalues --    0.46080   0.46332   0.46380   0.46757   0.46832
 Alpha virt. eigenvalues --    0.47068   0.47240   0.47502   0.48031   0.48040
 Alpha virt. eigenvalues --    0.48318   0.48391   0.48501   0.48870   0.49383
 Alpha virt. eigenvalues --    0.50079   0.50132   0.50345   0.50539   0.51078
 Alpha virt. eigenvalues --    0.51360   0.51438   0.51861   0.52086   0.52202
 Alpha virt. eigenvalues --    0.52457   0.52873   0.53120   0.53344   0.53671
 Alpha virt. eigenvalues --    0.53862   0.54161   0.54574   0.54898   0.55364
 Alpha virt. eigenvalues --    0.55488   0.56098   0.56883   0.57116   0.57790
 Alpha virt. eigenvalues --    0.58030   0.58249   0.58729   0.59075   0.59757
 Alpha virt. eigenvalues --    0.59835   0.60133   0.61496   0.61623   0.61716
 Alpha virt. eigenvalues --    0.61775   0.62460   0.62995   0.63504   0.63843
 Alpha virt. eigenvalues --    0.64212   0.64397   0.65172   0.65442   0.65747
 Alpha virt. eigenvalues --    0.66088   0.66428   0.67031   0.67210   0.67542
 Alpha virt. eigenvalues --    0.68405   0.69514   0.70116   0.70684   0.71014
 Alpha virt. eigenvalues --    0.71152   0.71311   0.72024   0.72059   0.72700
 Alpha virt. eigenvalues --    0.72777   0.72797   0.73899   0.75028   0.75058
 Alpha virt. eigenvalues --    0.75741   0.75936   0.76301   0.76874   0.78117
 Alpha virt. eigenvalues --    0.78595   0.78940   0.79184   0.79904   0.80001
 Alpha virt. eigenvalues --    0.80103   0.80749   0.81053   0.81361   0.82433
 Alpha virt. eigenvalues --    0.82517   0.82854   0.83596   0.83746   0.83915
 Alpha virt. eigenvalues --    0.84990   0.85506   0.86014   0.86571   0.86653
 Alpha virt. eigenvalues --    0.86922   0.87751   0.88332   0.88856   0.89217
 Alpha virt. eigenvalues --    0.89651   0.89874   0.90845   0.91094   0.92015
 Alpha virt. eigenvalues --    0.92048   0.92655   0.93486   0.93756   0.94259
 Alpha virt. eigenvalues --    0.94324   0.95158   0.95235   0.95878   0.96232
 Alpha virt. eigenvalues --    0.96317   0.97442   0.97732   0.97959   0.99920
 Alpha virt. eigenvalues --    1.00005   1.00649   1.00972   1.01794   1.01948
 Alpha virt. eigenvalues --    1.02859   1.03240   1.03274   1.04477   1.04715
 Alpha virt. eigenvalues --    1.04902   1.05381   1.05463   1.06129   1.06253
 Alpha virt. eigenvalues --    1.07366   1.07580   1.08726   1.09305   1.10031
 Alpha virt. eigenvalues --    1.10634   1.11213   1.11395   1.11583   1.12871
 Alpha virt. eigenvalues --    1.13154   1.13531   1.13765   1.14515   1.14533
 Alpha virt. eigenvalues --    1.15441   1.15977   1.16297   1.16742   1.17220
 Alpha virt. eigenvalues --    1.18811   1.19523   1.19585   1.20609   1.21008
 Alpha virt. eigenvalues --    1.21207   1.21782   1.22299   1.23014   1.23075
 Alpha virt. eigenvalues --    1.23279   1.23680   1.24007   1.24379   1.24903
 Alpha virt. eigenvalues --    1.25151   1.25928   1.26088   1.26594   1.27260
 Alpha virt. eigenvalues --    1.27906   1.28578   1.28711   1.29100   1.29203
 Alpha virt. eigenvalues --    1.29514   1.29756   1.31109   1.32145   1.32146
 Alpha virt. eigenvalues --    1.32878   1.33662   1.34255   1.35378   1.35598
 Alpha virt. eigenvalues --    1.36429   1.37196   1.37790   1.38731   1.39998
 Alpha virt. eigenvalues --    1.40446   1.40858   1.40920   1.40988   1.42013
 Alpha virt. eigenvalues --    1.44435   1.45166   1.45392   1.45700   1.46966
 Alpha virt. eigenvalues --    1.47069   1.47767   1.49592   1.50859   1.51767
 Alpha virt. eigenvalues --    1.51858   1.52518   1.53356   1.54612   1.54805
 Alpha virt. eigenvalues --    1.55108   1.55803   1.55938   1.56384   1.56825
 Alpha virt. eigenvalues --    1.57277   1.57645   1.57965   1.58404   1.59365
 Alpha virt. eigenvalues --    1.59430   1.59461   1.59699   1.60339   1.60517
 Alpha virt. eigenvalues --    1.60916   1.61882   1.62317   1.62499   1.62881
 Alpha virt. eigenvalues --    1.63205   1.63518   1.63577   1.64401   1.64622
 Alpha virt. eigenvalues --    1.65176   1.65406   1.65762   1.66385   1.66392
 Alpha virt. eigenvalues --    1.66674   1.66748   1.67666   1.67720   1.68645
 Alpha virt. eigenvalues --    1.68755   1.69615   1.69662   1.70394   1.70421
 Alpha virt. eigenvalues --    1.70797   1.71329   1.72021   1.73087   1.73325
 Alpha virt. eigenvalues --    1.73571   1.73815   1.75124   1.75226   1.75538
 Alpha virt. eigenvalues --    1.76746   1.77098   1.77623   1.78309   1.78618
 Alpha virt. eigenvalues --    1.79277   1.80124   1.80512   1.80996   1.81337
 Alpha virt. eigenvalues --    1.82204   1.83026   1.83544   1.83981   1.84300
 Alpha virt. eigenvalues --    1.85434   1.86326   1.86546   1.86672   1.86780
 Alpha virt. eigenvalues --    1.87820   1.87838   1.88086   1.88999   1.89253
 Alpha virt. eigenvalues --    1.90293   1.90819   1.92062   1.92113   1.92592
 Alpha virt. eigenvalues --    1.92610   1.93249   1.94140   1.94920   1.95912
 Alpha virt. eigenvalues --    1.96008   1.96377   1.96740   1.96924   1.98695
 Alpha virt. eigenvalues --    1.99502   1.99612   1.99908   2.00886   2.01502
 Alpha virt. eigenvalues --    2.01604   2.02280   2.02718   2.02916   2.03247
 Alpha virt. eigenvalues --    2.03665   2.03793   2.04499   2.04635   2.05088
 Alpha virt. eigenvalues --    2.05602   2.06273   2.06589   2.07506   2.08105
 Alpha virt. eigenvalues --    2.08346   2.09062   2.09227   2.10676   2.10957
 Alpha virt. eigenvalues --    2.11235   2.12394   2.12668   2.12833   2.13590
 Alpha virt. eigenvalues --    2.14470   2.14539   2.15369   2.16192   2.16272
 Alpha virt. eigenvalues --    2.17352   2.17549   2.17966   2.18623   2.18703
 Alpha virt. eigenvalues --    2.19336   2.19922   2.20574   2.20737   2.20970
 Alpha virt. eigenvalues --    2.21214   2.21810   2.22122   2.22827   2.24338
 Alpha virt. eigenvalues --    2.24375   2.25007   2.25623   2.26542   2.26620
 Alpha virt. eigenvalues --    2.26990   2.27571   2.28611   2.28817   2.29293
 Alpha virt. eigenvalues --    2.29975   2.30314   2.30591   2.31582   2.31643
 Alpha virt. eigenvalues --    2.33661   2.33891   2.34564   2.34570   2.35126
 Alpha virt. eigenvalues --    2.35557   2.36425   2.36631   2.37559   2.37961
 Alpha virt. eigenvalues --    2.38212   2.38916   2.38935   2.39458   2.40780
 Alpha virt. eigenvalues --    2.41306   2.42121   2.42573   2.43054   2.43188
 Alpha virt. eigenvalues --    2.43425   2.44574   2.45088   2.45227   2.45538
 Alpha virt. eigenvalues --    2.45941   2.46252   2.47107   2.47241   2.47953
 Alpha virt. eigenvalues --    2.48858   2.48893   2.49673   2.49928   2.50384
 Alpha virt. eigenvalues --    2.50564   2.50935   2.52201   2.53092   2.53114
 Alpha virt. eigenvalues --    2.53446   2.53740   2.53815   2.54502   2.54629
 Alpha virt. eigenvalues --    2.55061   2.55460   2.56125   2.56520   2.57367
 Alpha virt. eigenvalues --    2.58076   2.58416   2.58875   2.59009   2.59256
 Alpha virt. eigenvalues --    2.59635   2.59988   2.60491   2.60513   2.60797
 Alpha virt. eigenvalues --    2.61829   2.62024   2.62459   2.62582   2.62664
 Alpha virt. eigenvalues --    2.63288   2.63633   2.65094   2.65195   2.65483
 Alpha virt. eigenvalues --    2.65767   2.65942   2.66420   2.67024   2.67307
 Alpha virt. eigenvalues --    2.67443   2.67575   2.68942   2.69073   2.69643
 Alpha virt. eigenvalues --    2.69728   2.70169   2.70431   2.70645   2.70749
 Alpha virt. eigenvalues --    2.71378   2.71677   2.71909   2.72168   2.72817
 Alpha virt. eigenvalues --    2.73108   2.73705   2.74394   2.74538   2.75258
 Alpha virt. eigenvalues --    2.75474   2.76048   2.76275   2.76704   2.76930
 Alpha virt. eigenvalues --    2.77237   2.77628   2.78278   2.78543   2.79867
 Alpha virt. eigenvalues --    2.80041   2.81596   2.81695   2.82204   2.82338
 Alpha virt. eigenvalues --    2.83330   2.84724   2.84820   2.85160   2.85648
 Alpha virt. eigenvalues --    2.85945   2.86673   2.86754   2.88024   2.88027
 Alpha virt. eigenvalues --    2.88983   2.89785   2.90603   2.92012   2.92359
 Alpha virt. eigenvalues --    2.92778   2.93694   2.94413   2.94952   2.95295
 Alpha virt. eigenvalues --    2.95869   2.96539   2.98582   2.99841   3.00424
 Alpha virt. eigenvalues --    3.00739   3.02504   3.03216   3.04071   3.04413
 Alpha virt. eigenvalues --    3.04970   3.05223   3.06869   3.07385   3.08252
 Alpha virt. eigenvalues --    3.08784   3.10503   3.10930   3.11205   3.11570
 Alpha virt. eigenvalues --    3.12693   3.13118   3.14483   3.14655   3.15611
 Alpha virt. eigenvalues --    3.15649   3.16201   3.16325   3.16886   3.17570
 Alpha virt. eigenvalues --    3.17944   3.17983   3.18152   3.18552   3.18822
 Alpha virt. eigenvalues --    3.19477   3.20018   3.20779   3.20887   3.22018
 Alpha virt. eigenvalues --    3.22277   3.22424   3.24284   3.24507   3.25266
 Alpha virt. eigenvalues --    3.25545   3.25750   3.26429   3.26722   3.27055
 Alpha virt. eigenvalues --    3.28047   3.28479   3.29077   3.29275   3.29408
 Alpha virt. eigenvalues --    3.30030   3.30635   3.31168   3.31348   3.31701
 Alpha virt. eigenvalues --    3.33166   3.33780   3.34117   3.34373   3.34673
 Alpha virt. eigenvalues --    3.34694   3.35081   3.35630   3.36282   3.36525
 Alpha virt. eigenvalues --    3.37479   3.37975   3.38260   3.38272   3.38624
 Alpha virt. eigenvalues --    3.39196   3.39748   3.39790   3.40200   3.40530
 Alpha virt. eigenvalues --    3.41471   3.42469   3.42709   3.43056   3.43412
 Alpha virt. eigenvalues --    3.43667   3.44460   3.45225   3.45293   3.45472
 Alpha virt. eigenvalues --    3.45520   3.47373   3.47561   3.47978   3.48478
 Alpha virt. eigenvalues --    3.48888   3.49607   3.49840   3.49909   3.51510
 Alpha virt. eigenvalues --    3.51855   3.53175   3.53501   3.54139   3.54593
 Alpha virt. eigenvalues --    3.54808   3.55562   3.56421   3.56592   3.57626
 Alpha virt. eigenvalues --    3.57769   3.57833   3.58149   3.58769   3.59277
 Alpha virt. eigenvalues --    3.59901   3.60190   3.60916   3.61660   3.63170
 Alpha virt. eigenvalues --    3.63485   3.64320   3.65103   3.65398   3.65840
 Alpha virt. eigenvalues --    3.66071   3.66526   3.66835   3.67692   3.68153
 Alpha virt. eigenvalues --    3.68457   3.69813   3.71206   3.72297   3.73319
 Alpha virt. eigenvalues --    3.74029   3.74544   3.75872   3.75892   3.76553
 Alpha virt. eigenvalues --    3.76941   3.78600   3.79071   3.79231   3.80478
 Alpha virt. eigenvalues --    3.81266   3.82838   3.83794   3.84480   3.85619
 Alpha virt. eigenvalues --    3.85761   3.89911   3.90718   3.91402   3.92008
 Alpha virt. eigenvalues --    3.92684   3.92935   3.92950   3.93632   3.94883
 Alpha virt. eigenvalues --    3.95517   3.96775   3.97176   3.97720   3.98414
 Alpha virt. eigenvalues --    3.99019   3.99327   3.99412   4.00268   4.01368
 Alpha virt. eigenvalues --    4.02164   4.04206   4.04522   4.05837   4.06375
 Alpha virt. eigenvalues --    4.07756   4.08334   4.08452   4.10111   4.11373
 Alpha virt. eigenvalues --    4.12258   4.13160   4.14387   4.14731   4.15779
 Alpha virt. eigenvalues --    4.16251   4.17400   4.17444   4.18358   4.19542
 Alpha virt. eigenvalues --    4.20330   4.21149   4.21518   4.21972   4.22433
 Alpha virt. eigenvalues --    4.23743   4.24068   4.26435   4.27940   4.29048
 Alpha virt. eigenvalues --    4.29479   4.31540   4.33895   4.34276   4.35035
 Alpha virt. eigenvalues --    4.35099   4.36283   4.38295   4.39340   4.41472
 Alpha virt. eigenvalues --    4.41599   4.43049   4.43272   4.43855   4.44550
 Alpha virt. eigenvalues --    4.47235   4.47273   4.47976   4.49720   4.54205
 Alpha virt. eigenvalues --    4.54949   4.56157   4.56646   4.57119   4.57831
 Alpha virt. eigenvalues --    4.57958   4.59576   4.60341   4.61886   4.62152
 Alpha virt. eigenvalues --    4.62463   4.63273   4.66395   4.66745   4.68036
 Alpha virt. eigenvalues --    4.69325   4.71237   4.71444   4.74036   4.74663
 Alpha virt. eigenvalues --    4.75043   4.77707   4.78475   4.84198   4.85447
 Alpha virt. eigenvalues --    4.87431   4.87944   4.88870   4.91012   4.92218
 Alpha virt. eigenvalues --    4.98686   5.00885   5.03225   5.03261   5.04160
 Alpha virt. eigenvalues --    5.08815   5.09870   5.15816   5.15916   5.18448
 Alpha virt. eigenvalues --    5.18885   5.20215   5.36075   5.45286   5.54082
 Alpha virt. eigenvalues --    7.84367   7.87727   7.89659   7.93371   7.97523
 Alpha virt. eigenvalues --    8.09738  10.94194  10.94909  11.00229  11.02458
 Alpha virt. eigenvalues --   11.06663  11.09071  15.67256  15.88211  22.21174
 Alpha virt. eigenvalues --   22.40850  22.41755  22.45447  22.46594  22.52856
 Alpha virt. eigenvalues --   22.53100  22.56040  22.56650  22.58115  22.59134
 Alpha virt. eigenvalues --   22.59981  22.60446  22.64982  22.65859  22.67895
 Alpha virt. eigenvalues --   22.68566  22.78025  22.81771  22.84930  22.93515
 Alpha virt. eigenvalues --   23.26129  25.54655  25.73953  40.37512  40.93657
 Alpha virt. eigenvalues --   41.03214  52.08810
          Condensed to atoms (all electrons):
 Mulliken charges:
               1
     1  Cl  -0.431063
     2  P    0.119538
     3  P    0.119574
     4  C   -0.000010
     5  C   -0.000082
     6  C   -0.111277
     7  H    0.151367
     8  C   -0.069238
     9  H    0.099859
    10  C   -0.069238
    11  H    0.099852
    12  C   -0.111273
    13  H    0.151366
    14  C   -0.183308
    15  H    0.124440
    16  H    0.093477
    17  C   -0.194675
    18  H    0.113442
    19  H    0.151679
    20  C   -0.194674
    21  H    0.113445
    22  H    0.151677
    23  C   -0.183321
    24  H    0.124442
    25  H    0.093477
    26  C   -0.137556
    27  H    0.088721
    28  H    0.114771
    29  C   -0.178357
    30  H    0.119219
    31  H    0.104724
    32  C   -0.178351
    33  H    0.119217
    34  H    0.104720
    35  C   -0.137555
    36  H    0.088726
    37  H    0.114772
    38  C   -0.381479
    39  H    0.130152
    40  H    0.098834
    41  H    0.148058
    42  C   -0.412935
    43  H    0.142238
    44  H    0.123315
    45  H    0.187668
    46  C   -0.412922
    47  H    0.142213
    48  H    0.187649
    49  H    0.123314
    50  C   -0.381491
    51  H    0.148061
    52  H    0.098842
    53  H    0.130151
    54  C   -0.238923
    55  H    0.147579
    56  C   -0.117359
    57  H    0.131730
    58  C   -0.117372
    59  H    0.131730
    60  C   -0.238907
    61  H    0.147575
    62  Cl  -0.431067
    63  Pd   0.130821
 Sum of Mulliken charges =  -0.00000
 Mulliken charges with hydrogens summed into heavy atoms:
               1
     1  Cl  -0.431063
     2  P    0.119538
     3  P    0.119574
     4  C   -0.000010
     5  C   -0.000082
     6  C    0.040089
     8  C    0.030620
    10  C    0.030615
    12  C    0.040093
    14  C    0.034608
    17  C    0.070446
    20  C    0.070447
    23  C    0.034599
    26  C    0.065936
    29  C    0.045586
    32  C    0.045586
    35  C    0.065944
    38  C   -0.004436
    42  C    0.040286
    46  C    0.040254
    50  C   -0.004437
    54  C   -0.091344
    56  C    0.014372
    58  C    0.014359
    60  C   -0.091332
    62  Cl  -0.431067
    63  Pd   0.130821
 Electronic spatial extent (au):  <R**2>=          11043.5619
 Charge=             -0.0000 electrons
 Dipole moment (field-independent basis, Debye):
    X=             -0.0001    Y=            -12.3115    Z=             -0.0001  Tot=             12.3115
 Quadrupole moment (field-independent basis, Debye-Ang):
   XX=           -191.2213   YY=           -226.5839   ZZ=           -203.9980
   XY=              0.0004   XZ=             -0.9810   YZ=             -0.0006
 Traceless Quadrupole moment (field-independent basis, Debye-Ang):
   XX=             16.0465   YY=            -19.3162   ZZ=              3.2698
   XY=              0.0004   XZ=             -0.9810   YZ=             -0.0006
 Octapole moment (field-independent basis, Debye-Ang**2):
  XXX=             -0.0023  YYY=            -86.2704  ZZZ=             -0.0027  XYY=              0.0018
  XXY=            -11.9474  XXZ=             -0.0006  XZZ=              0.0005  YZZ=             39.4803
  YYZ=              0.0026  XYZ=             -7.0939
 Hexadecapole moment (field-independent basis, Debye-Ang**3):
 XXXX=          -6551.4431 YYYY=          -4581.9743 ZZZZ=          -3628.4937 XXXY=              0.0022
 XXXZ=             -1.4230 YYYX=              0.0103 YYYZ=             -0.0172 ZZZX=             27.3966
 ZZZY=              0.0028 XXYY=          -1949.1441 XXZZ=          -1694.9414 YYZZ=          -1459.3969
 XXYZ=             -0.0048 YYXZ=            -17.0125 ZZXY=              0.0029
 N-N= 4.043106921336D+03 E-N=-1.416321598503D+04  KE= 2.501678827836D+03
 1\1\GINC-NC030\SP\RPBE1PBE\Gen\C22H36Cl2P2Pd1\MACKK4\05-Dec-2021\0\\# 
 PBE1PBE gen pseudo=read int=(grid=ultrafine) empiricaldispersion=GD3BJ
  nmr=giao\\SS_Et_DuPhos_4 title\\0,1\Cl,0,-1.3711796211,-3.6332734189,
 1.3066168095\P,0,-1.607776249,-0.6390421867,0.0477662894\P,0,1.4510946
 356,-0.0741372524,0.3297594972\C,0,-1.0116478362,1.0605455527,-0.36113
 28411\C,0,0.3776921824,1.3086740106,-0.2591583924\C,0,-3.0693591679,-0
 .5940473427,1.237424561\H,0,-2.8473685447,-1.4723203598,1.8737801111\C
 ,0,-2.6381050268,-1.1524362678,-1.4406283284\H,0,-2.9940930859,-0.1801
 598687,-1.8412387066\C,0,2.4463417651,0.6660294321,1.7447113582\H,0,2.
 4848636938,1.7439082099,1.4815924574\C,0,2.9438724636,-0.3208097098,-0
 .7946555403\H,0,3.0287704535,-1.4246000221,-0.7893654713\C,0,-4.301324
 0873,-0.9267603228,0.3649701612\H,0,-5.0845643316,-1.3970794535,0.9851
 395\H,0,-4.7292133053,0.0085070077,-0.0492730668\C,0,-3.8476285551,-1.
 8440118238,-0.7824129186\H,0,-4.6477221708,-2.0039391584,-1.5274789583
 \H,0,-3.5475228981,-2.8274187021,-0.379191291\C,0,3.8526851799,0.08656
 05518,1.4979537394\H,0,4.5965003706,0.6100376291,2.1252988839\H,0,3.87
 09680981,-0.9860695721,1.7603797943\C,0,4.1373261418,0.2608031885,-0.0
 028132729\H,0,5.0713869075,-0.2430761183,-0.3076282629\H,0,4.253675495
 4,1.3376601995,-0.2399884536\C,0,-3.2031799245,0.6529942103,2.11736507
 76\H,0,-3.3704540882,1.5482722554,1.4886212093\H,0,-4.1227854761,0.529
 4594947,2.7214739268\C,0,-1.9427611887,-1.8910388619,-2.5964834964\H,0
 ,-1.2200373601,-1.2004513685,-3.0689611224\H,0,-2.7243704521,-2.070533
 722,-3.3611390526\C,0,1.8805642154,0.5682186978,3.1713775352\H,0,0.956
 9651861,1.173744172,3.2241426357\H,0,2.6101935652,1.0829873672,3.82748
 91652\C,0,2.8079946964,0.173690046,-2.2383757184\H,0,2.6667964201,1.27
 12394222,-2.254768811\H,0,3.7760315389,-0.015967265,-2.7411850029\C,0,
 -2.0051602,0.8825118722,3.043944736\H,0,-2.1853967321,1.7297584603,3.7
 269851211\H,0,-1.0955839167,1.1103729419,2.462000408\H,0,-1.7931713137
 ,-0.0136316392,3.6520595329\C,0,-1.2434073043,-3.2111563514,-2.2610735
 498\H,0,-1.9113276913,-3.9195366914,-1.7455820732\H,0,-0.8793674358,-3
 .6885449748,-3.1871397578\H,0,-0.3773405486,-3.0542830603,-1.593689757
 8\C,0,1.6032807119,-0.8349418921,3.7177879795\H,0,2.4831360218,-1.4938
 988954,3.645094572\H,0,0.7903651482,-1.33458156,3.1613584495\H,0,1.303
 4317857,-0.772022957,4.7780498934\C,0,1.6800797985,-0.509223035,-3.018
 061914\H,0,1.7768734337,-1.6078718026,-2.9804089472\H,0,0.695000165,-0
 .2490116192,-2.5940122992\H,0,1.6808233267,-0.1976341569,-4.0762526939
 \C,0,-1.8727944407,2.0907825428,-0.7842143086\H,0,-2.9491124131,1.9058
 642341,-0.8685247961\C,0,-1.360818183,3.3555371782,-1.1020999175\H,0,-
 2.038030629,4.1513851535,-1.4277026172\C,0,0.0165940772,3.6008782114,-
 1.0030339355\H,0,0.4177804968,4.5877120198,-1.2544620594\C,0,0.8820359
 827,2.5827988542,-0.5819648362\H,0,1.9558731179,2.7837223627,-0.502800
 0526\Cl,0,2.1576589226,-3.1722909883,1.0432770383\Pd,0,0.1583481799,-1
 .8853528576,0.6836817809\\Version=ES64L-G09RevE.01\State=1-A\HF=-2590.
 0356271\RMSD=7.350e-09\Dipole=-0.7058379,4.5590484,-1.4759607\Quadrupo
 le=10.9403275,-12.0474462,1.1071187,4.1942209,0.8539331,5.1402792\PG=C
 01 [X(C22H36Cl2P2Pd1)]\\@


 IT IS A QUALITY OF REVOLUTIONS NOT TO GO BY OLD LINES OR OLD LAWS,
 BUT TO BREAK UP BOTH, AND MAKE NEW ONES.
                                              -- A. LINCOLN (1848)
 Job cpu time:       0 days 15 hours 22 minutes  1.2 seconds.
 File lengths (MBytes):  RWF=    656 Int=      0 D2E=      0 Chk=     96 Scr=      1
 Normal termination of Gaussian 09 at Sun Dec  5 10:23:27 2021.
 Initial command:
 /gstore/apps/gaussian/g09.e01-foss-2017a/g09/l1.exe "/local/22791412/Gau-23433.inp" -scrdir="/local/22791412/"
 Entering Link 1 = /gstore/apps/gaussian/g09.e01-foss-2017a/g09/l1.exe PID=     19232.
  
 Copyright (c) 1988,1990,1992,1993,1995,1998,2003,2009,2015,
            Gaussian, Inc.  All Rights Reserved.
  
 This is part of the Gaussian(R) 09 program.  It is based on
 the Gaussian(R) 03 system (copyright 2003, Gaussian, Inc.),
 the Gaussian(R) 98 system (copyright 1998, Gaussian, Inc.),
 the Gaussian(R) 94 system (copyright 1995, Gaussian, Inc.),
 the Gaussian 92(TM) system (copyright 1992, Gaussian, Inc.),
 the Gaussian 90(TM) system (copyright 1990, Gaussian, Inc.),
 the Gaussian 88(TM) system (copyright 1988, Gaussian, Inc.),
 the Gaussian 86(TM) system (copyright 1986, Carnegie Mellon
 University), and the Gaussian 82(TM) system (copyright 1983,
 Carnegie Mellon University). Gaussian is a federally registered
 trademark of Gaussian, Inc.
  
 This software contains proprietary and confidential information,
 including trade secrets, belonging to Gaussian, Inc.
  
 This software is provided under written license and may be
 used, copied, transmitted, or stored only in accord with that
 written license.
  
 The following legend is applicable only to US Government
 contracts under FAR:
  
                    RESTRICTED RIGHTS LEGEND
  
 Use, reproduction and disclosure by the US Government is
 subject to restrictions as set forth in subparagraphs (a)
 and (c) of the Commercial Computer Software - Restricted
 Rights clause in FAR 52.227-19.
  
 Gaussian, Inc.
 340 Quinnipiac St., Bldg. 40, Wallingford CT 06492
  
  
 ---------------------------------------------------------------
 Warning -- This program may not be used in any manner that
 competes with the business of Gaussian, Inc. or will provide
 assistance to any competitor of Gaussian, Inc.  The licensee
 of this program is prohibited from giving any competitor of
 Gaussian, Inc. access to this program.  By using this program,
 the user acknowledges that Gaussian, Inc. is engaged in the
 business of creating and licensing software in the field of
 computational chemistry and represents and warrants to the
 licensee that it is not a competitor of Gaussian, Inc. and that
 it will not use this program in any manner prohibited above.
 ---------------------------------------------------------------
  

 Cite this work as:
 Gaussian 09, Revision E.01,
 M. J. Frisch, G. W. Trucks, H. B. Schlegel, G. E. Scuseria, 
 M. A. Robb, J. R. Cheeseman, G. Scalmani, V. Barone, B. Mennucci, 
 G. A. Petersson, H. Nakatsuji, M. Caricato, X. Li, H. P. Hratchian, 
 A. F. Izmaylov, J. Bloino, G. Zheng, J. L. Sonnenberg, M. Hada, 
 M. Ehara, K. Toyota, R. Fukuda, J. Hasegawa, M. Ishida, T. Nakajima, 
 Y. Honda, O. Kitao, H. Nakai, T. Vreven, J. A. Montgomery, Jr., 
 J. E. Peralta, F. Ogliaro, M. Bearpark, J. J. Heyd, E. Brothers, 
 K. N. Kudin, V. N. Staroverov, T. Keith, R. Kobayashi, J. Normand, 
 K. Raghavachari, A. Rendell, J. C. Burant, S. S. Iyengar, J. Tomasi, 
 M. Cossi, N. Rega, J. M. Millam, M. Klene, J. E. Knox, J. B. Cross, 
 V. Bakken, C. Adamo, J. Jaramillo, R. Gomperts, R. E. Stratmann, 
 O. Yazyev, A. J. Austin, R. Cammi, C. Pomelli, J. W. Ochterski, 
 R. L. Martin, K. Morokuma, V. G. Zakrzewski, G. A. Voth, 
 P. Salvador, J. J. Dannenberg, S. Dapprich, A. D. Daniels, 
 O. Farkas, J. B. Foresman, J. V. Ortiz, J. Cioslowski, 
 and D. J. Fox, Gaussian, Inc., Wallingford CT, 2013.
 
 ******************************************
 Gaussian 09:  ES64L-G09RevE.01 30-Nov-2015
                 5-Dec-2021 
 ******************************************
 %nprocs=14
 Will use up to   14 processors via shared memory.
 %mem=128GB
 %chk=SS_Et_DuPhos_4_SPE.chk
 ----------------------------------------------------------------------
 # PBE1PBE gen pseudo=read int=(grid=ultrafine) empiricaldispersion=GD3
 BJ pop=nbo guess=read geom=check
 ----------------------------------------------------------------------
 1/29=2,38=1/1;
 2/12=2,40=1/2;
 3/5=7,11=2,14=-4,16=1,17=8,25=1,30=1,74=-13,75=-5,116=-2,124=41/1,2,3;
 4/5=1/1;
 5/5=2,38=6/2;
 6/7=2,8=2,9=2,10=2,28=1,40=1/1,7;
 99/5=1,9=1/99;
 --------------------
 SS_Et_DuPhos_4 title
 --------------------
 Structure from the checkpoint file:  "SS_Et_DuPhos_4_SPE.chk"
 Charge =  0 Multiplicity = 1
 Z-Matrix found in file.
 Cl,0,-1.3711796211,-3.6332734189,1.3066168095
 P,0,-1.607776249,-0.6390421867,0.0477662894
 P,0,1.4510946356,-0.0741372524,0.3297594972
 C,0,-1.0116478362,1.0605455527,-0.3611328411
 C,0,0.3776921824,1.3086740106,-0.2591583924
 C,0,-3.0693591679,-0.5940473427,1.237424561
 H,0,-2.8473685447,-1.4723203598,1.8737801111
 C,0,-2.6381050268,-1.1524362678,-1.4406283284
 H,0,-2.9940930859,-0.1801598687,-1.8412387066
 C,0,2.4463417651,0.6660294321,1.7447113582
 H,0,2.4848636938,1.7439082099,1.4815924574
 C,0,2.9438724636,-0.3208097098,-0.7946555403
 H,0,3.0287704535,-1.4246000221,-0.7893654713
 C,0,-4.3013240873,-0.9267603228,0.3649701612
 H,0,-5.0845643316,-1.3970794535,0.9851395
 H,0,-4.7292133053,0.0085070077,-0.0492730668
 C,0,-3.8476285551,-1.8440118238,-0.7824129186
 H,0,-4.6477221708,-2.0039391584,-1.5274789583
 H,0,-3.5475228981,-2.8274187021,-0.379191291
 C,0,3.8526851799,0.0865605518,1.4979537394
 H,0,4.5965003706,0.6100376291,2.1252988839
 H,0,3.8709680981,-0.9860695721,1.7603797943
 C,0,4.1373261418,0.2608031885,-0.0028132729
 H,0,5.0713869075,-0.2430761183,-0.3076282629
 H,0,4.2536754954,1.3376601995,-0.2399884536
 C,0,-3.2031799245,0.6529942103,2.1173650776
 H,0,-3.3704540882,1.5482722554,1.4886212093
 H,0,-4.1227854761,0.5294594947,2.7214739268
[...]
   960. RY*(   3) H  61                  0.00013     2.14510   
   961. RY*(   4) H  61                  0.00010     2.72872   
   962. RY*(   5) H  61                  0.00004     3.12172   
   963. RY*(   1)Cl  62                  0.00128     0.79934   
   964. RY*(   2)Cl  62                  0.00109     0.76485   
   965. RY*(   3)Cl  62                  0.00097     0.69688   
   966. RY*(   4)Cl  62                  0.00028     0.96551   
   967. RY*(   5)Cl  62                  0.00028     1.24385   
   968. RY*(   6)Cl  62                  0.00026     1.72579   
   969. RY*(   7)Cl  62                  0.00013     1.08090   
   970. RY*(   8)Cl  62                  0.00010     1.21243   
   971. RY*(   9)Cl  62                  0.00006     2.23173   
   972. RY*(  10)Cl  62                  0.00007     2.19699   
   973. RY*(  11)Cl  62                  0.00001     1.88124   
   974. RY*(  12)Cl  62                  0.00000    10.42017   
   975. RY*(  13)Cl  62                  0.00001     1.89181   
   976. RY*(  14)Cl  62                  0.00000    24.64972   
   977. RY*(  15)Cl  62                  0.00000    10.43550   
   978. RY*(  16)Cl  62                  0.00000     2.76998   
   979. RY*(  17)Cl  62                  0.00001     1.89487   
   980. RY*(  18)Cl  62                  0.00000    10.43704   
   981. RY*(  19)Cl  62                  0.00001     2.81670   
   982. RY*(  20)Cl  62                  0.00001     2.87800   
   983. RY*(  21)Cl  62                  0.00001     1.94693   
   984. RY*(  22)Cl  62                  0.00000     2.17286   
   985. RY*(  23)Cl  62                  0.00000     2.19705   
   986. RY*(  24)Cl  62                  0.00000     2.17559   
   987. RY*(  25)Cl  62                  0.00000     2.15122   
   988. RY*(  26)Cl  62                  0.00000     2.17143   
   989. RY*(  27)Cl  62                  0.00001     2.21974   
   990. RY*(  28)Cl  62                  0.00000     2.20344   
   991. RY*(   1)Pd  63                  0.00411     1.03843   
   992. RY*(   2)Pd  63                  0.00292     0.84870   
   993. RY*(   3)Pd  63                  0.00236     1.30302   
   994. RY*(   4)Pd  63                  0.00139     0.86161   
   995. RY*(   5)Pd  63                  0.00122     0.80739   
   996. RY*(   6)Pd  63                  0.00087     2.46000   
   997. RY*(   7)Pd  63                  0.00082     3.72058   
   998. RY*(   8)Pd  63                  0.00079     0.69445   
   999. RY*(   9)Pd  63                  0.00063     0.88670   
  1000. RY*(  10)Pd  63                  0.00049     1.61285   
  1001. RY*(  11)Pd  63                  0.00041     0.66358   
  1002. RY*(  12)Pd  63                  0.00035     1.20850   
  1003. RY*(  13)Pd  63                  0.00023     1.35904   
  1004. RY*(  14)Pd  63                  0.00021     1.79206   
  1005. RY*(  15)Pd  63                  0.00018     0.73039   
  1006. RY*(  16)Pd  63                  0.00018     2.38482   
  1007. RY*(  17)Pd  63                  0.00012     4.12884   
  1008. RY*(  18)Pd  63                  0.00008    30.33333   
  1009. RY*(  19)Pd  63                  0.00006     1.75906   
  1010. RY*(  20)Pd  63                  0.00004     3.23569   
  1011. RY*(  21)Pd  63                  0.00000    39.22251   
  1012. RY*(  22)Pd  63                  0.00000    39.19140   
  1013. RY*(  23)Pd  63                  0.00000    39.53629   
  1014. BD*(   1)Cl   1 -Pd  63          0.19767     0.17041  1082(g),1018(g),1007(g)
                                                    1015(v),155(v),1010(g)
                                                    1008(g),996(g),997(g)
                                                    1000(g),995(g),1016(v)
                                                    183(v),126(g),1020(v)
                                                    1004(g),1027(r),1066(r)
                                                    212(r),132(g),1021(v)
                                                    1011(g),1001(g),127(g)
                                                    1017(v),1006(g),992(g)
                                                    356(r)
  1015. BD*(   1) P   2 - C   4          0.08060     0.19025   
  1016. BD*(   1) P   2 - C   6          0.08194     0.15709   
  1017. BD*(   1) P   2 - C   8          0.08210     0.15554   
  1018. BD*(   1) P   2 -Pd  63          0.18117     0.63797  1022(g),992(g),1010(g)
                                                    1008(g),155(g),1007(g)
                                                    183(v),996(g),1006(g),997(g)
                                                    1000(g),1002(g),212(v)
                                                    238(r),132(v),968(v),972(v)
                                                    1003(g),356(r),966(v),994(g)
                                                    263(v),991(g),130(v),325(r)
                                                    1014(g),294(v),136(v),190(v)
                                                    164(g),192(v),160(g),188(v)
                                                    162(g),969(v),213(v),239(r)
                                                    970(v),1001(g),185(v),133(v)
                                                    163(g),264(v),357(r),761(r)
                                                    173(g),191(v),157(g),161(g)
                                                    720(r),201(v),134(v),189(v)
                                                    995(g),129(v),783(r),557(r)
                                                    965(v),175(g),665(r),742(r)
                                                    983(v),840(r),158(g),492(r)
                                                    456(r),842(r),753(r),131(v)
                                                    147(v),763(r),366(r),935(r)
                                                    789(r),203(v),299(v),273(v)
                                                    241(r),933(r),211(v),172(g)
                                                    758(r),215(v),723(r),330(r)
                                                    764(r),338(r),765(r),722(r)
                                                    184(v),307(v),605(r),569(r)
                                                    223(v),128(v),717(r),139(v)
                                                    998(g),200(v),1027(v),975(v)
                                                    387(r),495(r),178(g),187(v)
                                                    1066(r),990(v),490(r),217(v)
                                                    243(r),575(r),186(v),237(r)
                                                    171(g),611(r),195(v),329(r)
                                                    270(v),167(g),214(v),240(r)
                                                    199(v),206(v),724(r),363(r)
                                                    249(r),360(r),1023(v),762(r)
                                                    391(r),843(r),454(r),829(r)
                                                    220(v),298(v),435(r),156(g)
                                                    706(r),279(v),154(v),499(r)
                                                    967(v),936(r),327(r),246(r)
                                                    302(v),721(r),651(r),296(v)
                                                    267(v),333(r),197(v),127(v)
                                                    543(r),359(r),306(v),432(r)
                                                    841(r),337(r),570(r),573(r)
                                                    606(r),541(r)
  1019. BD*(   1) P   3 - C   5          0.08059     0.19025   
  1020. BD*(   1) P   3 - C  10          0.08210     0.15554   
  1021. BD*(   1) P   3 - C  12          0.08194     0.15709   
  1022. BD*(   1) P   3 -Pd  63          0.18117     0.63793  1018(g),992(g),1010(g)
                                                    1008(g),183(g),1007(g)
                                                    155(v),996(g),1006(g),997(g)
                                                    1000(g),1002(g),238(v)
                                                    212(r),968(v),132(v),136(v)
                                                    1003(g),263(r),130(v),994(g)
                                                    356(v),991(g),966(v),294(r)
                                                    1082(g),325(v),972(v),162(v)
                                                    192(g),164(v),188(g),160(v)
                                                    190(g),133(v),239(v),213(r)
                                                    134(v),1001(g),157(v),969(v)
                                                    191(g),357(v),264(r),720(r)
                                                    201(g),163(v),185(g),189(g)
                                                    761(r),173(v),970(v),995(g)
                                                    161(v),965(v),742(r),665(r)
                                                    129(v),203(g),557(r),783(r)
                                                    186(g),147(v),933(r),456(r)
                                                    492(r),935(r),789(r),967(v)
                                                    983(v),722(r),273(r),842(r)
                                                    753(r),175(v),330(v),366(v)
                                                    215(r),840(r),237(v),200(g)
                                                    717(r),241(v),764(r),299(r)
                                                    307(r),724(r),723(r),156(v)
                                                    569(r),338(v),763(r),605(r)
                                                    249(v),964(v),758(r),975(v)
                                                    172(v),1036(v),139(v),495(r)
                                                    387(r),998(g),206(g),159(v)
                                                    154(v),1068(r),454(r),243(v)
                                                    217(r),611(r),158(v),211(r)
                                                    199(g),575(r),167(v),298(r)
                                                    363(v),195(g),240(v),214(r)
                                                    171(v),178(v),765(r),270(r)
                                                    223(r),267(r),1023(v),721(r)
                                                    499(r),936(r),490(r),246(v)
                                                    706(r),329(v),471(r),184(g)
                                                    829(r),372(v),131(v),990(v)
                                                    391(r),843(r),296(r),220(r)
                                                    333(v),543(r),762(r),327(v)
                                                    360(v),302(r),169(v),963(v)
                                                    651(r),266(r),337(v),468(r)
                                                    306(r),934(r),606(r),609(r)
                                                    570(r),649(r)
  1023. BD*(   1) C   4 - C   5          0.03226     0.47811   
  1024. BD*(   2) C   4 - C   5          0.39790    -0.01230  1080(v),1075(v),1021(v)
                                                    1016(v),1017(v),1020(v)
                                                    214(g),240(g)
  1025. BD*(   1) C   4 - C  54          0.02965     0.48848   
  1026. BD*(   1) C   5 - C  60          0.02965     0.48848   
  1027. BD*(   1) C   6 - H   7          0.02605     0.36403   
  1028. BD*(   1) C   6 - C  14          0.02014     0.32574   
  1029. BD*(   1) C   6 - C  26          0.01962     0.34273   
  1030. BD*(   1) C   8 - H   9          0.02385     0.33232   
  1031. BD*(   1) C   8 - C  17          0.02198     0.32456   
  1032. BD*(   1) C   8 - C  29          0.02319     0.34294   
  1033. BD*(   1) C  10 - H  11          0.02385     0.33231   
  1034. BD*(   1) C  10 - C  20          0.02198     0.32455   
  1035. BD*(   1) C  10 - C  32          0.02319     0.34293   
  1036. BD*(   1) C  12 - H  13          0.02605     0.36402   
  1037. BD*(   1) C  12 - C  23          0.02014     0.32573   
  1038. BD*(   1) C  12 - C  35          0.01962     0.34273   
  1039. BD*(   1) C  14 - H  15          0.01403     0.36016   
  1040. BD*(   1) C  14 - H  16          0.01836     0.33920   
  1041. BD*(   1) C  14 - C  17          0.00826     0.33983   
  1042. BD*(   1) C  17 - H  18          0.01548     0.35528   
  1043. BD*(   1) C  17 - H  19          0.01913     0.36855   
  1044. BD*(   1) C  20 - H  21          0.01548     0.35528   
  1045. BD*(   1) C  20 - H  22          0.01913     0.36855   
  1046. BD*(   1) C  20 - C  23          0.00826     0.33982   
  1047. BD*(   1) C  23 - H  24          0.01403     0.36016   
  1048. BD*(   1) C  23 - H  25          0.01836     0.33920   
  1049. BD*(   1) C  26 - H  27          0.01920     0.34836   
  1050. BD*(   1) C  26 - H  28          0.01744     0.34782   
  1051. BD*(   1) C  26 - C  38          0.00634     0.34836   
  1052. BD*(   1) C  29 - H  30          0.01581     0.36325   
  1053. BD*(   1) C  29 - H  31          0.01726     0.35266   
  1054. BD*(   1) C  29 - C  42          0.00846     0.36223   
  1055. BD*(   1) C  32 - H  33          0.01581     0.36325   
  1056. BD*(   1) C  32 - H  34          0.01726     0.35266   
  1057. BD*(   1) C  32 - C  46          0.00846     0.36222   
  1058. BD*(   1) C  35 - H  36          0.01920     0.34836   
  1059. BD*(   1) C  35 - H  37          0.01744     0.34782   
  1060. BD*(   1) C  35 - C  50          0.00634     0.34836   
  1061. BD*(   1) C  38 - H  39          0.00589     0.36932   
  1062. BD*(   1) C  38 - H  40          0.00948     0.37410   
  1063. BD*(   1) C  38 - H  41          0.00846     0.36916   
  1064. BD*(   1) C  42 - H  43          0.00846     0.39465   
  1065. BD*(   1) C  42 - H  44          0.00606     0.38900   
  1066. BD*(   1) C  42 - H  45          0.01080     0.43116   
  1067. BD*(   1) C  46 - H  47          0.00846     0.39465   
  1068. BD*(   1) C  46 - H  48          0.01079     0.43116   
  1069. BD*(   1) C  46 - H  49          0.00606     0.38899   
  1070. BD*(   1) C  50 - H  51          0.00846     0.36916   
  1071. BD*(   1) C  50 - H  52          0.00948     0.37410   
  1072. BD*(   1) C  50 - H  53          0.00589     0.36932   
  1073. BD*(   1) C  54 - H  55          0.01638     0.36750   
  1074. BD*(   1) C  54 - C  56          0.01611     0.50537   
  1075. BD*(   2) C  54 - C  56          0.30603    -0.00630  1080(v),1024(v),872(g)
                                                    840(g)
  1076. BD*(   1) C  56 - H  57          0.01300     0.37118   
  1077. BD*(   1) C  56 - C  58          0.01406     0.50075   
  1078. BD*(   1) C  58 - H  59          0.01300     0.37118   
  1079. BD*(   1) C  58 - C  60          0.01611     0.50537   
  1080. BD*(   2) C  58 - C  60          0.30603    -0.00630  1075(v),1024(v),903(g)
                                                    933(g)
  1081. BD*(   1) C  60 - H  61          0.01638     0.36750   
  1082. BD*(   1)Cl  62 -Pd  63          0.19766     0.17040  1014(g),1022(g),1007(g)
                                                    1019(v),183(v),1010(g)
                                                    1008(g),996(g),997(g)
                                                    1000(g),995(g),1021(v)
                                                    155(v),126(g),1017(v)
                                                    1004(g),1036(r),1068(r)
                                                    238(r),968(g),1016(v)
                                                    1011(g),1001(g),963(g)
                                                    1020(v),1006(g),992(g)
                                                    263(r)
       -------------------------------
              Total Lewis  274.37072  ( 98.6945%)
        Valence non-Lewis    3.25577  (  1.1711%)
        Rydberg non-Lewis    0.37351  (  0.1344%)
       -------------------------------
            Total unit  1  278.00000  (100.0000%)
           Charge unit  1    0.00000
 1\1\GINC-NC030\SP\RPBE1PBE\Gen\C22H36Cl2P2Pd1\MACKK4\05-Dec-2021\0\\# 
 PBE1PBE gen pseudo=read int=(grid=ultrafine) empiricaldispersion=GD3BJ
  pop=nbo guess=read geom=check\\SS_Et_DuPhos_4 title\\0,1\Cl,0,-1.3711
 796211,-3.6332734189,1.3066168095\P,0,-1.607776249,-0.6390421867,0.047
 7662894\P,0,1.4510946356,-0.0741372524,0.3297594972\C,0,-1.0116478362,
 1.0605455527,-0.3611328411\C,0,0.3776921824,1.3086740106,-0.2591583924
 \C,0,-3.0693591679,-0.5940473427,1.237424561\H,0,-2.8473685447,-1.4723
 203598,1.8737801111\C,0,-2.6381050268,-1.1524362678,-1.4406283284\H,0,
 -2.9940930859,-0.1801598687,-1.8412387066\C,0,2.4463417651,0.666029432
 1,1.7447113582\H,0,2.4848636938,1.7439082099,1.4815924574\C,0,2.943872
 4636,-0.3208097098,-0.7946555403\H,0,3.0287704535,-1.4246000221,-0.789
 3654713\C,0,-4.3013240873,-0.9267603228,0.3649701612\H,0,-5.0845643316
 ,-1.3970794535,0.9851395\H,0,-4.7292133053,0.0085070077,-0.0492730668\
 C,0,-3.8476285551,-1.8440118238,-0.7824129186\H,0,-4.6477221708,-2.003
 9391584,-1.5274789583\H,0,-3.5475228981,-2.8274187021,-0.379191291\C,0
 ,3.8526851799,0.0865605518,1.4979537394\H,0,4.5965003706,0.6100376291,
 2.1252988839\H,0,3.8709680981,-0.9860695721,1.7603797943\C,0,4.1373261
 418,0.2608031885,-0.0028132729\H,0,5.0713869075,-0.2430761183,-0.30762
 82629\H,0,4.2536754954,1.3376601995,-0.2399884536\C,0,-3.2031799245,0.
 6529942103,2.1173650776\H,0,-3.3704540882,1.5482722554,1.4886212093\H,
 0,-4.1227854761,0.5294594947,2.7214739268\C,0,-1.9427611887,-1.8910388
 619,-2.5964834964\H,0,-1.2200373601,-1.2004513685,-3.0689611224\H,0,-2
 .7243704521,-2.070533722,-3.3611390526\C,0,1.8805642154,0.5682186978,3
 .1713775352\H,0,0.9569651861,1.173744172,3.2241426357\H,0,2.6101935652
 ,1.0829873672,3.8274891652\C,0,2.8079946964,0.173690046,-2.2383757184\
 H,0,2.6667964201,1.2712394222,-2.254768811\H,0,3.7760315389,-0.0159672
 65,-2.7411850029\C,0,-2.0051602,0.8825118722,3.043944736\H,0,-2.185396
 7321,1.7297584603,3.7269851211\H,0,-1.0955839167,1.1103729419,2.462000
 408\H,0,-1.7931713137,-0.0136316392,3.6520595329\C,0,-1.2434073043,-3.
 2111563514,-2.2610735498\H,0,-1.9113276913,-3.9195366914,-1.7455820732
 \H,0,-0.8793674358,-3.6885449748,-3.1871397578\H,0,-0.3773405486,-3.05
 42830603,-1.5936897578\C,0,1.6032807119,-0.8349418921,3.7177879795\H,0
 ,2.4831360218,-1.4938988954,3.645094572\H,0,0.7903651482,-1.33458156,3
 .1613584495\H,0,1.3034317857,-0.772022957,4.7780498934\C,0,1.680079798
 5,-0.509223035,-3.018061914\H,0,1.7768734337,-1.6078718026,-2.98040894
 72\H,0,0.695000165,-0.2490116192,-2.5940122992\H,0,1.6808233267,-0.197
 6341569,-4.0762526939\C,0,-1.8727944407,2.0907825428,-0.7842143086\H,0
 ,-2.9491124131,1.9058642341,-0.8685247961\C,0,-1.360818183,3.355537178
 2,-1.1020999175\H,0,-2.038030629,4.1513851535,-1.4277026172\C,0,0.0165
 940772,3.6008782114,-1.0030339355\H,0,0.4177804968,4.5877120198,-1.254
 4620594\C,0,0.8820359827,2.5827988542,-0.5819648362\H,0,1.9558731179,2
 .7837223627,-0.5028000526\Cl,0,2.1576589226,-3.1722909883,1.0432770383
 \Pd,0,0.1583481799,-1.8853528576,0.6836817809\\Version=ES64L-G09RevE.0
 1\State=1-A\HF=-2590.0356271\RMSD=3.177e-09\Dipole=-0.7058336,4.559046
 8,-1.4759596\Quadrupole=10.9403465,-12.0474604,1.1071139,4.1942473,0.8
 53939,5.1402895\PG=C01 [X(C22H36Cl2P2Pd1)]\\@


 ON A CLEAR DISK YOU CAN SEEK FOREVER.
 Job cpu time:       0 days  1 hours  2 minutes 45.9 seconds.
 File lengths (MBytes):  RWF=    602 Int=      0 D2E=      0 Chk=     96 Scr=      1
 Normal termination of Gaussian 09 at Sun Dec  5 10:28:05 2021.
