 Entering Gaussian System, Link 0=g09
 Input=SS_Et_DuPhos_3.com
 Output=SS_Et_DuPhos_3.log
 Initial command:
 /gstore/apps/gaussian/g09.e01-foss-2017a/g09/l1.exe "/local/21251414/Gau-6488.inp" -scrdir="/local/21251414/"
 Entering Link 1 = /gstore/apps/gaussian/g09.e01-foss-2017a/g09/l1.exe PID=      6489.
  
 Copyright (c) 1988,1990,1992,1993,1995,1998,2003,2009,2015,
            Gaussian, Inc.  All Rights Reserved.
  
 This is part of the Gaussian(R) 09 program.  It is based on
 the Gaussian(R) 03 system (copyright 2003, Gaussian, Inc.),
 the Gaussian(R) 98 system (copyright 1998, Gaussian, Inc.),
 the Gaussian(R) 94 system (copyright 1995, Gaussian, Inc.),
 the Gaussian 92(TM) system (copyright 1992, Gaussian, Inc.),
 the Gaussian 90(TM) system (copyright 1990, Gaussian, Inc.),
 the Gaussian 88(TM) system (copyright 1988, Gaussian, Inc.),
 the Gaussian 86(TM) system (copyright 1986, Carnegie Mellon
 University), and the Gaussian 82(TM) system (copyright 1983,
 Carnegie Mellon University). Gaussian is a federally registered
 trademark of Gaussian, Inc.
  
 This software contains proprietary and confidential information,
 including trade secrets, belonging to Gaussian, Inc.
  
 This software is provided under written license and may be
 used, copied, transmitted, or stored only in accord with that
 written license.
  
 The following legend is applicable only to US Government
 contracts under FAR:
  
                    RESTRICTED RIGHTS LEGEND
  
 Use, reproduction and disclosure by the US Government is
 subject to restrictions as set forth in subparagraphs (a)
 and (c) of the Commercial Computer Software - Restricted
 Rights clause in FAR 52.227-19.
  
 Gaussian, Inc.
 340 Quinnipiac St., Bldg. 40, Wallingford CT 06492
  
  
 ---------------------------------------------------------------
 Warning -- This program may not be used in any manner that
 competes with the business of Gaussian, Inc. or will provide
 assistance to any competitor of Gaussian, Inc.  The licensee
 of this program is prohibited from giving any competitor of
 Gaussian, Inc. access to this program.  By using this program,
 the user acknowledges that Gaussian, Inc. is engaged in the
 business of creating and licensing software in the field of
 computational chemistry and represents and warrants to the
 licensee that it is not a competitor of Gaussian, Inc. and that
 it will not use this program in any manner prohibited above.
 ---------------------------------------------------------------
  

 Cite this work as:
 Gaussian 09, Revision E.01,
 M. J. Frisch, G. W. Trucks, H. B. Schlegel, G. E. Scuseria, 
 M. A. Robb, J. R. Cheeseman, G. Scalmani, V. Barone, B. Mennucci, 
 G. A. Petersson, H. Nakatsuji, M. Caricato, X. Li, H. P. Hratchian, 
 A. F. Izmaylov, J. Bloino, G. Zheng, J. L. Sonnenberg, M. Hada, 
 M. Ehara, K. Toyota, R. Fukuda, J. Hasegawa, M. Ishida, T. Nakajima, 
 Y. Honda, O. Kitao, H. Nakai, T. Vreven, J. A. Montgomery, Jr., 
 J. E. Peralta, F. Ogliaro, M. Bearpark, J. J. Heyd, E. Brothers, 
 K. N. Kudin, V. N. Staroverov, T. Keith, R. Kobayashi, J. Normand, 
 K. Raghavachari, A. Rendell, J. C. Burant, S. S. Iyengar, J. Tomasi, 
 M. Cossi, N. Rega, J. M. Millam, M. Klene, J. E. Knox, J. B. Cross, 
 V. Bakken, C. Adamo, J. Jaramillo, R. Gomperts, R. E. Stratmann, 
 O. Yazyev, A. J. Austin, R. Cammi, C. Pomelli, J. W. Ochterski, 
 R. L. Martin, K. Morokuma, V. G. Zakrzewski, G. A. Voth, 
 P. Salvador, J. J. Dannenberg, S. Dapprich, A. D. Daniels, 
 O. Farkas, J. B. Foresman, J. V. Ortiz, J. Cioslowski, 
 and D. J. Fox, Gaussian, Inc., Wallingford CT, 2013.
 
 ******************************************
 Gaussian 09:  ES64L-G09RevE.01 30-Nov-2015
                16-Nov-2021 
 ******************************************
 %nprocs=14
 Will use up to   14 processors via shared memory.
 %mem=128GB
 %chk=SS_Et_DuPhos_3.chk
 ----------------------------------------------------------------------
 # PBEPBE gen 6D pseudo=read scf=maxcycles=500 denfit int=(grid=ultrafi
 ne) empiricaldispersion=GD3BJ opt freq=noraman
 ----------------------------------------------------------------------
 1/14=-1,18=20,19=15,26=4,38=1/1,3;
 2/9=110,12=2,17=6,18=5,40=1/2;
 3/5=7,8=2,11=2,16=1,17=8,25=1,30=1,71=1,74=1009,75=-5,82=47,124=41/1,2,3;
 4//1;
 5/5=2,7=500,38=5/2;
 6/7=2,8=2,9=2,10=2,28=1/1;
 7//1,2,3,16;
 1/14=-1,18=20,19=15,26=4/3(2);
 2/9=110/2;
 99//99;
 2/9=110/2;
 3/5=7,6=1,8=2,11=2,16=1,17=8,25=1,30=1,71=1,74=1009,75=-5,82=7,124=41/1,2,3;
 4/5=5,16=3,69=1/1;
 5/5=2,7=500,38=5/2;
 7//1,2,3,16;
 1/14=-1,18=20,19=15,26=4/3(-5);
 2/9=110/2;
 6/7=2,8=2,9=2,10=2,19=2,28=1/1;
 99/9=1/99;
 ------------
 SS_Et_DuPhos
 ------------
 Symbolic Z-matrix:
 Charge =  0 Multiplicity = 1
 Cl                   -1.119    -3.9214    1.1523 
 P                    -1.6122   -0.6921    0.1207 
 P                     1.5233   -0.107     0.2841 
 C                    -0.9962    1.022    -0.3493 
 C                     0.3964    1.2766   -0.2828 
 C                    -2.9518   -0.7006    1.3791 
 H                    -2.6941   -1.4103    2.1668 
 C                    -2.5839   -1.1391   -1.3715 
 H                    -2.3746   -0.4489   -2.1902 
 C                     2.3767    0.6589    1.7147 
 H                     2.4042    1.738     1.5618 
 C                     2.9833   -0.3523   -0.8021 
 H                     3.1381   -1.4285   -0.8891 
 C                    -4.1576   -1.2579    0.6031 
 H                    -4.171    -2.3422    0.7253 
 H                    -5.1043   -0.8976    1.0068 
 C                    -4.0353   -0.9472   -0.9 
 H                    -4.3261    0.0904   -1.0617 
 H                    -4.7331   -1.5474   -1.485 
 C                     3.8103    0.1511    1.5284 
 H                     4.5177    0.7336    2.1194 
 H                     3.8862   -0.8822    1.8699 
 C                     4.1491    0.2191    0.0248 
 H                     5.0801   -0.3047   -0.1945 
 H                     4.3081    1.2634   -0.2473 
 C                    -3.2302    0.6586    2.0509 
 H                    -3.5336    1.3949    1.3087 
 H                    -4.0872    0.5465    2.7159 
 C                    -2.311    -2.5724   -1.8632 
 H                    -2.9909   -2.7981   -2.6856 
 H                    -2.5583   -3.2872   -1.0798 
 C                     1.7542    0.4306    3.1083 
 H                     0.9048    1.1044    3.2178 
 H                     2.4712    0.7496    3.8656 
 C                     2.8664    0.2189   -2.2282 
 H                     2.7712    1.3031   -2.1959 
 H                     3.7982    0.0225   -2.7596 
 C                    -2.058     1.208     2.8763 
 H                    -2.347     2.1225    3.3944 
 H                    -1.1995    1.4513    2.2538 
 H                    -1.7324    0.4894    3.6287 
 C                    -0.8751   -2.8103   -2.3499 
 H                    -0.1357   -2.6187   -1.5756 
 H                    -0.7454   -3.8427   -2.6755 
 H                    -0.6437   -2.1673   -3.1991 
 C                     1.2798   -0.9888    3.4393 
 H                     2.0859   -1.7136    3.3335 
 H                     0.4435   -1.2925    2.8142 
 H                     0.9345   -1.0411    4.4721 
 C                     1.706    -0.3659   -3.0448 
 H                     1.7892   -1.45     -3.1225 
 H                     0.7379   -0.1335   -2.6025 
 H                     1.7038    0.039    -4.0568 
 C                    -1.8652    2.0434   -0.7872 
 H                    -2.9254    1.8612   -0.8593 
 C                    -1.3638    3.312    -1.1325 
 H                    -2.0386    4.0883   -1.4623 
 C                     0.0163    3.5683   -1.0463 
 H                     0.4037    4.5421   -1.3081 
 C                     0.8919    2.5524   -0.622 
 H                     1.9504    2.7556   -0.5602 
 Cl                    2.1681   -3.3573    1.0888 
 Pd                    0.2499   -2.0954    0.6803 
 

 GradGradGradGradGradGradGradGradGradGradGradGradGradGradGradGradGradGrad
 Berny optimization.
 Initialization pass.
                           ----------------------------
                           !    Initial Parameters    !
                           ! (Angstroms and Degrees)  !
 --------------------------                            --------------------------
 ! Name  Definition              Value          Derivative Info.                !
 --------------------------------------------------------------------------------
 ! R1    R(1,63)                 2.3304         estimate D2E/DX2                !
 ! R2    R(2,4)                  1.8811         estimate D2E/DX2                !
 ! R3    R(2,6)                  1.838          estimate D2E/DX2                !
 ! R4    R(2,8)                  1.8359         estimate D2E/DX2                !
 ! R5    R(2,63)                 2.3979         estimate D2E/DX2                !
 ! R6    R(3,5)                  1.8723         estimate D2E/DX2                !
 ! R7    R(3,10)                 1.8334         estimate D2E/DX2                !
 ! R8    R(3,12)                 1.8362         estimate D2E/DX2                !
 ! R9    R(3,63)                 2.3942         estimate D2E/DX2                !
 ! R10   R(4,5)                  1.4172         estimate D2E/DX2                !
 ! R11   R(4,54)                 1.4107         estimate D2E/DX2                !
 ! R12   R(5,60)                 1.4101         estimate D2E/DX2                !
 ! R13   R(6,7)                  1.0911         estimate D2E/DX2                !
 ! R14   R(6,14)                 1.5384         estimate D2E/DX2                !
 ! R15   R(6,26)                 1.5415         estimate D2E/DX2                !
 ! R16   R(8,9)                  1.0911         estimate D2E/DX2                !
 ! R17   R(8,17)                 1.5381         estimate D2E/DX2                !
 ! R18   R(8,29)                 1.5397         estimate D2E/DX2                !
 ! R19   R(10,11)                1.0902         estimate D2E/DX2                !
 ! R20   R(10,20)                1.5322         estimate D2E/DX2                !
 ! R21   R(10,32)                1.5433         estimate D2E/DX2                !
 ! R22   R(12,13)                1.0908         estimate D2E/DX2                !
 ! R23   R(12,23)                1.5393         estimate D2E/DX2                !
 ! R24   R(12,35)                1.5407         estimate D2E/DX2                !
 ! R25   R(14,15)                1.0912         estimate D2E/DX2                !
 ! R26   R(14,16)                1.0904         estimate D2E/DX2                !
 ! R27   R(14,17)                1.5397         estimate D2E/DX2                !
 ! R28   R(17,18)                1.0896         estimate D2E/DX2                !
 ! R29   R(17,19)                1.0906         estimate D2E/DX2                !
 ! R30   R(20,21)                1.0904         estimate D2E/DX2                !
 ! R31   R(20,22)                1.0909         estimate D2E/DX2                !
 ! R32   R(20,23)                1.5428         estimate D2E/DX2                !
 ! R33   R(23,24)                1.0905         estimate D2E/DX2                !
 ! R34   R(23,25)                1.0908         estimate D2E/DX2                !
 ! R35   R(26,27)                1.0886         estimate D2E/DX2                !
 ! R36   R(26,28)                1.0905         estimate D2E/DX2                !
 ! R37   R(26,38)                1.5353         estimate D2E/DX2                !
 ! R38   R(29,30)                1.0907         estimate D2E/DX2                !
 ! R39   R(29,31)                1.0889         estimate D2E/DX2                !
 ! R40   R(29,42)                1.5347         estimate D2E/DX2                !
 ! R41   R(32,33)                1.0897         estimate D2E/DX2                !
 ! R42   R(32,34)                1.0906         estimate D2E/DX2                !
 ! R43   R(32,46)                1.5327         estimate D2E/DX2                !
 ! R44   R(35,36)                1.0889         estimate D2E/DX2                !
 ! R45   R(35,37)                1.0905         estimate D2E/DX2                !
 ! R46   R(35,50)                1.5347         estimate D2E/DX2                !
 ! R47   R(38,39)                1.0901         estimate D2E/DX2                !
 ! R48   R(38,40)                1.088          estimate D2E/DX2                !
 ! R49   R(38,41)                1.0902         estimate D2E/DX2                !
 ! R50   R(42,43)                1.0876         estimate D2E/DX2                !
 ! R51   R(42,44)                1.0903         estimate D2E/DX2                !
 ! R52   R(42,45)                1.09           estimate D2E/DX2                !
 ! R53   R(46,47)                1.0892         estimate D2E/DX2                !
 ! R54   R(46,48)                1.0874         estimate D2E/DX2                !
 ! R55   R(46,49)                1.0902         estimate D2E/DX2                !
 ! R56   R(50,51)                1.0901         estimate D2E/DX2                !
 ! R57   R(50,52)                1.0894         estimate D2E/DX2                !
 ! R58   R(50,53)                1.09           estimate D2E/DX2                !
 ! R59   R(54,55)                1.0782         estimate D2E/DX2                !
 ! R60   R(54,56)                1.4071         estimate D2E/DX2                !
 ! R61   R(56,57)                1.0802         estimate D2E/DX2                !
 ! R62   R(56,58)                1.4063         estimate D2E/DX2                !
 ! R63   R(58,59)                1.0802         estimate D2E/DX2                !
 ! R64   R(58,60)                1.4067         estimate D2E/DX2                !
 ! R65   R(60,61)                1.0796         estimate D2E/DX2                !
 ! R66   R(62,63)                2.3321         estimate D2E/DX2                !
 ! A1    A(4,2,6)              114.4536         estimate D2E/DX2                !
 ! A2    A(4,2,8)              101.0755         estimate D2E/DX2                !
 ! A3    A(4,2,63)             109.7114         estimate D2E/DX2                !
 ! A4    A(6,2,8)               99.7645         estimate D2E/DX2                !
 ! A5    A(6,2,63)             113.7974         estimate D2E/DX2                !
 ! A6    A(8,2,63)             117.2711         estimate D2E/DX2                !
 ! A7    A(5,3,10)             101.9878         estimate D2E/DX2                !
 ! A8    A(5,3,12)             113.464          estimate D2E/DX2                !
 ! A9    A(5,3,63)             110.103          estimate D2E/DX2                !
 ! A10   A(10,3,12)             98.4694         estimate D2E/DX2                !
 ! A11   A(10,3,63)            117.7345         estimate D2E/DX2                !
 ! A12   A(12,3,63)            114.1949         estimate D2E/DX2                !
 ! A13   A(2,4,5)              118.2779         estimate D2E/DX2                !
 ! A14   A(2,4,54)             122.3836         estimate D2E/DX2                !
 ! A15   A(5,4,54)             119.326          estimate D2E/DX2                !
 ! A16   A(3,5,4)              118.22           estimate D2E/DX2                !
 ! A17   A(3,5,60)             122.002          estimate D2E/DX2                !
 ! A18   A(4,5,60)             119.7719         estimate D2E/DX2                !
 ! A19   A(2,6,7)              108.9741         estimate D2E/DX2                !
 ! A20   A(2,6,14)             103.1548         estimate D2E/DX2                !
 ! A21   A(2,6,26)             115.2099         estimate D2E/DX2                !
 ! A22   A(7,6,14)             108.2786         estimate D2E/DX2                !
 ! A23   A(7,6,26)             107.5504         estimate D2E/DX2                !
 ! A24   A(14,6,26)            113.4336         estimate D2E/DX2                !
 ! A25   A(2,8,9)              110.7521         estimate D2E/DX2                !
 ! A26   A(2,8,17)             102.7035         estimate D2E/DX2                !
 ! A27   A(2,8,29)             113.1041         estimate D2E/DX2                !
 ! A28   A(9,8,17)             109.3972         estimate D2E/DX2                !
 ! A29   A(9,8,29)             108.376          estimate D2E/DX2                !
 ! A30   A(17,8,29)            112.4142         estimate D2E/DX2                !
 ! A31   A(3,10,11)            108.4082         estimate D2E/DX2                !
 ! A32   A(3,10,20)            101.6646         estimate D2E/DX2                !
 ! A33   A(3,10,32)            117.0683         estimate D2E/DX2                !
 ! A34   A(11,10,20)           106.7009         estimate D2E/DX2                !
 ! A35   A(11,10,32)           106.4536         estimate D2E/DX2                !
 ! A36   A(20,10,32)           115.9864         estimate D2E/DX2                !
 ! A37   A(3,12,13)            106.968          estimate D2E/DX2                !
 ! A38   A(3,12,23)            103.5817         estimate D2E/DX2                !
 ! A39   A(3,12,35)            115.9571         estimate D2E/DX2                !
 ! A40   A(13,12,23)           107.5552         estimate D2E/DX2                !
 ! A41   A(13,12,35)           107.6221         estimate D2E/DX2                !
 ! A42   A(23,12,35)           114.6511         estimate D2E/DX2                !
 ! A43   A(6,14,15)            108.2455         estimate D2E/DX2                !
 ! A44   A(6,14,16)            111.9651         estimate D2E/DX2                !
 ! A45   A(6,14,17)            110.9196         estimate D2E/DX2                !
 ! A46   A(15,14,16)           106.0335         estimate D2E/DX2                !
 ! A47   A(15,14,17)           108.1072         estimate D2E/DX2                !
 ! A48   A(16,14,17)           111.3274         estimate D2E/DX2                !
 ! A49   A(8,17,14)            110.4281         estimate D2E/DX2                !
 ! A50   A(8,17,18)            108.9747         estimate D2E/DX2                !
 ! A51   A(8,17,19)            111.7574         estimate D2E/DX2                !
 ! A52   A(14,17,18)           108.4102         estimate D2E/DX2                !
 ! A53   A(14,17,19)           111.2088         estimate D2E/DX2                !
 ! A54   A(18,17,19)           105.8845         estimate D2E/DX2                !
 ! A55   A(10,20,21)           111.3485         estimate D2E/DX2                !
 ! A56   A(10,20,22)           109.9342         estimate D2E/DX2                !
 ! A57   A(10,20,23)           108.0203         estimate D2E/DX2                !
 ! A58   A(21,20,22)           106.929          estimate D2E/DX2                !
 ! A59   A(21,20,23)           111.2363         estimate D2E/DX2                !
 ! A60   A(22,20,23)           109.3633         estimate D2E/DX2                !
 ! A61   A(12,23,20)           109.9301         estimate D2E/DX2                !
 ! A62   A(12,23,24)           111.1158         estimate D2E/DX2                !
 ! A63   A(12,23,25)           109.3767         estimate D2E/DX2                !
 ! A64   A(20,23,24)           111.2413         estimate D2E/DX2                !
 ! A65   A(20,23,25)           108.5006         estimate D2E/DX2                !
 ! A66   A(24,23,25)           106.573          estimate D2E/DX2                !
 ! A67   A(6,26,27)            110.462          estimate D2E/DX2                !
 ! A68   A(6,26,28)            108.4844         estimate D2E/DX2                !
 ! A69   A(6,26,38)            114.326          estimate D2E/DX2                !
 ! A70   A(27,26,28)           105.4418         estimate D2E/DX2                !
 ! A71   A(27,26,38)           109.7121         estimate D2E/DX2                !
 ! A72   A(28,26,38)           107.996          estimate D2E/DX2                !
 ! A73   A(8,29,30)            108.8417         estimate D2E/DX2                !
 ! A74   A(8,29,31)            109.9417         estimate D2E/DX2                !
 ! A75   A(8,29,42)            114.2939         estimate D2E/DX2                !
 ! A76   A(30,29,31)           105.3702         estimate D2E/DX2                !
 ! A77   A(30,29,42)           108.1826         estimate D2E/DX2                !
 ! A78   A(31,29,42)           109.8083         estimate D2E/DX2                !
 ! A79   A(10,32,33)           108.2809         estimate D2E/DX2                !
 ! A80   A(10,32,34)           108.5778         estimate D2E/DX2                !
 ! A81   A(10,32,46)           117.1834         estimate D2E/DX2                !
 ! A82   A(33,32,34)           105.1782         estimate D2E/DX2                !
 ! A83   A(33,32,46)           108.038          estimate D2E/DX2                !
 ! A84   A(34,32,46)           108.9295         estimate D2E/DX2                !
 ! A85   A(12,35,36)           110.3857         estimate D2E/DX2                !
 ! A86   A(12,35,37)           108.6297         estimate D2E/DX2                !
 ! A87   A(12,35,50)           114.1177         estimate D2E/DX2                !
 ! A88   A(36,35,37)           105.5746         estimate D2E/DX2                !
 ! A89   A(36,35,50)           109.214          estimate D2E/DX2                !
 ! A90   A(37,35,50)           108.5511         estimate D2E/DX2                !
 ! A91   A(26,38,39)           110.6899         estimate D2E/DX2                !
 ! A92   A(26,38,40)           112.0165         estimate D2E/DX2                !
 ! A93   A(26,38,41)           111.2963         estimate D2E/DX2                !
 ! A94   A(39,38,40)           107.0695         estimate D2E/DX2                !
 ! A95   A(39,38,41)           107.7067         estimate D2E/DX2                !
 ! A96   A(40,38,41)           107.8552         estimate D2E/DX2                !
 ! A97   A(29,42,43)           112.5185         estimate D2E/DX2                !
 ! A98   A(29,42,44)           110.6586         estimate D2E/DX2                !
 ! A99   A(29,42,45)           110.7475         estimate D2E/DX2                !
 ! A100  A(43,42,44)           107.3702         estimate D2E/DX2                !
 ! A101  A(43,42,45)           107.8418         estimate D2E/DX2                !
 ! A102  A(44,42,45)           107.4979         estimate D2E/DX2                !
 ! A103  A(32,46,47)           111.4813         estimate D2E/DX2                !
 ! A104  A(32,46,48)           111.8725         estimate D2E/DX2                !
 ! A105  A(32,46,49)           110.3053         estimate D2E/DX2                !
 ! A106  A(47,46,48)           109.1176         estimate D2E/DX2                !
 ! A107  A(47,46,49)           107.1273         estimate D2E/DX2                !
 ! A108  A(48,46,49)           106.714          estimate D2E/DX2                !
 ! A109  A(35,50,51)           111.0499         estimate D2E/DX2                !
 ! A110  A(35,50,52)           111.9987         estimate D2E/DX2                !
 ! A111  A(35,50,53)           110.7315         estimate D2E/DX2                !
 ! A112  A(51,50,52)           107.9942         estimate D2E/DX2                !
 ! A113  A(51,50,53)           107.6626         estimate D2E/DX2                !
 ! A114  A(52,50,53)           107.2118         estimate D2E/DX2                !
 ! A115  A(4,54,55)            120.274          estimate D2E/DX2                !
 ! A116  A(4,54,56)            120.6253         estimate D2E/DX2                !
 ! A117  A(55,54,56)           119.1005         estimate D2E/DX2                !
 ! A118  A(54,56,57)           120.0169         estimate D2E/DX2                !
 ! A119  A(54,56,58)           119.9303         estimate D2E/DX2                !
 ! A120  A(57,56,58)           120.0528         estimate D2E/DX2                !
 ! A121  A(56,58,59)           120.0906         estimate D2E/DX2                !
 ! A122  A(56,58,60)           119.8488         estimate D2E/DX2                !
 ! A123  A(59,58,60)           120.0603         estimate D2E/DX2                !
 ! A124  A(5,60,58)            120.4815         estimate D2E/DX2                !
 ! A125  A(5,60,61)            120.0706         estimate D2E/DX2                !
 ! A126  A(58,60,61)           119.4477         estimate D2E/DX2                !
 ! A127  A(1,63,2)              92.8467         estimate D2E/DX2                !
 ! A128  A(1,63,62)             91.3578         estimate D2E/DX2                !
 ! A129  A(2,63,3)              83.5911         estimate D2E/DX2                !
 ! A130  A(3,63,62)             92.3441         estimate D2E/DX2                !
 ! A131  L(1,63,3,62,-1)       183.7019         estimate D2E/DX2                !
 ! A132  L(2,63,62,3,-1)       175.9352         estimate D2E/DX2                !
 ! A133  L(1,63,3,62,-2)       182.8605         estimate D2E/DX2                !
 ! A134  L(2,63,62,3,-2)       182.8268         estimate D2E/DX2                !
 ! D1    D(6,2,4,5)            127.567          estimate D2E/DX2                !
 ! D2    D(6,2,4,54)           -53.7278         estimate D2E/DX2                !
 ! D3    D(8,2,4,5)           -126.2407         estimate D2E/DX2                !
 ! D4    D(8,2,4,54)            52.4645         estimate D2E/DX2                !
 ! D5    D(63,2,4,5)            -1.7627         estimate D2E/DX2                !
 ! D6    D(63,2,4,54)          176.9425         estimate D2E/DX2                !
 ! D7    D(4,2,6,7)           -130.6805         estimate D2E/DX2                !
 ! D8    D(4,2,6,14)           114.4247         estimate D2E/DX2                !
 ! D9    D(4,2,6,26)            -9.7298         estimate D2E/DX2                !
 ! D10   D(8,2,6,7)            122.3182         estimate D2E/DX2                !
 ! D11   D(8,2,6,14)             7.4234         estimate D2E/DX2                !
 ! D12   D(8,2,6,26)          -116.731          estimate D2E/DX2                !
 ! D13   D(63,2,6,7)            -3.4163         estimate D2E/DX2                !
 ! D14   D(63,2,6,14)         -118.3111         estimate D2E/DX2                !
 ! D15   D(63,2,6,26)          117.5344         estimate D2E/DX2                !
 ! D16   D(4,2,8,9)             12.8296         estimate D2E/DX2                !
 ! D17   D(4,2,8,17)          -103.8809         estimate D2E/DX2                !
 ! D18   D(4,2,8,29)           134.7115         estimate D2E/DX2                !
 ! D19   D(6,2,8,9)            130.3264         estimate D2E/DX2                !
 ! D20   D(6,2,8,17)            13.6158         estimate D2E/DX2                !
 ! D21   D(6,2,8,29)          -107.7917         estimate D2E/DX2                !
 ! D22   D(63,2,8,9)          -106.3513         estimate D2E/DX2                !
 ! D23   D(63,2,8,17)          136.9381         estimate D2E/DX2                !
 ! D24   D(63,2,8,29)           15.5306         estimate D2E/DX2                !
 ! D25   D(4,2,63,1)           179.4364         estimate D2E/DX2                !
 ! D26   D(4,2,63,3)             2.4789         estimate D2E/DX2                !
 ! D27   D(6,2,63,1)            49.7503         estimate D2E/DX2                !
 ! D28   D(6,2,63,3)          -127.2072         estimate D2E/DX2                !
 ! D29   D(8,2,63,1)           -66.0904         estimate D2E/DX2                !
 ! D30   D(8,2,63,3)           116.9521         estimate D2E/DX2                !
 ! D31   D(10,3,5,4)          -123.1091         estimate D2E/DX2                !
 ! D32   D(10,3,5,60)           55.9974         estimate D2E/DX2                !
 ! D33   D(12,3,5,4)           132.04           estimate D2E/DX2                !
 ! D34   D(12,3,5,60)          -48.8534         estimate D2E/DX2                !
 ! D35   D(63,3,5,4)             2.6465         estimate D2E/DX2                !
 ! D36   D(63,3,5,60)         -178.2469         estimate D2E/DX2                !
 ! D37   D(5,3,10,11)          -27.3616         estimate D2E/DX2                !
 ! D38   D(5,3,10,20)         -139.5695         estimate D2E/DX2                !
 ! D39   D(5,3,10,32)           92.9904         estimate D2E/DX2                !
 ! D40   D(12,3,10,11)          88.9438         estimate D2E/DX2                !
 ! D41   D(12,3,10,20)         -23.2641         estimate D2E/DX2                !
 ! D42   D(12,3,10,32)        -150.7042         estimate D2E/DX2                !
 ! D43   D(63,3,10,11)        -147.9335         estimate D2E/DX2                !
 ! D44   D(63,3,10,20)          99.8587         estimate D2E/DX2                !
 ! D45   D(63,3,10,32)         -27.5815         estimate D2E/DX2                !
 ! D46   D(5,3,12,13)         -140.2106         estimate D2E/DX2                !
 ! D47   D(5,3,12,23)          106.3276         estimate D2E/DX2                !
 ! D48   D(5,3,12,35)          -20.1734         estimate D2E/DX2                !
 ! D49   D(10,3,12,13)         112.7184         estimate D2E/DX2                !
 ! D50   D(10,3,12,23)          -0.7434         estimate D2E/DX2                !
 ! D51   D(10,3,12,35)        -127.2444         estimate D2E/DX2                !
 ! D52   D(63,3,12,13)         -12.9238         estimate D2E/DX2                !
 ! D53   D(63,3,12,23)        -126.3855         estimate D2E/DX2                !
 ! D54   D(63,3,12,35)         107.1134         estimate D2E/DX2                !
 ! D55   D(5,3,63,2)            -2.731          estimate D2E/DX2                !
 ! D56   D(5,3,63,62)          174.4422         estimate D2E/DX2                !
 ! D57   D(10,3,63,2)          113.5213         estimate D2E/DX2                !
 ! D58   D(10,3,63,62)         -69.3055         estimate D2E/DX2                !
 ! D59   D(12,3,63,2)         -131.7286         estimate D2E/DX2                !
 ! D60   D(12,3,63,62)          45.4445         estimate D2E/DX2                !
 ! D61   D(2,4,5,3)             -0.573          estimate D2E/DX2                !
 ! D62   D(2,4,5,60)          -179.7002         estimate D2E/DX2                !
 ! D63   D(54,4,5,3)          -179.3189         estimate D2E/DX2                !
 ! D64   D(54,4,5,60)            1.554          estimate D2E/DX2                !
 ! D65   D(2,4,54,55)            0.2886         estimate D2E/DX2                !
 ! D66   D(2,4,54,56)         -179.854          estimate D2E/DX2                !
 ! D67   D(5,4,54,55)          178.9807         estimate D2E/DX2                !
 ! D68   D(5,4,54,56)           -1.1618         estimate D2E/DX2                !
 ! D69   D(3,5,60,58)          179.8971         estimate D2E/DX2                !
 ! D70   D(3,5,60,61)            0.0772         estimate D2E/DX2                !
 ! D71   D(4,5,60,58)           -1.0098         estimate D2E/DX2                !
 ! D72   D(4,5,60,61)          179.1703         estimate D2E/DX2                !
 ! D73   D(2,6,14,15)           91.1748         estimate D2E/DX2                !
 ! D74   D(2,6,14,16)         -152.3032         estimate D2E/DX2                !
 ! D75   D(2,6,14,17)          -27.273          estimate D2E/DX2                !
 ! D76   D(7,6,14,15)          -24.2194         estimate D2E/DX2                !
 ! D77   D(7,6,14,16)           92.3026         estimate D2E/DX2                !
 ! D78   D(7,6,14,17)         -142.6672         estimate D2E/DX2                !
 ! D79   D(26,6,14,15)        -143.5127         estimate D2E/DX2                !
 ! D80   D(26,6,14,16)         -26.9907         estimate D2E/DX2                !
 ! D81   D(26,6,14,17)          98.0395         estimate D2E/DX2                !
 ! D82   D(2,6,26,27)           60.6332         estimate D2E/DX2                !
 ! D83   D(2,6,26,28)          175.7449         estimate D2E/DX2                !
 ! D84   D(2,6,26,38)          -63.6834         estimate D2E/DX2                !
 ! D85   D(7,6,26,27)         -177.6444         estimate D2E/DX2                !
 ! D86   D(7,6,26,28)          -62.5328         estimate D2E/DX2                !
 ! D87   D(7,6,26,38)           58.039          estimate D2E/DX2                !
 ! D88   D(14,6,26,27)         -57.935          estimate D2E/DX2                !
 ! D89   D(14,6,26,28)          57.1767         estimate D2E/DX2                !
 ! D90   D(14,6,26,38)         177.7484         estimate D2E/DX2                !
 ! D91   D(2,8,17,14)          -31.5531         estimate D2E/DX2                !
 ! D92   D(2,8,17,18)           87.4226         estimate D2E/DX2                !
 ! D93   D(2,8,17,19)         -155.9073         estimate D2E/DX2                !
 ! D94   D(9,8,17,14)         -149.2274         estimate D2E/DX2                !
 ! D95   D(9,8,17,18)          -30.2517         estimate D2E/DX2                !
 ! D96   D(9,8,17,19)           86.4184         estimate D2E/DX2                !
 ! D97   D(29,8,17,14)          90.3241         estimate D2E/DX2                !
 ! D98   D(29,8,17,18)        -150.7002         estimate D2E/DX2                !
 ! D99   D(29,8,17,19)         -34.03           estimate D2E/DX2                !
 ! D100  D(2,8,29,30)          174.4674         estimate D2E/DX2                !
 ! D101  D(2,8,29,31)           59.5233         estimate D2E/DX2                !
 ! D102  D(2,8,29,42)          -64.4831         estimate D2E/DX2                !
 ! D103  D(9,8,29,30)          -62.3274         estimate D2E/DX2                !
 ! D104  D(9,8,29,31)         -177.2714         estimate D2E/DX2                !
 ! D105  D(9,8,29,42)           58.7222         estimate D2E/DX2                !
 ! D106  D(17,8,29,30)          58.7086         estimate D2E/DX2                !
 ! D107  D(17,8,29,31)         -56.2355         estimate D2E/DX2                !
 ! D108  D(17,8,29,42)         179.7581         estimate D2E/DX2                !
 ! D109  D(3,10,20,21)         163.4656         estimate D2E/DX2                !
 ! D110  D(3,10,20,22)         -78.2196         estimate D2E/DX2                !
 ! D111  D(3,10,20,23)          41.0462         estimate D2E/DX2                !
 ! D112  D(11,10,20,21)         49.9758         estimate D2E/DX2                !
 ! D113  D(11,10,20,22)        168.2907         estimate D2E/DX2                !
 ! D114  D(11,10,20,23)        -72.4436         estimate D2E/DX2                !
 ! D115  D(32,10,20,21)        -68.3978         estimate D2E/DX2                !
 ! D116  D(32,10,20,22)         49.9171         estimate D2E/DX2                !
 ! D117  D(32,10,20,23)        169.1829         estimate D2E/DX2                !
 ! D118  D(3,10,32,33)         -78.4808         estimate D2E/DX2                !
 ! D119  D(3,10,32,34)         167.8204         estimate D2E/DX2                !
 ! D120  D(3,10,32,46)          43.9481         estimate D2E/DX2                !
 ! D121  D(11,10,32,33)         42.8981         estimate D2E/DX2                !
 ! D122  D(11,10,32,34)        -70.8007         estimate D2E/DX2                !
 ! D123  D(11,10,32,46)        165.327          estimate D2E/DX2                !
 ! D124  D(20,10,32,33)        161.4076         estimate D2E/DX2                !
 ! D125  D(20,10,32,34)         47.7088         estimate D2E/DX2                !
 ! D126  D(20,10,32,46)        -76.1635         estimate D2E/DX2                !
 ! D127  D(3,12,23,20)          25.4286         estimate D2E/DX2                !
 ! D128  D(3,12,23,24)         149.0115         estimate D2E/DX2                !
 ! D129  D(3,12,23,25)         -93.6047         estimate D2E/DX2                !
 ! D130  D(13,12,23,20)        -87.6084         estimate D2E/DX2                !
 ! D131  D(13,12,23,24)         35.9745         estimate D2E/DX2                !
 ! D132  D(13,12,23,25)        153.3583         estimate D2E/DX2                !
 ! D133  D(35,12,23,20)        152.7517         estimate D2E/DX2                !
 ! D134  D(35,12,23,24)        -83.6654         estimate D2E/DX2                !
 ! D135  D(35,12,23,25)         33.7184         estimate D2E/DX2                !
 ! D136  D(3,12,35,36)          63.766          estimate D2E/DX2                !
 ! D137  D(3,12,35,37)         179.0779         estimate D2E/DX2                !
 ! D138  D(3,12,35,50)         -59.6718         estimate D2E/DX2                !
 ! D139  D(13,12,35,36)       -176.5516         estimate D2E/DX2                !
 ! D140  D(13,12,35,37)        -61.2397         estimate D2E/DX2                !
 ! D141  D(13,12,35,50)         60.0106         estimate D2E/DX2                !
 ! D142  D(23,12,35,36)        -56.9491         estimate D2E/DX2                !
 ! D143  D(23,12,35,37)         58.3628         estimate D2E/DX2                !
 ! D144  D(23,12,35,50)        179.6131         estimate D2E/DX2                !
 ! D145  D(6,14,17,8)           40.62           estimate D2E/DX2                !
 ! D146  D(6,14,17,18)         -78.6982         estimate D2E/DX2                !
 ! D147  D(6,14,17,19)         165.2882         estimate D2E/DX2                !
 ! D148  D(15,14,17,8)         -77.9115         estimate D2E/DX2                !
 ! D149  D(15,14,17,18)        162.7703         estimate D2E/DX2                !
 ! D150  D(15,14,17,19)         46.7567         estimate D2E/DX2                !
 ! D151  D(16,14,17,8)         166.0089         estimate D2E/DX2                !
 ! D152  D(16,14,17,18)         46.6906         estimate D2E/DX2                !
 ! D153  D(16,14,17,19)        -69.323          estimate D2E/DX2                !
 ! D154  D(10,20,23,12)        -45.5796         estimate D2E/DX2                !
 ! D155  D(10,20,23,24)       -169.0892         estimate D2E/DX2                !
 ! D156  D(10,20,23,25)         73.9894         estimate D2E/DX2                !
 ! D157  D(21,20,23,12)       -168.0677         estimate D2E/DX2                !
 ! D158  D(21,20,23,24)         68.4227         estimate D2E/DX2                !
 ! D159  D(21,20,23,25)        -48.4988         estimate D2E/DX2                !
 ! D160  D(22,20,23,12)         74.0472         estimate D2E/DX2                !
 ! D161  D(22,20,23,24)        -49.4624         estimate D2E/DX2                !
 ! D162  D(22,20,23,25)       -166.3838         estimate D2E/DX2                !
 ! D163  D(6,26,38,39)        -174.9922         estimate D2E/DX2                !
 ! D164  D(6,26,38,40)          65.5906         estimate D2E/DX2                !
 ! D165  D(6,26,38,41)         -55.2461         estimate D2E/DX2                !
 ! D166  D(27,26,38,39)         60.2924         estimate D2E/DX2                !
 ! D167  D(27,26,38,40)        -59.1247         estimate D2E/DX2                !
 ! D168  D(27,26,38,41)       -179.9615         estimate D2E/DX2                !
 ! D169  D(28,26,38,39)        -54.1495         estimate D2E/DX2                !
 ! D170  D(28,26,38,40)       -173.5666         estimate D2E/DX2                !
 ! D171  D(28,26,38,41)         65.5966         estimate D2E/DX2                !
 ! D172  D(8,29,42,43)          59.4141         estimate D2E/DX2                !
 ! D173  D(8,29,42,44)         179.5275         estimate D2E/DX2                !
 ! D174  D(8,29,42,45)         -61.3652         estimate D2E/DX2                !
 ! D175  D(30,29,42,43)       -179.1724         estimate D2E/DX2                !
 ! D176  D(30,29,42,44)        -59.059          estimate D2E/DX2                !
 ! D177  D(30,29,42,45)         60.0483         estimate D2E/DX2                !
 ! D178  D(31,29,42,43)        -64.6637         estimate D2E/DX2                !
 ! D179  D(31,29,42,44)         55.4497         estimate D2E/DX2                !
 ! D180  D(31,29,42,45)        174.557          estimate D2E/DX2                !
 ! D181  D(10,32,46,47)         56.6475         estimate D2E/DX2                !
 ! D182  D(10,32,46,48)        -65.8482         estimate D2E/DX2                !
 ! D183  D(10,32,46,49)        175.5332         estimate D2E/DX2                !
 ! D184  D(33,32,46,47)        179.2015         estimate D2E/DX2                !
 ! D185  D(33,32,46,48)         56.7058         estimate D2E/DX2                !
 ! D186  D(33,32,46,49)        -61.9128         estimate D2E/DX2                !
 ! D187  D(34,32,46,47)        -67.0463         estimate D2E/DX2                !
 ! D188  D(34,32,46,48)        170.458          estimate D2E/DX2                !
 ! D189  D(34,32,46,49)         51.8394         estimate D2E/DX2                !
 ! D190  D(12,35,50,51)        -57.6894         estimate D2E/DX2                !
 ! D191  D(12,35,50,52)         63.1403         estimate D2E/DX2                !
 ! D192  D(12,35,50,53)       -177.2461         estimate D2E/DX2                !
 ! D193  D(36,35,50,51)        178.2416         estimate D2E/DX2                !
 ! D194  D(36,35,50,52)        -60.9288         estimate D2E/DX2                !
 ! D195  D(36,35,50,53)         58.6848         estimate D2E/DX2                !
 ! D196  D(37,35,50,51)         63.6044         estimate D2E/DX2                !
 ! D197  D(37,35,50,52)       -175.5659         estimate D2E/DX2                !
 ! D198  D(37,35,50,53)        -55.9523         estimate D2E/DX2                !
 ! D199  D(4,54,56,57)        -179.7209         estimate D2E/DX2                !
 ! D200  D(4,54,56,58)           0.2084         estimate D2E/DX2                !
 ! D201  D(55,54,56,57)          0.1382         estimate D2E/DX2                !
 ! D202  D(55,54,56,58)       -179.9325         estimate D2E/DX2                !
 ! D203  D(54,56,58,59)       -179.8288         estimate D2E/DX2                !
 ! D204  D(54,56,58,60)          0.3543         estimate D2E/DX2                !
 ! D205  D(57,56,58,59)          0.1005         estimate D2E/DX2                !
 ! D206  D(57,56,58,60)       -179.7164         estimate D2E/DX2                !
 ! D207  D(56,58,60,5)           0.0499         estimate D2E/DX2                !
 ! D208  D(56,58,60,61)        179.8709         estimate D2E/DX2                !
 ! D209  D(59,58,60,5)        -179.7671         estimate D2E/DX2                !
 ! D210  D(59,58,60,61)          0.0539         estimate D2E/DX2                !
 --------------------------------------------------------------------------------
 Trust Radius=3.00D-01 FncErr=1.00D-07 GrdErr=1.00D-06
 Number of steps in this run=    378 maximum allowed number of steps=    378.
 GradGradGradGradGradGradGradGradGradGradGradGradGradGradGradGradGradGrad

 Stoichiometry    C22H36Cl2P2Pd
 Framework group  C1[X(C22H36Cl2P2Pd)]
 Deg. of freedom   183
 Full point group                 C1      NOp   1
 Largest Abelian subgroup         C1      NOp   1
 Largest concise Abelian subgroup C1      NOp   1
                         Standard orientation:                         
 ---------------------------------------------------------------------
 Center     Atomic      Atomic             Coordinates (Angstroms)
 Number     Number       Type             X           Y           Z
 ---------------------------------------------------------------------
      1         17           0       -1.458649   -3.182600    0.144101
      2         15           0       -1.595316    0.236573   -0.018382
      3         15           0        1.593197    0.416772    0.017920
      4          6           0       -0.794194    1.936391   -0.103908
      5          6           0        0.620954    2.012904   -0.094941
      6          6           0       -2.854544    0.054806    1.308070
      7          1           0       -2.645999   -0.855134    1.872936
      8          6           0       -2.695711    0.290997   -1.487001
      9          1           0       -2.445859    1.139306   -2.126060
     10          6           0        2.613361    0.697347    1.515268
     11          1           0        2.768639    1.770345    1.629969
     12          6           0        2.949001    0.297833   -1.214659
     13          1           0        2.961559   -0.731341   -1.575743
     14          6           0       -4.161657   -0.153001    0.523860
     15          1           0       -4.305302   -1.224742    0.377043
     16          1           0       -5.031768    0.193798    1.082131
     17          6           0       -4.083299    0.513584   -0.861899
     18          1           0       -4.249016    1.583515   -0.738972
     19          1           0       -4.882246    0.160893   -1.515109
     20          6           0        3.958961    0.100722    1.089619
     21          1           0        4.765506    0.433835    1.743471
     22          1           0        3.922182   -0.987326    1.159555
     23          6           0        4.221055    0.510629   -0.374453
     24          1           0        5.065017   -0.038387   -0.793416
     25          1           0        4.495676    1.566121   -0.394521
     26          6           0       -2.921835    1.221099    2.313793
     27          1           0       -3.169799    2.150032    1.803256
     28          1           0       -3.748544    1.037816    3.000961
     29          6           0       -2.633402   -0.991602   -2.336501
     30          1           0       -3.380244   -0.926064   -3.128636
     31          1           0       -2.925927   -1.850473   -1.734355
     32          6           0        2.044004    0.192094    2.857766
     33          1           0        1.293830    0.904267    3.200585
     34          1           0        2.835832    0.228714    3.606779
     35          6           0        2.827563    1.221269   -2.441939
     36          1           0        2.872063    2.265529   -2.136758
     37          1           0        3.696661    1.066015   -3.082076
     38          6           0       -1.646305    1.412434    3.146613
     39          1           0       -1.788690    2.191428    3.895716
     40          1           0       -0.799208    1.710881    2.532544
     41          1           0       -1.373558    0.495515    3.669466
     42          6           0       -1.267809   -1.252863   -2.986256
     43          1           0       -0.468968   -1.345443   -2.253968
     44          1           0       -1.287601   -2.176693   -3.564904
     45          1           0       -1.003698   -0.444587   -3.668217
     46          6           0        1.412793   -1.204599    2.869368
     47          1           0        2.113836   -1.962025    2.521273
     48          1           0        0.511951   -1.247079    2.261865
     49          1           0        1.120547   -1.479298    3.883161
     50          6           0        1.559726    0.992394   -3.275942
     51          1           0        1.500875   -0.038952   -3.623930
     52          1           0        0.654360    1.208794   -2.709956
     53          1           0        1.553482    1.638491   -4.153787
     54          6           0       -1.549728    3.123639   -0.202826
     55          1           0       -2.626797    3.082014   -0.227538
     56          6           0       -0.911614    4.376080   -0.267511
     57          1           0       -1.499876    5.279221   -0.338565
     58          6           0        0.492443    4.450588   -0.238045
     59          1           0        0.984941    5.410883   -0.284763
     60          6           0        1.254467    3.271358   -0.151469
     61          1           0        2.331944    3.335966   -0.131410
     62         17           0        1.864981   -2.981510   -0.056692
     63         46           0        0.102238   -1.456538    0.020455
 ---------------------------------------------------------------------
 Rotational constants (GHZ):      0.1649764      0.1464097      0.1167919
 General basis read from cards:  (6D, 7F)
 ======================================================================================================
                                       Pseudopotential Parameters
 ======================================================================================================
  Center     Atomic      Valence      Angular      Power
  Number     Number     Electrons     Momentum     of R      Exponent        Coefficient   SO-Coeffient
 ======================================================================================================
    1         17
                                   No pseudopotential on this center.
    2         15
                                   No pseudopotential on this center.
    3         15
                                   No pseudopotential on this center.
    4          6
                                   No pseudopotential on this center.
    5          6
                                   No pseudopotential on this center.
    6          6
                                   No pseudopotential on this center.
    7          1
                                   No pseudopotential on this center.
    8          6
                                   No pseudopotential on this center.
    9          1
                                   No pseudopotential on this center.
   10          6
                                   No pseudopotential on this center.
   11          1
                                   No pseudopotential on this center.
   12          6
                                   No pseudopotential on this center.
   13          1
                                   No pseudopotential on this center.
   14          6
                                   No pseudopotential on this center.
   15          1
                                   No pseudopotential on this center.
   16          1
                                   No pseudopotential on this center.
   17          6
                                   No pseudopotential on this center.
   18          1
                                   No pseudopotential on this center.
   19          1
                                   No pseudopotential on this center.
   20          6
                                   No pseudopotential on this center.
   21          1
                                   No pseudopotential on this center.
   22          1
                                   No pseudopotential on this center.
   23          6
                                   No pseudopotential on this center.
   24          1
                                   No pseudopotential on this center.
   25          1
                                   No pseudopotential on this center.
   26          6
                                   No pseudopotential on this center.
   27          1
                                   No pseudopotential on this center.
   28          1
                                   No pseudopotential on this center.
   29          6
                                   No pseudopotential on this center.
   30          1
                                   No pseudopotential on this center.
   31          1
                                   No pseudopotential on this center.
   32          6
                                   No pseudopotential on this center.
   33          1
                                   No pseudopotential on this center.
   34          1
                                   No pseudopotential on this center.
   35          6
                                   No pseudopotential on this center.
   36          1
                                   No pseudopotential on this center.
   37          1
                                   No pseudopotential on this center.
   38          6
                                   No pseudopotential on this center.
   39          1
                                   No pseudopotential on this center.
   40          1
                                   No pseudopotential on this center.
   41          1
                                   No pseudopotential on this center.
   42          6
                                   No pseudopotential on this center.
   43          1
                                   No pseudopotential on this center.
   44          1
                                   No pseudopotential on this center.
   45          1
                                   No pseudopotential on this center.
   46          6
                                   No pseudopotential on this center.
   47          1
                                   No pseudopotential on this center.
   48          1
                                   No pseudopotential on this center.
   49          1
                                   No pseudopotential on this center.
   50          6
                                   No pseudopotential on this center.
   51          1
                                   No pseudopotential on this center.
   52          1
                                   No pseudopotential on this center.
   53          1
                                   No pseudopotential on this center.
   54          6
                                   No pseudopotential on this center.
   55          1
                                   No pseudopotential on this center.
   56          6
                                   No pseudopotential on this center.
   57          1
                                   No pseudopotential on this center.
   58          6
                                   No pseudopotential on this center.
   59          1
                                   No pseudopotential on this center.
   60          6
                                   No pseudopotential on this center.
   61          1
                                   No pseudopotential on this center.
   62         17
                                   No pseudopotential on this center.
   63         46           18
                                      F and up 
                                                     0      598.3336444       -0.05631770    0.00000000
                                                     1      162.4298290      -20.12880360    0.00000000
                                                     2       51.5714771     -105.81979230    0.00000000
                                                     2       16.4888260      -42.57333450    0.00000000
                                                     2        5.8287656       -3.61650860    0.00000000
                                      S - F
                                                     0       73.3806304        3.00036510    0.00000000
                                                     1       14.7550438       32.43500930    0.00000000
                                                     2       17.8350204      459.08303830    0.00000000
                                                     2       12.7111477     -868.06290290    0.00000000
                                                     2        9.3292063      514.47260980    0.00000000
                                      P - F
                                                     0       55.6689877        4.95930990    0.00000000
                                                     1       64.2337771       21.17110290    0.00000000
                                                     2       17.6254952      605.05600920    0.00000000
                                                     2       11.9058155     -726.96418460    0.00000000
                                                     2        8.5100832      396.32748830    0.00000000
                                      D - F
                                                     0       49.9994728        3.05087450    0.00000000
                                                     1       39.7477547       22.25065800    0.00000000
                                                     2       11.4321366      674.83576980    0.00000000
                                                     2        9.1790080    -1040.85540480    0.00000000
                                                     2        7.5624429      505.93751470    0.00000000
 ======================================================================================================
 There are   502 symmetry adapted cartesian basis functions of A   symmetry.
 There are   502 symmetry adapted basis functions of A   symmetry.
   502 basis functions,  1017 primitive gaussians,   502 cartesian basis functions
   125 alpha electrons      125 beta electrons
       nuclear repulsion energy      4050.0706169599 Hartrees.
 NAtoms=   63 NActive=   63 NUniq=   63 SFac= 1.00D+00 NAtFMM=   60 NAOKFM=T Big=T
 Integral buffers will be    131072 words long.
 Raffenetti 2 integral format.
 Two-electron integral symmetry is turned on.
 Nuclear repulsion after empirical dispersion term =     4049.9565176480 Hartrees.
 Standard density basis: Auto (5D, 7F)
  2222 Density fitting functions
 There are  2222 symmetry adapted density basis functions of A   symmetry.
 One-electron integrals computed using PRISM.
   1 Symmetry operations used in ECPInt.
 ECPInt:  NShTT=   17766 NPrTT=  111805 LenC2=   15824 LenP2D=   55965.
 LDataN:  DoStor=T MaxTD1= 5 Len=  102
 NBasis=   502 RedAO= T EigKep=  5.03D-04  NBF=   502
 NBsUse=   502 1.00D-06 EigRej= -1.00D+00 NBFU=   502
 NBasis=      502 NBas6D=      502 NTT=      126253   NTT6D=   126253
 NDBShl=      478 NDBF=       2222 NDBF6D=     2624  NNucDB=        0
 IDenFi=        2 ISolve=        0 FullAP=F BlkAPC=T NucTyp=        0
 TolInv= 1.00D-06 TolIt=  1.00D-10 IR12=0.
 FoFCou: FMM=F IPFlag=           0 FMFlag=           0 FMFlg1=           0
         NFxFlg=           0 DoJE=F BraDBF=T KetDBF=T FulRan=T
         wScrn=  0.000000 ICntrl=     600 IOpCl=  3 I1Cent=           6 NGrid=           0
         NMat0=    1 NMatS0=   2624 NMatT0=    0 NMatD0=    1 NMtDS0=    0 NMtDT0=    0
 Petite list used in FoFCou.
 DBF EigKep=  3.76D-06 EigRej=  7.62D-07
 NDBF=   2222  NBFD=  2222
 NRank=  2221 NBFDU=  2221
 S*AI*S=  11.0726162514    
 Defaulting to unpruned grid for atomic number  46.
 ExpMin= 2.62D-02 ExpMax= 2.52D+04 ExpMxC= 3.78D+03 IAcc=3 IRadAn=         5 AccDes= 0.00D+00
 Harris functional with IExCor= 1009 and IRadAn=       5 diagonalized for initial guess.
 HarFok:  IExCor= 1009 AccDes= 0.00D+00 IRadAn=         5 IDoV= 1 UseB2=F ITyADJ=14
 ICtDFT=  3500011 ScaDFX=  1.000000  1.000000  1.000000  1.000000
 Defaulting to unpruned grid for atomic number  46.
 Defaulting to unpruned grid for atomic number  46.
 Defaulting to unpruned grid for atomic number  46.
 Defaulting to unpruned grid for atomic number  46.
 Defaulting to unpruned grid for atomic number  46.
 Defaulting to unpruned grid for atomic number  46.
 Defaulting to unpruned grid for atomic number  46.
 Defaulting to unpruned grid for atomic number  46.
 Defaulting to unpruned grid for atomic number  46.
 Defaulting to unpruned grid for atomic number  46.
 Defaulting to unpruned grid for atomic number  46.
 Defaulting to unpruned grid for atomic number  46.
 Defaulting to unpruned grid for atomic number  46.
 Defaulting to unpruned grid for atomic number  46.
 FoFCou: FMM=F IPFlag=           0 FMFlag=      100000 FMFlg1=        2001
         NFxFlg=           0 DoJE=T BraDBF=F KetDBF=T FulRan=T
         wScrn=  0.000000 ICntrl=     500 IOpCl=  0 I1Cent=   200000004 NGrid=           0
         NMat0=    1 NMatS0=      1 NMatT0=    0 NMatD0=    1 NMtDS0=    0 NMtDT0=    0
 Petite list used in FoFCou.
 Requested convergence on RMS density matrix=1.00D-08 within 500 cycles.
 Requested convergence on MAX density matrix=1.00D-06.
 Requested convergence on             energy=1.00D-06.
 No special actions if energy rises.
 FoFCou: FMM=F IPFlag=           0 FMFlag=      100000 FMFlg1=        2001
         NFxFlg=           0 DoJE=T BraDBF=T KetDBF=F FulRan=T
         wScrn=  0.000000 ICntrl=     500 IOpCl=  0 I1Cent=           5 NGrid=           0
         NMat0=    1 NMatS0=      1 NMatT0=    0 NMatD0=    1 NMtDS0=    0 NMtDT0=    0
 Symmetry not used in FoFCou.
 Defaulting to unpruned grid for atomic number  46.
 Defaulting to unpruned grid for atomic number  46.
 Defaulting to unpruned grid for atomic number  46.
 Defaulting to unpruned grid for atomic number  46.
 Defaulting to unpruned grid for atomic number  46.
 Defaulting to unpruned grid for atomic number  46.
 Defaulting to unpruned grid for atomic number  46.
 Defaulting to unpruned grid for atomic number  46.
 Defaulting to unpruned grid for atomic number  46.
 Defaulting to unpruned grid for atomic number  46.
 Defaulting to unpruned grid for atomic number  46.
 Defaulting to unpruned grid for atomic number  46.
 Defaulting to unpruned grid for atomic number  46.
 Defaulting to unpruned grid for atomic number  46.
 EnCoef did   100 forward-backward iterations
 Problem detected with inexpensive integrals.
 Switching to full accuracy and repeating last cycle.
 EnCoef did     2 forward-backward iterations
 EnCoef did     6 forward-backward iterations
 EnCoef did   100 forward-backward iterations
 Restarting incremental Fock formation.
 SCF Done:  E(RPBE-PBE) =  -2588.19423232     A.U. after   27 cycles
            NFock= 27  Conv=0.85D-08     -V/T= 2.0379

 **********************************************************************

            Population analysis using the SCF density.

 **********************************************************************

 Orbital symmetries:
       Occupied  (A) (A) (A) (A) (A) (A) (A) (A) (A) (A) (A) (A)
                 (A) (A) (A) (A) (A) (A) (A) (A) (A) (A) (A) (A)
                 (A) (A) (A) (A) (A) (A) (A) (A) (A) (A) (A) (A)
                 (A) (A) (A) (A) (A) (A) (A) (A) (A) (A) (A) (A)
                 (A) (A) (A) (A) (A) (A) (A) (A) (A) (A) (A) (A)
                 (A) (A) (A) (A) (A) (A) (A) (A) (A) (A) (A) (A)
                 (A) (A) (A) (A) (A) (A) (A) (A) (A) (A) (A) (A)
                 (A) (A) (A) (A) (A) (A) (A) (A) (A) (A) (A) (A)
                 (A) (A) (A) (A) (A) (A) (A) (A) (A) (A) (A) (A)
                 (A) (A) (A) (A) (A) (A) (A) (A) (A) (A) (A) (A)
                 (A) (A) (A) (A) (A)
       Virtual   (A) (A) (A) (A) (A) (A) (A) (A) (A) (A) (A) (A)
                 (A) (A) (A) (A) (A) (A) (A) (A) (A) (A) (A) (A)
                 (A) (A) (A) (A) (A) (A) (A) (A) (A) (A) (A) (A)
                 (A) (A) (A) (A) (A) (A) (A) (A) (A) (A) (A) (A)
                 (A) (A) (A) (A) (A) (A) (A) (A) (A) (A) (A) (A)
                 (A) (A) (A) (A) (A) (A) (A) (A) (A) (A) (A) (A)
                 (A) (A) (A) (A) (A) (A) (A) (A) (A) (A) (A) (A)
                 (A) (A) (A) (A) (A) (A) (A) (A) (A) (A) (A) (A)
                 (A) (A) (A) (A) (A) (A) (A) (A) (A) (A) (A) (A)
                 (A) (A) (A) (A) (A) (A) (A) (A) (A) (A) (A) (A)
                 (A) (A) (A) (A) (A) (A) (A) (A) (A) (A) (A) (A)
                 (A) (A) (A) (A) (A) (A) (A) (A) (A) (A) (A) (A)
                 (A) (A) (A) (A) (A) (A) (A) (A) (A) (A) (A) (A)
                 (A) (A) (A) (A) (A) (A) (A) (A) (A) (A) (A) (A)
                 (A) (A) (A) (A) (A) (A) (A) (A) (A) (A) (A) (A)
                 (A) (A) (A) (A) (A) (A) (A) (A) (A) (A) (A) (A)
                 (A) (A) (A) (A) (A) (A) (A) (A) (A) (A) (A) (A)
                 (A) (A) (A) (A) (A) (A) (A) (A) (A) (A) (A) (A)
                 (A) (A) (A) (A) (A) (A) (A) (A) (A) (A) (A) (A)
                 (A) (A) (A) (A) (A) (A) (A) (A) (A) (A) (A) (A)
                 (A) (A) (A) (A) (A) (A) (A) (A) (A) (A) (A) (A)
                 (A) (A) (A) (A) (A) (A) (A) (A) (A) (A) (A) (A)
                 (A) (A) (A) (A) (A) (A) (A) (A) (A) (A) (A) (A)
                 (A) (A) (A) (A) (A) (A) (A) (A) (A) (A) (A) (A)
                 (A) (A) (A) (A) (A) (A) (A) (A) (A) (A) (A) (A)
                 (A) (A) (A) (A) (A) (A) (A) (A) (A) (A) (A) (A)
                 (A) (A) (A) (A) (A) (A) (A) (A) (A) (A) (A) (A)
                 (A) (A) (A) (A) (A) (A) (A) (A) (A) (A) (A) (A)
                 (A) (A) (A) (A) (A) (A) (A) (A) (A) (A) (A) (A)
                 (A) (A) (A) (A) (A) (A) (A) (A) (A) (A) (A) (A)
                 (A) (A) (A) (A) (A) (A) (A) (A) (A) (A) (A) (A)
                 (A) (A) (A) (A) (A)
 The electronic state is 1-A.
 Alpha  occ. eigenvalues -- -100.58772-100.58698 -76.37021 -76.36808  -9.95066
 Alpha  occ. eigenvalues --   -9.94919  -9.94058  -9.94028  -9.93844  -9.93810
 Alpha  occ. eigenvalues --   -9.92456  -9.92210  -9.92156  -9.92111  -9.91270
 Alpha  occ. eigenvalues --   -9.91134  -9.90962  -9.90844  -9.90715  -9.90227
 Alpha  occ. eigenvalues --   -9.89877  -9.89303  -9.88865  -9.88849  -9.86593
 Alpha  occ. eigenvalues --   -9.86295  -9.08308  -9.08237  -6.90608  -6.90535
 Alpha  occ. eigenvalues --   -6.89911  -6.89877  -6.89841  -6.89807  -6.35089
 Alpha  occ. eigenvalues --   -6.34899  -4.56935  -4.56790  -4.56751  -4.56597
 Alpha  occ. eigenvalues --   -4.56592  -4.56405  -3.19582  -1.96497  -1.96206
 Alpha  occ. eigenvalues --   -1.92625  -0.80815  -0.77729  -0.77483  -0.72430
 Alpha  occ. eigenvalues --   -0.72292  -0.71121  -0.70745  -0.68624  -0.68422
 Alpha  occ. eigenvalues --   -0.64433  -0.64012  -0.63525  -0.63326  -0.63070
 Alpha  occ. eigenvalues --   -0.62316  -0.58449  -0.57581  -0.56157  -0.55875
 Alpha  occ. eigenvalues --   -0.54742  -0.54477  -0.51879  -0.51069  -0.50210
 Alpha  occ. eigenvalues --   -0.48494  -0.46595  -0.44503  -0.44222  -0.43664
 Alpha  occ. eigenvalues --   -0.43094  -0.42360  -0.41709  -0.41118  -0.40529
 Alpha  occ. eigenvalues --   -0.39716  -0.39309  -0.38792  -0.38229  -0.37864
 Alpha  occ. eigenvalues --   -0.37239  -0.36771  -0.36674  -0.35839  -0.35515
 Alpha  occ. eigenvalues --   -0.34852  -0.33654  -0.33458  -0.33125  -0.32926
 Alpha  occ. eigenvalues --   -0.32319  -0.32118  -0.31741  -0.31362  -0.30988
 Alpha  occ. eigenvalues --   -0.30845  -0.30219  -0.29844  -0.29531  -0.29462
 Alpha  occ. eigenvalues --   -0.29307  -0.29037  -0.28800  -0.28557  -0.28469
 Alpha  occ. eigenvalues --   -0.28246  -0.27709  -0.27280  -0.26495  -0.25282
 Alpha  occ. eigenvalues --   -0.24893  -0.23861  -0.23768  -0.23113  -0.22693
 Alpha  occ. eigenvalues --   -0.18192  -0.17737  -0.17617  -0.17281  -0.16969
 Alpha virt. eigenvalues --   -0.08548  -0.08054  -0.07857  -0.01412  -0.00724
 Alpha virt. eigenvalues --    0.02442   0.02846   0.03158   0.03238   0.03661
 Alpha virt. eigenvalues --    0.04109   0.04701   0.05382   0.05925   0.07148
 Alpha virt. eigenvalues --    0.07778   0.08395   0.08816   0.09526   0.09572
 Alpha virt. eigenvalues --    0.09873   0.10386   0.10984   0.11542   0.11796
 Alpha virt. eigenvalues --    0.11945   0.12336   0.12657   0.12953   0.13309
 Alpha virt. eigenvalues --    0.13550   0.13844   0.14150   0.14444   0.14578
 Alpha virt. eigenvalues --    0.14761   0.15297   0.15800   0.15967   0.16151
 Alpha virt. eigenvalues --    0.16354   0.17292   0.17390   0.17880   0.17993
 Alpha virt. eigenvalues --    0.18210   0.18506   0.19098   0.19651   0.19877
 Alpha virt. eigenvalues --    0.20126   0.20456   0.20673   0.21341   0.21470
 Alpha virt. eigenvalues --    0.21883   0.21967   0.22401   0.23128   0.23557
 Alpha virt. eigenvalues --    0.23752   0.24610   0.25042   0.25182   0.25551
 Alpha virt. eigenvalues --    0.26829   0.27264   0.27907   0.29770   0.30596
 Alpha virt. eigenvalues --    0.32246   0.33147   0.35575   0.36992   0.37204
 Alpha virt. eigenvalues --    0.38549   0.39096   0.39982   0.41158   0.43321
 Alpha virt. eigenvalues --    0.44220   0.44649   0.45322   0.45842   0.46372
 Alpha virt. eigenvalues --    0.47043   0.47423   0.47870   0.48339   0.48829
 Alpha virt. eigenvalues --    0.49354   0.49657   0.49930   0.50289   0.50995
 Alpha virt. eigenvalues --    0.51744   0.52466   0.53088   0.53587   0.54106
 Alpha virt. eigenvalues --    0.54684   0.54956   0.55846   0.56026   0.56311
 Alpha virt. eigenvalues --    0.56898   0.57222   0.57290   0.58376   0.58581
 Alpha virt. eigenvalues --    0.58696   0.59422   0.59554   0.59884   0.60331
 Alpha virt. eigenvalues --    0.60747   0.61822   0.62278   0.62586   0.63164
 Alpha virt. eigenvalues --    0.63699   0.64237   0.65013   0.65181   0.65537
 Alpha virt. eigenvalues --    0.66959   0.67184   0.67664   0.68278   0.68841
 Alpha virt. eigenvalues --    0.69565   0.70149   0.70776   0.72078   0.72340
 Alpha virt. eigenvalues --    0.73740   0.74917   0.75174   0.75496   0.75772
 Alpha virt. eigenvalues --    0.76575   0.77393   0.77772   0.78093   0.78508
 Alpha virt. eigenvalues --    0.79897   0.80469   0.80635   0.81258   0.81665
 Alpha virt. eigenvalues --    0.82376   0.82689   0.83208   0.83415   0.83606
 Alpha virt. eigenvalues --    0.84072   0.84227   0.84761   0.84890   0.85524
 Alpha virt. eigenvalues --    0.85846   0.86022   0.86413   0.86803   0.87135
 Alpha virt. eigenvalues --    0.87419   0.87962   0.88219   0.88450   0.88844
 Alpha virt. eigenvalues --    0.89309   0.89794   0.90055   0.90899   0.91026
 Alpha virt. eigenvalues --    0.91423   0.91864   0.92420   0.92500   0.93327
 Alpha virt. eigenvalues --    0.93495   0.94015   0.94153   0.94593   0.94815
 Alpha virt. eigenvalues --    0.95244   0.95707   0.95907   0.96600   0.97323
 Alpha virt. eigenvalues --    0.98189   0.98195   0.99040   0.99991   1.00849
 Alpha virt. eigenvalues --    1.01847   1.02226   1.02914   1.03947   1.04343
 Alpha virt. eigenvalues --    1.05056   1.05564   1.06113   1.07892   1.09086
 Alpha virt. eigenvalues --    1.09610   1.09664   1.11770   1.12487   1.13644
 Alpha virt. eigenvalues --    1.14625   1.15811   1.16171   1.17191   1.19533
 Alpha virt. eigenvalues --    1.19925   1.22412   1.23843   1.24264   1.25948
 Alpha virt. eigenvalues --    1.26812   1.28234   1.29663   1.32055   1.33367
 Alpha virt. eigenvalues --    1.34683   1.35785   1.36254   1.36918   1.38071
 Alpha virt. eigenvalues --    1.38713   1.39860   1.40373   1.42609   1.44391
 Alpha virt. eigenvalues --    1.44673   1.46075   1.46577   1.48010   1.49336
 Alpha virt. eigenvalues --    1.51177   1.51742   1.53447   1.55534   1.56952
 Alpha virt. eigenvalues --    1.57569   1.59907   1.61228   1.62746   1.65610
 Alpha virt. eigenvalues --    1.65962   1.67679   1.68487   1.69311   1.72282
 Alpha virt. eigenvalues --    1.73086   1.73844   1.74235   1.74825   1.75504
 Alpha virt. eigenvalues --    1.77072   1.77585   1.78716   1.80777   1.81274
 Alpha virt. eigenvalues --    1.81919   1.82290   1.82734   1.83854   1.84234
 Alpha virt. eigenvalues --    1.85327   1.86105   1.87811   1.89385   1.90473
 Alpha virt. eigenvalues --    1.90778   1.91655   1.92374   1.93444   1.93957
 Alpha virt. eigenvalues --    1.95121   1.95585   1.96164   1.96622   1.97523
 Alpha virt. eigenvalues --    1.97906   1.98423   2.00614   2.00775   2.03355
 Alpha virt. eigenvalues --    2.03551   2.04505   2.04999   2.06132   2.06951
 Alpha virt. eigenvalues --    2.07563   2.07906   2.10483   2.12037   2.14319
 Alpha virt. eigenvalues --    2.15211   2.16801   2.17187   2.18411   2.18917
 Alpha virt. eigenvalues --    2.19454   2.20437   2.21251   2.22526   2.22863
 Alpha virt. eigenvalues --    2.24845   2.25015   2.27608   2.27650   2.28997
 Alpha virt. eigenvalues --    2.29038   2.29686   2.31084   2.31424   2.31683
 Alpha virt. eigenvalues --    2.32619   2.33767   2.35107   2.36995   2.37349
 Alpha virt. eigenvalues --    2.39130   2.45579   2.47778   2.49048   2.49461
 Alpha virt. eigenvalues --    2.50560   2.51355   2.51912   2.53879   2.54973
 Alpha virt. eigenvalues --    2.56422   2.57180   2.58056   2.59464   2.62032
 Alpha virt. eigenvalues --    2.63082   2.65317   2.66124   2.68529   2.70000
 Alpha virt. eigenvalues --    2.70437   2.73251   2.75341   2.94914   3.20502
 Alpha virt. eigenvalues --    3.45855   3.52741   3.97913   4.04454   4.07738
 Alpha virt. eigenvalues --    4.08898   4.10894   4.11817   4.15731   4.16909
 Alpha virt. eigenvalues --    4.18716   4.24768   4.25317   4.27285   4.30881
 Alpha virt. eigenvalues --    4.32152   4.32572   4.35964   4.39121   4.42249
 Alpha virt. eigenvalues --    4.46104   4.49563   4.51540   4.52301   4.53626
 Alpha virt. eigenvalues --    4.59154  32.34226
          Condensed to atoms (all electrons):
 Mulliken charges:
               1
     1  Cl  -0.261983
     2  P    0.694742
     3  P    0.680052
     4  C   -0.109515
     5  C   -0.104148
     6  C   -0.308582
     7  H    0.243936
     8  C   -0.313364
     9  H    0.183217
    10  C   -0.304041
    11  H    0.176923
    12  C   -0.315982
    13  H    0.250821
    14  C   -0.328992
    15  H    0.206079
    16  H    0.164628
    17  C   -0.321471
    18  H    0.156442
    19  H    0.172892
    20  C   -0.342445
    21  H    0.162642
    22  H    0.219137
    23  C   -0.310996
    24  H    0.178206
    25  H    0.148831
    26  C   -0.307942
    27  H    0.153968
    28  H    0.168356
    29  C   -0.306053
    30  H    0.152455
    31  H    0.215591
    32  C   -0.310655
    33  H    0.161413
    34  H    0.161762
    35  C   -0.309752
    36  H    0.150995
    37  H    0.168987
    38  C   -0.510282
    39  H    0.164450
    40  H    0.182839
    41  H    0.185533
    42  C   -0.534842
    43  H    0.279481
    44  H    0.184933
    45  H    0.147522
    46  C   -0.515060
    47  H    0.212467
    48  H    0.263270
    49  H    0.158579
    50  C   -0.507672
    51  H    0.194352
    52  H    0.183389
    53  H    0.161582
    54  C   -0.162033
    55  H    0.159474
    56  C   -0.134374
    57  H    0.158809
    58  C   -0.137130
    59  H    0.159001
    60  C   -0.162041
    61  H    0.157284
    62  Cl  -0.265780
    63  Pd  -0.739910
 Sum of Mulliken charges =  -0.00000
 Mulliken charges with hydrogens summed into heavy atoms:
               1
     1  Cl  -0.261983
     2  P    0.694742
     3  P    0.680052
     4  C   -0.109515
     5  C   -0.104148
     6  C   -0.064646
     8  C   -0.130147
    10  C   -0.127118
    12  C   -0.065162
    14  C    0.041716
    17  C    0.007862
    20  C    0.039334
    23  C    0.016041
    26  C    0.014382
    29  C    0.061993
    32  C    0.012521
    35  C    0.010230
    38  C    0.022539
    42  C    0.077095
    46  C    0.119256
    50  C    0.031653
    54  C   -0.002558
    56  C    0.024435
    58  C    0.021871
    60  C   -0.004757
    62  Cl  -0.265780
    63  Pd  -0.739910
 Electronic spatial extent (au):  <R**2>=          10996.3832
 Charge=             -0.0000 electrons
 Dipole moment (field-independent basis, Debye):
    X=             -0.8911    Y=             13.0346    Z=             -0.0219  Tot=             13.0650
 Quadrupole moment (field-independent basis, Debye-Ang):
   XX=           -185.8941   YY=           -226.8238   ZZ=           -201.3590
   XY=              2.2918   XZ=             -0.2036   YZ=              0.1653
 Traceless Quadrupole moment (field-independent basis, Debye-Ang):
   XX=             18.7982   YY=            -22.1315   ZZ=              3.3333
   XY=              2.2918   XZ=             -0.2036   YZ=              0.1653
 Octapole moment (field-independent basis, Debye-Ang**2):
  XXX=             -2.1231  YYY=             96.3849  ZZZ=              6.0303  XYY=             -4.7543
  XXY=             10.4982  XXZ=              1.3674  XZZ=              2.2285  YZZ=            -37.2288
  YYZ=             -7.8516  XYZ=             -4.0008
 Hexadecapole moment (field-independent basis, Debye-Ang**3):
 XXXX=          -6270.1761 YYYY=          -4887.4730 ZZZZ=          -3339.4868 XXXY=              6.3819
 XXXZ=             -9.1244 YYYX=             -7.1033 YYYZ=            -21.6883 ZZZX=            -22.2394
 ZZZY=              7.7862 XXYY=          -1943.8835 XXZZ=          -1594.4661 YYZZ=          -1426.7261
 XXYZ=              7.5786 YYXZ=             13.8107 ZZXY=              1.2293
 N-N= 4.049956517648D+03 E-N=-1.416647626369D+04  KE= 2.493576048804D+03
   1 Symmetry operations used in ECPInt.
 ECPInt:  NShTT=   17766 NPrTT=  111805 LenC2=   15824 LenP2D=   55965.
 LDataN:  DoStor=T MaxTD1= 6 Len=  172
 Calling FoFJK, ICntrl=      2527 FMM=T ISym2X=0 I1Cent= 4 IOpClX= 0 NMat=1 NMatS=1 NMatT=0.
 Defaulting to unpruned grid for atomic number  46.
 Defaulting to unpruned grid for atomic number  46.
 Defaulting to unpruned grid for atomic number  46.
 Defaulting to unpruned grid for atomic number  46.
 Defaulting to unpruned grid for atomic number  46.
 Defaulting to unpruned grid for atomic number  46.
 Defaulting to unpruned grid for atomic number  46.
 Defaulting to unpruned grid for atomic number  46.
 Defaulting to unpruned grid for atomic number  46.
 Defaulting to unpruned grid for atomic number  46.
 Defaulting to unpruned grid for atomic number  46.
 Defaulting to unpruned grid for atomic number  46.
 Defaulting to unpruned grid for atomic number  46.
 Defaulting to unpruned grid for atomic number  46.
 ***** Axes restored to original set *****
 -------------------------------------------------------------------
 Center     Atomic                   Forces (Hartrees/Bohr)
 Number     Number              X              Y              Z
 -------------------------------------------------------------------
      1       17          -0.008634119   -0.004482388    0.002784921
      2       15           0.046007558   -0.007703723    0.000187227
      3       15          -0.038732286   -0.017384971    0.002781928
      4        6          -0.001480922   -0.003380043    0.006398257
      5        6           0.002170088   -0.007043776   -0.001390428
      6        6          -0.016433337    0.015317322    0.004512734
      7        1           0.009204379   -0.005953363    0.002597597
      8        6          -0.013753395   -0.016120145   -0.004139392
      9        1           0.006096537    0.006972214   -0.003917734
     10        6           0.009940047   -0.005631598    0.014165315
     11        1          -0.002656785    0.010837091   -0.005851052
     12        6           0.011398451    0.011428480   -0.011475234
     13        1          -0.005814901   -0.010838632    0.003413550
     14        6           0.001007085   -0.008744774   -0.009078015
     15        1           0.001286966   -0.009032970    0.001551805
     16        1          -0.006838421    0.005393433    0.003833830
     17        6          -0.002265752    0.005269782    0.007677180
     18        1          -0.003104832    0.011462130   -0.002168787
     19        1          -0.004442620   -0.006355628   -0.005088995
     20        6           0.002595440   -0.005583666   -0.006918858
     21        1           0.004965677    0.006002416    0.005055544
     22        1          -0.000664034   -0.009621940    0.002286938
     23        6          -0.001023379    0.002105371    0.007987212
     24        1           0.006704008   -0.005049988   -0.002198374
     25        1           0.000932222    0.011190818   -0.003668025
     26        6           0.011456124   -0.000691029    0.002946594
     27        1          -0.002354807    0.007504089   -0.008023434
     28        1          -0.008546811   -0.004327288    0.004903802
     29        6           0.011350696    0.000365749   -0.000425926
     30        1          -0.008263319    0.002126409   -0.008175850
     31        1           0.000873202   -0.005514172    0.009165893
     32        6          -0.006454000   -0.009078774   -0.003984557
     33        1          -0.007838412    0.007658627   -0.000097063
     34        1           0.009247891    0.003821362    0.004536935
     35        6          -0.009365916   -0.006473812    0.001585272
     36        1          -0.001090794    0.011078801    0.001843100
     37        1           0.009902789   -0.002847464   -0.002591671
     38        6          -0.006976767   -0.002654052   -0.003973368
     39        1          -0.002847901    0.007194379    0.004079514
     40        1           0.007452949    0.001563729   -0.006103528
     41        1           0.002485506   -0.006717955    0.005636425
     42        6          -0.012875077   -0.000045322   -0.004453683
     43        1           0.006950350    0.000903991    0.008775583
     44        1           0.000461254   -0.008084092   -0.001134154
[...]
 .00311897,-0.02657142,-0.00292556,-0.00324565,0.00002153,-0.00034670,0
 .00002811,-0.00009174,-0.00000111,0.00006371,0.00006420,-0.00035204,0.
 00014158,0.00002560,0.00002931,0.00001724,0.00020029,-0.00029110,-0.00
 013157,0.00014447,0.00020512,0.00067403,0.00003468,0.00005129,0.000218
 03,0.00000562,0.00001451,0.00001491,-0.00004827,0.00003466,0.00006023,
 -0.00000321,0.00000072,-0.00000637,-0.00003337,-0.00001624,-0.00000943
 ,0.00002181,-0.00001445,0.00001767,-0.00000008,0.00000893,-0.00000107,
 -0.00001976,0.00000148,-0.00000974,0.00002499,0.00016911,0.00006311,-0
 .00000958,-0.00002510,-0.00003307,-0.00004666,0.00000409,-0.00005868,0
 .00002978,-0.00054417,0.00008927,0.00004532,0.00019391,-0.00001704,0.0
 0035986,0.00029740,-0.00000208,0.00006316,-0.00006553,-0.00003726,0.00
 000878,0.00000856,-0.00001326,-0.00000587,0.00000614,0.00000373,-0.000
 12106,0.00005643,-0.00005949,0.00001491,-0.00005251,-0.00002675,-0.000
 00300,0.00000602,-0.00001064,-0.00007819,0.00019778,0.00007629,0.00002
 204,-0.00000796,-0.00002380,-0.00000238,-0.00000492,-0.00004707,0.0000
 9535,-0.00042637,-0.00008277,0.00030917,-0.00010087,-0.00078339,-0.000
 04244,0.00014735,0.00002278,-0.00000605,0.00000983,0.00000562,0.000006
 14,0.00000321,0.00001074,-0.00000688,0.00000096,-0.00004123,-0.0000109
 3,-0.00000961,0.00001065,-0.00001079,-0.00001222,0.00000069,0.00000820
 ,0.00000711,0.00001996,0.00000888,-0.00000300,-0.00000802,-0.00000455,
 0.00000737,-0.00001079,0.00002071,-0.00006318,-0.00010572,-0.00000044,
 -0.00000536,0.00001438,-0.00000226,-0.00000025,0.00000876,0.00000894,0
 .00004640,-0.00002824,-0.00016425,0.00007825,-0.00003867,0.00006037,0.
 00004246,0.00003645,0.00002323,-0.00001491,-0.00000834,0.00002852,0.00
 001173,0.00003658,0.00025103,-0.00108847,0.00018923,0.00003416,0.00005
 514,-0.00043698,0.00207865,-0.00238941,0.00333534,0.00116972,0.0003090
 0,0.00016902,0.02233592,0.00772144,0.00231176,-0.00011751,0.00044003,-
 0.00131595,-0.05303383,-0.06291003,0.00010211,0.05679430,0.06543051,-0
 .00007004,-0.00005797,0.00000092,0.00020045,-0.00004486,0.00038676,0.0
 0040879,-0.00023637,-0.00183786,-0.00059670,0.00291262,0.00548263,0.00
 737138,0.00075716,0.00134773,-0.00008263,0.00003329,0.00004516,0.00002
 451,-0.00000009,-0.00000735,0.00006925,0.00026184,0.00013581,-0.000008
 89,0.00005722,-0.00004820,0.00010862,0.00125422,0.00023480,-0.00051355
 ,0.00002300,-0.00097294,0.00004332,-0.00024103,0.00051909,0.00017773,0
 .00003016,-0.00015333,-0.00000258,-0.00000541,-0.00000177,0.00000261,-
 0.00000125,0.00000227,0.00000034,0.00000314,-0.00000454,-0.00000735,-0
 .00000348,-0.00000618,0.00000571,0.00000094,-0.00000673,0.00000202,-0.
 00000202,0.00000208,-0.00025723,-0.00035134,-0.00003668,-0.00007080,0.
 00002531,0.00000237,0.00016390,-0.00004526,-0.00002397,0.00013985,0.00
 001621,-0.00010220,0.00002878,-0.00004518,0.00001827,-0.00006065,-0.00
 000863,0.00011547,-0.00000020,-0.00005801,0.00004108,-0.00001162,0.000
 00213,-0.00002950,-0.00000581,0.00000224,-0.00000289,0.00004553,-0.000
 00895,-0.00001488,0.00000345,0.00001610,0.00000504,0.00001600,0.000010
 09,0.00000603,0.00008163,-0.00026283,-0.00008731,0.00002857,0.00002565
 ,-0.00000785,0.00000902,0.00000323,-0.00001872,0.00004666,-0.00040644,
 0.00004043,0.00052828,-0.00060945,-0.00099057,-0.00004662,0.00010314,-
 0.00001614,0.00000716,0.00000189,-0.00001937,0.00000402,-0.00000504,-0
 .00000278,-0.00000286,-0.00000255,0.00001481,0.00000529,0.00000450,-0.
 00000951,0.00001431,-0.00001434,0.00000353,-0.00000578,-0.00000107,0.0
 0001605,-0.00000240,0.00000131,-0.00000364,-0.00001159,0.00000745,-0.0
 0001870,-0.00001398,0.00004571,0.00008595,0.00000397,-0.00001220,0.000
 00063,-0.00000864,-0.00001319,-0.00000011,-0.00001486,-0.00004235,0.00
 001462,-0.00021196,0.00016080,-0.00012894,0.00008899,0.00005723,0.0000
 3509,0.00005575,-0.00005748,-0.00002664,-0.00000558,-0.00001870,-0.000
 02587,0.00015572,0.00000463,-0.00065757,0.00022259,-0.00046878,-0.0011
 7357,-0.00177143,0.00365574,0.00559672,-0.00051883,-0.00012874,0.00003
 439,-0.01028754,-0.00234417,0.00217897,0.00080512,-0.00129609,-0.00317
 977,-0.03009462,0.00050256,-0.03761927,0.03376672,-0.00326404,0.030906
 88,-0.00291747,-0.00041862,0.00039749,-0.00251044,0.00167573,0.0000832
 9,-0.00381979,0.00237800,-0.00051640,-0.00241827,0.00002781,-0.0002408
 6,0.00043464,0.00024320,-0.00013696,-0.00042762,0.00124137,-0.00118885
 ,0.00019536,-0.00010585,-0.00015560,-0.00035121,0.00123102,0.00057880,
 -0.00038734,-0.00002868,-0.00032304,-0.00038817,0.00039457,-0.00107306
 ,0.00047770,-0.00013960,0.00030745,-0.00021357,0.00001528,0.00286404,-
 0.00002248,-0.00050469,-0.00075857,-0.00015958,0.00034147,0.00018939,0
 .00008845,-0.00002074,0.00000037,-0.00027337,-0.00006538,-0.00001299,-
 0.00015278,-0.00038166,-0.00047981,-0.00000898,0.00007547,0.00002057,-
 0.00028963,0.00003711,0.00001747,-0.00084042,0.00027200,-0.00075596,0.
 00019517,-0.00077799,0.00008086,0.00030091,-0.00032484,0.00067345,0.00
 065938,-0.00018826,-0.00072050,0.00037755,0.00035118,-0.00000040,-0.00
 004446,-0.00031359,0.00017731,-0.00049729,-0.00063475,0.00016045,0.000
 03559,0.00004069,-0.00000676,-0.00009342,0.00027655,0.00020441,-0.0000
 2014,0.00025575,0.00031107,-0.00006240,-0.00008551,-0.00011551,0.00015
 141,0.00001856,-0.00000710,0.00021275,-0.00003714,0.00034647,0.0000759
 5,-0.00019768,-0.00010165,0.00002005,0.00017104,-0.00000499,0.00031761
 ,-0.00072097,-0.00045889,-0.00004025,-0.00028841,0.00042710,0.00007763
 ,0.00006562,-0.00013641,-0.00008361,0.00007525,-0.00001639,0.00001539,
 0.00008693,0.00006491,0.00001656,-0.00001239,-0.00006960,-0.00000276,-
 0.00005863,-0.00000463,0.00022189,-0.00001891,0.00017315,-0.00029773,0
 .00012067,0.00021905,-0.00002047,-0.00008671,-0.00013205,-0.00007746,0
 .00006299,-0.00013985,-0.00155274,-0.00011061,-0.00009478,0.00038738,0
 .00003137,0.00040086,0.00058301,0.00067095,0.00073036,0.00042589,0.000
 06917,0.00010548,-0.00028564,0.00008183,0.00007855,-0.00011109,-0.0000
 0899,-0.00004097,0.00016923,-0.00013684,-0.00003330,0.00011057,0.00000
 784,0.00004980,0.00099761,0.00082503,-0.00010378,0.00006972,-0.0001455
 1,0.00005607,-0.00019997,0.00004082,-0.00008245,0.00004413,0.00014741,
 -0.00002190,0.00009581,0.00012359,-0.00003190,0.00002617,0.00003670,0.
 00000688,0.00003537,-0.00000910,-0.00001104,0.00007983,0.00015521,0.00
 000566,0.05706659,-0.00170625,0.00380299,-0.00132371,0.00320503,0.0023
 8118,0.00081656,0.00152421,-0.00396769,0.00148311,0.00026960,0.0003258
 5,-0.00011190,0.00004848,-0.00046806,0.00016917,0.00019862,-0.00091063
 ,0.00073839,-0.00011074,0.00001923,0.00011384,0.00048225,-0.00127906,-
 0.00050070,0.00034288,0.00003166,0.00024842,0.00004467,0.00115648,-0.0
 0003651,0.00019377,0.00011223,0.00018099,0.00008566,-0.00095188,0.0020
 1210,0.00000979,-0.00200219,0.00038694,0.00007092,-0.00015165,-0.00005
 164,0.00000854,0.00002494,0.00000688,0.00016063,0.00005468,-0.00001115
 ,0.00015685,0.00032481,0.00042102,0.00000600,-0.00003376,-0.00001411,0
 .00025824,-0.00003376,-0.00002283,-0.00134932,-0.00070663,-0.00085540,
 -0.00008993,-0.00061593,0.00007354,0.00018920,-0.00167171,0.00005364,0
 .00038862,0.00004180,-0.00018762,-0.00008641,0.00001940,0.00003345,-0.
 00008193,-0.00007389,0.00006616,0.00034689,0.00039384,-0.00012939,-0.0
 0002366,-0.00001676,0.00001595,0.00006838,-0.00017364,-0.00012382,-0.0
 0007494,-0.00021449,-0.00037392,-0.00000072,0.00005512,0.00010169,-0.0
 0005556,-0.00000549,-0.00000442,-0.00009407,0.00016682,-0.00005634,0.0
 0002246,0.00007138,-0.00001806,-0.00003141,-0.00003572,0.00002453,0.00
 029642,-0.00085714,-0.00049668,-0.00000812,-0.00015779,0.00036471,-0.0
 0005254,-0.00002202,-0.00005795,0.00004452,-0.00004738,0.00003465,-0.0
 0001535,-0.00004313,-0.00003667,-0.00000866,0.00002452,0.00001729,-0.0
 0001054,0.00001528,-0.00000363,-0.00002205,0.00009749,0.00002977,0.000
 23010,-0.00024039,-0.00015851,0.00005952,0.00009039,0.00017144,-0.0000
 2580,0.00000856,0.00001697,0.00103526,-0.00004772,-0.00108494,0.000108
 92,-0.00033434,-0.00008907,-0.00041265,-0.00075136,-0.00088146,-0.0000
 6484,-0.00039573,-0.00022706,0.00000442,-0.00012246,-0.00007676,0.0000
 3571,0.00002283,0.00001348,-0.00005827,0.00006997,-0.00004288,0.000009
 63,0.00000979,0.00003999,-0.00017703,-0.00022980,-0.00000773,-0.000027
 39,0.00005542,-0.00003235,0.00001984,0.00001360,0.00002099,-0.00000731
 ,-0.00003457,0.00001962,-0.00001432,-0.00004117,-0.00000208,-0.0000115
 3,-0.00002806,0.00001104,0.00000179,-0.00004630,-0.00000087,-0.0000541
 5,-0.00003851,0.00001153,-0.03226242,0.04136217,0.00056467,-0.00062612
 ,0.00067116,-0.00118350,0.00156775,0.00539289,-0.00005526,0.00126505,-
 0.00221160,-0.00018282,-0.00001218,-0.00016641,-0.00022708,0.00009085,
 0.00027067,-0.00075744,0.00086140,-0.00088486,0.00010701,-0.00001512,-
 0.00014158,0.00052961,-0.00082150,-0.00025712,0.00012598,0.00000779,0.
 00009457,-0.00008433,-0.00006467,0.00018065,0.00004478,-0.00014411,0.0
 0004053,0.00021037,0.00185010,-0.00077365,-0.00050812,0.00032511,-0.00
 003257,-0.00020768,0.00015342,0.00027496,-0.00001696,-0.00001094,-0.00
 002364,-0.00014314,-0.00006242,-0.00005353,0.00006993,0.00007400,0.000
 35700,0.00000521,0.00000535,0.00000997,0.00009156,-0.00001891,-0.00005
 932,-0.00045128,0.00012546,-0.00007057,0.00000980,-0.00031913,0.000155
 73,0.00030775,-0.00021681,-0.00010216,-0.00048653,0.00002777,-0.000556
 99,0.00000347,-0.00007222,0.00004034,0.00022684,0.00013843,0.00034772,
 -0.00034617,-0.00032040,0.00012292,0.00003252,0.00001337,0.00001570,-0
 .00005139,0.00015377,0.00011410,-0.00009628,0.00000789,-0.00024692,-0.
 00008226,-0.00002261,0.00003601,-0.00002882,-0.00000129,0.00002384,0.0
 0022760,0.00045457,-0.00044847,0.00001349,-0.00028141,0.00005339,-0.00
 010194,-0.00021514,0.00016786,-0.00019627,0.00065604,0.00042076,0.0000
 2509,0.00026612,-0.00033061,0.00001978,-0.00006790,0.00004824,0.000002
 73,0.00009072,-0.00003844,0.00000632,0.00001714,0.00002916,0.00000158,
 -0.00001043,-0.00004804,-0.00002774,-0.00004372,0.00002908,0.00020292,
 0.00016759,0.00026677,-0.00003289,-0.00018346,-0.00022367,0.00002353,0
 .00002214,0.00002380,-0.00006267,-0.00000422,-0.00004352,0.00059975,-0
 .00070723,-0.00132717,0.00108263,-0.00004956,0.00035678,-0.00106022,-0
 .00047434,-0.00112496,0.00012794,-0.00071988,-0.00040400,0.00013558,-0
 .00031071,-0.00004709,-0.00002480,0.00009732,0.00018441,-0.00001180,-0
 .00000955,0.00000775,-0.00001676,0.00011533,-0.00002187,0.00012954,0.0
 0003676,-0.00011690,0.00000602,-0.00001691,-0.00001326,-0.00002429,0.0
 0003297,0.00002948,0.00000069,0.00002218,0.00000776,-0.00001214,-0.000
 01424,-0.00000124,0.00000886,-0.00000340,-0.00001193,0.00006792,-0.000
 02893,0.00007005,0.00001926,-0.00001066,-0.00005269,0.00841704,-0.0089
 8504,0.01068340,-0.02715477,-0.02441904,0.00736421,-0.06771936,0.03779
 845,-0.01591463,-0.04357814,-0.03631416,0.00457469,0.00461288,-0.00019
 309,0.00031968,0.00499462,0.00444453,-0.00042735,-0.00316880,0.0037722
 8,-0.00208727,-0.00058516,0.00117649,0.00038140,-0.00148716,0.00237171
 ,0.00010037,-0.00051912,-0.00013998,-0.00039374,0.00005154,-0.00334484
 ,0.00223697,-0.00076331,-0.00044454,-0.00091106,-0.00200158,-0.0058486
 1,-0.00076623,-0.00027964,-0.00114265,0.00085603,-0.00021693,0.0005215
 4,0.00051876,-0.00054733,-0.00022641,-0.00012078,-0.00023532,-0.000363
 33,0.00000978,-0.00012316,-0.00041342,-0.00078938,-0.00009746,-0.00002
 079,0.00005562,-0.00033344,0.00011459,0.00005642,0.00095961,-0.0005287
 9,0.00046348,-0.00012179,0.00046045,-0.00018640,-0.00049026,0.00012276
 ,-0.00031074,-0.00106800,0.00034204,0.00145449,-0.00053870,-0.00024748
 ,-0.00016680,-0.00010754,-0.00000541,-0.00011078,-0.00122505,-0.000988
 01,0.00082851,0.00004879,-0.00009414,-0.00010523,-0.00017432,0.0004917
 8,0.00023365,0.00033498,0.00122139,-0.00004473,0.00009336,-0.00033950,
 0.00026376,-0.00068378,-0.00034186,-0.00017847,-0.00023721,-0.00011667
 ,0.00024028,0.00007033,0.00007756,-0.00011383,0.00006469,0.00014983,-0
 .00011992,-0.00149646,0.00082225,-0.00012613,0.00001274,0.00001673,-0.
 00014402,0.00000940,-0.00019780,0.00054380,0.00003130,0.00005353,-0.00
 012657,-0.00001182,0.00000072,0.00002525,0.00016489,-0.00021382,0.0000
 0034,0.00003686,0.00000340,0.00000518,-0.00023720,-0.00049046,-0.00093
 582,0.00036218,-0.00022060,-0.00050829,0.00004403,-0.00004931,-0.00009
 315,-0.00004712,-0.00001421,0.00013247,0.00020602,-0.00050253,-0.00091
 001,-0.00045698,-0.00000946,-0.00024874,0.00042000,0.00004677,-0.00053
 479,-0.00018170,0.00017436,-0.00004119,0.00005497,-0.00027776,-0.00003
 719,0.00007785,0.00003411,-0.00001824,0.00012605,0.00025381,-0.0000962
 3,-0.00001824,0.00002427,0.00005541,-0.00109082,-0.00121850,0.00016707
 ,-0.00001681,0.00001366,-0.00002454,0.00040612,-0.00016994,0.00019001,
 -0.00005847,-0.00013329,0.00003232,0.00037741,0.00058232,-0.00015163,-
 0.00015336,0.00015565,-0.00007323,-0.00209192,0.00059768,-0.00060179,0
 .00007865,0.00004515,0.00004305,-0.04539475,0.02701009,-0.00696715,0.1
 9107372,-0.02407237,-0.05016569,0.01354285,0.03543802,-0.05139840,0.00
 904396,-0.03400567,-0.08061113,0.00843526,0.00652785,-0.00671930,0.003
 20534,-0.00200113,-0.00752837,0.00228488,0.00047529,0.00242630,-0.0007
 6767,0.00042254,0.00006200,0.00008170,-0.00233363,0.00543310,0.0013434
 7,-0.00102827,-0.00021969,-0.00094798,-0.00145829,0.00086215,-0.000637
 63,0.00014830,0.00014911,0.00045665,0.00042275,0.00417990,0.00134521,-
 0.00048498,-0.00038588,0.00046768,0.00012680,0.00019905,-0.00089681,-0
 .00022802,-0.00005345,-0.00012676,-0.00013666,-0.00014784,0.00019237,-
 0.00080106,-0.00091265,-0.00123139,-0.00006836,0.00000177,0.00008848,-
 0.00070226,0.00009908,0.00016272,-0.00011281,-0.00038267,-0.00097511,-
 0.00007015,0.00002740,0.00015969,-0.00000766,0.00029928,0.00010259,0.0
 0067537,-0.00043793,-0.00072024,0.00045375,0.00015507,0.00016503,0.000
 02891,0.00002494,0.00007006,-0.00047583,-0.00065170,0.00042565,-0.0000
 5481,-0.00006128,-0.00004247,-0.00005869,0.00027398,0.00011407,0.00117
 252,0.00071629,0.00077223,-0.00009801,-0.00006511,0.00018692,-0.000198
 54,-0.00016559,-0.00020977,0.00025613,-0.00058328,0.00035091,-0.000055
 26,0.00014259,0.00011553,-0.00001028,0.00030396,-0.00005764,0.00062041
 ,-0.00046119,0.00012002,0.00007835,0.00006710,0.00001731,-0.00000379,0
 .00006799,-0.00026349,-0.00015967,-0.00005204,0.00007692,0.00009442,0.
 00001019,-0.00001131,-0.00002454,0.00028187,0.00014597,0.00002028,0.00
 005364,-0.00000261,-0.00069604,-0.00026155,-0.00115704,0.00041563,0.00
 025302,0.00072534,-0.00006969,-0.00014096,-0.00020281,-0.00017918,0.00
 005667,-0.00016781,-0.00109352,-0.00071419,-0.00042151,0.00018912,0.00
 020065,0.00022698,0.00045917,0.00069168,-0.00076096,0.00036365,0.00018
 688,0.00022070,-0.00005322,0.00001264,-0.00003380,-0.00008912,0.000067
 22,0.00005710,-0.00006901,-0.00000119,0.00000010,-0.00001556,0.0000207
 1,-0.00001323,-0.00232809,-0.00110483,0.00004319,0.00019861,-0.0001265
 9,0.00005634,0.00053416,-0.00069444,0.00036112,-0.00011294,-0.00026763
 ,0.00003529,-0.00013850,-0.00069618,0.00013627,0.00014415,-0.00014894,
 0.00003749,0.00182619,0.00020650,0.00036364,-0.00016366,-0.00015036,0.
 00006631,0.02643634,-0.03400162,0.00621879,-0.00386948,0.22177894,0.00
 623001,0.01144222,-0.01248952,-0.01569412,0.00981707,-0.02790682,0.005
 10326,0.01017260,-0.02617806,-0.00138425,0.00264741,0.00097842,0.00130
 668,0.00360104,0.00131562,0.00449691,-0.00383882,0.00344162,-0.0000563
 2,-0.00064880,0.00065852,-0.00378552,0.00436105,0.00152861,-0.00056940
 ,-0.00007327,-0.00034925,-0.00224088,-0.00719512,0.00489035,-0.0019053
 1,-0.00093951,-0.00215837,0.00263621,0.00396490,0.00146420,-0.00001933
 ,0.00090781,0.00012558,0.00099533,-0.00057722,-0.00099614,0.00013950,0
 .00004627,0.00012108,0.00041839,0.00032147,0.00025979,-0.00041980,-0.0
 0059637,-0.00210685,-0.00011170,0.00009253,-0.00001324,-0.00055474,0.0
 0014423,0.00037337,0.00005470,-0.00065738,-0.00053350,-0.00038519,0.00
 029139,0.00011911,-0.00011074,0.00018521,0.00011084,0.00082771,-0.0002
 3028,-0.00154057,0.00024739,0.00021870,0.00035102,0.00012365,0.0000913
 0,0.00002287,0.00110781,0.00096496,-0.00062979,0.00003352,-0.00002575,
 0.00007007,0.00019547,-0.00042285,-0.00033639,0.00053767,0.00068784,0.
 00069472,0.00027016,0.00002882,-0.00012887,-0.00018461,-0.00041852,0.0
 0020905,0.00068505,0.00033476,0.00156488,0.00001942,0.00023475,0.00005
 680,-0.00006352,0.00040613,-0.00006027,0.00034865,-0.00019791,0.000154
 56,-0.00001370,0.00000065,0.00000393,0.00006783,-0.00003681,-0.0001632
 4,-0.00008710,-0.00014545,0.00015250,0.00007610,-0.00005206,-0.0000426
 7,-0.00003812,0.00024751,-0.00006354,-0.00005479,0.00004153,0.00013165
 ,-0.00385690,-0.00136256,-0.00352325,0.00203879,0.00058682,0.00008808,
 0.00015151,-0.00027604,0.00018789,0.00059885,0.00023022,0.00055787,-0.
 00309416,-0.00249981,-0.00332176,-0.00000027,0.00037356,0.00029107,0.0
 0190451,0.00056733,-0.00018405,0.00040549,0.00023863,-0.00007169,-0.00
 045682,0.00038683,-0.00017067,0.00000378,-0.00005297,0.00007244,0.0002
 6865,-0.00048398,0.00024573,0.00021163,0.00003344,-0.00015607,0.000398
 17,0.00021102,0.00080061,-0.00007045,0.00001561,0.00005999,0.00006799,
 0.00016198,-0.00025770,0.00004855,0.00000031,-0.00014959,0.00003833,0.
 00030592,-0.00029149,-0.00003863,0.00003682,-0.00016222,-0.00095425,0.
 00031829,0.00043760,0.00003071,0.00007928,0.00001449,-0.00917084,0.008
 30736,-0.01069268,0.01323308,-0.04237407,0.07312330\\-0.00000382,-0.00
 000278,0.00000381,-0.00001709,0.00000215,0.00000633,0.00000015,-0.0000
 1494,-0.00001740,0.00000080,-0.00000193,-0.00000256,0.00000570,0.00000
 132,-0.00000475,0.00001846,0.00001177,-0.00000593,-0.00000113,-0.00000
 310,-0.00000023,0.00001493,-0.00002301,-0.00000036,-0.00000092,0.00000
 463,0.00000143,0.00000158,0.00000292,0.00000538,-0.00000475,0.00000042
 ,-0.00000275,-0.00001135,0.00000285,0.00001419,0.00000213,-0.00000181,
 -0.00000041,-0.00000756,-0.00000574,0.00000261,0.00000189,-0.00000209,
 0.00000070,0.00000044,0.00000139,-0.00000362,-0.00000652,0.00000805,0.
 00000536,0.00000220,-0.00000125,-0.00000270,-0.00000098,-0.00000385,0.
 00000203,-0.00000565,0.00000368,0.00000402,0.00000097,0.00000128,0.000
 00088,-0.00000076,0.00000049,-0.00000073,0.00001132,0.00000643,-0.0000
 0031,-0.00000060,-0.00000139,-0.00000076,-0.00000122,-0.00000180,-0.00
 000166,0.00000198,0.00000538,0.00000525,-0.00000098,0.00000061,-0.0000
 0565,0.00000069,-0.00000065,-0.00000059,0.00000353,0.00000325,-0.00000
 125,0.00000002,-0.00000181,0.00000316,-0.00000128,-0.00000230,0.000004
 41,0.00000181,0.00000125,0.00000690,0.00000063,0.00000190,-0.00000164,
 0.00000237,0.00000379,-0.00000309,0.00000120,-0.00000077,-0.00000551,0
 .00000134,-0.00000234,-0.00000537,-0.00000028,-0.00000055,-0.00000011,
 -0.00000526,-0.00000142,-0.00000484,-0.00000034,0.00000353,-0.00000098
 ,0.00000143,0.00000085,-0.00000073,0.00000122,0.00000201,0.00000071,-0
 .00000783,0.00000250,-0.00000179,0.00000244,-0.00000374,0.00000340,0.0
 0000195,-0.00000454,0.00000412,-0.00000045,-0.00000316,0.00000258,-0.0
 0000051,0.00000536,-0.00000191,-0.00000052,0.00000063,0.00000010,0.000
 00176,0.00000177,0.00000282,-0.00000011,0.00000354,0.00000117,0.000002
 29,0.00000078,0.00000216,-0.00000052,-0.00000287,0.00000052,0.00000119
 ,-0.00000147,0.00000108,-0.00000079,-0.00000221,-0.00000150,0.00000067
 ,0.00000507,0.00000145,-0.00000209,-0.00000269,0.00000117,-0.00000432,
 -0.00000601,-0.00000276,0.00000079,0.00000089,-0.00000311,0.00000417,-
 0.00000551,-0.00000177,-0.00000152,0.00000126,-0.00000315,-0.00000579,
 0.00000516,-0.00000166,0.,0.,0.00000181,0.00000538,-0.00000218,-0.0000
 0010,-0.00000249,0.00001101,0.00000212\\\@


 "TIGER, TIGER BURNING BRIGHT
 IN THE FOREST OF THE NIGHT.
 WHAT IMMORTAL HAND OR EYE
 CAN FRAME THY FEARFUL SYMMETRYE?"
                     - WILLIAM BLAKE
 Job cpu time:       0 days  4 hours 57 minutes 10.2 seconds.
 File lengths (MBytes):  RWF=   1987 Int=      0 D2E=      0 Chk=     72 Scr=      1
 Normal termination of Gaussian 09 at Tue Nov 16 17:13:39 2021.
