 Entering Gaussian System, Link 0=/uufs/chpc.utah.edu/sys/installdir/gaussian16/B01/E6B/g16/g16
 Input=SS_Et_DuPhos_1_SPE.com
 Output=SS_Et_DuPhos_1_SPE.log
 Initial command:
 /uufs/chpc.utah.edu/sys/installdir/gaussian16/B01/E6B/g16/l1.exe "/scratch/general/lustre/u6034117/3711144/notchpeak.peaks/Gau-188902.inp" -scrdir="/scratch/general/lustre/u6034117/3711144/notchpeak.peaks/"
 Entering Link 1 = /uufs/chpc.utah.edu/sys/installdir/gaussian16/B01/E6B/g16/l1.exe PID=    188904.
  
 Copyright (c) 1988-2017, Gaussian, Inc.  All Rights Reserved.
  
 This is part of the Gaussian(R) 16 program.  It is based on
 the Gaussian(R) 09 system (copyright 2009, Gaussian, Inc.),
 the Gaussian(R) 03 system (copyright 2003, Gaussian, Inc.),
 the Gaussian(R) 98 system (copyright 1998, Gaussian, Inc.),
 the Gaussian(R) 94 system (copyright 1995, Gaussian, Inc.),
 the Gaussian 92(TM) system (copyright 1992, Gaussian, Inc.),
 the Gaussian 90(TM) system (copyright 1990, Gaussian, Inc.),
 the Gaussian 88(TM) system (copyright 1988, Gaussian, Inc.),
 the Gaussian 86(TM) system (copyright 1986, Carnegie Mellon
 University), and the Gaussian 82(TM) system (copyright 1983,
 Carnegie Mellon University). Gaussian is a federally registered
 trademark of Gaussian, Inc.
  
 This software contains proprietary and confidential information,
 including trade secrets, belonging to Gaussian, Inc.
  
 This software is provided under written license and may be
 used, copied, transmitted, or stored only in accord with that
 written license.
  
 The following legend is applicable only to US Government
 contracts under FAR:
  
                    RESTRICTED RIGHTS LEGEND
  
 Use, reproduction and disclosure by the US Government is
 subject to restrictions as set forth in subparagraphs (a)
 and (c) of the Commercial Computer Software - Restricted
 Rights clause in FAR 52.227-19.
  
 Gaussian, Inc.
 340 Quinnipiac St., Bldg. 40, Wallingford CT 06492
  
  
 ---------------------------------------------------------------
 Warning -- This program may not be used in any manner that
 competes with the business of Gaussian, Inc. or will provide
 assistance to any competitor of Gaussian, Inc.  The licensee
 of this program is prohibited from giving any competitor of
 Gaussian, Inc. access to this program.  By using this program,
 the user acknowledges that Gaussian, Inc. is engaged in the
 business of creating and licensing software in the field of
 computational chemistry and represents and warrants to the
 licensee that it is not a competitor of Gaussian, Inc. and that
 it will not use this program in any manner prohibited above.
 ---------------------------------------------------------------
  

 Cite this work as:
 Gaussian 16, Revision B.01,
 M. J. Frisch, G. W. Trucks, H. B. Schlegel, G. E. Scuseria, 
 M. A. Robb, J. R. Cheeseman, G. Scalmani, V. Barone, 
 G. A. Petersson, H. Nakatsuji, X. Li, M. Caricato, A. V. Marenich, 
 J. Bloino, B. G. Janesko, R. Gomperts, B. Mennucci, H. P. Hratchian, 
 J. V. Ortiz, A. F. Izmaylov, J. L. Sonnenberg, D. Williams-Young, 
 F. Ding, F. Lipparini, F. Egidi, J. Goings, B. Peng, A. Petrone, 
 T. Henderson, D. Ranasinghe, V. G. Zakrzewski, J. Gao, N. Rega, 
 G. Zheng, W. Liang, M. Hada, M. Ehara, K. Toyota, R. Fukuda, 
 J. Hasegawa, M. Ishida, T. Nakajima, Y. Honda, O. Kitao, H. Nakai, 
 T. Vreven, K. Throssell, J. A. Montgomery, Jr., J. E. Peralta, 
 F. Ogliaro, M. J. Bearpark, J. J. Heyd, E. N. Brothers, K. N. Kudin, 
 V. N. Staroverov, T. A. Keith, R. Kobayashi, J. Normand, 
 K. Raghavachari, A. P. Rendell, J. C. Burant, S. S. Iyengar, 
 J. Tomasi, M. Cossi, J. M. Millam, M. Klene, C. Adamo, R. Cammi, 
 J. W. Ochterski, R. L. Martin, K. Morokuma, O. Farkas, 
 J. B. Foresman, and D. J. Fox, Gaussian, Inc., Wallingford CT, 2016.
 
 ******************************************
 Gaussian 16:  ES64L-G16RevB.01 20-Dec-2017
                14-Dec-2021 
 ******************************************
 %NProcShared=52
 Will use up to   52 processors via shared memory.
 %mem=28GB
 %chk=SS_Et_DuPhos_1_SPE.chk
 ----------------------------------------------------------------------
 # PBE1PBE gen pseudo=read int=(grid=ultrafine) empiricaldispersion=GD3
 BJ nmr=giao
 ----------------------------------------------------------------------
 1/38=1,172=1/1;
 2/12=2,17=6,18=5,40=1/2;
 3/5=7,11=2,16=1,17=8,25=1,30=1,74=-13,75=-5,124=41/1,2,3,8;
 4//1;
 5/5=2,38=5/2;
 8/6=1,10=90,11=11/1;
 10/13=100,45=16/2;
 6/7=2,8=2,9=2,10=2,28=1/1;
 99/9=1/99;
 --------------------
 SS_Et_DuPhos_1 title
 --------------------
 Symbolic Z-matrix:
 Charge =  0 Multiplicity = 1
 Cl                   -1.25798  -3.8484    1.17305 
 P                    -1.55341  -0.82831   0.05365 
 P                     1.52332  -0.21456   0.37888 
 C                    -0.95177   0.87349  -0.36977 
 C                     0.41169   1.16959  -0.1258 
 C                    -2.97345  -0.73377   1.27452 
 H                    -3.03122  -1.81011   1.54174 
 C                    -2.65708  -1.33632  -1.39902 
 H                    -2.50656  -0.54476  -2.15835 
 C                     2.55886   0.3937    1.83407 
 H                     2.39954   1.49174   1.8542 
 C                     2.9644   -0.28037  -0.84053 
 H                     3.16457  -1.36785  -0.89257 
 C                    -4.19633  -0.40092   0.40299 
 H                    -5.12681  -0.59439   0.96765 
 H                    -4.20946   0.67162   0.13517 
 C                    -4.11005  -1.29148  -0.84692 
 H                    -4.80969  -0.96904  -1.63773 
 H                    -4.39224  -2.32164  -0.56305 
 C                     4.00662   0.09217   1.396 
 H                     4.71955   0.67566   2.00545 
 H                     4.20724  -0.98045   1.56908 
 C                     4.13095   0.40752  -0.09847 
 H                     5.09615   0.06628  -0.51344 
 H                     4.0785    1.50251  -0.26391 
 C                    -2.81924   0.04991   2.58649 
 H                    -3.7547   -0.11838   3.15467 
 H                    -2.02232  -0.42278   3.18505 
 C                    -2.32934  -2.70611  -2.01931 
 H                    -3.13734  -2.92828  -2.74406 
 H                    -2.38522  -3.47079  -1.22421 
 C                     2.19059  -0.19991   3.19886 
 H                     2.92652   0.18129   3.93313 
 H                     2.3199   -1.2959    3.14725 
 C                     2.71894   0.27329  -2.2495 
 H                     2.49103   1.35433  -2.18962 
 H                     3.6792    0.19601  -2.79548 
 C                    -2.56065   1.55764   2.48297 
 H                    -3.30456   2.06404   1.84342 
 H                    -1.56288   1.77596   2.06984 
 H                    -2.61514   2.01899   3.48363 
 C                    -0.97002  -2.79583  -2.70961 
 H                    -0.85741  -2.03347  -3.50155 
 H                    -0.83322  -3.78915  -3.16872 
 H                    -0.15497  -2.65908  -1.97492 
 C                     0.7702    0.13399   3.65304 
 H                     0.04274  -0.34662   2.97481 
 H                     0.57819   1.22268   3.65317 
 H                     0.57539  -0.24905   4.66872 
 C                     1.62166  -0.44523  -3.03539 
 H                     1.56521  -0.06786  -4.07065 
 H                     1.80362  -1.53234  -3.07595 
 H                     0.6337   -0.29175  -2.56997 
 C                    -1.78953   1.8768   -0.89485 
 H                    -2.83666   1.65534  -1.11989 
 C                    -1.29773   3.16757  -1.12555 
 H                    -1.96243   3.93881  -1.5273 
 C                     0.03975   3.47259  -0.83559 
 H                     0.42348   4.48343  -1.00575 
 C                     0.89229   2.47454  -0.34672 
 H                     1.94278   2.71114  -0.14591 
 Cl                    2.28587  -3.21085   1.15122 
 Pd                    0.24296  -2.04666   0.66508 
 
 Stoichiometry    C22H36Cl2P2Pd
 Framework group  C1[X(C22H36Cl2P2Pd)]
 Deg. of freedom   183
 Full point group                 C1      NOp   1
 Largest Abelian subgroup         C1      NOp   1
 Largest concise Abelian subgroup C1      NOp   1
                         Standard orientation:                         
 ---------------------------------------------------------------------
 Center     Atomic      Atomic             Coordinates (Angstroms)
 Number     Number       Type             X           Y           Z
 ---------------------------------------------------------------------
      1         17           0        1.573123   -3.083098   -0.452716
      2         15           0        1.552648    0.107783    0.075612
      3         15           0       -1.595544    0.283194   -0.006923
      4          6           0        0.764869    1.776344    0.256405
      5          6           0       -0.642356    1.858674    0.117933
      6          6           0        2.833333    0.135390   -1.293706
      7          1           0        3.013153   -0.957722   -1.371413
      8          6           0        2.838975    0.017376    1.462557
      9          1           0        2.649779    0.915211    2.082162
     10          6           0       -2.828496    0.478860   -1.421648
     11          1           0       -2.822407    1.564168   -1.653046
     12          6           0       -2.901029    0.280859    1.358252
     13          1           0       -2.946062   -0.792912    1.623555
     14          6           0        4.071662    0.768578   -0.636888
     15          1           0        4.966327    0.582258   -1.258914
     16          1           0        3.962372    1.866415   -0.565850
     17          6           0        4.217920    0.127101    0.752333
     18          1           0        4.934217    0.673405    1.390538
     19          1           0        4.611435   -0.897792    0.625108
     20          6           0       -4.177448    0.097910   -0.778182
     21          1           0       -5.014077    0.467544   -1.397535
     22          1           0       -4.244798   -1.004074   -0.735601
     23          6           0       -4.211176    0.673867    0.641493
     24          1           0       -5.080586    0.306502    1.215436
     25          1           0       -4.293746    1.778813    0.604046
     26          6           0        2.458832    0.632680   -2.697863
     27          1           0        3.354683    0.470819   -3.328339
     28          1           0        1.683934   -0.035096   -3.110661
     29          6           0        2.756590   -1.238922    2.347683
     30          1           0        3.648064   -1.223310    3.005351
     31          1           0        2.845586   -2.128444    1.698927
     32          6           0       -2.504772   -0.315142   -2.692636
     33          1           0       -3.347591   -0.169069   -3.395752
     34          1           0       -2.478762   -1.388964   -2.434169
     35          6           0       -2.609814    1.116350    2.610896
     36          1           0       -2.537235    2.185618    2.335966
     37          1           0       -3.498693    1.031700    3.265802
     38          6           0        2.007737    2.091726   -2.833982
     39          1           0        2.729354    2.793904   -2.381128
     40          1           0        1.029918    2.265663   -2.357002
     41          1           0        1.910479    2.358285   -3.900104
     42          6           0        1.488361   -1.355212    3.190512
     43          1           0        1.343420   -0.475217    3.842922
     44          1           0        1.528972   -2.252627    3.830189
     45          1           0        0.600671   -1.456801    2.538999
     46          6           0       -1.188650    0.091091   -3.354511
     47          1           0       -0.345617   -0.163509   -2.687691
     48          1           0       -1.147268    1.174919   -3.568357
     49          1           0       -1.033938   -0.451866   -4.301894
     50          6           0       -1.359998    0.693647    3.383674
     51          1           0       -1.264279    1.264294    4.323126
     52          1           0       -1.388113   -0.379796    3.635659
     53          1           0       -0.447036    0.871099    2.791003
     54          6           0        1.501419    2.952274    0.499071
     55          1           0        2.584670    2.901974    0.641209
     56          6           0        0.860921    4.196530    0.551706
     57          1           0        1.447375    5.102529    0.734096
     58          6           0       -0.525937    4.281887    0.363775
     59          1           0       -1.027058    5.254471    0.394566
     60          6           0       -1.274581    3.116213    0.157241
     61          1           0       -2.361079    3.185468    0.036501
     62         17           0       -2.008634   -2.873579   -0.147852
     63         46           0       -0.108198   -1.406685   -0.106371
 ---------------------------------------------------------------------
 Rotational constants (GHZ):           0.1680869           0.1400677           0.1186107
 General basis read from cards:  (5D, 7F)
 ======================================================================================================
                                       Pseudopotential Parameters
 ======================================================================================================
  Center     Atomic      Valence      Angular      Power
  Number     Number     Electrons     Momentum     of R      Exponent        Coefficient   SO-Coeffient
 ======================================================================================================
    1         17
                                   No pseudopotential on this center.
    2         15
                                   No pseudopotential on this center.
    3         15
                                   No pseudopotential on this center.
    4          6
                                   No pseudopotential on this center.
    5          6
                                   No pseudopotential on this center.
    6          6
                                   No pseudopotential on this center.
    7          1
                                   No pseudopotential on this center.
    8          6
                                   No pseudopotential on this center.
    9          1
                                   No pseudopotential on this center.
   10          6
                                   No pseudopotential on this center.
   11          1
                                   No pseudopotential on this center.
   12          6
                                   No pseudopotential on this center.
   13          1
                                   No pseudopotential on this center.
   14          6
                                   No pseudopotential on this center.
   15          1
                                   No pseudopotential on this center.
   16          1
                                   No pseudopotential on this center.
   17          6
                                   No pseudopotential on this center.
   18          1
                                   No pseudopotential on this center.
   19          1
                                   No pseudopotential on this center.
   20          6
                                   No pseudopotential on this center.
   21          1
                                   No pseudopotential on this center.
   22          1
                                   No pseudopotential on this center.
   23          6
                                   No pseudopotential on this center.
   24          1
                                   No pseudopotential on this center.
   25          1
                                   No pseudopotential on this center.
   26          6
                                   No pseudopotential on this center.
   27          1
                                   No pseudopotential on this center.
   28          1
                                   No pseudopotential on this center.
   29          6
                                   No pseudopotential on this center.
   30          1
                                   No pseudopotential on this center.
   31          1
                                   No pseudopotential on this center.
   32          6
                                   No pseudopotential on this center.
   33          1
                                   No pseudopotential on this center.
   34          1
                                   No pseudopotential on this center.
   35          6
                                   No pseudopotential on this center.
   36          1
                                   No pseudopotential on this center.
   37          1
                                   No pseudopotential on this center.
   38          6
                                   No pseudopotential on this center.
   39          1
                                   No pseudopotential on this center.
   40          1
                                   No pseudopotential on this center.
   41          1
                                   No pseudopotential on this center.
   42          6
                                   No pseudopotential on this center.
   43          1
                                   No pseudopotential on this center.
   44          1
                                   No pseudopotential on this center.
   45          1
                                   No pseudopotential on this center.
   46          6
                                   No pseudopotential on this center.
   47          1
                                   No pseudopotential on this center.
   48          1
                                   No pseudopotential on this center.
   49          1
                                   No pseudopotential on this center.
   50          6
                                   No pseudopotential on this center.
   51          1
                                   No pseudopotential on this center.
   52          1
                                   No pseudopotential on this center.
   53          1
                                   No pseudopotential on this center.
   54          6
                                   No pseudopotential on this center.
   55          1
                                   No pseudopotential on this center.
   56          6
                                   No pseudopotential on this center.
   57          1
                                   No pseudopotential on this center.
   58          6
                                   No pseudopotential on this center.
   59          1
                                   No pseudopotential on this center.
   60          6
                                   No pseudopotential on this center.
   61          1
                                   No pseudopotential on this center.
   62         17
                                   No pseudopotential on this center.
   63         46           18
                                      G and up 
                                                     2        1.0000000        0.00000000    0.00000000
                                      S - G
                                                     2       12.4300000      240.22904000    0.00000000
                                                     2        6.1707590       35.17194300    0.00000000
                                      P - G
                                                     2       11.0800000      170.41727600    0.00000000
                                                     2        5.8295540       28.47213300    0.00000000
                                      D - G
                                                     2        9.5100000       69.01384500    0.00000000
                                                     2        4.1397810       11.75086200    0.00000000
                                      F - G
                                                     2       13.2700000      -31.92955400    0.00000000
                                                     2        6.6300000       -5.39821700    0.00000000
 ======================================================================================================
 There are  1215 symmetry adapted cartesian basis functions of A   symmetry.
 There are  1082 symmetry adapted basis functions of A   symmetry.
  1082 basis functions,  1751 primitive gaussians,  1215 cartesian basis functions
   125 alpha electrons      125 beta electrons
       nuclear repulsion energy      4039.0151845587 Hartrees.
 NAtoms=   63 NActive=   63 NUniq=   63 SFac= 1.00D+00 NAtFMM=   60 NAOKFM=T Big=T
 Integral buffers will be    131072 words long.
 Raffenetti 2 integral format.
 Two-electron integral symmetry is turned on.
 Nuclear repulsion after empirical dispersion term =     4038.9102370139 Hartrees.
 One-electron integrals computed using PRISM.
   1 Symmetry operations used in ECPInt.
 ECPInt:  NShTT=  102378 NPrTT=  309252 LenC2=   90387 LenP2D=  190356.
 LDataN:  DoStor=T MaxTD1= 7 Len=  274
 Number of processors reduced to  40 by ecpmxn.
 NBasis=  1082 RedAO= T EigKep=  5.02D-06  NBF=  1082
 NBsUse=  1082 1.00D-06 EigRej= -1.00D+00 NBFU=  1082
 Defaulting to unpruned grid for atomic number  46.
 ExpMin= 1.60D-02 ExpMax= 6.95D+04 ExpMxC= 2.37D+03 IAcc=3 IRadAn=         5 AccDes= 0.00D+00
 Harris functional with IExCor= 1009 and IRadAn=       5 diagonalized for initial guess.
 HarFok:  IExCor= 1009 AccDes= 0.00D+00 IRadAn=         5 IDoV= 1 UseB2=F ITyADJ=14
 ICtDFT=  3500011 ScaDFX=  1.000000  1.000000  1.000000  1.000000
 Defaulting to unpruned grid for atomic number  46.
 FoFCou: FMM=F IPFlag=           0 FMFlag=      100000 FMFlg1=        2001
         NFxFlg=           0 DoJE=T BraDBF=F KetDBF=T FulRan=T
         wScrn=  0.000000 ICntrl=       500 IOpCl=  0 I1Cent=   200000004 NGrid=           0
         NMat0=    1 NMatS0=      1 NMatT0=    0 NMatD0=    1 NMtDS0=    0 NMtDT0=    0
 Petite list used in FoFCou.
 Requested convergence on RMS density matrix=1.00D-08 within 128 cycles.
 Requested convergence on MAX density matrix=1.00D-06.
 Requested convergence on             energy=1.00D-06.
 No special actions if energy rises.
 Defaulting to unpruned grid for atomic number  46.
 Defaulting to unpruned grid for atomic number  46.
 Defaulting to unpruned grid for atomic number  46.
 Defaulting to unpruned grid for atomic number  46.
 Defaulting to unpruned grid for atomic number  46.
 Defaulting to unpruned grid for atomic number  46.
 Defaulting to unpruned grid for atomic number  46.
 Defaulting to unpruned grid for atomic number  46.
 Defaulting to unpruned grid for atomic number  46.
 Defaulting to unpruned grid for atomic number  46.
 Defaulting to unpruned grid for atomic number  46.
 Defaulting to unpruned grid for atomic number  46.
 Defaulting to unpruned grid for atomic number  46.
 Defaulting to unpruned grid for atomic number  46.
 Defaulting to unpruned grid for atomic number  46.
 Defaulting to unpruned grid for atomic number  46.
 Defaulting to unpruned grid for atomic number  46.
 Defaulting to unpruned grid for atomic number  46.
 Defaulting to unpruned grid for atomic number  46.
 Defaulting to unpruned grid for atomic number  46.
 Defaulting to unpruned grid for atomic number  46.
 Defaulting to unpruned grid for atomic number  46.
 Defaulting to unpruned grid for atomic number  46.
 Defaulting to unpruned grid for atomic number  46.
 Defaulting to unpruned grid for atomic number  46.
 Defaulting to unpruned grid for atomic number  46.
 Defaulting to unpruned grid for atomic number  46.
 Defaulting to unpruned grid for atomic number  46.
 Defaulting to unpruned grid for atomic number  46.
 Defaulting to unpruned grid for atomic number  46.
 Defaulting to unpruned grid for atomic number  46.
 Defaulting to unpruned grid for atomic number  46.
 Defaulting to unpruned grid for atomic number  46.
 Defaulting to unpruned grid for atomic number  46.
 Defaulting to unpruned grid for atomic number  46.
 Defaulting to unpruned grid for atomic number  46.
 Defaulting to unpruned grid for atomic number  46.
 Defaulting to unpruned grid for atomic number  46.
 Defaulting to unpruned grid for atomic number  46.
 Defaulting to unpruned grid for atomic number  46.
 Defaulting to unpruned grid for atomic number  46.
 Defaulting to unpruned grid for atomic number  46.
 Defaulting to unpruned grid for atomic number  46.
 Defaulting to unpruned grid for atomic number  46.
 Defaulting to unpruned grid for atomic number  46.
 Defaulting to unpruned grid for atomic number  46.
 Defaulting to unpruned grid for atomic number  46.
 Defaulting to unpruned grid for atomic number  46.
 Defaulting to unpruned grid for atomic number  46.
 Defaulting to unpruned grid for atomic number  46.
 Defaulting to unpruned grid for atomic number  46.
 Defaulting to unpruned grid for atomic number  46.
 EnCoef did     2 forward-backward iterations
 EnCoef did   100 forward-backward iterations
 SCF Done:  E(RPBE1PBE) =  -2590.03849753     A.U. after   18 cycles
            NFock= 18  Conv=0.43D-08     -V/T= 2.0353
 DoSCS=F DFT=T ScalE2(SS,OS)=  1.000000  1.000000
 Range of M.O.s used for correlation:     1  1082
 NBasis=  1082 NAE=   125 NBE=   125 NFC=     0 NFV=     0
 NROrb=   1082 NOA=   125 NOB=   125 NVA=   957 NVB=   957

 **** Warning!!: The largest alpha MO coefficient is  0.52114224D+02

          Differentiating once with respect to magnetic field using GIAOs.
          Electric field/nuclear overlap derivatives assumed to be zero.
 Defaulting to unpruned grid for atomic number  46.
 FoFCou: FMM=F IPFlag=           0 FMFlag=      100000 FMFlg1=        2001
         NFxFlg=           0 DoJE=F BraDBF=F KetDBF=T FulRan=T
         wScrn=  0.000000 ICntrl=      6100 IOpCl=  0 I1Cent=           7 NGrid=          63
         NMat0=    1 NMatS0=      1 NMatT0=    0 NMatD0=    1 NMtDS0=    0 NMtDT0=    0
 Symmetry not used in FoFCou.
   1 Symmetry operations used in ECPInt.
 ECPInt:  NShTT=  102378 NPrTT=  309252 LenC2=  102379 LenP2D=  309252.
 LDataN:  DoStor=T MaxTD1= 8 Len=  415
 Number of processors reduced to  28 by ecpmxn.
 FoFJK:  IHMeth= 1 ICntrl=    6127 DoSepK=F KAlg= 0 I1Cent=           0 FoldK=F
 IRaf=         1 NMat=       1 IRICut=       1 DoRegI=T DoRafI=F ISym2E= 0 IDoP0=0 IntGTp=1.
 Defaulting to unpruned grid for atomic number  46.
 Defaulting to unpruned grid for atomic number  46.
 Defaulting to unpruned grid for atomic number  46.
 Defaulting to unpruned grid for atomic number  46.
 Defaulting to unpruned grid for atomic number  46.
 Defaulting to unpruned grid for atomic number  46.
 Defaulting to unpruned grid for atomic number  46.
 Defaulting to unpruned grid for atomic number  46.
 Defaulting to unpruned grid for atomic number  46.
 Defaulting to unpruned grid for atomic number  46.
 Defaulting to unpruned grid for atomic number  46.
 Defaulting to unpruned grid for atomic number  46.
 Defaulting to unpruned grid for atomic number  46.
 Defaulting to unpruned grid for atomic number  46.
 Defaulting to unpruned grid for atomic number  46.
 Defaulting to unpruned grid for atomic number  46.
 Defaulting to unpruned grid for atomic number  46.
 Defaulting to unpruned grid for atomic number  46.
 Defaulting to unpruned grid for atomic number  46.
 Defaulting to unpruned grid for atomic number  46.
 Defaulting to unpruned grid for atomic number  46.
 Defaulting to unpruned grid for atomic number  46.
 Defaulting to unpruned grid for atomic number  46.
 Defaulting to unpruned grid for atomic number  46.
 Defaulting to unpruned grid for atomic number  46.
 Defaulting to unpruned grid for atomic number  46.
 Defaulting to unpruned grid for atomic number  46.
 Defaulting to unpruned grid for atomic number  46.
 Defaulting to unpruned grid for atomic number  46.
 Defaulting to unpruned grid for atomic number  46.
 Defaulting to unpruned grid for atomic number  46.
 Defaulting to unpruned grid for atomic number  46.
 Defaulting to unpruned grid for atomic number  46.
 Defaulting to unpruned grid for atomic number  46.
 Defaulting to unpruned grid for atomic number  46.
 Defaulting to unpruned grid for atomic number  46.
 Defaulting to unpruned grid for atomic number  46.
 Defaulting to unpruned grid for atomic number  46.
 Defaulting to unpruned grid for atomic number  46.
 Defaulting to unpruned grid for atomic number  46.
 Defaulting to unpruned grid for atomic number  46.
 Defaulting to unpruned grid for atomic number  46.
 Defaulting to unpruned grid for atomic number  46.
 Defaulting to unpruned grid for atomic number  46.
 Defaulting to unpruned grid for atomic number  46.
 Defaulting to unpruned grid for atomic number  46.
 Defaulting to unpruned grid for atomic number  46.
 Defaulting to unpruned grid for atomic number  46.
 Defaulting to unpruned grid for atomic number  46.
 Defaulting to unpruned grid for atomic number  46.
 Defaulting to unpruned grid for atomic number  46.
 Defaulting to unpruned grid for atomic number  46.
          There are     3 degrees of freedom in the 1st order CPHF.  IDoFFX=0 NUNeed=     3.
      3 vectors produced by pass  0 Test12= 3.99D-12 3.33D-08 XBig12= 8.75D+01 1.43D+00.
 AX will form     3 AO Fock derivatives at one time.
      3 vectors produced by pass  1 Test12= 3.99D-12 3.33D-08 XBig12= 3.30D-01 1.53D-01.
      3 vectors produced by pass  2 Test12= 3.99D-12 3.33D-08 XBig12= 5.13D-03 3.13D-02.
      3 vectors produced by pass  3 Test12= 3.99D-12 3.33D-08 XBig12= 9.04D-05 4.12D-03.
      3 vectors produced by pass  4 Test12= 3.99D-12 3.33D-08 XBig12= 4.80D-07 1.36D-04.
      3 vectors produced by pass  5 Test12= 3.99D-12 3.33D-08 XBig12= 1.47D-09 1.30D-05.
      3 vectors produced by pass  6 Test12= 3.99D-12 3.33D-08 XBig12= 1.04D-11 1.63D-06.
      3 vectors produced by pass  7 Test12= 3.99D-12 3.33D-08 XBig12= 1.16D-13 1.17D-07.
 InvSVY:  IOpt=1 It=  1 EMax= 1.63D-16
 Solved reduced A of dimension    24 with     3 vectors.
 Calculating GIAO nuclear magnetic shielding tensors.
 SCF GIAO Magnetic shielding tensor (ppm):
      1  Cl   Isotropic =   975.3776   Anisotropy =   452.4951
   XX=   764.2127   YX=   -71.4394   ZX=   -66.3414
   XY=  -153.8308   YY=   899.8630   ZY=   -12.8968
   XZ=   -27.7391   YZ=  -130.4074   ZZ=  1262.0571
   Eigenvalues:   690.3000   958.7918  1277.0410
      2  P    Isotropic =   193.6443   Anisotropy =   170.3887
   XX=   248.1841   YX=    66.4205   ZX=    16.6953
   XY=    50.2041   YY=   249.2567   ZY=    -2.0487
   XZ=    10.5470   YZ=    -6.0905   ZZ=    83.4921
   Eigenvalues:    81.8445   191.8517   307.2368
      3  P    Isotropic =   188.3290   Anisotropy =   151.2481
   XX=   224.3326   YX=   -48.9965   ZX=     5.2427
   XY=   -48.5368   YY=   249.4084   ZY=    32.0597
   XZ=    -6.0557   YZ=    16.6138   ZZ=    91.2459
   Eigenvalues:    87.2045   188.6214   289.1610
      4  C    Isotropic =    27.9986   Anisotropy =   182.0277
   XX=   -19.1549   YX=    27.1371   ZX=   -13.1466
   XY=    26.1122   YY=   -44.3014   ZY=   -23.1924
   XZ=    -5.4814   YZ=    -6.2436   ZZ=   147.4520
   Eigenvalues:   -61.4432    -3.9115   149.3503
      5  C    Isotropic =    33.6518   Anisotropy =   177.8072
   XX=   -18.7185   YX=   -27.8647   ZX=   -15.8440
   XY=   -30.0930   YY=   -28.4743   ZY=   -16.4936
   XZ=    -0.9140   YZ=   -36.8701   ZZ=   148.1483
   Eigenvalues:   -56.2655     5.0310   152.1900
      6  C    Isotropic =   133.2342   Anisotropy =    26.2350
   XX=   148.7548   YX=     4.3149   ZX=     2.0075
   XY=     6.8873   YY=   112.7410   ZY=     1.5517
   XZ=    -8.5318   YZ=    -8.0475   ZZ=   138.2067
   Eigenvalues:   111.6078   137.3705   150.7242
      7  H    Isotropic =    27.3003   Anisotropy =     6.4935
   XX=    26.0496   YX=     0.8175   ZX=    -2.2016
   XY=     1.8552   YY=    31.2643   ZY=     0.3212
   XZ=    -2.0842   YZ=    -0.3520   ZZ=    24.5870
   Eigenvalues:    22.9811    27.2905    31.6293
      8  C    Isotropic =   127.9568   Anisotropy =    29.8690
   XX=   140.1216   YX=     6.1075   ZX=     9.2915
   XY=     6.0657   YY=   109.7637   ZY=   -12.3209
   XZ=    11.3946   YZ=    -7.1304   ZZ=   133.9853
   Eigenvalues:   103.8979   132.1032   147.8695
      9  H    Isotropic =    28.9287   Anisotropy =     4.7718
   XX=    27.9223   YX=     0.9175   ZX=     0.1080
   XY=     0.2250   YY=    29.7898   ZY=     3.1516
   XZ=     3.1006   YZ=     1.0707   ZZ=    29.0740
   Eigenvalues:    26.5289    28.1473    32.1099
     10  C    Isotropic =   125.1994   Anisotropy =    20.8481
   XX=   138.4304   YX=    -6.2819   ZX=    -2.6000
   XY=     0.4364   YY=   103.8051   ZY=    -1.9436
   XZ=     5.6378   YZ=     0.9125   ZZ=   133.3629
   Eigenvalues:   103.5551   132.9451   139.0982
     11  H    Isotropic =    28.9774   Anisotropy =     5.6429
   XX=    27.8012   YX=    -1.5300   ZX=     0.7691
   XY=    -1.5180   YY=    31.0952   ZY=    -2.5453
   XZ=     2.6657   YZ=    -0.7857   ZZ=    28.0357
   Eigenvalues:    26.1969    27.9958    32.7393
     12  C    Isotropic =   133.7813   Anisotropy =    22.6110
   XX=   148.0007   YX=    -0.5350   ZX=     0.3532
   XY=    -2.4520   YY=   107.6430   ZY=     6.6358
   XZ=    -2.4584   YZ=     6.6258   ZZ=   145.7001
   Eigenvalues:   106.4802   146.0083   148.8553
     13  H    Isotropic =    27.6316   Anisotropy =     3.7275
   XX=    26.5103   YX=    -0.5605   ZX=    -2.0728
   XY=    -1.3707   YY=    29.8199   ZY=    -0.4244
   XZ=    -2.8165   YZ=    -0.3465   ZZ=    26.5646
   Eigenvalues:    23.9359    28.8422    30.1166
     14  C    Isotropic =   150.8644   Anisotropy =    25.8693
   XX=   164.2089   YX=     7.7761   ZX=     2.9826
   XY=    12.6575   YY=   125.5699   ZY=    -7.5692
   XZ=    -4.4952   YZ=    -6.5034   ZZ=   162.8145
   Eigenvalues:   121.9501   162.5326   168.1106
     15  H    Isotropic =    29.5281   Anisotropy =    12.0466
   XX=    35.3047   YX=     0.3184   ZX=    -4.0710
   XY=     0.5797   YY=    24.4664   ZY=    -1.3121
   XZ=    -4.6937   YZ=    -0.3793   ZZ=    28.8132
   Eigenvalues:    24.2881    26.7371    37.5592
     16  H    Isotropic =    29.0102   Anisotropy =     7.4684
   XX=    28.6660   YX=     2.1743   ZX=     1.0581
   XY=     2.5105   YY=    32.9225   ZY=    -1.3043
   XZ=     0.0531   YZ=    -0.2876   ZZ=    25.4420
   Eigenvalues:    25.1368    27.9046    33.9891
     17  C    Isotropic =   148.5027   Anisotropy =    27.9893
   XX=   161.3052   YX=     2.6293   ZX=   -10.7931
   XY=    -2.7452   YY=   130.2240   ZY=   -18.5613
   XZ=    -2.5103   YZ=   -10.4094   ZZ=   153.9788
   Eigenvalues:   123.1435   155.2024   167.1622
     18  H    Isotropic =    29.0020   Anisotropy =    11.3431
   XX=    33.1563   YX=     3.6685   ZX=     3.8653
   XY=     3.3369   YY=    25.6347   ZY=     0.7215
   XZ=     4.1806   YZ=     1.2811   ZZ=    28.2150
   Eigenvalues:    24.1367    26.3053    36.5641
     19  H    Isotropic =    29.5408   Anisotropy =     7.9651
   XX=    32.3862   YX=    -3.6976   ZX=    -0.6550
   XY=    -3.3237   YY=    29.8080   ZY=    -1.8963
   XZ=    -0.9082   YZ=    -1.5069   ZZ=    26.4282
   Eigenvalues:    24.9854    28.7862    34.8509
     20  C    Isotropic =   148.5979   Anisotropy =    23.9723
   XX=   162.1084   YX=     0.8475   ZX=    -8.1850
   XY=     8.9105   YY=   125.9691   ZY=    10.3944
   XZ=    -0.0507   YZ=     5.4897   ZZ=   157.7162
   Eigenvalues:   123.2535   157.9608   164.5795
     21  H    Isotropic =    29.3883   Anisotropy =    11.8600
   XX=    34.9529   YX=    -2.1564   ZX=     4.1128
   XY=    -1.8650   YY=    24.4603   ZY=     0.0221
   XZ=     4.1236   YZ=    -0.5572   ZZ=    28.7516
   Eigenvalues:    24.0155    26.8544    37.2950
     22  H    Isotropic =    28.6796   Anisotropy =     5.4791
   XX=    30.2384   YX=     1.4297   ZX=     0.3902
   XY=     1.3354   YY=    31.2911   ZY=     1.0126
   XZ=     0.1051   YZ=     0.6609   ZZ=    24.5094
   Eigenvalues:    24.4066    29.3000    32.3323
     23  C    Isotropic =   145.5418   Anisotropy =    24.6356
   XX=   154.3191   YX=    -4.2024   ZX=    12.7731
   XY=   -11.0256   YY=   126.2050   ZY=    10.3038
   XZ=     0.4634   YZ=     6.7896   ZZ=   156.1015
   Eigenvalues:   121.4006   153.2593   161.9656
     24  H    Isotropic =    29.1185   Anisotropy =    11.3883
   XX=    34.9679   YX=     1.0286   ZX=    -3.6089
   XY=     0.6509   YY=    24.3944   ZY=     0.3203
   XZ=    -4.0541   YZ=    -0.3700   ZZ=    27.9931
   Eigenvalues:    24.2954    26.3493    36.7107
     25  H    Isotropic =    29.7880   Anisotropy =     8.6747
   XX=    30.3926   YX=    -4.1558   ZX=     0.5796
   XY=    -3.9904   YY=    32.2463   ZY=     1.5577
   XZ=     0.2575   YZ=     1.1680   ZZ=    26.7251
   Eigenvalues:    25.6989    28.0939    35.5712
     26  C    Isotropic =   160.9504   Anisotropy =    14.0730
   XX=   154.6203   YX=    -4.6560   ZX=     0.6023
   XY=    -4.2610   YY=   158.5714   ZY=    -4.8948
   XZ=    -0.5298   YZ=    -0.3993   ZZ=   169.6596
   Eigenvalues:   151.6054   160.9134   170.3325
     27  H    Isotropic =    29.7324   Anisotropy =    11.6679
   XX=    29.9893   YX=    -2.5027   ZX=    -4.7236
   XY=    -2.4848   YY=    26.0413   ZY=    -0.0754
   XZ=    -6.2019   YZ=     0.4595   ZZ=    33.1666
   Eigenvalues:    23.9832    27.7029    37.5110
     28  H    Isotropic =    29.0327   Anisotropy =     6.0460
   XX=    29.5493   YX=     2.7582   ZX=     1.6580
   XY=     3.7570   YY=    27.2534   ZY=     0.2767
   XZ=     1.2286   YZ=     1.9744   ZZ=    30.2954
   Eigenvalues:    24.9459    29.0888    33.0634
     29  C    Isotropic =   154.5950   Anisotropy =    22.6963
   XX=   155.9973   YX=    -2.8064   ZX=    -7.3156
   XY=     0.2802   YY=   152.7906   ZY=   -13.9440
   XZ=    -8.4211   YZ=   -13.7241   ZZ=   154.9972
   Eigenvalues:   137.7629   156.2963   169.7259
     30  H    Isotropic =    29.8485   Anisotropy =    10.9300
   XX=    33.2180   YX=    -0.1516   ZX=     4.1666
   XY=    -0.8887   YY=    25.2421   ZY=    -3.5885
   XZ=     4.2767   YZ=    -3.7131   ZZ=    31.0854
   Eigenvalues:    23.2639    29.1464    37.1352
     31  H    Isotropic =    28.2372   Anisotropy =     5.7084
   XX=    26.1604   YX=    -1.2785   ZX=     1.8039
   XY=    -0.9238   YY=    29.6621   ZY=     2.5341
   XZ=     3.0084   YZ=     2.7108   ZZ=    28.8890
   Eigenvalues:    23.8042    28.8645    32.0428
     32  C    Isotropic =   157.3282   Anisotropy =    19.6009
   XX=   154.2371   YX=     2.5474   ZX=    -5.3620
   XY=     1.1750   YY=   150.8730   ZY=     6.5722
   XZ=    -3.1608   YZ=     8.0162   ZZ=   166.8744
   Eigenvalues:   146.5589   155.0302   170.3954
     33  H    Isotropic =    29.7119   Anisotropy =    11.4657
   XX=    32.2974   YX=    -0.1275   ZX=     4.1104
   XY=     0.2001   YY=    23.3975   ZY=     0.6865
   XZ=     4.7376   YZ=     0.8442   ZZ=    33.4410
   Eigenvalues:    23.3269    28.4532    37.3558
     34  H    Isotropic =    28.3631   Anisotropy =     5.8223
   XX=    25.1884   YX=     1.0197   ZX=     1.7273
   XY=     0.2909   YY=    31.0625   ZY=    -2.1219
   XZ=     1.9927   YZ=    -1.8399   ZZ=    28.8384
   Eigenvalues:    24.1182    28.7265    32.2446
     35  C    Isotropic =   157.0713   Anisotropy =    23.6644
   XX=   154.6962   YX=    -4.1382   ZX=     9.7164
   XY=    -0.8337   YY=   149.8380   ZY=     5.8113
   XZ=     9.7078   YZ=     6.2341   ZZ=   166.6795
   Eigenvalues:   144.1582   154.2081   172.8475
     36  H    Isotropic =    30.3401   Anisotropy =     5.1161
   XX=    27.8113   YX=    -1.2220   ZX=    -0.0184
   XY=    -0.7733   YY=    33.5525   ZY=     0.3426
   XZ=    -4.2611   YZ=    -0.4222   ZZ=    29.6564
   Eigenvalues:    26.3020    30.9674    33.7508
     37  H    Isotropic =    29.7584   Anisotropy =    11.3609
   XX=    32.7452   YX=    -0.8712   ZX=    -3.8255
   XY=    -1.5595   YY=    23.8018   ZY=     2.0553
   XZ=    -4.7502   YZ=     1.2840   ZZ=    32.7282
   Eigenvalues:    23.4738    28.4691    37.3323
     38  C    Isotropic =   173.3480   Anisotropy =     7.1206
   XX=   171.6747   YX=    -2.5179   ZX=    -4.0886
   XY=    -3.2318   YY=   176.0839   ZY=    -2.1467
   XZ=    -4.7302   YZ=     1.0358   ZZ=   172.2853
   Eigenvalues:   166.8729   175.0759   178.0951
     39  H    Isotropic =    31.1254   Anisotropy =     7.0260
   XX=    29.4843   YX=     2.8356   ZX=     1.0853
   XY=     4.2547   YY=    33.6768   ZY=    -0.5274
   XZ=    -1.7619   YZ=    -0.8951   ZZ=    30.2151
   Eigenvalues:    27.4607    30.1061    35.8094
     40  H    Isotropic =    32.3191   Anisotropy =    10.0595
   XX=    33.5081   YX=    -1.4119   ZX=    -4.0297
   XY=    -1.6218   YY=    28.8431   ZY=    -1.9176
   XZ=    -5.7882   YZ=     0.6376   ZZ=    34.6062
   Eigenvalues:    27.4036    30.5284    39.0254
     41  H    Isotropic =    31.0158   Anisotropy =    12.2830
   XX=    26.9540   YX=    -0.1447   ZX=    -0.0818
   XY=    -0.1162   YY=    29.3520   ZY=    -5.5592
   XZ=    -0.8326   YZ=    -4.2678   ZZ=    36.7415
   Eigenvalues:    26.5999    27.2431    39.2045
     42  C    Isotropic =   165.3734   Anisotropy =    16.9078
   XX=   171.2746   YX=     2.2489   ZX=    -8.1120
   XY=    -1.2999   YY=   158.3740   ZY=    -1.2266
   XZ=    -6.3336   YZ=    -3.2884   ZZ=   166.4717
   Eigenvalues:   157.5671   161.9079   176.6453
     43  H    Isotropic =    31.0202   Anisotropy =     7.0692
   XX=    29.9447   YX=    -2.5645   ZX=    -1.4948
   XY=    -1.9600   YY=    28.7823   ZY=     2.8566
   XZ=    -0.3823   YZ=     1.9111   ZZ=    34.3336
   Eigenvalues:    26.7676    30.5600    35.7330
     44  H    Isotropic =    30.1510   Anisotropy =    11.6030
   XX=    27.1979   YX=     0.4760   ZX=    -0.9047
   XY=     0.0138   YY=    30.5059   ZY=    -5.7449
   XZ=    -0.2411   YZ=    -6.5023   ZZ=    32.7493
   Eigenvalues:    25.3842    27.1825    37.8864
     45  H    Isotropic =    29.0470   Anisotropy =    10.8722
   XX=    31.6180   YX=    -0.0232   ZX=     4.5018
   XY=    -0.0214   YY=    22.6430   ZY=    -0.2767
   XZ=     3.3818   YZ=    -1.9406   ZZ=    32.8801
   Eigenvalues:    22.5037    28.3422    36.2952
     46  C    Isotropic =   167.1171   Anisotropy =    21.7542
   XX=   175.1082   YX=     1.5860   ZX=   -10.1742
   XY=     4.0704   YY=   156.3780   ZY=    -2.5620
   XZ=    -6.7499   YZ=     1.3784   ZZ=   169.8650
   Eigenvalues:   155.9191   163.8122   181.6199
     47  H    Isotropic =    29.3674   Anisotropy =    10.7859
   XX=    33.3541   YX=    -0.7329   ZX=     3.6160
   XY=    -0.1478   YY=    22.2943   ZY=    -3.8926
   XZ=     2.9664   YZ=    -1.6130   ZZ=    32.4539
   Eigenvalues:    21.5828    29.9614    36.5580
     48  H    Isotropic =    31.0222   Anisotropy =     6.7394
   XX=    29.3039   YX=     2.2976   ZX=    -0.6517
   XY=     1.4114   YY=    31.9475   ZY=    -3.9941
   XZ=     0.6429   YZ=    -2.6820   ZZ=    31.8152
   Eigenvalues:    27.4871    30.0644    35.5151
     49  H    Isotropic =    30.2232   Anisotropy =    11.5245
   XX=    28.1205   YX=    -0.4380   ZX=    -2.5643
   XY=     0.0389   YY=    25.9521   ZY=     2.5573
   XZ=    -1.5280   YZ=     3.8502   ZZ=    36.5968
   Eigenvalues:    25.0167    27.7466    37.9061
     50  C    Isotropic =   168.2395   Anisotropy =    19.2675
   XX=   174.3344   YX=    -5.3993   ZX=     9.9682
   XY=    -6.2645   YY=   162.1507   ZY=    -0.8074
   XZ=     5.1764   YZ=    -1.6689   ZZ=   168.2333
   Eigenvalues:   159.3172   164.3167   181.0845
     51  H    Isotropic =    30.9362   Anisotropy =    11.7933
   XX=    28.2162   YX=    -0.0559   ZX=     2.1828
   XY=    -0.5756   YY=    27.1295   ZY=     3.8111
   XZ=     0.9089   YZ=     3.4752   ZZ=    37.4629
   Eigenvalues:    25.7227    28.2875    38.7984
     52  H    Isotropic =    30.5885   Anisotropy =     6.2122
   XX=    28.8175   YX=    -2.7290   ZX=     0.2676
   XY=    -1.8866   YY=    31.2883   ZY=    -1.9742
   XZ=    -0.5260   YZ=    -3.7102   ZZ=    31.6596
   Eigenvalues:    26.8021    30.2334    34.7300
     53  H    Isotropic =    31.5632   Anisotropy =     8.4416
   XX=    34.9284   YX=    -0.5934   ZX=    -2.7490
   XY=    -1.4744   YY=    25.5501   ZY=     0.9825
   XZ=    -2.4375   YZ=    -2.7764   ZZ=    34.2112
   Eigenvalues:    25.2720    32.2267    37.1909
     54  C    Isotropic =    44.5865   Anisotropy =   185.2968
   XX=   -59.5179   YX=     1.3667   ZX=   -36.2125
   XY=     1.8733   YY=    33.4328   ZY=   -14.1527
   XZ=   -31.7789   YZ=   -26.8567   ZZ=   159.8446
   Eigenvalues:   -64.6880    30.3298   168.1177
     55  H    Isotropic =    23.3446   Anisotropy =    11.6650
   XX=    20.5254   YX=    -0.7413   ZX=    -0.5753
   XY=     0.2278   YY=    30.5314   ZY=     2.1230
   XZ=     0.1395   YZ=     3.1904   ZZ=    18.9771
   Eigenvalues:    18.3839    20.5287    31.1213
     56  C    Isotropic =    49.1497   Anisotropy =   190.6147
   XX=     7.2361   YX=   -39.1322   ZX=   -28.7031
   XY=   -42.5834   YY=   -28.9817   ZY=   -27.6907
   XZ=   -26.6355   YZ=   -29.8953   ZZ=   169.1945
   Eigenvalues:   -62.2287    33.4516   176.2261
     57  H    Isotropic =    23.6478   Anisotropy =     5.5486
   XX=    25.0627   YX=    -1.7437   ZX=     0.3468
   XY=    -1.7047   YY=    26.0121   ZY=     0.7522
   XZ=     0.4664   YZ=     0.8540   ZZ=    19.8686
   Eigenvalues:    19.6868    23.9097    27.3469
     58  C    Isotropic =    49.7016   Anisotropy =   189.7434
   XX=    15.4358   YX=    39.7987   ZX=   -18.3593
   XY=    41.5429   YY=   -38.6870   ZY=   -16.2865
   XZ=   -17.1831   YZ=   -13.9131   ZZ=   172.3558
   Eigenvalues:   -60.5829    33.4905   176.1971
     59  H    Isotropic =    23.6214   Anisotropy =     5.3908
   XX=    25.3057   YX=     1.5847   ZX=     0.6771
   XY=     1.4867   YY=    25.7624   ZY=     0.7372
   XZ=     0.6392   YZ=     0.7080   ZZ=    19.7962
   Eigenvalues:    19.6673    23.9817    27.2153
     60  C    Isotropic =    45.8763   Anisotropy =   184.5927
   XX=   -59.0706   YX=    12.0605   ZX=   -30.9365
   XY=    13.8508   YY=    31.9212   ZY=   -11.9471
   XZ=   -24.9220   YZ=    -4.9475   ZZ=   164.7782
   Eigenvalues:   -63.9683    32.6591   168.9381
     61  H    Isotropic =    23.5607   Anisotropy =    11.2487
   XX=    20.7050   YX=     0.7877   ZX=     0.0851
   XY=     0.1680   YY=    31.0377   ZY=     0.4362
   XZ=    -0.0144   YZ=    -0.3718   ZZ=    18.9395
   Eigenvalues:    18.9388    20.6836    31.0599
     62  Cl   Isotropic =   996.2631   Anisotropy =   540.6149
   XX=   787.7258   YX=    96.7920   ZX=   -42.5659
   XY=   163.7892   YY=   844.8055   ZY=   -66.0382
   XZ=    29.7860   YZ=    43.2353   ZZ=  1356.2579
   Eigenvalues:   682.8789   949.2373  1356.6730
     63  Pd   Isotropic =  -122.7389   Anisotropy =   216.0083
   XX=   -15.7053   YX=    -0.7563   ZX=    17.0520
   XY=     0.2646   YY=    17.0765   ZY=    39.1209
   XZ=    -3.2231   YZ=    41.7586   ZZ=  -369.5881
   Eigenvalues:  -373.9053   -15.5782    21.2666
 End of Minotr F.D. properties file   721 does not exist.
 End of Minotr F.D. properties file   722 does not exist.
 End of Minotr F.D. properties file   788 does not exist.

 **********************************************************************

            Population analysis using the SCF Density.

 **********************************************************************

 Orbital symmetries:
       Occupied  (A) (A) (A) (A) (A) (A) (A) (A) (A) (A) (A) (A)
                 (A) (A) (A) (A) (A) (A) (A) (A) (A) (A) (A) (A)
                 (A) (A) (A) (A) (A) (A) (A) (A) (A) (A) (A) (A)
                 (A) (A) (A) (A) (A) (A) (A) (A) (A) (A) (A) (A)
                 (A) (A) (A) (A) (A) (A) (A) (A) (A) (A) (A) (A)
                 (A) (A) (A) (A) (A) (A) (A) (A) (A) (A) (A) (A)
                 (A) (A) (A) (A) (A) (A) (A) (A) (A) (A) (A) (A)
                 (A) (A) (A) (A) (A) (A) (A) (A) (A) (A) (A) (A)
                 (A) (A) (A) (A) (A) (A) (A) (A) (A) (A) (A) (A)
                 (A) (A) (A) (A) (A) (A) (A) (A) (A) (A) (A) (A)
                 (A) (A) (A) (A) (A)
       Virtual   (A) (A) (A) (A) (A) (A) (A) (A) (A) (A) (A) (A)
                 (A) (A) (A) (A) (A) (A) (A) (A) (A) (A) (A) (A)
                 (A) (A) (A) (A) (A) (A) (A) (A) (A) (A) (A) (A)
                 (A) (A) (A) (A) (A) (A) (A) (A) (A) (A) (A) (A)
                 (A) (A) (A) (A) (A) (A) (A) (A) (A) (A) (A) (A)
                 (A) (A) (A) (A) (A) (A) (A) (A) (A) (A) (A) (A)
                 (A) (A) (A) (A) (A) (A) (A) (A) (A) (A) (A) (A)
                 (A) (A) (A) (A) (A) (A) (A) (A) (A) (A) (A) (A)
                 (A) (A) (A) (A) (A) (A) (A) (A) (A) (A) (A) (A)
                 (A) (A) (A) (A) (A) (A) (A) (A) (A) (A) (A) (A)
                 (A) (A) (A) (A) (A) (A) (A) (A) (A) (A) (A) (A)
                 (A) (A) (A) (A) (A) (A) (A) (A) (A) (A) (A) (A)
                 (A) (A) (A) (A) (A) (A) (A) (A) (A) (A) (A) (A)
                 (A) (A) (A) (A) (A) (A) (A) (A) (A) (A) (A) (A)
                 (A) (A) (A) (A) (A) (A) (A) (A) (A) (A) (A) (A)
                 (A) (A) (A) (A) (A) (A) (A) (A) (A) (A) (A) (A)
                 (A) (A) (A) (A) (A) (A) (A) (A) (A) (A) (A) (A)
                 (A) (A) (A) (A) (A) (A) (A) (A) (A) (A) (A) (A)
                 (A) (A) (A) (A) (A) (A) (A) (A) (A) (A) (A) (A)
                 (A) (A) (A) (A) (A) (A) (A) (A) (A) (A) (A) (A)
                 (A) (A) (A) (A) (A) (A) (A) (A) (A) (A) (A) (A)
                 (A) (A) (A) (A) (A) (A) (A) (A) (A) (A) (A) (A)
                 (A) (A) (A) (A) (A) (A) (A) (A) (A) (A) (A) (A)
                 (A) (A) (A) (A) (A) (A) (A) (A) (A) (A) (A) (A)
                 (A) (A) (A) (A) (A) (A) (A) (A) (A) (A) (A) (A)
                 (A) (A) (A) (A) (A) (A) (A) (A) (A) (A) (A) (A)
                 (A) (A) (A) (A) (A) (A) (A) (A) (A) (A) (A) (A)
                 (A) (A) (A) (A) (A) (A) (A) (A) (A) (A) (A) (A)
                 (A) (A) (A) (A) (A) (A) (A) (A) (A) (A) (A) (A)
                 (A) (A) (A) (A) (A) (A) (A) (A) (A) (A) (A) (A)
                 (A) (A) (A) (A) (A) (A) (A) (A) (A) (A) (A) (A)
                 (A) (A) (A) (A) (A) (A) (A) (A) (A) (A) (A) (A)
                 (A) (A) (A) (A) (A) (A) (A) (A) (A) (A) (A) (A)
                 (A) (A) (A) (A) (A) (A) (A) (A) (A) (A) (A) (A)
                 (A) (A) (A) (A) (A) (A) (A) (A) (A) (A) (A) (A)
                 (A) (A) (A) (A) (A) (A) (A) (A) (A) (A) (A) (A)
                 (A) (A) (A) (A) (A) (A) (A) (A) (A) (A) (A) (A)
                 (A) (A) (A) (A) (A) (A) (A) (A) (A) (A) (A) (A)
                 (A) (A) (A) (A) (A) (A) (A) (A) (A) (A) (A) (A)
                 (A) (A) (A) (A) (A) (A) (A) (A) (A) (A) (A) (A)
                 (A) (A) (A) (A) (A) (A) (A) (A) (A) (A) (A) (A)
                 (A) (A) (A) (A) (A) (A) (A) (A) (A) (A) (A) (A)
                 (A) (A) (A) (A) (A) (A) (A) (A) (A) (A) (A) (A)
                 (A) (A) (A) (A) (A) (A) (A) (A) (A) (A) (A) (A)
                 (A) (A) (A) (A) (A) (A) (A) (A) (A) (A) (A) (A)
                 (A) (A) (A) (A) (A) (A) (A) (A) (A) (A) (A) (A)
                 (A) (A) (A) (A) (A) (A) (A) (A) (A) (A) (A) (A)
                 (A) (A) (A) (A) (A) (A) (A) (A) (A) (A) (A) (A)
                 (A) (A) (A) (A) (A) (A) (A) (A) (A) (A) (A) (A)
                 (A) (A) (A) (A) (A) (A) (A) (A) (A) (A) (A) (A)
                 (A) (A) (A) (A) (A) (A) (A) (A) (A) (A) (A) (A)
                 (A) (A) (A) (A) (A) (A) (A) (A) (A) (A) (A) (A)
                 (A) (A) (A) (A) (A) (A) (A) (A) (A) (A) (A) (A)
                 (A) (A) (A) (A) (A) (A) (A) (A) (A) (A) (A) (A)
                 (A) (A) (A) (A) (A) (A) (A) (A) (A) (A) (A) (A)
                 (A) (A) (A) (A) (A) (A) (A) (A) (A) (A) (A) (A)
                 (A) (A) (A) (A) (A) (A) (A) (A) (A) (A) (A) (A)
                 (A) (A) (A) (A) (A) (A) (A) (A) (A) (A) (A) (A)
                 (A) (A) (A) (A) (A) (A) (A) (A) (A) (A) (A) (A)
                 (A) (A) (A) (A) (A) (A) (A) (A) (A) (A) (A) (A)
                 (A) (A) (A) (A) (A) (A) (A) (A) (A) (A) (A) (A)
                 (A) (A) (A) (A) (A) (A) (A) (A) (A) (A) (A) (A)
                 (A) (A) (A) (A) (A) (A) (A) (A) (A) (A) (A) (A)
                 (A) (A) (A) (A) (A) (A) (A) (A) (A) (A) (A) (A)
                 (A) (A) (A) (A) (A) (A) (A) (A) (A) (A) (A) (A)
                 (A) (A) (A) (A) (A) (A) (A) (A) (A) (A) (A) (A)
                 (A) (A) (A) (A) (A) (A) (A) (A) (A) (A) (A) (A)
                 (A) (A) (A) (A) (A) (A) (A) (A) (A) (A) (A) (A)
                 (A) (A) (A) (A) (A) (A) (A) (A) (A) (A) (A) (A)
                 (A) (A) (A) (A) (A) (A) (A) (A) (A) (A) (A) (A)
                 (A) (A) (A) (A) (A) (A) (A) (A) (A) (A) (A) (A)
                 (A) (A) (A) (A) (A) (A) (A) (A) (A) (A) (A) (A)
                 (A) (A) (A) (A) (A) (A) (A) (A) (A) (A) (A) (A)
                 (A) (A) (A) (A) (A) (A) (A) (A) (A) (A) (A) (A)
                 (A) (A) (A) (A) (A) (A) (A) (A) (A) (A) (A) (A)
                 (A) (A) (A) (A) (A) (A) (A) (A) (A) (A) (A) (A)
                 (A) (A) (A) (A) (A) (A) (A) (A) (A) (A) (A) (A)
                 (A) (A) (A) (A) (A) (A) (A) (A) (A) (A) (A) (A)
                 (A) (A) (A) (A) (A) (A) (A) (A) (A) (A) (A) (A)
                 (A) (A) (A) (A) (A) (A) (A) (A) (A)
 The electronic state is 1-A.
 Alpha  occ. eigenvalues -- -101.61466-101.61246 -77.26061 -77.26009 -10.27950
 Alpha  occ. eigenvalues --  -10.27859 -10.27194 -10.27058 -10.26926 -10.26856
 Alpha  occ. eigenvalues --  -10.25893 -10.25715 -10.25520 -10.25434 -10.24425
 Alpha  occ. eigenvalues --  -10.24230 -10.24224 -10.24012 -10.23715 -10.23471
 Alpha  occ. eigenvalues --  -10.22510 -10.22336 -10.22277 -10.22137 -10.21499
 Alpha  occ. eigenvalues --  -10.20805  -9.43972  -9.43756  -7.17126  -7.16908
 Alpha  occ. eigenvalues --   -7.16713  -7.16678  -7.16498  -7.16464  -6.65324
 Alpha  occ. eigenvalues --   -6.65289  -4.78937  -4.78902  -4.78831  -4.78794
 Alpha  occ. eigenvalues --   -4.78675  -4.78639  -3.52144  -2.19853  -2.19731
 Alpha  occ. eigenvalues --   -2.16519  -0.91845  -0.87609  -0.87486  -0.82410
 Alpha  occ. eigenvalues --   -0.82077  -0.81292  -0.80699  -0.78713  -0.78364
 Alpha  occ. eigenvalues --   -0.74266  -0.73660  -0.73011  -0.72719  -0.71959
 Alpha  occ. eigenvalues --   -0.71065  -0.67056  -0.66660  -0.64633  -0.63334
 Alpha  occ. eigenvalues --   -0.62356  -0.62257  -0.60003  -0.59381  -0.58051
 Alpha  occ. eigenvalues --   -0.55700  -0.53421  -0.51242  -0.50880  -0.50234
 Alpha  occ. eigenvalues --   -0.50198  -0.48899  -0.48247  -0.47512  -0.46773
 Alpha  occ. eigenvalues --   -0.46559  -0.46063  -0.45047  -0.44959  -0.44053
 Alpha  occ. eigenvalues --   -0.43177  -0.43107  -0.42777  -0.42595  -0.42465
 Alpha  occ. eigenvalues --   -0.42025  -0.41130  -0.40676  -0.39100  -0.38869
 Alpha  occ. eigenvalues --   -0.38382  -0.38063  -0.37549  -0.37285  -0.36890
 Alpha  occ. eigenvalues --   -0.36595  -0.35839  -0.35699  -0.35397  -0.35158
 Alpha  occ. eigenvalues --   -0.35029  -0.34755  -0.34637  -0.34534  -0.34177
 Alpha  occ. eigenvalues --   -0.34043  -0.33808  -0.33589  -0.33257  -0.30984
 Alpha  occ. eigenvalues --   -0.30604  -0.29639  -0.29177  -0.28761  -0.28523
 Alpha  occ. eigenvalues --   -0.26080  -0.25211  -0.24365  -0.23914  -0.23673
 Alpha virt. eigenvalues --   -0.06567  -0.06270  -0.06048  -0.00033   0.00393
 Alpha virt. eigenvalues --    0.02066   0.02487   0.02714   0.03415   0.03624
 Alpha virt. eigenvalues --    0.04665   0.05080   0.05276   0.05749   0.05960
 Alpha virt. eigenvalues --    0.06385   0.07166   0.07325   0.07734   0.07898
 Alpha virt. eigenvalues --    0.08383   0.08975   0.09215   0.09433   0.09629
 Alpha virt. eigenvalues --    0.10268   0.10497   0.10509   0.10823   0.11120
 Alpha virt. eigenvalues --    0.11736   0.11888   0.12444   0.12574   0.12718
 Alpha virt. eigenvalues --    0.13167   0.13256   0.13449   0.13961   0.14029
 Alpha virt. eigenvalues --    0.14446   0.14870   0.14978   0.15262   0.15502
 Alpha virt. eigenvalues --    0.15681   0.15971   0.16190   0.16660   0.17075
 Alpha virt. eigenvalues --    0.17275   0.17668   0.17782   0.18047   0.18271
 Alpha virt. eigenvalues --    0.18811   0.18909   0.19528   0.19696   0.19963
 Alpha virt. eigenvalues --    0.20084   0.20592   0.21037   0.21227   0.21434
 Alpha virt. eigenvalues --    0.21940   0.22378   0.22606   0.22840   0.23189
 Alpha virt. eigenvalues --    0.23327   0.23947   0.24232   0.24518   0.25190
 Alpha virt. eigenvalues --    0.25277   0.25384   0.25860   0.26224   0.26776
 Alpha virt. eigenvalues --    0.26939   0.27274   0.27827   0.28045   0.28299
 Alpha virt. eigenvalues --    0.28735   0.28902   0.29240   0.29332   0.30286
 Alpha virt. eigenvalues --    0.30464   0.30797   0.30967   0.31639   0.31969
 Alpha virt. eigenvalues --    0.32177   0.32892   0.33100   0.33653   0.33841
 Alpha virt. eigenvalues --    0.34445   0.34895   0.35472   0.35733   0.36202
 Alpha virt. eigenvalues --    0.36244   0.36642   0.36942   0.37136   0.37711
 Alpha virt. eigenvalues --    0.38311   0.38452   0.39264   0.39375   0.39793
 Alpha virt. eigenvalues --    0.39864   0.39994   0.40473   0.40750   0.40892
 Alpha virt. eigenvalues --    0.41228   0.41789   0.42036   0.42185   0.42471
 Alpha virt. eigenvalues --    0.42606   0.42671   0.43138   0.43388   0.43568
 Alpha virt. eigenvalues --    0.44071   0.44203   0.44335   0.44484   0.44641
 Alpha virt. eigenvalues --    0.45022   0.45147   0.45282   0.45585   0.45922
 Alpha virt. eigenvalues --    0.46157   0.46236   0.46648   0.46801   0.46898
 Alpha virt. eigenvalues --    0.47270   0.47455   0.47823   0.47991   0.48219
 Alpha virt. eigenvalues --    0.48409   0.48675   0.48730   0.48957   0.49200
 Alpha virt. eigenvalues --    0.49544   0.49787   0.49953   0.50480   0.50797
 Alpha virt. eigenvalues --    0.51072   0.51403   0.51683   0.51908   0.52048
 Alpha virt. eigenvalues --    0.52523   0.52837   0.53038   0.53147   0.53528
 Alpha virt. eigenvalues --    0.53614   0.53878   0.54352   0.54690   0.54973
 Alpha virt. eigenvalues --    0.55504   0.55971   0.56464   0.56790   0.57189
 Alpha virt. eigenvalues --    0.57429   0.57509   0.57719   0.58036   0.58966
 Alpha virt. eigenvalues --    0.59103   0.59427   0.60234   0.60647   0.61130
 Alpha virt. eigenvalues --    0.61525   0.61634   0.62745   0.63038   0.63430
 Alpha virt. eigenvalues --    0.63917   0.64025   0.64347   0.64858   0.65334
 Alpha virt. eigenvalues --    0.65637   0.66189   0.67066   0.67156   0.67861
 Alpha virt. eigenvalues --    0.68320   0.68593   0.69071   0.69887   0.70330
 Alpha virt. eigenvalues --    0.70436   0.70810   0.71275   0.72286   0.73053
 Alpha virt. eigenvalues --    0.73568   0.73682   0.73992   0.74745   0.75043
 Alpha virt. eigenvalues --    0.75590   0.75870   0.76364   0.77342   0.77432
 Alpha virt. eigenvalues --    0.77850   0.78099   0.78644   0.78979   0.79420
 Alpha virt. eigenvalues --    0.80322   0.80674   0.81113   0.81244   0.82223
 Alpha virt. eigenvalues --    0.82440   0.82748   0.83126   0.83957   0.84223
 Alpha virt. eigenvalues --    0.84782   0.85614   0.85897   0.86534   0.86811
 Alpha virt. eigenvalues --    0.87090   0.87673   0.87940   0.88763   0.89112
 Alpha virt. eigenvalues --    0.89883   0.90203   0.90667   0.91150   0.91535
 Alpha virt. eigenvalues --    0.92144   0.92626   0.92902   0.93370   0.93836
 Alpha virt. eigenvalues --    0.94278   0.94385   0.94761   0.95547   0.96590
 Alpha virt. eigenvalues --    0.97228   0.97450   0.98176   0.98326   0.98960
 Alpha virt. eigenvalues --    0.99528   1.00440   1.00482   1.01108   1.01523
 Alpha virt. eigenvalues --    1.01662   1.02227   1.02995   1.03496   1.05063
 Alpha virt. eigenvalues --    1.05565   1.05673   1.06017   1.06649   1.07290
 Alpha virt. eigenvalues --    1.07684   1.08302   1.08732   1.09665   1.10328
 Alpha virt. eigenvalues --    1.11272   1.11559   1.11924   1.12041   1.12225
 Alpha virt. eigenvalues --    1.12618   1.13024   1.13751   1.14787   1.15043
 Alpha virt. eigenvalues --    1.16035   1.16580   1.17151   1.17859   1.18260
 Alpha virt. eigenvalues --    1.18454   1.19449   1.19719   1.20471   1.20638
 Alpha virt. eigenvalues --    1.21107   1.21651   1.21848   1.22556   1.22725
 Alpha virt. eigenvalues --    1.23169   1.24018   1.24071   1.24399   1.24848
 Alpha virt. eigenvalues --    1.25605   1.26194   1.26442   1.27572   1.27989
 Alpha virt. eigenvalues --    1.28201   1.28405   1.28830   1.29396   1.30008
 Alpha virt. eigenvalues --    1.30706   1.31062   1.31695   1.32230   1.32510
 Alpha virt. eigenvalues --    1.33400   1.33828   1.34257   1.34689   1.35438
 Alpha virt. eigenvalues --    1.35549   1.36705   1.37205   1.38688   1.39999
 Alpha virt. eigenvalues --    1.40168   1.41176   1.41637   1.42290   1.42778
 Alpha virt. eigenvalues --    1.43292   1.44793   1.45504   1.46263   1.47550
 Alpha virt. eigenvalues --    1.48354   1.49581   1.49870   1.50780   1.51481
 Alpha virt. eigenvalues --    1.52203   1.53122   1.53315   1.53746   1.54257
 Alpha virt. eigenvalues --    1.54525   1.55207   1.55699   1.56176   1.56570
 Alpha virt. eigenvalues --    1.56885   1.57491   1.57701   1.57837   1.58771
 Alpha virt. eigenvalues --    1.58781   1.58943   1.59748   1.59876   1.60424
 Alpha virt. eigenvalues --    1.61400   1.61542   1.62218   1.62439   1.63014
 Alpha virt. eigenvalues --    1.63126   1.63242   1.63766   1.63870   1.64136
 Alpha virt. eigenvalues --    1.64779   1.65128   1.65338   1.65956   1.66042
 Alpha virt. eigenvalues --    1.66764   1.67060   1.67321   1.67517   1.68024
 Alpha virt. eigenvalues --    1.68353   1.68555   1.69183   1.69363   1.70418
 Alpha virt. eigenvalues --    1.71171   1.71590   1.72636   1.73177   1.73712
 Alpha virt. eigenvalues --    1.74305   1.75175   1.75257   1.75587   1.76472
 Alpha virt. eigenvalues --    1.77055   1.77741   1.77786   1.78941   1.79221
 Alpha virt. eigenvalues --    1.79876   1.80099   1.80498   1.81598   1.81740
 Alpha virt. eigenvalues --    1.82422   1.82851   1.83293   1.83626   1.84264
 Alpha virt. eigenvalues --    1.85522   1.85847   1.86428   1.86958   1.87178
 Alpha virt. eigenvalues --    1.87913   1.88282   1.88557   1.88920   1.89688
 Alpha virt. eigenvalues --    1.90853   1.91038   1.91963   1.92271   1.92955
 Alpha virt. eigenvalues --    1.93570   1.93621   1.94086   1.94856   1.95181
 Alpha virt. eigenvalues --    1.96086   1.96575   1.96941   1.97526   1.98068
 Alpha virt. eigenvalues --    1.98528   1.99093   2.00080   2.00206   2.00627
 Alpha virt. eigenvalues --    2.01308   2.01809   2.02148   2.02867   2.03164
 Alpha virt. eigenvalues --    2.03629   2.04061   2.04214   2.04324   2.04904
 Alpha virt. eigenvalues --    2.05974   2.06337   2.06592   2.06878   2.07370
 Alpha virt. eigenvalues --    2.07758   2.08587   2.09233   2.10238   2.10931
 Alpha virt. eigenvalues --    2.10982   2.11796   2.12214   2.12456   2.13309
 Alpha virt. eigenvalues --    2.14230   2.14633   2.15200   2.15551   2.16228
 Alpha virt. eigenvalues --    2.16840   2.17040   2.17956   2.18382   2.18548
 Alpha virt. eigenvalues --    2.19089   2.19634   2.19709   2.20277   2.20548
 Alpha virt. eigenvalues --    2.21176   2.22223   2.22322   2.22673   2.23729
 Alpha virt. eigenvalues --    2.23967   2.24860   2.25116   2.25616   2.26125
 Alpha virt. eigenvalues --    2.26272   2.26795   2.26989   2.28200   2.28860
 Alpha virt. eigenvalues --    2.30014   2.30548   2.30642   2.31018   2.31885
 Alpha virt. eigenvalues --    2.32474   2.33120   2.34158   2.34746   2.34967
 Alpha virt. eigenvalues --    2.35964   2.36505   2.37015   2.37227   2.37383
 Alpha virt. eigenvalues --    2.38444   2.38792   2.39106   2.39351   2.39801
 Alpha virt. eigenvalues --    2.41076   2.41567   2.42047   2.42833   2.43188
 Alpha virt. eigenvalues --    2.43520   2.43983   2.44438   2.45007   2.45367
 Alpha virt. eigenvalues --    2.45529   2.45901   2.46473   2.46659   2.47289
 Alpha virt. eigenvalues --    2.47661   2.48322   2.49069   2.49824   2.50106
 Alpha virt. eigenvalues --    2.50278   2.50940   2.51183   2.51728   2.52766
 Alpha virt. eigenvalues --    2.52966   2.53057   2.53729   2.54232   2.54623
 Alpha virt. eigenvalues --    2.54984   2.55458   2.55876   2.56350   2.57426
 Alpha virt. eigenvalues --    2.57801   2.58032   2.58243   2.58662   2.59324
 Alpha virt. eigenvalues --    2.59568   2.59943   2.60368   2.60413   2.60816
 Alpha virt. eigenvalues --    2.61036   2.61668   2.61783   2.62853   2.62974
 Alpha virt. eigenvalues --    2.63227   2.64109   2.64223   2.64764   2.65141
 Alpha virt. eigenvalues --    2.65494   2.65924   2.66423   2.66613   2.67051
 Alpha virt. eigenvalues --    2.67493   2.67833   2.67983   2.68567   2.68882
 Alpha virt. eigenvalues --    2.68933   2.69270   2.69663   2.69941   2.70210
 Alpha virt. eigenvalues --    2.70889   2.71400   2.72017   2.72345   2.72885
 Alpha virt. eigenvalues --    2.73570   2.73818   2.74213   2.74352   2.75082
 Alpha virt. eigenvalues --    2.75490   2.75736   2.75934   2.76433   2.77332
 Alpha virt. eigenvalues --    2.77850   2.78356   2.78677   2.79133   2.79686
 Alpha virt. eigenvalues --    2.79798   2.80727   2.81982   2.82288   2.82974
 Alpha virt. eigenvalues --    2.83250   2.83837   2.84248   2.84854   2.85968
 Alpha virt. eigenvalues --    2.86518   2.86885   2.87568   2.87908   2.88688
 Alpha virt. eigenvalues --    2.89418   2.90070   2.90346   2.90927   2.92208
 Alpha virt. eigenvalues --    2.92443   2.92756   2.93562   2.94270   2.95503
 Alpha virt. eigenvalues --    2.96887   2.97165   2.98995   2.99703   3.00089
 Alpha virt. eigenvalues --    3.01493   3.02322   3.02941   3.03476   3.03794
 Alpha virt. eigenvalues --    3.04809   3.05945   3.07509   3.08135   3.08500
 Alpha virt. eigenvalues --    3.09100   3.10687   3.11829   3.12350   3.12917
 Alpha virt. eigenvalues --    3.13505   3.13980   3.14169   3.15187   3.15453
 Alpha virt. eigenvalues --    3.15849   3.16124   3.16772   3.17065   3.17542
 Alpha virt. eigenvalues --    3.18048   3.18827   3.19555   3.19738   3.19927
 Alpha virt. eigenvalues --    3.20420   3.21383   3.21897   3.22373   3.22635
 Alpha virt. eigenvalues --    3.22870   3.23792   3.24004   3.24407   3.24597
 Alpha virt. eigenvalues --    3.25693   3.25781   3.26300   3.26621   3.27984
 Alpha virt. eigenvalues --    3.28209   3.28331   3.29136   3.30065   3.30176
 Alpha virt. eigenvalues --    3.30988   3.31430   3.31814   3.32089   3.32586
 Alpha virt. eigenvalues --    3.33296   3.33583   3.34081   3.34586   3.34940
 Alpha virt. eigenvalues --    3.34992   3.35126   3.35621   3.35925   3.36331
 Alpha virt. eigenvalues --    3.36922   3.37030   3.37779   3.38148   3.38965
 Alpha virt. eigenvalues --    3.39308   3.39359   3.39699   3.40232   3.40650
 Alpha virt. eigenvalues --    3.41402   3.42152   3.42920   3.43465   3.44152
 Alpha virt. eigenvalues --    3.44207   3.44629   3.45271   3.45456   3.46569
 Alpha virt. eigenvalues --    3.46863   3.47269   3.47744   3.47978   3.49108
 Alpha virt. eigenvalues --    3.49839   3.50289   3.50833   3.51328   3.51469
 Alpha virt. eigenvalues --    3.52404   3.52745   3.53316   3.54510   3.54924
 Alpha virt. eigenvalues --    3.55318   3.55774   3.56079   3.57044   3.57228
 Alpha virt. eigenvalues --    3.57530   3.58263   3.58892   3.59413   3.59842
 Alpha virt. eigenvalues --    3.60103   3.60501   3.60951   3.61391   3.62111
 Alpha virt. eigenvalues --    3.62259   3.63852   3.64157   3.64836   3.65830
 Alpha virt. eigenvalues --    3.66525   3.67062   3.67202   3.67560   3.68211
 Alpha virt. eigenvalues --    3.69028   3.69855   3.70795   3.71696   3.72529
 Alpha virt. eigenvalues --    3.72782   3.73830   3.74386   3.75344   3.75882
 Alpha virt. eigenvalues --    3.77637   3.78819   3.79280   3.80425   3.81361
 Alpha virt. eigenvalues --    3.81926   3.82466   3.83903   3.84509   3.85648
 Alpha virt. eigenvalues --    3.86999   3.89812   3.89962   3.90825   3.92035
 Alpha virt. eigenvalues --    3.93322   3.93643   3.94154   3.94736   3.95005
 Alpha virt. eigenvalues --    3.95782   3.96609   3.97172   3.98154   3.98665
 Alpha virt. eigenvalues --    3.99085   3.99483   4.00484   4.01467   4.01976
 Alpha virt. eigenvalues --    4.02161   4.03085   4.03456   4.05385   4.06005
 Alpha virt. eigenvalues --    4.06523   4.07599   4.09667   4.09942   4.11402
 Alpha virt. eigenvalues --    4.13566   4.13744   4.14293   4.16197   4.16813
 Alpha virt. eigenvalues --    4.17254   4.17825   4.18089   4.19346   4.20034
 Alpha virt. eigenvalues --    4.20448   4.21002   4.21844   4.22624   4.23798
 Alpha virt. eigenvalues --    4.24188   4.25042   4.27052   4.27840   4.28215
 Alpha virt. eigenvalues --    4.29445   4.31787   4.33162   4.33864   4.34856
 Alpha virt. eigenvalues --    4.36273   4.37040   4.38955   4.40262   4.40500
 Alpha virt. eigenvalues --    4.40909   4.41905   4.42248   4.43637   4.44307
 Alpha virt. eigenvalues --    4.46471   4.46986   4.47524   4.48757   4.54307
 Alpha virt. eigenvalues --    4.55102   4.56642   4.56827   4.57828   4.58194
 Alpha virt. eigenvalues --    4.58484   4.59756   4.60070   4.60771   4.62465
 Alpha virt. eigenvalues --    4.63145   4.64201   4.66431   4.67085   4.68636
 Alpha virt. eigenvalues --    4.70063   4.71194   4.71950   4.72959   4.74128
 Alpha virt. eigenvalues --    4.75955   4.76458   4.78496   4.83792   4.83977
 Alpha virt. eigenvalues --    4.86595   4.87958   4.89069   4.91563   4.93250
 Alpha virt. eigenvalues --    4.98742   5.02297   5.03554   5.05216   5.06578
 Alpha virt. eigenvalues --    5.09339   5.09619   5.15522   5.16261   5.17310
 Alpha virt. eigenvalues --    5.20091   5.20577   5.35749   5.45733   5.53300
 Alpha virt. eigenvalues --    7.85109   7.88026   7.89704   7.93418   7.97554
 Alpha virt. eigenvalues --    8.08342  10.93107  10.94424  11.00011  11.01680
 Alpha virt. eigenvalues --   11.05361  11.09236  15.71053  15.87139  22.24451
 Alpha virt. eigenvalues --   22.41190  22.43713  22.46347  22.48092  22.52289
 Alpha virt. eigenvalues --   22.54008  22.55690  22.57615  22.58485  22.59553
 Alpha virt. eigenvalues --   22.60145  22.62559  22.63404  22.65735  22.68293
 Alpha virt. eigenvalues --   22.69495  22.78017  22.82851  22.83589  22.91880
 Alpha virt. eigenvalues --   23.24919  25.50423  25.69378  40.35532  40.93855
 Alpha virt. eigenvalues --   41.02358  52.09454
          Condensed to atoms (all electrons):
 Mulliken charges:
               1
     1  Cl  -0.445635
     2  P    0.154476
     3  P    0.139754
     4  C   -0.048419
     5  C    0.026484
     6  C   -0.027387
     7  H    0.140719
     8  C   -0.088598
     9  H    0.109554
    10  C   -0.141388
    11  H    0.098840
    12  C   -0.122205
    13  H    0.141095
    14  C   -0.229720
    15  H    0.119861
    16  H    0.101481
    17  C   -0.194707
    18  H    0.118598
    19  H    0.131796
    20  C   -0.154630
    21  H    0.113675
    22  H    0.146507
    23  C   -0.187492
    24  H    0.122757
    25  H    0.095529
    26  C   -0.209833
    27  H    0.109396
    28  H    0.154148
    29  C   -0.179864
    30  H    0.106934
    31  H    0.149409
    32  C   -0.142856
    33  H    0.101794
    34  H    0.154371
    35  C   -0.116961
    36  H    0.095454
    37  H    0.113134
    38  C   -0.393088
    39  H    0.114716
    40  H    0.132500
    41  H    0.135158
    42  C   -0.426432
    43  H    0.117159
    44  H    0.134013
    45  H    0.188298
    46  C   -0.401163
    47  H    0.135935
    48  H    0.113109
    49  H    0.134864
    50  C   -0.409868
    51  H    0.128097
    52  H    0.149281
    53  H    0.124560
    54  C   -0.167869
    55  H    0.145082
    56  C   -0.141410
    57  H    0.130394
    58  C   -0.110246
    59  H    0.131053
    60  C   -0.250376
    61  H    0.144271
    62  Cl  -0.445083
    63  Pd   0.130972
 Sum of Mulliken charges =  -0.00000
 Mulliken charges with hydrogens summed into heavy atoms:
               1
     1  Cl  -0.445635
     2  P    0.154476
     3  P    0.139754
     4  C   -0.048419
     5  C    0.026484
     6  C    0.113332
     8  C    0.020956
    10  C   -0.042548
    12  C    0.018890
    14  C   -0.008377
    17  C    0.055686
    20  C    0.105553
    23  C    0.030794
    26  C    0.053711
    29  C    0.076479
    32  C    0.113309
    35  C    0.091626
    38  C   -0.010713
    42  C    0.013038
    46  C   -0.017255
    50  C   -0.007930
    54  C   -0.022787
    56  C   -0.011016
    58  C    0.020807
    60  C   -0.106106
    62  Cl  -0.445083
    63  Pd   0.130972
 Electronic spatial extent (au):  <R**2>=          11075.6745
 Charge=             -0.0000 electrons
 Dipole moment (field-independent basis, Debye):
    X=              0.6792    Y=             12.0403    Z=              1.2054  Tot=             12.1195
 Quadrupole moment (field-independent basis, Debye-Ang):
   XX=           -191.1458   YY=           -228.4920   ZZ=           -204.0987
   XY=             -2.3318   XZ=              1.2509   YZ=             -1.9919
 Traceless Quadrupole moment (field-independent basis, Debye-Ang):
   XX=             16.7664   YY=            -20.5798   ZZ=              3.8135
   XY=             -2.3318   XZ=              1.2509   YZ=             -1.9919
 Octapole moment (field-independent basis, Debye-Ang**2):
  XXX=              0.6707  YYY=             73.1905  ZZZ=            -14.6643  XYY=              2.2746
  XXY=             13.8043  XXZ=              1.2342  XZZ=             -4.5911  YZZ=            -41.0763
  YYZ=             21.2901  XYZ=              0.2960
 Hexadecapole moment (field-independent basis, Debye-Ang**3):
 XXXX=          -6598.4532 YYYY=          -4639.2767 ZZZZ=          -3642.5067 XXXY=             -7.8352
 XXXZ=             -9.9776 YYYX=              2.1511 YYYZ=             32.5071 ZZZX=            -13.8643
 ZZZY=              3.9278 XXYY=          -1973.4274 XXZZ=          -1702.8385 YYZZ=          -1437.3327
 XXYZ=             -2.6069 YYXZ=             35.1087 ZZXY=              3.9429
 N-N= 4.038910237014D+03 E-N=-1.415464521166D+04  KE= 2.501682140764D+03
 1\1\GINC-NOTCH208\SP\RPBE1PBE\Gen\C22H36Cl2P2Pd1\U6034117\14-Dec-2021\
 0\\# PBE1PBE gen pseudo=read int=(grid=ultrafine) empiricaldispersion=
 GD3BJ nmr=giao\\SS_Et_DuPhos_1 title\\0,1\Cl,0,-1.2579820692,-3.848402
 2152,1.1730514897\P,0,-1.5534086934,-0.8283122526,0.0536547218\P,0,1.5
 233168,-0.2145646161,0.3788789695\C,0,-0.9517698817,0.8734874658,-0.36
 97701895\C,0,0.4116949182,1.1695910796,-0.1258036721\C,0,-2.9734455073
 ,-0.7337670365,1.2745165755\H,0,-3.0312162011,-1.8101134343,1.54174321
 79\C,0,-2.657082636,-1.3363184667,-1.3990195133\H,0,-2.5065609753,-0.5
 447575035,-2.1583528405\C,0,2.5588570146,0.3936988029,1.8340681567\H,0
 ,2.3995441706,1.4917383027,1.8541969955\C,0,2.9643952792,-0.2803681893
 ,-0.8405315115\H,0,3.1645712892,-1.3678515315,-0.8925661343\C,0,-4.196
 3308421,-0.4009192124,0.4029890385\H,0,-5.1268077007,-0.5943866086,0.9
 676480074\H,0,-4.2094581569,0.671617581,0.1351664094\C,0,-4.110054283,
 -1.2914782837,-0.8469238703\H,0,-4.8096910422,-0.9690417477,-1.6377322
 579\H,0,-4.3922379412,-2.321640432,-0.5630491623\C,0,4.0066181982,0.09
 216669,1.3959962926\H,0,4.7195501122,0.6756620624,2.0054520149\H,0,4.2
 0723554,-0.9804529585,1.5690791374\C,0,4.1309499333,0.4075151706,-0.09
 84731427\H,0,5.0961470793,0.066283125,-0.513438623\H,0,4.0784957013,1.
 5025063393,-0.2639104342\C,0,-2.819237625,0.0499113841,2.5864889482\H,
 0,-3.7547015604,-0.1183805678,3.1546724141\H,0,-2.0223166576,-0.422776
 4401,3.1850524112\C,0,-2.3293367778,-2.7061137119,-2.0193129967\H,0,-3
 .1373423516,-2.9282804284,-2.7440649912\H,0,-2.3852177541,-3.470794567
 2,-1.2242068452\C,0,2.1905883648,-0.1999071525,3.1988598626\H,0,2.9265
 169246,0.1812853143,3.9331306508\H,0,2.3199029852,-1.2958953463,3.1472
 51494\C,0,2.7189366456,0.2732870802,-2.2494964456\H,0,2.4910319041,1.3
 5433419,-2.1896244396\H,0,3.6791979412,0.1960071804,-2.7954821344\C,0,
 -2.5606493647,1.5576406858,2.4829694326\H,0,-3.3045558311,2.0640372599
 ,1.8434177749\H,0,-1.5628765586,1.7759592433,2.0698356836\H,0,-2.61514
 10609,2.018991458,3.4836263114\C,0,-0.9700235853,-2.795829481,-2.70960
 96759\H,0,-0.8574103132,-2.0334717503,-3.5015478496\H,0,-0.8332225933,
 -3.7891540192,-3.1687194027\H,0,-0.154968691,-2.6590783595,-1.97492078
 44\C,0,0.7701957447,0.1339877684,3.6530408929\H,0,0.042742405,-0.34662
 09263,2.9748067978\H,0,0.5781923523,1.2226846565,3.6531712709\H,0,0.57
 53943601,-0.2490495579,4.6687217557\C,0,1.6216638452,-0.4452324974,-3.
 0353883675\H,0,1.5652084639,-0.0678609959,-4.0706535583\H,0,1.80361879
 36,-1.532344797,-3.0759539921\H,0,0.633697259,-0.2917509763,-2.5699700
 751\C,0,-1.7895348785,1.8768042971,-0.8948495247\H,0,-2.8366632946,1.6
 553409707,-1.1198871728\C,0,-1.2977301165,3.1675746786,-1.1255515058\H
 ,0,-1.9624260994,3.9388099194,-1.5273029466\C,0,0.0397538531,3.4725932
 417,-0.8355878445\H,0,0.4234832834,4.4834265848,-1.0057531474\C,0,0.89
 22869916,2.4745373287,-0.3467178641\H,0,1.9427845582,2.711142581,-0.14
 59104603\Cl,0,2.2858677978,-3.2108504097,1.1512211771\Pd,0,0.242960534
 5,-2.0466559689,0.6650754717\\Version=ES64L-G16RevB.01\State=1-A\HF=-2
 590.0384975\RMSD=4.281e-09\Dipole=-0.7669051,4.4977463,-1.3848265\Quad
 rupole=11.394213,-13.2071666,1.8129536,4.964238,0.8424298,5.0699549\PG
 =C01 [X(C22H36Cl2P2Pd1)]\\@


 HONESTY IN A LAWYER IS LIKE A HEN'S HIND LEGS.
  -- MAGNUS OLESON, LAKE WOBEGON PATRIARCH, C.1875
 Job cpu time:       0 days 18 hours 50 minutes  8.2 seconds.
 Elapsed time:       0 days  0 hours 24 minutes 10.6 seconds.
 File lengths (MBytes):  RWF=    660 Int=      0 D2E=      0 Chk=     91 Scr=      1
 Normal termination of Gaussian 16 at Tue Dec 14 14:22:51 2021.
 Initial command:
 /uufs/chpc.utah.edu/sys/installdir/gaussian16/B01/E6B/g16/l1.exe "/scratch/general/lustre/u6034117/3711144/notchpeak.peaks/Gau-188902.inp" -scrdir="/scratch/general/lustre/u6034117/3711144/notchpeak.peaks/"
 Entering Link 1 = /uufs/chpc.utah.edu/sys/installdir/gaussian16/B01/E6B/g16/l1.exe PID=    190900.
  
 Copyright (c) 1988-2017, Gaussian, Inc.  All Rights Reserved.
  
 This is part of the Gaussian(R) 16 program.  It is based on
 the Gaussian(R) 09 system (copyright 2009, Gaussian, Inc.),
 the Gaussian(R) 03 system (copyright 2003, Gaussian, Inc.),
 the Gaussian(R) 98 system (copyright 1998, Gaussian, Inc.),
 the Gaussian(R) 94 system (copyright 1995, Gaussian, Inc.),
 the Gaussian 92(TM) system (copyright 1992, Gaussian, Inc.),
 the Gaussian 90(TM) system (copyright 1990, Gaussian, Inc.),
 the Gaussian 88(TM) system (copyright 1988, Gaussian, Inc.),
 the Gaussian 86(TM) system (copyright 1986, Carnegie Mellon
 University), and the Gaussian 82(TM) system (copyright 1983,
 Carnegie Mellon University). Gaussian is a federally registered
 trademark of Gaussian, Inc.
  
 This software contains proprietary and confidential information,
 including trade secrets, belonging to Gaussian, Inc.
  
 This software is provided under written license and may be
 used, copied, transmitted, or stored only in accord with that
 written license.
  
 The following legend is applicable only to US Government
 contracts under FAR:
  
                    RESTRICTED RIGHTS LEGEND
  
 Use, reproduction and disclosure by the US Government is
 subject to restrictions as set forth in subparagraphs (a)
 and (c) of the Commercial Computer Software - Restricted
 Rights clause in FAR 52.227-19.
  
 Gaussian, Inc.
 340 Quinnipiac St., Bldg. 40, Wallingford CT 06492
  
  
 ---------------------------------------------------------------
 Warning -- This program may not be used in any manner that
 competes with the business of Gaussian, Inc. or will provide
 assistance to any competitor of Gaussian, Inc.  The licensee
[...]
   951. RY*(  20) C  60                  0.00000     3.33881   
   952. RY*(  21) C  60                  0.00000     3.46235   
   953. RY*(  22) C  60                  0.00000     3.62957   
   954. RY*(  23) C  60                  0.00001     3.12704   
   955. RY*(  24) C  60                  0.00000     3.45033   
   956. RY*(  25) C  60                  0.00000     3.82542   
   957. RY*(  26) C  60                  0.00000     3.13272   
   958. RY*(   1) H  61                  0.00202     0.72566   
   959. RY*(   2) H  61                  0.00040     2.36515   
   960. RY*(   3) H  61                  0.00014     2.15862   
   961. RY*(   4) H  61                  0.00010     2.69750   
   962. RY*(   5) H  61                  0.00004     3.14568   
   963. RY*(   1)Cl  62                  0.00133     0.84517   
   964. RY*(   2)Cl  62                  0.00116     0.76338   
   965. RY*(   3)Cl  62                  0.00097     0.68872   
   966. RY*(   4)Cl  62                  0.00040     1.06563   
   967. RY*(   5)Cl  62                  0.00027     1.54937   
   968. RY*(   6)Cl  62                  0.00023     1.41257   
   969. RY*(   7)Cl  62                  0.00017     1.39515   
   970. RY*(   8)Cl  62                  0.00010     1.13619   
   971. RY*(   9)Cl  62                  0.00008     2.45461   
   972. RY*(  10)Cl  62                  0.00009     1.37581   
   973. RY*(  11)Cl  62                  0.00002     2.10768   
   974. RY*(  12)Cl  62                  0.00000    10.44592   
   975. RY*(  13)Cl  62                  0.00001     1.78962   
   976. RY*(  14)Cl  62                  0.00000    24.81049   
   977. RY*(  15)Cl  62                  0.00001     1.81680   
   978. RY*(  16)Cl  62                  0.00000     2.58817   
   979. RY*(  17)Cl  62                  0.00000    10.48668   
   980. RY*(  18)Cl  62                  0.00001     2.69464   
   981. RY*(  19)Cl  62                  0.00000     2.76083   
   982. RY*(  20)Cl  62                  0.00000    10.46563   
   983. RY*(  21)Cl  62                  0.00001     1.87194   
   984. RY*(  22)Cl  62                  0.00000     2.10496   
   985. RY*(  23)Cl  62                  0.00001     2.16179   
   986. RY*(  24)Cl  62                  0.00000     2.15288   
   987. RY*(  25)Cl  62                  0.00000     2.15940   
   988. RY*(  26)Cl  62                  0.00000     2.16817   
   989. RY*(  27)Cl  62                  0.00001     2.21407   
   990. RY*(  28)Cl  62                  0.00000     2.22587   
   991. RY*(   1)Pd  63                  0.00355     0.88933   
   992. RY*(   2)Pd  63                  0.00262     1.54174   
   993. RY*(   3)Pd  63                  0.00247     1.35567   
   994. RY*(   4)Pd  63                  0.00179     0.69234   
   995. RY*(   5)Pd  63                  0.00136     0.85145   
   996. RY*(   6)Pd  63                  0.00123     0.85894   
   997. RY*(   7)Pd  63                  0.00078     0.73768   
   998. RY*(   8)Pd  63                  0.00071     1.99164   
   999. RY*(   9)Pd  63                  0.00063     1.92987   
  1000. RY*(  10)Pd  63                  0.00058     2.03658   
  1001. RY*(  11)Pd  63                  0.00048     0.81779   
  1002. RY*(  12)Pd  63                  0.00032     0.38206   
  1003. RY*(  13)Pd  63                  0.00023     1.60909   
  1004. RY*(  14)Pd  63                  0.00020     1.68428   
  1005. RY*(  15)Pd  63                  0.00017     2.38604   
  1006. RY*(  16)Pd  63                  0.00016     1.09173   
  1007. RY*(  17)Pd  63                  0.00010    10.33770   
  1008. RY*(  18)Pd  63                  0.00008    23.75191   
  1009. RY*(  19)Pd  63                  0.00005     3.58250   
  1010. RY*(  20)Pd  63                  0.00002     2.41903   
  1011. RY*(  21)Pd  63                  0.00000    39.37257   
  1012. RY*(  22)Pd  63                  0.00000    39.38043   
  1013. RY*(  23)Pd  63                  0.00000    39.60620   
  1014. BD*(   1)Cl   1 -Pd  63          0.19589     0.15612  1082(g),1016(v),1018(g)
                                                    1020(v),1021(v),1017(v)
                                                    1007(g),1005(g),155(v)
                                                    1009(g),1000(g),1008(g)
                                                    1015(v),1010(g),183(v)
                                                    999(g),127(g),1003(g),998(g)
                                                    131(g),212(r),992(g),356(r)
                                                    133(g),1027(r),1006(g)
  1015. BD*(   1) P   2 - C   4          0.08372     0.18660   
  1016. BD*(   1) P   2 - C   6          0.08245     0.15708   
  1017. BD*(   1) P   2 - C   8          0.08160     0.15180   
  1018. BD*(   1) P   2 -Pd  63          0.17996     0.67245  1022(g),994(g),1007(g)
                                                    1009(g),155(g),1008(g)
                                                    183(v),1005(g),992(g),998(g)
                                                    1000(g),1010(g),991(g)
                                                    1004(g),968(v),999(g),212(v)
                                                    132(v),238(r),131(v),966(v)
                                                    1001(g),356(r),993(g),263(v)
                                                    972(v),325(r),967(v),1003(g)
                                                    190(v),192(v),136(v),1014(g)
                                                    294(v),162(g),865(r),969(v)
                                                    161(g),239(r),158(g),213(v)
                                                    963(v),841(r),964(v),165(g)
                                                    357(r),996(g),326(r),295(v)
                                                    387(r),1002(g),163(g),191(v)
                                                    965(v),958(r),264(v),970(v)
                                                    665(r),133(v),129(v),842(r)
                                                    188(v),211(v),637(r),634(r)
                                                    241(r),240(r),215(v),390(r)
                                                    598(r),204(v),600(r),935(r)
                                                    135(v),201(v),495(r),214(v)
                                                    173(g),575(r),174(g),128(v)
                                                    934(r),176(g),1067(r)
                                                    1066(r),337(r),217(v),366(r)
                                                    134(v),127(v),194(v),167(g)
                                                    609(r),198(v),567(r),990(v)
                                                    396(r),834(r),333(r),130(v)
                                                    509(r),237(r),172(g),580(r)
                                                    220(v),147(v),423(r),364(r)
                                                    716(r),492(r),503(r),216(v)
                                                    499(r),271(v),359(r),783(r)
                                                    139(v),301(v),308(v),328(r)
                                                    393(r),612(r),169(g),195(v)
                                                    610(r),265(v),246(r),193(v)
                                                    615(r),466(r),460(r),245(r)
                                                    168(g),222(v),843(r),385(r)
                                                    223(v),160(g),299(v),983(v)
                                                    249(r),557(r),617(r),570(r)
                                                    435(r),490(r)
  1019. BD*(   1) P   3 - C   5          0.08313     0.19225   
  1020. BD*(   1) P   3 - C  10          0.08202     0.15442   
  1021. BD*(   1) P   3 - C  12          0.08545     0.15416   
  1022. BD*(   1) P   3 -Pd  63          0.17973     0.68011  1018(g),994(g),183(g)
                                                    1007(g),1008(g),1009(g)
                                                    155(v),998(g),1005(g),992(g)
                                                    1000(g),1010(g),1004(g)
                                                    991(g),999(g),968(v),132(v)
                                                    996(g),238(v),212(r),131(v)
                                                    966(v),1001(g),356(v),993(g)
                                                    967(v),136(v),263(r),964(v)
                                                    325(v),192(g),190(g),865(r)
                                                    1082(g),294(r),161(v),162(v)
                                                    972(v),213(r),239(v),965(v)
                                                    357(v),191(g),158(v),841(r)
                                                    326(v),165(v),295(r),963(v)
                                                    665(r),264(r),969(v),1003(g)
                                                    188(g),387(r),637(r),958(r)
                                                    204(g),842(r),163(v),201(g)
                                                    215(r),390(r),598(r),240(v)
                                                    129(v),634(r),935(r),211(r)
                                                    241(v),575(r),135(v),1002(g)
                                                    174(v),995(g),198(g),970(v)
                                                    567(r),214(r),495(r),934(r)
                                                    557(r),600(r),127(v),167(v)
                                                    1067(r),337(v),997(g),130(v)
                                                    366(v),237(v),217(r),509(r)
                                                    173(v),194(g),172(v),176(v)
                                                    216(r),834(r),503(r),265(r)
                                                    246(v),364(v),147(v),133(v)
                                                    1006(g),716(r),1036(v)
                                                    271(r),1066(r),609(r),492(r)
                                                    396(r),423(r),460(r),580(r)
                                                    499(r),195(g),308(r),134(v)
                                                    249(v),1023(v),139(v),328(v)
                                                    333(v),154(v),798(r),783(r)
                                                    990(v),272(r),393(r),615(r)
                                                    359(v),220(r),373(v),574(r)
                                                    274(r),169(v),245(v),301(r)
                                                    936(r),971(v),466(r),435(r)
                                                    617(r),706(r),203(g),983(v)
                                                    197(g),206(g),610(r),500(r)
  1023. BD*(   1) C   4 - C   5          0.03228     0.47796   
  1024. BD*(   2) C   4 - C   5          0.39852    -0.01193  1080(v),1075(v),1016(v)
                                                    1021(v),214(g),1020(v)
                                                    240(g),1017(v),933(v)
  1025. BD*(   1) C   4 - C  54          0.02996     0.49016   
  1026. BD*(   1) C   5 - C  60          0.02998     0.48991   
  1027. BD*(   1) C   6 - H   7          0.02406     0.34612   
  1028. BD*(   1) C   6 - C  14          0.02444     0.32455   
  1029. BD*(   1) C   6 - C  26          0.02198     0.34345   
  1030. BD*(   1) C   8 - H   9          0.02310     0.34209   
  1031. BD*(   1) C   8 - C  17          0.02006     0.31555   
  1032. BD*(   1) C   8 - C  29          0.01864     0.34221   
  1033. BD*(   1) C  10 - H  11          0.02655     0.33663   
  1034. BD*(   1) C  10 - C  20          0.01815     0.32794   
  1035. BD*(   1) C  10 - C  32          0.01860     0.34733   
  1036. BD*(   1) C  12 - H  13          0.02384     0.35486   
  1037. BD*(   1) C  12 - C  23          0.01962     0.32419   
  1038. BD*(   1) C  12 - C  35          0.01934     0.34092   
  1039. BD*(   1) C  14 - H  15          0.01603     0.35106   
  1040. BD*(   1) C  14 - H  16          0.02000     0.34296   
  1041. BD*(   1) C  14 - C  17          0.00956     0.33654   
  1042. BD*(   1) C  17 - H  18          0.01244     0.35440   
  1043. BD*(   1) C  17 - H  19          0.01607     0.35176   
  1044. BD*(   1) C  20 - H  21          0.01472     0.35548   
  1045. BD*(   1) C  20 - H  22          0.01798     0.36351   
  1046. BD*(   1) C  20 - C  23          0.00913     0.34426   
  1047. BD*(   1) C  23 - H  24          0.01453     0.35645   
  1048. BD*(   1) C  23 - H  25          0.01886     0.33787   
  1049. BD*(   1) C  26 - H  27          0.01707     0.34803   
  1050. BD*(   1) C  26 - H  28          0.01441     0.36858   
  1051. BD*(   1) C  26 - C  38          0.00902     0.34676   
  1052. BD*(   1) C  29 - H  30          0.01749     0.35782   
  1053. BD*(   1) C  29 - H  31          0.02047     0.38081   
  1054. BD*(   1) C  29 - C  42          0.00683     0.36841   
  1055. BD*(   1) C  32 - H  33          0.01761     0.35681   
  1056. BD*(   1) C  32 - H  34          0.01864     0.38214   
  1057. BD*(   1) C  32 - C  46          0.00625     0.36246   
  1058. BD*(   1) C  35 - H  36          0.01912     0.35076   
  1059. BD*(   1) C  35 - H  37          0.01737     0.34723   
  1060. BD*(   1) C  35 - C  50          0.00689     0.35319   
  1061. BD*(   1) C  38 - H  39          0.00920     0.36222   
  1062. BD*(   1) C  38 - H  40          0.00876     0.37712   
  1063. BD*(   1) C  38 - H  41          0.00563     0.36916   
  1064. BD*(   1) C  42 - H  43          0.00937     0.37487   
  1065. BD*(   1) C  42 - H  44          0.00582     0.38660   
  1066. BD*(   1) C  42 - H  45          0.01100     0.41731   
  1067. BD*(   1) C  46 - H  47          0.01191     0.40269   
  1068. BD*(   1) C  46 - H  48          0.00977     0.36772   
  1069. BD*(   1) C  46 - H  49          0.00592     0.37934   
  1070. BD*(   1) C  50 - H  51          0.00595     0.36983   
  1071. BD*(   1) C  50 - H  52          0.00858     0.37006   
  1072. BD*(   1) C  50 - H  53          0.00869     0.37635   
  1073. BD*(   1) C  54 - H  55          0.01663     0.37680   
  1074. BD*(   1) C  54 - C  56          0.01635     0.50847   
  1075. BD*(   2) C  54 - C  56          0.30404    -0.00416  1080(v),1024(v),872(g)
  1076. BD*(   1) C  56 - H  57          0.01309     0.37296   
  1077. BD*(   1) C  56 - C  58          0.01414     0.50294   
  1078. BD*(   1) C  58 - H  59          0.01317     0.37287   
  1079. BD*(   1) C  58 - C  60          0.01626     0.50697   
  1080. BD*(   2) C  58 - C  60          0.30742    -0.00501  1075(v),1024(v),903(g)
                                                    933(g)
  1081. BD*(   1) C  60 - H  61          0.01672     0.37103   
  1082. BD*(   1)Cl  62 -Pd  63          0.19731     0.15292  1014(g),1017(v),1021(v)
                                                    1020(v),1022(g),1016(v)
                                                    183(v),996(g),1007(g)
                                                    1005(g),998(g),1009(g)
                                                    1008(g),999(g),1010(g)
                                                    155(v),1019(v),967(g)
                                                    1000(g),238(r),1036(r)
                                                    1011(g),1056(r),992(g)
                                                    132(v),1003(g)
       -------------------------------
              Total Lewis  274.37642  ( 98.6966%)
        Valence non-Lewis    3.24582  (  1.1676%)
        Rydberg non-Lewis    0.37776  (  0.1359%)
       -------------------------------
            Total unit  1  278.00000  (100.0000%)
           Charge unit  1    0.00000
 1\1\GINC-NOTCH208\SP\RPBE1PBE\Gen\C22H36Cl2P2Pd1\U6034117\14-Dec-2021\
 0\\# PBE1PBE gen pseudo=read int=(grid=ultrafine) empiricaldispersion=
 GD3BJ pop=nbo guess=read geom=check\\SS_Et_DuPhos_1 title\\0,1\Cl,0,-1
 .2579820692,-3.8484022152,1.1730514897\P,0,-1.5534086934,-0.8283122526
 ,0.0536547218\P,0,1.5233168,-0.2145646161,0.3788789695\C,0,-0.95176988
 17,0.8734874658,-0.3697701895\C,0,0.4116949182,1.1695910796,-0.1258036
 721\C,0,-2.9734455073,-0.7337670365,1.2745165755\H,0,-3.0312162011,-1.
 8101134343,1.5417432179\C,0,-2.657082636,-1.3363184667,-1.3990195133\H
 ,0,-2.5065609753,-0.5447575035,-2.1583528405\C,0,2.5588570146,0.393698
 8029,1.8340681567\H,0,2.3995441706,1.4917383027,1.8541969955\C,0,2.964
 3952792,-0.2803681893,-0.8405315115\H,0,3.1645712892,-1.3678515315,-0.
 8925661343\C,0,-4.1963308421,-0.4009192124,0.4029890385\H,0,-5.1268077
 007,-0.5943866086,0.9676480074\H,0,-4.2094581569,0.671617581,0.1351664
 094\C,0,-4.110054283,-1.2914782837,-0.8469238703\H,0,-4.8096910422,-0.
 9690417477,-1.6377322579\H,0,-4.3922379412,-2.321640432,-0.5630491623\
 C,0,4.0066181982,0.09216669,1.3959962926\H,0,4.7195501122,0.6756620624
 ,2.0054520149\H,0,4.20723554,-0.9804529585,1.5690791374\C,0,4.13094993
 33,0.4075151706,-0.0984731427\H,0,5.0961470793,0.066283125,-0.51343862
 3\H,0,4.0784957013,1.5025063393,-0.2639104342\C,0,-2.819237625,0.04991
 13841,2.5864889482\H,0,-3.7547015604,-0.1183805678,3.1546724141\H,0,-2
 .0223166576,-0.4227764401,3.1850524112\C,0,-2.3293367778,-2.7061137119
 ,-2.0193129967\H,0,-3.1373423516,-2.9282804284,-2.7440649912\H,0,-2.38
 52177541,-3.4707945672,-1.2242068452\C,0,2.1905883648,-0.1999071525,3.
 1988598626\H,0,2.9265169246,0.1812853143,3.9331306508\H,0,2.3199029852
 ,-1.2958953463,3.147251494\C,0,2.7189366456,0.2732870802,-2.2494964456
 \H,0,2.4910319041,1.35433419,-2.1896244396\H,0,3.6791979412,0.19600718
 04,-2.7954821344\C,0,-2.5606493647,1.5576406858,2.4829694326\H,0,-3.30
 45558311,2.0640372599,1.8434177749\H,0,-1.5628765586,1.7759592433,2.06
 98356836\H,0,-2.6151410609,2.018991458,3.4836263114\C,0,-0.9700235853,
 -2.795829481,-2.7096096759\H,0,-0.8574103132,-2.0334717503,-3.50154784
 96\H,0,-0.8332225933,-3.7891540192,-3.1687194027\H,0,-0.154968691,-2.6
 590783595,-1.9749207844\C,0,0.7701957447,0.1339877684,3.6530408929\H,0
 ,0.042742405,-0.3466209263,2.9748067978\H,0,0.5781923523,1.2226846565,
 3.6531712709\H,0,0.5753943601,-0.2490495579,4.6687217557\C,0,1.6216638
 452,-0.4452324974,-3.0353883675\H,0,1.5652084639,-0.0678609959,-4.0706
 535583\H,0,1.8036187936,-1.532344797,-3.0759539921\H,0,0.633697259,-0.
 2917509763,-2.5699700751\C,0,-1.7895348785,1.8768042971,-0.8948495247\
 H,0,-2.8366632946,1.6553409707,-1.1198871728\C,0,-1.2977301165,3.16757
 46786,-1.1255515058\H,0,-1.9624260994,3.9388099194,-1.5273029466\C,0,0
 .0397538531,3.4725932417,-0.8355878445\H,0,0.4234832834,4.4834265848,-
 1.0057531474\C,0,0.8922869916,2.4745373287,-0.3467178641\H,0,1.9427845
 582,2.711142581,-0.1459104603\Cl,0,2.2858677978,-3.2108504097,1.151221
 1771\Pd,0,0.2429605345,-2.0466559689,0.6650754717\\Version=ES64L-G16Re
 vB.01\State=1-A\HF=-2590.0384975\RMSD=2.342e-09\Dipole=-0.7669075,4.49
 77455,-1.3848232\Quadrupole=11.3941958,-13.207141,1.8129451,4.9642709,
 0.8424312,5.0699461\PG=C01 [X(C22H36Cl2P2Pd1)]\\@


 THE REAL VOYAGE OF DISCOVERY CONSISTS NOT IN SEEKING NEW LANDSCAPES 
 BUT IN HAVING NEW EYES.
                                                    -- MARCEL PROUST
 Job cpu time:       0 days  0 hours 54 minutes 26.4 seconds.
 Elapsed time:       0 days  0 hours  1 minutes  3.3 seconds.
 File lengths (MBytes):  RWF=    602 Int=      0 D2E=      0 Chk=     91 Scr=      1
 Normal termination of Gaussian 16 at Tue Dec 14 14:24:02 2021.
