 Entering Gaussian System, Link 0=g09
 Input=SS_Et_DuPhos_3_SPE_NoPd.com
 Output=SS_Et_DuPhos_3_SPE_NoPd.log
 Initial command:
 /gstore/apps/gaussian/g09.e01-foss-2017a/g09/l1.exe "/local/22791411/Gau-28614.inp" -scrdir="/local/22791411/"
 Entering Link 1 = /gstore/apps/gaussian/g09.e01-foss-2017a/g09/l1.exe PID=     28615.
  
 Copyright (c) 1988,1990,1992,1993,1995,1998,2003,2009,2015,
            Gaussian, Inc.  All Rights Reserved.
  
 This is part of the Gaussian(R) 09 program.  It is based on
 the Gaussian(R) 03 system (copyright 2003, Gaussian, Inc.),
 the Gaussian(R) 98 system (copyright 1998, Gaussian, Inc.),
 the Gaussian(R) 94 system (copyright 1995, Gaussian, Inc.),
 the Gaussian 92(TM) system (copyright 1992, Gaussian, Inc.),
 the Gaussian 90(TM) system (copyright 1990, Gaussian, Inc.),
 the Gaussian 88(TM) system (copyright 1988, Gaussian, Inc.),
 the Gaussian 86(TM) system (copyright 1986, Carnegie Mellon
 University), and the Gaussian 82(TM) system (copyright 1983,
 Carnegie Mellon University). Gaussian is a federally registered
 trademark of Gaussian, Inc.
  
 This software contains proprietary and confidential information,
 including trade secrets, belonging to Gaussian, Inc.
  
 This software is provided under written license and may be
 used, copied, transmitted, or stored only in accord with that
 written license.
  
 The following legend is applicable only to US Government
 contracts under FAR:
  
                    RESTRICTED RIGHTS LEGEND
  
 Use, reproduction and disclosure by the US Government is
 subject to restrictions as set forth in subparagraphs (a)
 and (c) of the Commercial Computer Software - Restricted
 Rights clause in FAR 52.227-19.
  
 Gaussian, Inc.
 340 Quinnipiac St., Bldg. 40, Wallingford CT 06492
  
  
 ---------------------------------------------------------------
 Warning -- This program may not be used in any manner that
 competes with the business of Gaussian, Inc. or will provide
 assistance to any competitor of Gaussian, Inc.  The licensee
 of this program is prohibited from giving any competitor of
 Gaussian, Inc. access to this program.  By using this program,
 the user acknowledges that Gaussian, Inc. is engaged in the
 business of creating and licensing software in the field of
 computational chemistry and represents and warrants to the
 licensee that it is not a competitor of Gaussian, Inc. and that
 it will not use this program in any manner prohibited above.
 ---------------------------------------------------------------
  

 Cite this work as:
 Gaussian 09, Revision E.01,
 M. J. Frisch, G. W. Trucks, H. B. Schlegel, G. E. Scuseria, 
 M. A. Robb, J. R. Cheeseman, G. Scalmani, V. Barone, B. Mennucci, 
 G. A. Petersson, H. Nakatsuji, M. Caricato, X. Li, H. P. Hratchian, 
 A. F. Izmaylov, J. Bloino, G. Zheng, J. L. Sonnenberg, M. Hada, 
 M. Ehara, K. Toyota, R. Fukuda, J. Hasegawa, M. Ishida, T. Nakajima, 
 Y. Honda, O. Kitao, H. Nakai, T. Vreven, J. A. Montgomery, Jr., 
 J. E. Peralta, F. Ogliaro, M. Bearpark, J. J. Heyd, E. Brothers, 
 K. N. Kudin, V. N. Staroverov, T. Keith, R. Kobayashi, J. Normand, 
 K. Raghavachari, A. Rendell, J. C. Burant, S. S. Iyengar, J. Tomasi, 
 M. Cossi, N. Rega, J. M. Millam, M. Klene, J. E. Knox, J. B. Cross, 
 V. Bakken, C. Adamo, J. Jaramillo, R. Gomperts, R. E. Stratmann, 
 O. Yazyev, A. J. Austin, R. Cammi, C. Pomelli, J. W. Ochterski, 
 R. L. Martin, K. Morokuma, V. G. Zakrzewski, G. A. Voth, 
 P. Salvador, J. J. Dannenberg, S. Dapprich, A. D. Daniels, 
 O. Farkas, J. B. Foresman, J. V. Ortiz, J. Cioslowski, 
 and D. J. Fox, Gaussian, Inc., Wallingford CT, 2013.
 
 ******************************************
 Gaussian 09:  ES64L-G09RevE.01 30-Nov-2015
                 5-Dec-2021 
 ******************************************
 %nprocs=14
 Will use up to   14 processors via shared memory.
 %mem=128GB
 %chk=SS_Et_DuPhos_3_SPE_NoPd.chk
 ----------------------------------------------------------------------
 # PBE1PBE/def2TZVP int=(grid=ultrafine) empiricaldispersion=GD3BJ nmr=
 giao
 ----------------------------------------------------------------------
 1/38=1/1;
 2/12=2,17=6,18=5,40=1/2;
 3/5=44,7=101,11=2,16=1,25=1,30=1,74=-13,75=-5,124=41/1,2,8,3;
 4//1;
 5/5=2,38=5/2;
 8/6=1,10=90,11=11/1;
 10/13=100,45=16/2;
 6/7=2,8=2,9=2,10=2,28=1/1;
 99/9=1/99;
 --------------------
 SS_Et_DuPhos_3 title
 --------------------
 Symbolic Z-matrix:
 Charge =  0 Multiplicity = 1
 P                    -1.57511  -0.71571   0.04597 
 P                     1.47763  -0.11576   0.32967 
 C                    -0.99044   0.98654  -0.38719 
 C                     0.39218   1.2558   -0.25524 
 C                    -2.93216  -0.67193   1.35826 
 H                    -2.54622  -1.32999   2.1565 
 C                    -2.69203  -1.17514  -1.40891 
 H                    -2.46076  -0.4504   -2.21188 
 C                     2.40307   0.60482   1.79879 
 H                     2.41419   1.69211   1.57421 
 C                     3.00903  -0.28741  -0.7533 
 H                     3.12871  -1.38791  -0.77162 
 C                    -4.11457  -1.36537   0.63965 
 H                    -3.97308  -2.45757   0.71302 
 H                    -5.06871  -1.11257   1.13613 
 C                    -4.1132   -0.94504  -0.83949 
 H                    -4.39206   0.12274  -0.92424 
 H                    -4.85441  -1.51686  -1.42623 
 C                     3.83414   0.07815   1.57802 
 H                     4.54308   0.60173   2.2444 
 H                     3.87802  -1.00184   1.80514 
 C                     4.15768   0.30986   0.09222 
 H                     5.11743  -0.15243  -0.19843 
 H                     4.24408   1.39699  -0.10803 
 C                    -3.2612    0.706     1.95607 
 H                    -3.54972   1.42397   1.16618 
 H                    -4.16211   0.57141   2.58517 
 C                    -2.46859  -2.59896  -1.95156 
 H                    -3.28287  -2.7943   -2.67646 
 H                    -2.57191  -3.33205  -1.13301 
 C                     1.78432   0.43792   3.19688 
 H                     0.81646   0.97293   3.21565 
 H                     2.44371   0.99004   3.89549 
 C                     2.89879   0.2362   -2.18917 
 H                     2.72752   1.32934  -2.18567 
 H                     3.88556   0.08496  -2.66809 
 C                    -2.13274   1.29328   2.81044 
 H                    -2.45454   2.22352   3.30832 
 H                    -1.24665   1.53327   2.19881 
 H                    -1.81913   0.57788   3.59093 
 C                    -1.11197  -2.79282  -2.63155 
 H                    -0.28836  -2.67844  -1.90163 
 H                    -1.03075  -3.80703  -3.05639 
 H                    -0.95605  -2.06305  -3.4475 
 C                     1.58615  -0.99293   3.70504 
 H                     2.5166   -1.58199   3.66867 
 H                     0.84216  -1.54095   3.10027 
 H                     1.23097  -0.97379   4.74984 
 C                     1.81344  -0.45995  -3.01688 
 H                     1.94616  -1.55524  -3.00627 
 H                     0.80684  -0.24678  -2.61714 
 H                     1.83502  -0.11996  -4.06612 
 C                    -1.84819   1.99405  -0.86917 
 H                    -2.91542   1.78967  -1.00171 
 C                    -1.34431   3.26115  -1.18995 
 H                    -2.02046   4.03679  -1.56313 
 C                     0.02205   3.5354   -1.03241 
 H                     0.41577   4.52632  -1.27941 
 C                     0.88705   2.5362   -0.56854 
 H                     1.95443   2.75371  -0.45439 
 
 Stoichiometry    C22H36P2
 Framework group  C1[X(C22H36P2)]
 Deg. of freedom   174
 Full point group                 C1      NOp   1
 Largest Abelian subgroup         C1      NOp   1
 Largest concise Abelian subgroup C1      NOp   1
                         Standard orientation:                         
 ---------------------------------------------------------------------
 Center     Atomic      Atomic             Coordinates (Angstroms)
 Number     Number       Type             X           Y           Z
 ---------------------------------------------------------------------
      1         15           0       -1.528135   -0.017909   -0.576572
      2         15           0        1.594472    0.049245   -0.509766
      3          6           0       -0.706130    0.067383    1.079968
      4          6           0        0.708104    0.095100    1.106949
      5          6           0       -2.692700   -1.499225   -0.699547
      6          1           0       -2.338541   -2.037349   -1.596298
      7          6           0       -2.871439    1.308048   -0.464163
      8          1           0       -2.611201    1.932612    0.410872
      9          6           0        2.798577   -1.385589   -0.350448
     10          1           0        2.975660   -1.438688    0.744345
     11          6           0        2.933636    1.370922   -0.595042
     12          1           0        2.853559    1.680274   -1.655072
     13          6           0       -4.055149   -0.829287   -0.999952
     14          1           0       -4.101696   -0.606137   -2.079924
     15          1           0       -4.884581   -1.518556   -0.759688
     16          6           0       -4.152720    0.480195   -0.199777
     17          1           0       -4.246067    0.252063    0.879266
     18          1           0       -5.047044    1.064366   -0.481850
     19          6           0        4.077869   -0.815827   -0.992986
     20          1           0        4.941454   -1.469281   -0.773865
     21          1           0        3.956123   -0.758191   -2.089227
     22          6           0        4.260944    0.598154   -0.415824
     23          1           0        5.082878    1.143560   -0.912069
     24          1           0        4.514420    0.533861    0.661695
     25          6           0       -2.700168   -2.464471    0.497362
     26          1           0       -2.947536   -1.933637    1.435270
     27          1           0       -3.530639   -3.175978    0.325319
     28          6           0       -2.968823    2.215116   -1.704891
     29          1           0       -3.884076    2.826338   -1.580772
     30          1           0       -3.103680    1.598126   -2.610023
     31          6           0        2.328222   -2.778905   -0.800779
     32          1           0        1.479381   -3.083828   -0.160599
     33          1           0        3.152220   -3.478142   -0.556249
     34          6           0        2.750366    2.595651    0.307449
     35          1           0        2.776988    2.294069    1.371705
     36          1           0        3.631719    3.248186    0.154595
     37          6           0       -1.393320   -3.246440    0.667498
     38          1           0       -1.484706   -4.004088    1.463995
     39          1           0       -0.556615   -2.580116    0.937287
     40          1           0       -1.122080   -3.764931   -0.268934
     41          6           0       -1.757161    3.129338   -1.895800
     42          1           0       -0.846534    2.534866   -2.099705
     43          1           0       -1.907183    3.799623   -2.758312
     44          1           0       -1.571190    3.753041   -1.001907
     45          6           0        1.940743   -2.941482   -2.273276
     46          1           0        2.741400   -2.612318   -2.954934
     47          1           0        1.045809   -2.346426   -2.527419
     48          1           0        1.719492   -4.001266   -2.487812
     49          6           0        1.469489    3.386007    0.020349
     50          1           0        1.406465    3.668496   -1.044364
     51          1           0        0.570436    2.790631    0.256385
     52          1           0        1.427816    4.307812    0.624913
     53          6           0       -1.422381    0.141426    2.290175
     54          1           0       -2.517002    0.148495    2.280950
     55          6           0       -0.743208    0.214297    3.513191
     56          1           0       -1.310318    0.270811    4.447666
     57          6           0        0.659018    0.213727    3.540274
     58          1           0        1.190288    0.266974    4.495713
     59          6           0        1.381710    0.156084    2.341867
     60          1           0        2.476644    0.163356    2.368551
 ---------------------------------------------------------------------
 Rotational constants (GHZ):      0.2621082      0.1670497      0.1502123
 Standard basis: def2TZVP (5D, 7F)
 There are  1092 symmetry adapted cartesian basis functions of A   symmetry.
 There are   972 symmetry adapted basis functions of A   symmetry.
   972 basis functions,  1548 primitive gaussians,  1092 cartesian basis functions
    99 alpha electrons       99 beta electrons
       nuclear repulsion energy      2623.8782014471 Hartrees.
 NAtoms=   60 NActive=   60 NUniq=   60 SFac= 1.00D+00 NAtFMM=   60 NAOKFM=T Big=T
 Integral buffers will be    131072 words long.
 Raffenetti 2 integral format.
 Two-electron integral symmetry is turned on.
 Nuclear repulsion after empirical dispersion term =     2623.7990015747 Hartrees.
 One-electron integrals computed using PRISM.
   1 Symmetry operations used in ECPInt.
 ECPInt:  NShTT=   85078 NPrTT=  253069 LenC2=   74398 LenP2D=  154374.
 LDataN:  DoStor=T MaxTD1= 6 Len=  172
 NBasis=   972 RedAO= T EigKep=  5.51D-06  NBF=   972
 NBsUse=   972 1.00D-06 EigRej= -1.00D+00 NBFU=   972
 ExpMin= 9.04D-02 ExpMax= 5.24D+04 ExpMxC= 1.79D+03 IAcc=3 IRadAn=         5 AccDes= 0.00D+00
 Harris functional with IExCor= 1009 and IRadAn=       5 diagonalized for initial guess.
 HarFok:  IExCor= 1009 AccDes= 0.00D+00 IRadAn=         5 IDoV= 1 UseB2=F ITyADJ=14
 ICtDFT=  3500011 ScaDFX=  1.000000  1.000000  1.000000  1.000000
 FoFCou: FMM=F IPFlag=           0 FMFlag=      100000 FMFlg1=        2001
         NFxFlg=           0 DoJE=T BraDBF=F KetDBF=T FulRan=T
         wScrn=  0.000000 ICntrl=     500 IOpCl=  0 I1Cent=   200000004 NGrid=           0
         NMat0=    1 NMatS0=      1 NMatT0=    0 NMatD0=    1 NMtDS0=    0 NMtDT0=    0
 Petite list used in FoFCou.
 Requested convergence on RMS density matrix=1.00D-08 within 128 cycles.
 Requested convergence on MAX density matrix=1.00D-06.
 Requested convergence on             energy=1.00D-06.
 No special actions if energy rises.
 Integral accuracy reduced to 1.0D-05 until final iterations.
 Rare condition: small coef for last iteration:  0.000D+00
 EnCoef did   100 forward-backward iterations
 Rare condition: small coef for last iteration:  0.000D+00
 EnCoef did   100 forward-backward iterations
 Rare condition: small coef for last iteration:  0.000D+00
 EnCoef did   100 forward-backward iterations
 Rare condition: small coef for last iteration:  0.000D+00
 Rare condition: small coef for last iteration:  0.000D+00
 Rare condition: small coef for last iteration:  0.000D+00
 Initial convergence to 1.0D-05 achieved.  Increase integral accuracy.
 SCF Done:  E(RPBE1PBE) =  -1541.81380296     A.U. after   26 cycles
            NFock= 26  Conv=0.66D-08     -V/T= 2.0044
 DoSCS=F DFT=T ScalE2(SS,OS)=  1.000000  1.000000
 Range of M.O.s used for correlation:     1   972
 NBasis=   972 NAE=    99 NBE=    99 NFC=     0 NFV=     0
 NROrb=    972 NOA=    99 NOB=    99 NVA=   873 NVB=   873

 **** Warning!!: The largest alpha MO coefficient is  0.51221183D+02

          Differentiating once with respect to magnetic field using GIAOs.
          Electric field/nuclear overlap derivatives assumed to be zero.
 FoFCou: FMM=F IPFlag=           0 FMFlag=      100000 FMFlg1=        2001
         NFxFlg=           0 DoJE=F BraDBF=F KetDBF=T FulRan=T
         wScrn=  0.000000 ICntrl=    6100 IOpCl=  0 I1Cent=           7 NGrid=          60
         NMat0=    1 NMatS0=      1 NMatT0=    0 NMatD0=    1 NMtDS0=    0 NMtDT0=    0
 Symmetry not used in FoFCou.
   1 Symmetry operations used in ECPInt.
 ECPInt:  NShTT=   85078 NPrTT=  253069 LenC2=   85079 LenP2D=  253069.
 LDataN:  DoStor=T MaxTD1= 7 Len=  274
 FoFJK:  IHMeth= 1 ICntrl=    6127 DoSepK=F KAlg= 0 I1Cent=   0 FoldK=F
 IRaf=         1 NMat=   1 IRICut=       1 DoRegI=T DoRafI=F ISym2E= 0.
          There are     3 degrees of freedom in the 1st order CPHF.  IDoFFX=0 NUNeed=     3.
      3 vectors produced by pass  0 Test12= 2.88D-12 3.33D-08 XBig12= 8.34D+01 1.62D+00.
 AX will form     3 AO Fock derivatives at one time.
      3 vectors produced by pass  1 Test12= 2.88D-12 3.33D-08 XBig12= 1.60D-01 1.73D-01.
      3 vectors produced by pass  2 Test12= 2.88D-12 3.33D-08 XBig12= 1.12D-03 1.16D-02.
      3 vectors produced by pass  3 Test12= 2.88D-12 3.33D-08 XBig12= 3.70D-06 3.58D-04.
      3 vectors produced by pass  4 Test12= 2.88D-12 3.33D-08 XBig12= 1.32D-08 4.18D-05.
      3 vectors produced by pass  5 Test12= 2.88D-12 3.33D-08 XBig12= 1.11D-10 4.67D-06.
      3 vectors produced by pass  6 Test12= 2.88D-12 3.33D-08 XBig12= 4.25D-13 1.90D-07.
 InvSVY:  IOpt=1 It=  1 EMax= 3.55D-15
 Solved reduced A of dimension    21 with     3 vectors.
 Calculating GIAO nuclear magnetic shielding tensors.
 SCF GIAO Magnetic shielding tensor (ppm):
      1  P    Isotropic =   303.8834   Anisotropy =    50.4770
   XX=   330.7043   YX=     8.6200   ZX=    11.9611
   XY=    -0.2874   YY=   317.5689   ZY=    -3.4673
   XZ=    31.7075   YZ=    -5.7351   ZZ=   263.3769
   Eigenvalues:   256.4036   317.7118   337.5347
      2  P    Isotropic =   327.2933   Anisotropy =    76.3070
   XX=   341.6480   YX=    22.1308   ZX=   -40.3942
   XY=    -2.7470   YY=   319.4959   ZY=    38.8147
   XZ=   -42.6662   YZ=    31.0629   ZZ=   320.7358
   Eigenvalues:   266.4539   337.2613   378.1646
      3  C    Isotropic =    28.4310   Anisotropy =   204.7696
   XX=   -28.9102   YX=    -6.6695   ZX=   -23.0040
   XY=   -13.4700   YY=   164.2334   ZY=    -0.7181
   XZ=   -21.7855   YZ=   -14.2341   ZZ=   -50.0302
   Eigenvalues:   -64.8291   -14.8220   164.9441
      4  C    Isotropic =    30.8420   Anisotropy =   204.8797
   XX=   -30.7334   YX=    -3.3757   ZX=    21.4396
   XY=   -22.5729   YY=   164.2198   ZY=   -29.9697
   XZ=    26.1130   YZ=   -10.9569   ZZ=   -40.9606
   Eigenvalues:   -60.4489   -14.4536   167.4284
      5  C    Isotropic =   138.3504   Anisotropy =    26.0328
   XX=   149.0016   YX=    -5.2278   ZX=     0.5013
   XY=    -4.5155   YY=   150.4321   ZY=     2.0099
   XZ=    10.0827   YZ=   -10.0986   ZZ=   115.6176
   Eigenvalues:   114.4976   144.8481   155.7056
      6  H    Isotropic =    28.8970   Anisotropy =     6.8784
   XX=    27.9607   YX=    -1.0748   ZX=    -0.9782
   XY=    -0.9627   YY=    28.4735   ZY=     3.7471
   XZ=    -1.3963   YZ=     3.3836   ZZ=    30.2568
   Eigenvalues:    25.6873    27.5211    33.4826
      7  C    Isotropic =   132.8129   Anisotropy =    14.9235
   XX=   138.4756   YX=    -7.4437   ZX=     4.4408
   XY=    -5.3797   YY=   133.1393   ZY=     8.4071
   XZ=    -4.8400   YZ=    -7.5880   ZZ=   126.8238
   Eigenvalues:   126.7886   128.8882   142.7619
      8  H    Isotropic =    29.6304   Anisotropy =     2.8714
   XX=    27.1997   YX=     1.2032   ZX=     0.5693
   XY=    -2.1232   YY=    30.6157   ZY=    -0.7054
   XZ=     1.2927   YZ=     1.8763   ZZ=    31.0759
   Eigenvalues:    26.8965    30.4501    31.5447
      9  C    Isotropic =   133.3674   Anisotropy =    24.7589
   XX=   148.3201   YX=    10.5624   ZX=    -0.9364
   XY=    -8.5498   YY=   135.1420   ZY=    11.7912
   XZ=   -13.0586   YZ=   -12.5308   ZZ=   116.6401
   Eigenvalues:   115.1621   135.0668   149.8733
     10  H    Isotropic =    28.6907   Anisotropy =     3.5024
   XX=    26.6050   YX=    -0.3482   ZX=     1.5736
   XY=    -1.9756   YY=    28.8215   ZY=     1.2876
   XZ=     1.0178   YZ=    -0.5562   ZZ=    30.6455
   Eigenvalues:    25.7433    29.3031    31.0256
     11  C    Isotropic =   139.0772   Anisotropy =    20.6214
   XX=   147.1355   YX=    -5.6799   ZX=    -5.7244
   XY=    -1.8184   YY=   145.4128   ZY=     4.8089
   XZ=    -4.6622   YZ=     9.8526   ZZ=   124.6831
   Eigenvalues:   121.7558   142.6510   152.8247
     12  H    Isotropic =    29.1018   Anisotropy =     6.3180
   XX=    27.9187   YX=     0.6699   ZX=    -0.9237
   XY=     0.5223   YY=    28.5173   ZY=    -3.3738
   XZ=    -0.0100   YZ=    -3.2676   ZZ=    30.8694
   Eigenvalues:    26.1428    27.8489    33.3138
     13  C    Isotropic =   148.0580   Anisotropy =    35.1012
   XX=   167.4669   YX=    -5.6575   ZX=     5.0837
   XY=    -7.1092   YY=   159.5611   ZY=     1.7014
   XZ=    15.7166   YZ=    17.9952   ZZ=   117.1460
   Eigenvalues:   112.5355   160.1797   171.4588
     14  H    Isotropic =    29.2906   Anisotropy =     9.3769
   XX=    27.9149   YX=    -0.0778   ZX=     4.2152
   XY=    -0.3217   YY=    26.9309   ZY=    -0.2239
   XZ=     4.5409   YZ=     0.7577   ZZ=    33.0261
   Eigenvalues:    25.3421    26.9879    35.5419
     15  H    Isotropic =    29.6908   Anisotropy =    10.5326
   XX=    34.1457   YX=     3.9558   ZX=     0.6684
   XY=     3.6964   YY=    30.2480   ZY=     0.3745
   XZ=     2.3401   YZ=     0.9696   ZZ=    24.6786
   Eigenvalues:    24.4439    27.9158    36.7125
     16  C    Isotropic =   145.6876   Anisotropy =    30.2031
   XX=   164.9643   YX=     2.4542   ZX=    -1.7736
   XY=     3.3293   YY=   151.9976   ZY=    -3.4332
   XZ=    -6.4247   YZ=    10.3595   ZZ=   120.1009
   Eigenvalues:   119.3066   151.9332   165.8230
     17  H    Isotropic =    29.1237   Anisotropy =     8.2719
   XX=    28.8698   YX=     0.1528   ZX=    -3.5202
   XY=     0.6195   YY=    26.1024   ZY=    -0.6477
   XZ=    -3.6205   YZ=     0.1222   ZZ=    32.3990
   Eigenvalues:    26.0241    26.7088    34.6384
     18  H    Isotropic =    29.6555   Anisotropy =    10.7247
   XX=    35.2178   YX=    -3.7657   ZX=    -0.0254
   XY=    -3.2822   YY=    28.9725   ZY=    -0.5223
   XZ=    -0.6954   YZ=    -0.3829   ZZ=    24.7762
   Eigenvalues:    24.6593    27.5019    36.8053
     19  C    Isotropic =   151.8932   Anisotropy =    23.0446
   XX=   164.1374   YX=     1.0555   ZX=    -5.3542
   XY=     0.5945   YY=   164.7388   ZY=     5.2202
   XZ=   -13.5773   YZ=    10.1715   ZZ=   126.8033
   Eigenvalues:   123.1235   165.2997   167.2562
     20  H    Isotropic =    29.6304   Anisotropy =    11.0970
   XX=    34.7502   YX=    -4.1660   ZX=     0.1050
   XY=    -4.0141   YY=    29.5730   ZY=     0.3999
   XZ=    -0.5839   YZ=     1.1026   ZZ=    24.5679
   Eigenvalues:    24.4396    27.4231    37.0283
     21  H    Isotropic =    29.5734   Anisotropy =     7.4552
   XX=    28.1664   YX=     1.1474   ZX=    -2.6284
   XY=     1.5267   YY=    27.5128   ZY=     2.0617
   XZ=    -2.5739   YZ=     2.4816   ZZ=    33.0412
   Eigenvalues:    25.0116    29.1651    34.5436
     22  C    Isotropic =   144.9050   Anisotropy =    27.4673
   XX=   152.0033   YX=   -12.4930   ZX=     0.6628
   XY=     1.9601   YY=   157.8645   ZY=     8.4293
   XZ=     7.8640   YZ=    16.1454   ZZ=   124.8471
   Eigenvalues:   119.7576   151.7409   163.2165
     23  H    Isotropic =    29.2912   Anisotropy =    10.4307
   XX=    34.0467   YX=     3.1296   ZX=    -2.8363
   XY=     3.3727   YY=    28.6791   ZY=    -1.1020
   XZ=    -2.6250   YZ=    -0.0401   ZZ=    25.1478
   Eigenvalues:    24.3430    27.2856    36.2450
     24  H    Isotropic =    29.7273   Anisotropy =     7.6295
   XX=    31.0908   YX=    -0.1248   ZX=     4.2576
   XY=    -0.3209   YY=    27.5449   ZY=     1.2862
   XZ=     3.5970   YZ=     1.0843   ZZ=    30.5462
   Eigenvalues:    26.1252    28.2431    34.8136
     25  C    Isotropic =   156.4052   Anisotropy =    21.7908
   XX=   161.5804   YX=    -0.3682   ZX=     1.1172
   XY=     0.5278   YY=   158.6928   ZY=   -14.3572
   XZ=     7.1919   YZ=   -17.1172   ZZ=   148.9424
   Eigenvalues:   136.8737   161.4095   170.9324
     26  H    Isotropic =    29.6180   Anisotropy =     4.5850
   XX=    27.7169   YX=    -1.4160   ZX=    -2.1001
   XY=     2.3928   YY=    29.3389   ZY=     1.2358
   XZ=    -1.9454   YZ=    -0.0170   ZZ=    31.7982
   Eigenvalues:    26.7052    29.4742    32.6747
     27  H    Isotropic =    30.0130   Anisotropy =    10.4735
   XX=    32.6807   YX=     3.7966   ZX=     1.2106
   XY=     4.7779   YY=    32.5504   ZY=    -1.5727
   XZ=    -0.0871   YZ=    -2.5357   ZZ=    24.8078
   Eigenvalues:    23.9380    29.1056    36.9953
     28  C    Isotropic =   152.9061   Anisotropy =    27.3052
   XX=   158.3397   YX=    -2.8992   ZX=     3.2925
   XY=    -9.9239   YY=   150.8656   ZY=   -15.6320
   XZ=     0.7532   YZ=   -20.4009   ZZ=   149.5130
   Eigenvalues:   131.8099   155.7989   171.1096
     29  H    Isotropic =    29.9995   Anisotropy =    10.0674
   XX=    33.4520   YX=    -3.5129   ZX=    -0.2873
   XY=    -4.0613   YY=    31.1382   ZY=    -3.2431
   XZ=     0.7637   YZ=    -3.4784   ZZ=    25.4084
   Eigenvalues:    23.6344    29.6531    36.7111
     30  H    Isotropic =    29.9913   Anisotropy =     5.7437
   XX=    27.5231   YX=     2.3522   ZX=     2.4700
   XY=     2.2345   YY=    29.4257   ZY=    -0.6898
   XZ=     1.9809   YZ=    -0.5775   ZZ=    33.0253
   Eigenvalues:    25.3518    30.8017    33.8205
     31  C    Isotropic =   159.4809   Anisotropy =    15.5621
   XX=   152.8252   YX=     3.8313   ZX=     4.2416
   XY=     1.1716   YY=   167.9067   ZY=     3.0646
   XZ=     5.5340   YZ=     3.7429   ZZ=   157.7108
   Eigenvalues:   149.7968   158.7903   169.8556
     32  H    Isotropic =    29.7173   Anisotropy =     7.6764
   XX=    30.9837   YX=     3.0136   ZX=    -4.2013
   XY=     1.8270   YY=    29.8956   ZY=     1.0119
   XZ=    -4.1554   YZ=    -1.0270   ZZ=    28.2727
   Eigenvalues:    24.8057    29.5114    34.8349
     33  H    Isotropic =    29.7018   Anisotropy =     9.9528
   XX=    28.7569   YX=    -3.3113   ZX=     2.9081
   XY=    -4.9093   YY=    33.5206   ZY=    -0.0718
   XZ=     3.1627   YZ=    -1.0515   ZZ=    26.8280
   Eigenvalues:    24.0882    28.6803    36.3370
     34  C    Isotropic =   157.4757   Anisotropy =    23.4983
   XX=   153.4314   YX=    -8.6266   ZX=     3.5876
   XY=   -10.1677   YY=   167.2701   ZY=     6.2680
   XZ=    -0.9263   YZ=     5.8932   ZZ=   151.7256
   Eigenvalues:   145.6845   153.6013   173.1412
     35  H    Isotropic =    29.9594   Anisotropy =     5.2277
   XX=    27.4323   YX=    -0.4163   ZX=     1.5748
   XY=     3.3347   YY=    29.3240   ZY=    -1.1610
   XZ=     0.9909   YZ=    -0.3207   ZZ=    33.1218
   Eigenvalues:    26.3170    30.1167    33.4445
     36  H    Isotropic =    29.8090   Anisotropy =    10.0775
   XX=    32.6637   YX=     3.4159   ZX=    -0.0698
   XY=     4.2522   YY=    32.6053   ZY=     0.6992
   XZ=     0.4313   YZ=     1.3502   ZZ=    24.1579
   Eigenvalues:    24.0245    28.8751    36.5273
     37  C    Isotropic =   169.4272   Anisotropy =    22.6904
   XX=   175.1759   YX=   -13.0320   ZX=     1.9654
   XY=    -9.5222   YY=   169.9354   ZY=    -2.4206
   XZ=    -0.6454   YZ=    -5.4952   ZZ=   163.1702
   Eigenvalues:   159.0558   164.6717   184.5541
     38  H    Isotropic =    30.9834   Anisotropy =    11.4546
   XX=    27.9102   YX=    -1.5359   ZX=     0.7020
   XY=     0.1973   YY=    34.9694   ZY=    -5.2656
   XZ=    -0.0747   YZ=    -5.7978   ZZ=    30.0707
   Eigenvalues:    26.4629    27.8676    38.6198
     39  H    Isotropic =    31.5207   Anisotropy =    10.0314
   XX=    34.1435   YX=     2.7527   ZX=     1.3138
   XY=     3.3879   YY=    35.3832   ZY=     3.3802
   XZ=     1.0914   YZ=    -0.1037   ZZ=    25.0355
   Eigenvalues:    24.7212    31.6327    38.2083
     40  H    Isotropic =    31.0281   Anisotropy =     8.1862
   XX=    30.4065   YX=    -2.1855   ZX=    -3.0626
   XY=    -1.5541   YY=    33.0906   ZY=     4.3336
   XZ=    -1.8516   YZ=     2.3163   ZZ=    29.5873
   Eigenvalues:    27.0310    29.5677    36.4856
     41  C    Isotropic =   169.0270   Anisotropy =    20.5504
   XX=   172.7451   YX=    12.6156   ZX=    -0.7949
   XY=    10.4882   YY=   168.8553   ZY=    -4.2501
   XZ=     1.8452   YZ=    -2.8538   ZZ=   165.4806
   Eigenvalues:   157.8431   166.5106   182.7272
     42  H    Isotropic =    29.7406   Anisotropy =     7.5376
   XX=    34.3092   YX=    -1.9943   ZX=    -0.7007
   XY=    -1.3068   YY=    28.5233   ZY=    -2.6762
   XZ=    -1.1425   YZ=    -1.3136   ZZ=    26.3894
   Eigenvalues:    24.9028    29.5534    34.7657
     43  H    Isotropic =    30.4120   Anisotropy =    11.3287
   XX=    27.8511   YX=     1.2164   ZX=     0.1320
   XY=     0.4575   YY=    31.7659   ZY=    -6.5672
   XZ=     0.5403   YZ=    -5.9503   ZZ=    31.6190
   Eigenvalues:    25.1763    28.0952    37.9645
     44  H    Isotropic =    30.9745   Anisotropy =     6.4410
   XX=    30.0694   YX=     2.2465   ZX=     2.7170
   XY=     1.2233   YY=    33.3876   ZY=     1.3931
   XZ=     1.7437   YZ=     2.1418   ZZ=    29.4666
   Eigenvalues:    27.5095    30.1456    35.2686
     45  C    Isotropic =   176.4391   Anisotropy =    15.1038
   XX=   171.9030   YX=    -0.6237   ZX=     3.6558
   XY=    -0.4353   YY=   173.1420   ZY=     3.2711
   XZ=     4.6821   YZ=     4.5042   ZZ=   184.2723
   Eigenvalues:   169.6338   173.1752   186.5083
     46  H    Isotropic =    30.5233   Anisotropy =     8.4054
   XX=    30.1187   YX=     1.6643   ZX=    -3.3622
   XY=     1.6647   YY=    27.6585   ZY=     2.1109
   XZ=    -4.0557   YZ=     1.1392   ZZ=    33.7927
   Eigenvalues:    25.4527    29.9903    36.1269
     47  H    Isotropic =    29.8411   Anisotropy =     7.4934
   XX=    32.5142   YX=    -3.4616   ZX=     2.2332
   XY=    -3.2416   YY=    28.0833   ZY=     2.1613
   XZ=     3.0087   YZ=     0.6451   ZZ=    28.9258
   Eigenvalues:    24.7182    29.9684    34.8367
     48  H    Isotropic =    30.6050   Anisotropy =    11.1381
   XX=    27.2437   YX=     1.6999   ZX=     0.6211
   XY=     1.3716   YY=    35.0564   ZY=     4.5082
   XZ=     0.9538   YZ=     4.9226   ZZ=    29.5150
   Eigenvalues:    26.7833    27.0014    38.0304
     49  C    Isotropic =   168.4534   Anisotropy =    22.8026
   XX=   174.7329   YX=   -12.8542   ZX=     3.4218
   XY=    -8.2385   YY=   169.3464   ZY=    -1.0553
   XZ=     5.1025   YZ=    -1.1126   ZZ=   161.2810
   Eigenvalues:   159.0967   162.6084   183.6551
     50  H    Isotropic =    30.7797   Anisotropy =     7.8458
   XX=    29.8009   YX=    -1.0677   ZX=     2.7463
   XY=    -0.5055   YY=    30.8267   ZY=    -4.7332
   XZ=     1.7163   YZ=    -3.1342   ZZ=    31.7115
   Eigenvalues:    26.9533    29.3756    36.0102
     51  H    Isotropic =    31.1214   Anisotropy =     8.7493
   XX=    35.2633   YX=     2.2394   ZX=    -0.0947
   XY=     2.4782   YY=    33.1701   ZY=    -4.1720
   XZ=     0.1901   YZ=    -0.8338   ZZ=    24.9307
   Eigenvalues:    24.1859    32.2239    36.9542
     52  H    Isotropic =    30.8251   Anisotropy =    10.9778
   XX=    28.3919   YX=    -2.4420   ZX=    -0.2127
   XY=    -0.8444   YY=    36.7328   ZY=     3.3832
   XZ=     0.2610   YZ=     3.6216   ZZ=    27.3506
   Eigenvalues:    26.0505    28.2811    38.1436
     53  C    Isotropic =    43.5743   Anisotropy =   179.6872
   XX=   -68.2633   YX=     4.7736   ZX=     2.6137
   XY=     3.1725   YY=   163.0891   ZY=    -3.4044
   XZ=     3.2091   YZ=    -7.0044   ZZ=    35.8971
   Eigenvalues:   -68.4179    35.7750   163.3658
     54  H    Isotropic =    23.3329   Anisotropy =    10.8081
   XX=    20.3038   YX=     0.0443   ZX=     1.1620
   XY=    -0.1593   YY=    19.3355   ZY=     1.2697
   XZ=     0.5910   YZ=     0.8976   ZZ=    30.3594
   Eigenvalues:    19.2103    20.2501    30.5383
     55  C    Isotropic =    51.4018   Anisotropy =   184.4857
   XX=    11.5173   YX=     2.9520   ZX=    42.7713
   XY=     1.7041   YY=   173.6136   ZY=   -14.1080
   XZ=    45.0042   YZ=   -11.1648   ZZ=   -30.9255
   Eigenvalues:   -59.0668    38.8799   174.3923
     56  H    Isotropic =    23.8527   Anisotropy =     5.4971
   XX=    25.5870   YX=     0.2817   ZX=     1.8496
   XY=     0.2243   YY=    20.1988   ZY=     0.6078
   XZ=     1.7287   YZ=     0.5153   ZZ=    25.7722
   Eigenvalues:    20.1417    23.8989    27.5174
     57  C    Isotropic =    51.8375   Anisotropy =   184.2074
   XX=    15.4445   YX=    -2.3159   ZX=   -40.7597
   XY=    -5.7785   YY=   173.8066   ZY=   -14.6425
   XZ=   -42.1851   YZ=   -11.5324   ZZ=   -33.7388
   Eigenvalues:   -58.1339    39.0039   174.6424
     58  H    Isotropic =    23.8457   Anisotropy =     5.3076
   XX=    25.7467   YX=     0.1255   ZX=    -1.7673
   XY=    -0.1405   YY=    20.1443   ZY=    -0.1658
   XZ=    -1.6065   YZ=     0.2117   ZZ=    25.6462
   Eigenvalues:    20.1442    24.0088    27.3841
     59  C    Isotropic =    43.1730   Anisotropy =   183.1737
   XX=   -69.1043   YX=     5.5068   ZX=    -5.8462
   XY=     4.1673   YY=   164.9209   ZY=    -2.0245
   XZ=    -6.9953   YZ=    -9.5812   ZZ=    33.7023
   Eigenvalues:   -69.5890    33.8191   165.2888
     60  H    Isotropic =    23.3742   Anisotropy =    10.3743
   XX=    20.1979   YX=     0.2605   ZX=    -1.0830
   XY=     0.2637   YY=    19.7053   ZY=    -0.8928
   XZ=    -0.3640   YZ=     0.0288   ZZ=    30.2193
   Eigenvalues:    19.5907    20.2415    30.2904
 End of Minotr F.D. properties file   721 does not exist.
 End of Minotr F.D. properties file   722 does not exist.
 End of Minotr F.D. properties file   788 does not exist.

 **********************************************************************

            Population analysis using the SCF density.

 **********************************************************************

 Orbital symmetries:
       Occupied  (A) (A) (A) (A) (A) (A) (A) (A) (A) (A) (A) (A)
                 (A) (A) (A) (A) (A) (A) (A) (A) (A) (A) (A) (A)
                 (A) (A) (A) (A) (A) (A) (A) (A) (A) (A) (A) (A)
                 (A) (A) (A) (A) (A) (A) (A) (A) (A) (A) (A) (A)
                 (A) (A) (A) (A) (A) (A) (A) (A) (A) (A) (A) (A)
                 (A) (A) (A) (A) (A) (A) (A) (A) (A) (A) (A) (A)
                 (A) (A) (A) (A) (A) (A) (A) (A) (A) (A) (A) (A)
                 (A) (A) (A) (A) (A) (A) (A) (A) (A) (A) (A) (A)
                 (A) (A) (A)
       Virtual   (A) (A) (A) (A) (A) (A) (A) (A) (A) (A) (A) (A)
                 (A) (A) (A) (A) (A) (A) (A) (A) (A) (A) (A) (A)
                 (A) (A) (A) (A) (A) (A) (A) (A) (A) (A) (A) (A)
                 (A) (A) (A) (A) (A) (A) (A) (A) (A) (A) (A) (A)
                 (A) (A) (A) (A) (A) (A) (A) (A) (A) (A) (A) (A)
                 (A) (A) (A) (A) (A) (A) (A) (A) (A) (A) (A) (A)
                 (A) (A) (A) (A) (A) (A) (A) (A) (A) (A) (A) (A)
                 (A) (A) (A) (A) (A) (A) (A) (A) (A) (A) (A) (A)
                 (A) (A) (A) (A) (A) (A) (A) (A) (A) (A) (A) (A)
                 (A) (A) (A) (A) (A) (A) (A) (A) (A) (A) (A) (A)
                 (A) (A) (A) (A) (A) (A) (A) (A) (A) (A) (A) (A)
                 (A) (A) (A) (A) (A) (A) (A) (A) (A) (A) (A) (A)
                 (A) (A) (A) (A) (A) (A) (A) (A) (A) (A) (A) (A)
                 (A) (A) (A) (A) (A) (A) (A) (A) (A) (A) (A) (A)
                 (A) (A) (A) (A) (A) (A) (A) (A) (A) (A) (A) (A)
                 (A) (A) (A) (A) (A) (A) (A) (A) (A) (A) (A) (A)
                 (A) (A) (A) (A) (A) (A) (A) (A) (A) (A) (A) (A)
                 (A) (A) (A) (A) (A) (A) (A) (A) (A) (A) (A) (A)
                 (A) (A) (A) (A) (A) (A) (A) (A) (A) (A) (A) (A)
                 (A) (A) (A) (A) (A) (A) (A) (A) (A) (A) (A) (A)
                 (A) (A) (A) (A) (A) (A) (A) (A) (A) (A) (A) (A)
                 (A) (A) (A) (A) (A) (A) (A) (A) (A) (A) (A) (A)
                 (A) (A) (A) (A) (A) (A) (A) (A) (A) (A) (A) (A)
                 (A) (A) (A) (A) (A) (A) (A) (A) (A) (A) (A) (A)
                 (A) (A) (A) (A) (A) (A) (A) (A) (A) (A) (A) (A)
                 (A) (A) (A) (A) (A) (A) (A) (A) (A) (A) (A) (A)
                 (A) (A) (A) (A) (A) (A) (A) (A) (A) (A) (A) (A)
                 (A) (A) (A) (A) (A) (A) (A) (A) (A) (A) (A) (A)
                 (A) (A) (A) (A) (A) (A) (A) (A) (A) (A) (A) (A)
                 (A) (A) (A) (A) (A) (A) (A) (A) (A) (A) (A) (A)
                 (A) (A) (A) (A) (A) (A) (A) (A) (A) (A) (A) (A)
                 (A) (A) (A) (A) (A) (A) (A) (A) (A) (A) (A) (A)
                 (A) (A) (A) (A) (A) (A) (A) (A) (A) (A) (A) (A)
                 (A) (A) (A) (A) (A) (A) (A) (A) (A) (A) (A) (A)
                 (A) (A) (A) (A) (A) (A) (A) (A) (A) (A) (A) (A)
                 (A) (A) (A) (A) (A) (A) (A) (A) (A) (A) (A) (A)
                 (A) (A) (A) (A) (A) (A) (A) (A) (A) (A) (A) (A)
                 (A) (A) (A) (A) (A) (A) (A) (A) (A) (A) (A) (A)
                 (A) (A) (A) (A) (A) (A) (A) (A) (A) (A) (A) (A)
                 (A) (A) (A) (A) (A) (A) (A) (A) (A) (A) (A) (A)
                 (A) (A) (A) (A) (A) (A) (A) (A) (A) (A) (A) (A)
                 (A) (A) (A) (A) (A) (A) (A) (A) (A) (A) (A) (A)
                 (A) (A) (A) (A) (A) (A) (A) (A) (A) (A) (A) (A)
                 (A) (A) (A) (A) (A) (A) (A) (A) (A) (A) (A) (A)
                 (A) (A) (A) (A) (A) (A) (A) (A) (A) (A) (A) (A)
                 (A) (A) (A) (A) (A) (A) (A) (A) (A) (A) (A) (A)
                 (A) (A) (A) (A) (A) (A) (A) (A) (A) (A) (A) (A)
                 (A) (A) (A) (A) (A) (A) (A) (A) (A) (A) (A) (A)
                 (A) (A) (A) (A) (A) (A) (A) (A) (A) (A) (A) (A)
                 (A) (A) (A) (A) (A) (A) (A) (A) (A) (A) (A) (A)
                 (A) (A) (A) (A) (A) (A) (A) (A) (A) (A) (A) (A)
                 (A) (A) (A) (A) (A) (A) (A) (A) (A) (A) (A) (A)
                 (A) (A) (A) (A) (A) (A) (A) (A) (A) (A) (A) (A)
                 (A) (A) (A) (A) (A) (A) (A) (A) (A) (A) (A) (A)
                 (A) (A) (A) (A) (A) (A) (A) (A) (A) (A) (A) (A)
                 (A) (A) (A) (A) (A) (A) (A) (A) (A) (A) (A) (A)
                 (A) (A) (A) (A) (A) (A) (A) (A) (A) (A) (A) (A)
                 (A) (A) (A) (A) (A) (A) (A) (A) (A) (A) (A) (A)
                 (A) (A) (A) (A) (A) (A) (A) (A) (A) (A) (A) (A)
                 (A) (A) (A) (A) (A) (A) (A) (A) (A) (A) (A) (A)
                 (A) (A) (A) (A) (A) (A) (A) (A) (A) (A) (A) (A)
                 (A) (A) (A) (A) (A) (A) (A) (A) (A) (A) (A) (A)
                 (A) (A) (A) (A) (A) (A) (A) (A) (A) (A) (A) (A)
                 (A) (A) (A) (A) (A) (A) (A) (A) (A) (A) (A) (A)
                 (A) (A) (A) (A) (A) (A) (A) (A) (A) (A) (A) (A)
                 (A) (A) (A) (A) (A) (A) (A) (A) (A) (A) (A) (A)
                 (A) (A) (A) (A) (A) (A) (A) (A) (A) (A) (A) (A)
                 (A) (A) (A) (A) (A) (A) (A) (A) (A) (A) (A) (A)
                 (A) (A) (A) (A) (A) (A) (A) (A) (A) (A) (A) (A)
                 (A) (A) (A) (A) (A) (A) (A) (A) (A) (A) (A) (A)
                 (A) (A) (A) (A) (A) (A) (A) (A) (A) (A) (A) (A)
                 (A) (A) (A) (A) (A) (A) (A) (A) (A) (A) (A) (A)
                 (A) (A) (A) (A) (A) (A) (A) (A) (A)
 The electronic state is 1-A.
 Alpha  occ. eigenvalues --  -77.17549 -77.17294 -10.24285 -10.24086 -10.23904
 Alpha  occ. eigenvalues --  -10.23861 -10.23816 -10.23786 -10.22841 -10.22709
 Alpha  occ. eigenvalues --  -10.22501 -10.22438 -10.22199 -10.22146 -10.22098
 Alpha  occ. eigenvalues --  -10.22086 -10.22061 -10.22009 -10.21740 -10.21599
 Alpha  occ. eigenvalues --  -10.20756 -10.20587 -10.20250 -10.20212  -6.57238
 Alpha  occ. eigenvalues --   -6.57019  -4.70835  -4.70797  -4.70623  -4.70566
 Alpha  occ. eigenvalues --   -4.70345  -4.70123  -0.88449  -0.84976  -0.84850
 Alpha  occ. eigenvalues --   -0.80286  -0.80197  -0.77801  -0.77446  -0.76918
 Alpha  occ. eigenvalues --   -0.76761  -0.71140  -0.70834  -0.68478  -0.67805
 Alpha  occ. eigenvalues --   -0.64009  -0.63763  -0.62223  -0.61655  -0.61405
 Alpha  occ. eigenvalues --   -0.60207  -0.57139  -0.56090  -0.54930  -0.52427
 Alpha  occ. eigenvalues --   -0.50259  -0.48399  -0.47981  -0.47776  -0.47156
 Alpha  occ. eigenvalues --   -0.46281  -0.45847  -0.45598  -0.45059  -0.44555
 Alpha  occ. eigenvalues --   -0.44061  -0.43091  -0.42603  -0.42352  -0.41685
 Alpha  occ. eigenvalues --   -0.40913  -0.40786  -0.39879  -0.39104  -0.38787
 Alpha  occ. eigenvalues --   -0.38479  -0.37428  -0.36789  -0.36618  -0.36287
 Alpha  occ. eigenvalues --   -0.35694  -0.35412  -0.35257  -0.34985  -0.34582
 Alpha  occ. eigenvalues --   -0.33393  -0.33276  -0.33136  -0.32768  -0.32343
 Alpha  occ. eigenvalues --   -0.31960  -0.31621  -0.31074  -0.30611  -0.29815
 Alpha  occ. eigenvalues --   -0.26772  -0.25972  -0.23567  -0.17271
 Alpha virt. eigenvalues --   -0.03023  -0.02989   0.03562   0.03708   0.04113
 Alpha virt. eigenvalues --    0.04642   0.04801   0.05471   0.05748   0.07017
 Alpha virt. eigenvalues --    0.07245   0.07438   0.07642   0.08392   0.08496
 Alpha virt. eigenvalues --    0.08781   0.09260   0.09664   0.09872   0.10295
 Alpha virt. eigenvalues --    0.10404   0.10592   0.11181   0.11320   0.11771
 Alpha virt. eigenvalues --    0.12675   0.12701   0.12783   0.13195   0.13784
 Alpha virt. eigenvalues --    0.13960   0.14069   0.14702   0.14979   0.15307
 Alpha virt. eigenvalues --    0.15816   0.16050   0.16075   0.16566   0.16817
 Alpha virt. eigenvalues --    0.17246   0.17382   0.17603   0.17941   0.18282
 Alpha virt. eigenvalues --    0.18892   0.19152   0.19417   0.19491   0.19729
 Alpha virt. eigenvalues --    0.20319   0.20464   0.21149   0.21854   0.22106
 Alpha virt. eigenvalues --    0.22450   0.22743   0.22890   0.23052   0.23775
 Alpha virt. eigenvalues --    0.24071   0.24279   0.24628   0.25211   0.25455
 Alpha virt. eigenvalues --    0.25722   0.25912   0.26144   0.26541   0.26997
 Alpha virt. eigenvalues --    0.27353   0.27582   0.27712   0.28146   0.28779
 Alpha virt. eigenvalues --    0.29529   0.29877   0.30091   0.30537   0.30670
 Alpha virt. eigenvalues --    0.31364   0.31760   0.32226   0.32634   0.32903
 Alpha virt. eigenvalues --    0.33082   0.33781   0.34432   0.35294   0.35469
 Alpha virt. eigenvalues --    0.35499   0.36194   0.36573   0.36846   0.37721
 Alpha virt. eigenvalues --    0.37973   0.38511   0.38662   0.39533   0.40179
 Alpha virt. eigenvalues --    0.40505   0.40884   0.41329   0.41640   0.41794
 Alpha virt. eigenvalues --    0.42001   0.42115   0.42514   0.42760   0.43179
 Alpha virt. eigenvalues --    0.43244   0.43361   0.43639   0.44110   0.44378
 Alpha virt. eigenvalues --    0.44427   0.44719   0.44775   0.44867   0.45357
 Alpha virt. eigenvalues --    0.45772   0.46010   0.46060   0.46485   0.46711
 Alpha virt. eigenvalues --    0.46907   0.47105   0.47450   0.48009   0.48121
 Alpha virt. eigenvalues --    0.48246   0.48332   0.48643   0.48692   0.49052
 Alpha virt. eigenvalues --    0.49342   0.49622   0.49893   0.50115   0.50224
 Alpha virt. eigenvalues --    0.50376   0.51003   0.51216   0.51645   0.51837
 Alpha virt. eigenvalues --    0.52168   0.52537   0.52870   0.53063   0.53422
 Alpha virt. eigenvalues --    0.53763   0.53972   0.54323   0.54695   0.54733
 Alpha virt. eigenvalues --    0.55151   0.55627   0.55792   0.56254   0.56471
 Alpha virt. eigenvalues --    0.57122   0.57727   0.57932   0.59108   0.59924
 Alpha virt. eigenvalues --    0.60180   0.60803   0.61095   0.61435   0.62283
 Alpha virt. eigenvalues --    0.62876   0.63693   0.64129   0.64396   0.64822
 Alpha virt. eigenvalues --    0.64958   0.65719   0.65943   0.66215   0.67138
 Alpha virt. eigenvalues --    0.67453   0.68255   0.68807   0.69785   0.70516
 Alpha virt. eigenvalues --    0.70794   0.71344   0.72056   0.72780   0.73113
 Alpha virt. eigenvalues --    0.73946   0.74128   0.74369   0.75111   0.75972
 Alpha virt. eigenvalues --    0.76851   0.76941   0.78351   0.78696   0.79535
 Alpha virt. eigenvalues --    0.80241   0.80616   0.80924   0.81906   0.82143
 Alpha virt. eigenvalues --    0.82758   0.83208   0.84056   0.84634   0.85076
 Alpha virt. eigenvalues --    0.85937   0.86321   0.86586   0.87010   0.87252
 Alpha virt. eigenvalues --    0.88205   0.88534   0.88845   0.89640   0.90230
 Alpha virt. eigenvalues --    0.90694   0.90760   0.91076   0.92044   0.92716
 Alpha virt. eigenvalues --    0.93226   0.93403   0.93665   0.94244   0.94661
 Alpha virt. eigenvalues --    0.95125   0.95281   0.96334   0.96642   0.97631
 Alpha virt. eigenvalues --    0.98327   0.98691   0.98856   0.99888   1.00271
 Alpha virt. eigenvalues --    1.01573   1.01951   1.02397   1.02835   1.03820
 Alpha virt. eigenvalues --    1.04345   1.04999   1.05200   1.05782   1.06669
 Alpha virt. eigenvalues --    1.07380   1.07942   1.08217   1.08810   1.09924
 Alpha virt. eigenvalues --    1.10158   1.10818   1.11521   1.11988   1.12949
 Alpha virt. eigenvalues --    1.13341   1.13943   1.14272   1.15203   1.15737
 Alpha virt. eigenvalues --    1.15797   1.16518   1.17079   1.18126   1.18735
 Alpha virt. eigenvalues --    1.19398   1.19816   1.20027   1.20088   1.20856
 Alpha virt. eigenvalues --    1.21420   1.21606   1.21991   1.22475   1.22851
 Alpha virt. eigenvalues --    1.23412   1.24257   1.24798   1.25123   1.25752
 Alpha virt. eigenvalues --    1.26184   1.26633   1.27022   1.27701   1.28284
 Alpha virt. eigenvalues --    1.28749   1.29394   1.29618   1.30402   1.31034
 Alpha virt. eigenvalues --    1.31594   1.32294   1.32641   1.33917   1.34451
 Alpha virt. eigenvalues --    1.35134   1.35579   1.36515   1.38300   1.39251
 Alpha virt. eigenvalues --    1.39688   1.40122   1.40713   1.42093   1.42371
 Alpha virt. eigenvalues --    1.43201   1.45368   1.45914   1.47157   1.47783
 Alpha virt. eigenvalues --    1.48725   1.50104   1.50474   1.50790   1.51610
 Alpha virt. eigenvalues --    1.51852   1.52783   1.53036   1.53615   1.54006
 Alpha virt. eigenvalues --    1.54858   1.55832   1.56435   1.56687   1.57031
 Alpha virt. eigenvalues --    1.57845   1.58263   1.58375   1.58874   1.59187
 Alpha virt. eigenvalues --    1.59701   1.59911   1.60225   1.60837   1.60929
 Alpha virt. eigenvalues --    1.61353   1.62202   1.62364   1.62604   1.63208
 Alpha virt. eigenvalues --    1.63243   1.63618   1.64193   1.64372   1.64431
 Alpha virt. eigenvalues --    1.65416   1.65747   1.65958   1.66192   1.66924
 Alpha virt. eigenvalues --    1.67244   1.67317   1.67526   1.68365   1.68960
 Alpha virt. eigenvalues --    1.69146   1.69517   1.70057   1.70148   1.70781
 Alpha virt. eigenvalues --    1.70993   1.71628   1.72437   1.72661   1.73505
 Alpha virt. eigenvalues --    1.74346   1.74785   1.75038   1.76313   1.76749
 Alpha virt. eigenvalues --    1.77555   1.77900   1.78648   1.79545   1.79790
 Alpha virt. eigenvalues --    1.80005   1.80295   1.80902   1.81461   1.82910
 Alpha virt. eigenvalues --    1.83056   1.83445   1.83929   1.84617   1.84828
 Alpha virt. eigenvalues --    1.85000   1.85980   1.87032   1.87352   1.87660
 Alpha virt. eigenvalues --    1.88171   1.88778   1.89282   1.90092   1.90609
 Alpha virt. eigenvalues --    1.91278   1.91930   1.92198   1.93460   1.93855
 Alpha virt. eigenvalues --    1.95037   1.95751   1.95922   1.96267   1.97295
 Alpha virt. eigenvalues --    1.98172   1.98719   1.99372   2.00887   2.01674
 Alpha virt. eigenvalues --    2.02451   2.02680   2.02983   2.03816   2.04110
 Alpha virt. eigenvalues --    2.04717   2.05040   2.05544   2.06327   2.06608
 Alpha virt. eigenvalues --    2.07520   2.08142   2.08859   2.09495   2.10252
 Alpha virt. eigenvalues --    2.10639   2.11158   2.12530   2.13458   2.13998
 Alpha virt. eigenvalues --    2.14815   2.16120   2.16496   2.16992   2.17798
 Alpha virt. eigenvalues --    2.18548   2.18893   2.19725   2.20134   2.21167
 Alpha virt. eigenvalues --    2.22072   2.23265   2.23797   2.24252   2.25188
 Alpha virt. eigenvalues --    2.26094   2.27152   2.27840   2.28329   2.29287
 Alpha virt. eigenvalues --    2.29738   2.31203   2.31753   2.32265   2.32741
 Alpha virt. eigenvalues --    2.33520   2.34598   2.35422   2.35706   2.36027
 Alpha virt. eigenvalues --    2.37017   2.37435   2.37622   2.38216   2.38943
 Alpha virt. eigenvalues --    2.38972   2.39162   2.40412   2.40781   2.41303
 Alpha virt. eigenvalues --    2.41682   2.41949   2.42971   2.43486   2.44322
 Alpha virt. eigenvalues --    2.45536   2.45757   2.45966   2.46314   2.46970
 Alpha virt. eigenvalues --    2.47354   2.48005   2.48672   2.49157   2.49480
 Alpha virt. eigenvalues --    2.50190   2.50249   2.51315   2.51594   2.52113
 Alpha virt. eigenvalues --    2.52960   2.53753   2.54163   2.54241   2.54662
 Alpha virt. eigenvalues --    2.55440   2.56007   2.56576   2.56649   2.57614
 Alpha virt. eigenvalues --    2.58768   2.59018   2.59732   2.59823   2.60172
 Alpha virt. eigenvalues --    2.60479   2.61319   2.61512   2.61804   2.62280
 Alpha virt. eigenvalues --    2.62477   2.63073   2.63250   2.64039   2.64528
 Alpha virt. eigenvalues --    2.64882   2.65072   2.65455   2.65864   2.66166
 Alpha virt. eigenvalues --    2.66793   2.67108   2.67632   2.68245   2.68545
 Alpha virt. eigenvalues --    2.69060   2.69425   2.69552   2.70043   2.70495
 Alpha virt. eigenvalues --    2.70956   2.71003   2.71580   2.72147   2.72361
 Alpha virt. eigenvalues --    2.73443   2.73682   2.74174   2.74595   2.75471
 Alpha virt. eigenvalues --    2.75593   2.76130   2.76492   2.77105   2.77404
 Alpha virt. eigenvalues --    2.77694   2.78045   2.78402   2.79107   2.79636
 Alpha virt. eigenvalues --    2.80515   2.81417   2.81986   2.82482   2.83596
 Alpha virt. eigenvalues --    2.84338   2.84881   2.85134   2.86140   2.87034
 Alpha virt. eigenvalues --    2.87798   2.88855   2.89101   2.90025   2.90362
 Alpha virt. eigenvalues --    2.90864   2.91331   2.92129   2.93075   2.93915
 Alpha virt. eigenvalues --    2.95264   2.95799   2.96163   2.96805   2.97020
 Alpha virt. eigenvalues --    2.97505   2.98659   2.98844   2.99936   3.01154
 Alpha virt. eigenvalues --    3.01420   3.02681   3.03328   3.03464   3.04881
 Alpha virt. eigenvalues --    3.05512   3.07690   3.08004   3.08615   3.09527
 Alpha virt. eigenvalues --    3.09862   3.10576   3.10853   3.11956   3.12361
 Alpha virt. eigenvalues --    3.12614   3.13613   3.15068   3.15292   3.16144
 Alpha virt. eigenvalues --    3.16641   3.16860   3.17234   3.17551   3.18327
 Alpha virt. eigenvalues --    3.18398   3.19151   3.19194   3.19739   3.20102
 Alpha virt. eigenvalues --    3.20589   3.21018   3.21256   3.22084   3.22623
 Alpha virt. eigenvalues --    3.24003   3.24314   3.24900   3.25848   3.26056
 Alpha virt. eigenvalues --    3.26513   3.27022   3.27495   3.27772   3.27858
 Alpha virt. eigenvalues --    3.28625   3.29233   3.29311   3.30434   3.30755
 Alpha virt. eigenvalues --    3.30935   3.31466   3.32086   3.32508   3.33227
 Alpha virt. eigenvalues --    3.33552   3.34272   3.34805   3.35482   3.36199
 Alpha virt. eigenvalues --    3.36450   3.36951   3.37137   3.37814   3.38203
 Alpha virt. eigenvalues --    3.38764   3.39370   3.39766   3.40351   3.40779
 Alpha virt. eigenvalues --    3.41080   3.41731   3.42170   3.42644   3.42767
 Alpha virt. eigenvalues --    3.43253   3.43567   3.44336   3.44918   3.45203
 Alpha virt. eigenvalues --    3.45848   3.46375   3.46635   3.47197   3.47482
 Alpha virt. eigenvalues --    3.48502   3.49015   3.49669   3.50010   3.50310
 Alpha virt. eigenvalues --    3.51443   3.51732   3.52165   3.52372   3.53056
 Alpha virt. eigenvalues --    3.53730   3.54158   3.54952   3.55736   3.56202
 Alpha virt. eigenvalues --    3.56964   3.57465   3.57683   3.58028   3.58388
 Alpha virt. eigenvalues --    3.59149   3.59761   3.60172   3.60273   3.61001
 Alpha virt. eigenvalues --    3.62047   3.62807   3.63321   3.63741   3.64163
 Alpha virt. eigenvalues --    3.65277   3.65449   3.65814   3.66468   3.67059
 Alpha virt. eigenvalues --    3.67406   3.69489   3.69565   3.70168   3.72189
 Alpha virt. eigenvalues --    3.72419   3.72881   3.73659   3.74984   3.75427
 Alpha virt. eigenvalues --    3.76146   3.76677   3.77417   3.78419   3.79138
 Alpha virt. eigenvalues --    3.79878   3.80655   3.81634   3.81919   3.84035
 Alpha virt. eigenvalues --    3.84386   3.84730   3.86098   3.86528   3.90153
 Alpha virt. eigenvalues --    3.91059   3.91695   3.92583   3.92879   3.94171
 Alpha virt. eigenvalues --    3.95325   3.95495   3.95836   3.96286   3.96986
 Alpha virt. eigenvalues --    3.97852   3.98494   3.99131   3.99977   4.00197
 Alpha virt. eigenvalues --    4.01705   4.02209   4.03305   4.04327   4.05224
 Alpha virt. eigenvalues --    4.05590   4.06604   4.08283   4.08916   4.09534
 Alpha virt. eigenvalues --    4.11418   4.12147   4.12959   4.14461   4.15592
 Alpha virt. eigenvalues --    4.16885   4.17114   4.17662   4.17748   4.19038
 Alpha virt. eigenvalues --    4.19706   4.20057   4.20646   4.22303   4.22518
 Alpha virt. eigenvalues --    4.22784   4.23541   4.24434   4.25025   4.26388
 Alpha virt. eigenvalues --    4.27596   4.29116   4.29687   4.30553   4.31852
 Alpha virt. eigenvalues --    4.32025   4.33612   4.35679   4.36114   4.37422
 Alpha virt. eigenvalues --    4.38641   4.40314   4.41131   4.41751   4.42725
 Alpha virt. eigenvalues --    4.42915   4.43998   4.45057   4.45787   4.46002
 Alpha virt. eigenvalues --    4.47648   4.49011   4.53371   4.55874   4.57057
 Alpha virt. eigenvalues --    4.57896   4.58021   4.59544   4.60849   4.62061
 Alpha virt. eigenvalues --    4.62913   4.63103   4.63672   4.64563   4.64904
 Alpha virt. eigenvalues --    4.65588   4.66453   4.68708   4.69316   4.70584
 Alpha virt. eigenvalues --    4.71422   4.72274   4.76252   4.77234   4.78671
 Alpha virt. eigenvalues --    4.79907   4.84538   4.85701   4.86045   4.86766
 Alpha virt. eigenvalues --    4.88902   4.93370   4.94740   4.99372   5.01258
 Alpha virt. eigenvalues --    5.03220   5.04196   5.05828   5.10869   5.11965
 Alpha virt. eigenvalues --    5.13775   5.16464   5.16645   5.19426   5.23409
 Alpha virt. eigenvalues --    5.39257   5.47096   5.56690   7.77148   7.85975
 Alpha virt. eigenvalues --    7.88715   7.94858   7.98865   8.13178  15.51974
 Alpha virt. eigenvalues --   15.80117  22.22770  22.39357  22.40479  22.42591
 Alpha virt. eigenvalues --   22.43044  22.49973  22.52371  22.56004  22.56782
 Alpha virt. eigenvalues --   22.57319  22.58912  22.60574  22.61831  22.64513
 Alpha virt. eigenvalues --   22.68520  22.69338  22.70967  22.72431  22.78154
 Alpha virt. eigenvalues --   22.81481  22.94878  23.25245
          Condensed to atoms (all electrons):
 Mulliken charges:
               1
     1  P   -0.013471
     2  P   -0.007777
     3  C   -0.032511
     4  C    0.040441
     5  C   -0.089643
     6  H    0.098558
     7  C   -0.109245
     8  H    0.103769
     9  C   -0.080786
    10  H    0.080161
    11  C   -0.112632
    12  H    0.093284
    13  C   -0.176295
    14  H    0.118962
    15  H    0.101569
    16  C   -0.191455
    17  H    0.110296
    18  H    0.095318
    19  C   -0.185261
    20  H    0.106374
    21  H    0.105784
    22  C   -0.171195
    23  H    0.104157
    24  H    0.089820
    25  C   -0.163825
    26  H    0.092825
    27  H    0.094717
    28  C   -0.163841
    29  H    0.095016
    30  H    0.094854
    31  C   -0.163227
    32  H    0.114217
    33  H    0.094198
    34  C   -0.127867
    35  H    0.091181
    36  H    0.095895
    37  C   -0.393473
    38  H    0.121758
    39  H    0.134652
    40  H    0.120053
    41  C   -0.406921
    42  H    0.147424
    43  H    0.123696
    44  H    0.114264
    45  C   -0.412329
    46  H    0.115260
    47  H    0.143880
    48  H    0.121545
    49  C   -0.395139
    50  H    0.120253
    51  H    0.136221
    52  H    0.121308
    53  C   -0.144456
    54  H    0.124123
    55  C   -0.154474
    56  H    0.117533
    57  C   -0.118309
    58  H    0.117836
    59  C   -0.224474
    60  H    0.137405
 Sum of Mulliken charges =  -0.00000
 Mulliken charges with hydrogens summed into heavy atoms:
               1
     1  P   -0.013471
     2  P   -0.007777
     3  C   -0.032511
     4  C    0.040441
     5  C    0.008915
     7  C   -0.005476
     9  C   -0.000626
    11  C   -0.019348
    13  C    0.044236
    16  C    0.014159
    19  C    0.026898
    22  C    0.022782
    25  C    0.023717
    28  C    0.026029
    31  C    0.045188
    34  C    0.059209
    37  C   -0.017009
    41  C   -0.021538
    45  C   -0.031643
    49  C   -0.017357
    53  C   -0.020334
    55  C   -0.036941
    57  C   -0.000473
    59  C   -0.087069
 Electronic spatial extent (au):  <R**2>=           8956.0240
 Charge=             -0.0000 electrons
 Dipole moment (field-independent basis, Debye):
    X=             -0.0007    Y=             -0.0863    Z=              1.7610  Tot=              1.7631
 Quadrupole moment (field-independent basis, Debye-Ang):
   XX=           -157.0080   YY=           -166.6735   ZZ=           -161.5510
   XY=              1.1708   XZ=             -0.0126   YZ=              0.4042
 Traceless Quadrupole moment (field-independent basis, Debye-Ang):
   XX=              4.7361   YY=             -4.9294   ZZ=              0.1932
   XY=              1.1708   XZ=             -0.0126   YZ=              0.4042
 Octapole moment (field-independent basis, Debye-Ang**2):
  XXX=              4.6982  YYY=             -3.9243  ZZZ=             31.1641  XYY=             -0.9964
  XXY=             -0.5748  XXZ=              2.0179  XZZ=             -0.6000  YZZ=              5.0762
  YYZ=             -9.6740  XYZ=             -2.3992
 Hexadecapole moment (field-independent basis, Debye-Ang**3):
 XXXX=          -6519.8366 YYYY=          -3600.4407 ZZZZ=          -2320.1836 XXXY=              0.2383
 XXXZ=             -8.7307 YYYX=             11.8537 YYYZ=              2.4973 ZZZX=              2.5284
 ZZZY=              2.0143 XXYY=          -1678.3982 XXZZ=          -1458.6943 YYZZ=          -1036.9891
 XXYZ=             -9.0858 YYXZ=              0.6204 ZZXY=              8.8809
 N-N= 2.623799001575D+03 E-N=-8.863507407354D+03  KE= 1.535016341633D+03
 1\1\GINC-NC028\SP\RPBE1PBE\def2TZVP\C22H36P2\MACKK4\05-Dec-2021\0\\# P
 BE1PBE/def2TZVP int=(grid=ultrafine) empiricaldispersion=GD3BJ nmr=gia
 o\\SS_Et_DuPhos_3 title\\0,1\P,0,-1.5751079331,-0.7157086244,0.0459657
 721\P,0,1.4776320387,-0.1157613401,0.3296681112\C,0,-0.9904448717,0.98
 65353427,-0.3871924556\C,0,0.3921754148,1.2558015224,-0.2552395568\C,0
 ,-2.9321624903,-0.671933762,1.3582606985\H,0,-2.5462188031,-1.32998577
 97,2.1564970337\C,0,-2.6920284079,-1.1751426587,-1.4089135052\H,0,-2.4
 607565115,-0.4503980471,-2.2118764556\C,0,2.4030721367,0.6048213147,1.
 798790321\H,0,2.4141879704,1.6921078975,1.5742132683\C,0,3.0090300838,
 -0.2874081043,-0.7532993995\H,0,3.1287109184,-1.3879142149,-0.77162491
 14\C,0,-4.1145690914,-1.3653670088,0.6396549159\H,0,-3.9730784782,-2.4
 575659908,0.7130249301\H,0,-5.0687091965,-1.1125693371,1.1361289152\C,
 0,-4.1132002906,-0.9450378926,-0.8394881769\H,0,-4.3920588549,0.122739
 2226,-0.9242401269\H,0,-4.8544074807,-1.5168563327,-1.4262339439\C,0,3
 .8341379945,0.0781471404,1.5780239769\H,0,4.5430808189,0.6017333707,2.
 2443972481\H,0,3.8780236905,-1.001843342,1.8051421352\C,0,4.1576816039
 ,0.3098599102,0.0922225361\H,0,5.117428176,-0.1524271153,-0.1984303104
 \H,0,4.2440839973,1.3969949797,-0.1080334521\C,0,-3.2612008401,0.70600
 22531,1.9560677863\H,0,-3.5497218739,1.4239732881,1.1661823678\H,0,-4.
 1621096269,0.5714129542,2.5851727294\C,0,-2.4685897079,-2.5989635715,-
 1.951564789\H,0,-3.2828707461,-2.7943035139,-2.6764618443\H,0,-2.57191
 39261,-3.3320484419,-1.1330068233\C,0,1.7843191805,0.4379192131,3.1968
 773978\H,0,0.8164626097,0.9729347389,3.2156530434\H,0,2.4437127609,0.9
 900435204,3.8954896859\C,0,2.8987936634,0.2362047061,-2.1891674242\H,0
 ,2.7275244069,1.3293449782,-2.1856736668\H,0,3.8855596326,0.0849624689
 ,-2.6680921225\C,0,-2.1327377409,1.2932761004,2.8104414462\H,0,-2.4545
 389434,2.2235168376,3.3083235344\H,0,-1.2466456631,1.5332687172,2.1988
 09709\H,0,-1.8191268624,0.5778794695,3.590930572\C,0,-1.1119724326,-2.
 7928178085,-2.6315526338\H,0,-0.288356278,-2.6784421532,-1.9016275618\
 H,0,-1.0307547469,-3.807031903,-3.0563908033\H,0,-0.9560531178,-2.0630
 494754,-3.44749584\C,0,1.5861462508,-0.9929265369,3.7050387526\H,0,2.5
 165982536,-1.5819899321,3.6686703709\H,0,0.8421635009,-1.5409489684,3.
 1002667215\H,0,1.2309661271,-0.9737899466,4.7498355267\C,0,1.813442965
 1,-0.4599549982,-3.0168798891\H,0,1.9461585172,-1.55524498,-3.00627104
 2\H,0,0.8068391456,-0.2467832836,-2.6171446015\H,0,1.8350151887,-0.119
 9599424,-4.0661166655\C,0,-1.8481872464,1.9940465483,-0.8691669285\H,0
 ,-2.9154236481,1.7896690808,-1.0017065959\C,0,-1.3443121235,3.26115284
 19,-1.1899542612\H,0,-2.0204603579,4.0367898864,-1.5631325338\C,0,0.02
 20479452,3.5353997872,-1.0324051894\H,0,0.4157689875,4.52631819,-1.279
 4110806\C,0,0.8870461258,2.5362041382,-0.5685394496\H,0,1.9544282325,2
 .7537122463,-0.4543884927\\Version=ES64L-G09RevE.01\State=1-A\HF=-1541
 .813803\RMSD=6.623e-09\Dipole=-0.1027806,0.6682778,-0.1549565\Quadrupo
 le=3.5324891,-0.2058273,-3.3266618,0.5964183,0.2006612,-1.2584631\PG=C
 01 [X(C22H36P2)]\\@


 IF YOU GET CONFUSED, LOGIC OUT YOUR DILEMMA

           --  PICKER X-RAY CORP.    DIGITAL PRINTER MANUAL CA. 1964
 Job cpu time:       0 days  9 hours  7 minutes 53.7 seconds.
 File lengths (MBytes):  RWF=    551 Int=      0 D2E=      0 Chk=     80 Scr=      1
 Normal termination of Gaussian 09 at Sun Dec  5 09:55:46 2021.
 Initial command:
 /gstore/apps/gaussian/g09.e01-foss-2017a/g09/l1.exe "/local/22791411/Gau-28614.inp" -scrdir="/local/22791411/"
 Entering Link 1 = /gstore/apps/gaussian/g09.e01-foss-2017a/g09/l1.exe PID=      9503.
  
 Copyright (c) 1988,1990,1992,1993,1995,1998,2003,2009,2015,
            Gaussian, Inc.  All Rights Reserved.
  
 This is part of the Gaussian(R) 09 program.  It is based on
 the Gaussian(R) 03 system (copyright 2003, Gaussian, Inc.),
 the Gaussian(R) 98 system (copyright 1998, Gaussian, Inc.),
 the Gaussian(R) 94 system (copyright 1995, Gaussian, Inc.),
 the Gaussian 92(TM) system (copyright 1992, Gaussian, Inc.),
 the Gaussian 90(TM) system (copyright 1990, Gaussian, Inc.),
 the Gaussian 88(TM) system (copyright 1988, Gaussian, Inc.),
 the Gaussian 86(TM) system (copyright 1986, Carnegie Mellon
 University), and the Gaussian 82(TM) system (copyright 1983,
 Carnegie Mellon University). Gaussian is a federally registered
 trademark of Gaussian, Inc.
  
 This software contains proprietary and confidential information,
 including trade secrets, belonging to Gaussian, Inc.
  
 This software is provided under written license and may be
 used, copied, transmitted, or stored only in accord with that
 written license.
  
 The following legend is applicable only to US Government
 contracts under FAR:
  
                    RESTRICTED RIGHTS LEGEND
  
 Use, reproduction and disclosure by the US Government is
 subject to restrictions as set forth in subparagraphs (a)
 and (c) of the Commercial Computer Software - Restricted
 Rights clause in FAR 52.227-19.
  
 Gaussian, Inc.
 340 Quinnipiac St., Bldg. 40, Wallingford CT 06492
  
  
 ---------------------------------------------------------------
 Warning -- This program may not be used in any manner that
 competes with the business of Gaussian, Inc. or will provide
 assistance to any competitor of Gaussian, Inc.  The licensee
 of this program is prohibited from giving any competitor of
 Gaussian, Inc. access to this program.  By using this program,
 the user acknowledges that Gaussian, Inc. is engaged in the
 business of creating and licensing software in the field of
 computational chemistry and represents and warrants to the
 licensee that it is not a competitor of Gaussian, Inc. and that
 it will not use this program in any manner prohibited above.
 ---------------------------------------------------------------
  

 Cite this work as:
 Gaussian 09, Revision E.01,
 M. J. Frisch, G. W. Trucks, H. B. Schlegel, G. E. Scuseria, 
 M. A. Robb, J. R. Cheeseman, G. Scalmani, V. Barone, B. Mennucci, 
 G. A. Petersson, H. Nakatsuji, M. Caricato, X. Li, H. P. Hratchian, 
 A. F. Izmaylov, J. Bloino, G. Zheng, J. L. Sonnenberg, M. Hada, 
 M. Ehara, K. Toyota, R. Fukuda, J. Hasegawa, M. Ishida, T. Nakajima, 
 Y. Honda, O. Kitao, H. Nakai, T. Vreven, J. A. Montgomery, Jr., 
 J. E. Peralta, F. Ogliaro, M. Bearpark, J. J. Heyd, E. Brothers, 
 K. N. Kudin, V. N. Staroverov, T. Keith, R. Kobayashi, J. Normand, 
 K. Raghavachari, A. Rendell, J. C. Burant, S. S. Iyengar, J. Tomasi, 
 M. Cossi, N. Rega, J. M. Millam, M. Klene, J. E. Knox, J. B. Cross, 
 V. Bakken, C. Adamo, J. Jaramillo, R. Gomperts, R. E. Stratmann, 
 O. Yazyev, A. J. Austin, R. Cammi, C. Pomelli, J. W. Ochterski, 
 R. L. Martin, K. Morokuma, V. G. Zakrzewski, G. A. Voth, 
 P. Salvador, J. J. Dannenberg, S. Dapprich, A. D. Daniels, 
 O. Farkas, J. B. Foresman, J. V. Ortiz, J. Cioslowski, 
 and D. J. Fox, Gaussian, Inc., Wallingford CT, 2013.
 
 ******************************************
 Gaussian 09:  ES64L-G09RevE.01 30-Nov-2015
                 5-Dec-2021 
 ******************************************
 %nprocs=14
 Will use up to   14 processors via shared memory.
 %mem=128GB
 %chk=SS_Et_DuPhos_3_SPE_NoPd.chk
 ----------------------------------------------------------------------
 # PBE1PBE/def2TZVP int=(grid=ultrafine) empiricaldispersion=GD3BJ pop=
 nbo guess=read geom=check
 ----------------------------------------------------------------------
 1/29=2,38=1/1;
 2/12=2,40=1/2;
 3/5=44,7=101,11=2,14=-4,16=1,25=1,30=1,74=-13,75=-5,116=-2,124=41/1,2,3;
 4/5=1/1;
 5/5=2,38=6/2;
 6/7=2,8=2,9=2,10=2,28=1,40=1/1,7;
 99/5=1,9=1/99;
 --------------------
 SS_Et_DuPhos_3 title
 --------------------
 Structure from the checkpoint file:  "SS_Et_DuPhos_3_SPE_NoPd.chk"
 Charge =  0 Multiplicity = 1
 Z-Matrix found in file.
 P,0,-1.5751079331,-0.7157086244,0.0459657721
 P,0,1.4776320387,-0.1157613401,0.3296681112
 C,0,-0.9904448717,0.9865353427,-0.3871924556
 C,0,0.3921754148,1.2558015224,-0.2552395568
 C,0,-2.9321624903,-0.671933762,1.3582606985
 H,0,-2.5462188031,-1.3299857797,2.1564970337
 C,0,-2.6920284079,-1.1751426587,-1.4089135052
 H,0,-2.4607565115,-0.4503980471,-2.2118764556
 C,0,2.4030721367,0.6048213147,1.798790321
 H,0,2.4141879704,1.6921078975,1.5742132683
 C,0,3.0090300838,-0.2874081043,-0.7532993995
 H,0,3.1287109184,-1.3879142149,-0.7716249114
 C,0,-4.1145690914,-1.3653670088,0.6396549159
 H,0,-3.9730784782,-2.4575659908,0.7130249301
 H,0,-5.0687091965,-1.1125693371,1.1361289152
 C,0,-4.1132002906,-0.9450378926,-0.8394881769
 H,0,-4.3920588549,0.1227392226,-0.9242401269
 H,0,-4.8544074807,-1.5168563327,-1.4262339439
 C,0,3.8341379945,0.0781471404,1.5780239769
 H,0,4.5430808189,0.6017333707,2.2443972481
 H,0,3.8780236905,-1.001843342,1.8051421352
 C,0,4.1576816039,0.3098599102,0.0922225361
 H,0,5.117428176,-0.1524271153,-0.1984303104
 H,0,4.2440839973,1.3969949797,-0.1080334521
 C,0,-3.2612008401,0.7060022531,1.9560677863
 H,0,-3.5497218739,1.4239732881,1.1661823678
 H,0,-4.1621096269,0.5714129542,2.5851727294
 C,0,-2.4685897079,-2.5989635715,-1.951564789
 H,0,-3.2828707461,-2.7943035139,-2.6764618443
 H,0,-2.5719139261,-3.3320484419,-1.1330068233
 C,0,1.7843191805,0.4379192131,3.1968773978
 H,0,0.8164626097,0.9729347389,3.2156530434
 H,0,2.4437127609,0.9900435204,3.8954896859
 C,0,2.8987936634,0.2362047061,-2.1891674242
 H,0,2.7275244069,1.3293449782,-2.1856736668
 H,0,3.8855596326,0.0849624689,-2.6680921225
 C,0,-2.1327377409,1.2932761004,2.8104414462
 H,0,-2.4545389434,2.2235168376,3.3083235344
 H,0,-1.2466456631,1.5332687172,2.198809709
 H,0,-1.8191268624,0.5778794695,3.590930572
 C,0,-1.1119724326,-2.7928178085,-2.6315526338
 H,0,-0.288356278,-2.6784421532,-1.9016275618
 H,0,-1.0307547469,-3.807031903,-3.0563908033
 H,0,-0.9560531178,-2.0630494754,-3.44749584
 C,0,1.5861462508,-0.9929265369,3.7050387526
 H,0,2.5165982536,-1.5819899321,3.6686703709
 H,0,0.8421635009,-1.5409489684,3.1002667215
 H,0,1.2309661271,-0.9737899466,4.7498355267
 C,0,1.8134429651,-0.4599549982,-3.0168798891
 H,0,1.9461585172,-1.55524498,-3.006271042
 H,0,0.8068391456,-0.2467832836,-2.6171446015
 H,0,1.8350151887,-0.1199599424,-4.0661166655
 C,0,-1.8481872464,1.9940465483,-0.8691669285
 H,0,-2.9154236481,1.7896690808,-1.0017065959
 C,0,-1.3443121235,3.2611528419,-1.1899542612
 H,0,-2.0204603579,4.0367898864,-1.5631325338
 C,0,0.0220479452,3.5353997872,-1.0324051894
 H,0,0.4157689875,4.52631819,-1.2794110806
 C,0,0.8870461258,2.5362041382,-0.5685394496
 H,0,1.9544282325,2.7537122463,-0.4543884927
 Recover connectivity data from disk.
 Stoichiometry    C22H36P2
 Framework group  C1[X(C22H36P2)]
 Deg. of freedom   174
 Full point group                 C1      NOp   1
 Largest Abelian subgroup         C1      NOp   1
 Largest concise Abelian subgroup C1      NOp   1
                         Standard orientation:                         
 ---------------------------------------------------------------------
 Center     Atomic      Atomic             Coordinates (Angstroms)
 Number     Number       Type             X           Y           Z
 ---------------------------------------------------------------------
      1         15           0       -1.528135   -0.017909   -0.576572
      2         15           0        1.594472    0.049245   -0.509766
      3          6           0       -0.706130    0.067383    1.079968
      4          6           0        0.708104    0.095100    1.106949
      5          6           0       -2.692700   -1.499225   -0.699547
      6          1           0       -2.338541   -2.037349   -1.596298
      7          6           0       -2.871439    1.308048   -0.464163
      8          1           0       -2.611201    1.932612    0.410872
      9          6           0        2.798577   -1.385589   -0.350448
     10          1           0        2.975660   -1.438688    0.744345
     11          6           0        2.933636    1.370922   -0.595042
     12          1           0        2.853559    1.680274   -1.655072
     13          6           0       -4.055149   -0.829287   -0.999952
     14          1           0       -4.101696   -0.606137   -2.079924
     15          1           0       -4.884581   -1.518556   -0.759688
     16          6           0       -4.152720    0.480195   -0.199777
     17          1           0       -4.246067    0.252063    0.879266
     18          1           0       -5.047044    1.064366   -0.481850
     19          6           0        4.077869   -0.815827   -0.992986
     20          1           0        4.941454   -1.469281   -0.773865
     21          1           0        3.956123   -0.758191   -2.089227
     22          6           0        4.260944    0.598154   -0.415824
     23          1           0        5.082878    1.143560   -0.912069
     24          1           0        4.514420    0.533861    0.661695
     25          6           0       -2.700168   -2.464471    0.497362
     26          1           0       -2.947536   -1.933637    1.435270
     27          1           0       -3.530639   -3.175978    0.325319
     28          6           0       -2.968823    2.215116   -1.704891
     29          1           0       -3.884076    2.826338   -1.580772
     30          1           0       -3.103680    1.598126   -2.610023
     31          6           0        2.328222   -2.778905   -0.800779
     32          1           0        1.479381   -3.083828   -0.160599
     33          1           0        3.152220   -3.478142   -0.556249
     34          6           0        2.750366    2.595651    0.307449
     35          1           0        2.776988    2.294069    1.371705
     36          1           0        3.631719    3.248186    0.154595
     37          6           0       -1.393320   -3.246440    0.667498
     38          1           0       -1.484706   -4.004088    1.463995
     39          1           0       -0.556615   -2.580116    0.937287
     40          1           0       -1.122080   -3.764931   -0.268934
     41          6           0       -1.757161    3.129338   -1.895800
     42          1           0       -0.846534    2.534866   -2.099705
     43          1           0       -1.907183    3.799623   -2.758312
     44          1           0       -1.571190    3.753041   -1.001907
     45          6           0        1.940743   -2.941482   -2.273276
     46          1           0        2.741400   -2.612318   -2.954934
     47          1           0        1.045809   -2.346426   -2.527419
     48          1           0        1.719492   -4.001266   -2.487812
     49          6           0        1.469489    3.386007    0.020349
     50          1           0        1.406465    3.668496   -1.044364
     51          1           0        0.570436    2.790631    0.256385
     52          1           0        1.427816    4.307812    0.624913
     53          6           0       -1.422381    0.141426    2.290175
     54          1           0       -2.517002    0.148495    2.280950
     55          6           0       -0.743208    0.214297    3.513191
     56          1           0       -1.310318    0.270811    4.447666
     57          6           0        0.659018    0.213727    3.540274
     58          1           0        1.190288    0.266974    4.495713
     59          6           0        1.381710    0.156084    2.341867
     60          1           0        2.476644    0.163356    2.368551
 ---------------------------------------------------------------------
 Rotational constants (GHZ):      0.2621082      0.1670497      0.1502123
 Standard basis: def2TZVP (5D, 7F)
 There are  1092 symmetry adapted cartesian basis functions of A   symmetry.
 There are   972 symmetry adapted basis functions of A   symmetry.
   972 basis functions,  1548 primitive gaussians,  1092 cartesian basis functions
    99 alpha electrons       99 beta electrons
       nuclear repulsion energy      2623.8782014471 Hartrees.
 NAtoms=   60 NActive=   60 NUniq=   60 SFac= 1.00D+00 NAtFMM=   60 NAOKFM=T Big=T
 Integral buffers will be    131072 words long.
 Raffenetti 2 integral format.
 Two-electron integral symmetry is turned on.
 Nuclear repulsion after empirical dispersion term =     2623.7990015747 Hartrees.
 One-electron integrals computed using PRISM.
   1 Symmetry operations used in ECPInt.
 ECPInt:  NShTT=   85078 NPrTT=  253069 LenC2=   74398 LenP2D=  154374.
 LDataN:  DoStor=T MaxTD1= 6 Len=  172
 NBasis=   972 RedAO= T EigKep=  5.51D-06  NBF=   972
 NBsUse=   972 1.00D-06 EigRej= -1.00D+00 NBFU=   972
 Initial guess from the checkpoint file:  "SS_Et_DuPhos_3_SPE_NoPd.chk"
 B after Tr=    -0.000000   -0.000000   -0.000000
         Rot=    1.000000    0.000000    0.000000   -0.000000 Ang=   0.00 deg.
 Requested convergence on RMS density matrix=1.00D-08 within 128 cycles.
 Requested convergence on MAX density matrix=1.00D-06.
 Requested convergence on             energy=1.00D-06.
 No special actions if energy rises.
 SCF Done:  E(RPBE1PBE) =  -1541.81380297     A.U. after    2 cycles
            NFock=  2  Conv=0.27D-08     -V/T= 2.0044

 **********************************************************************

            Population analysis using the SCF density.

 **********************************************************************

 Orbital symmetries:
       Occupied  (A) (A) (A) (A) (A) (A) (A) (A) (A) (A) (A) (A)
                 (A) (A) (A) (A) (A) (A) (A) (A) (A) (A) (A) (A)
                 (A) (A) (A) (A) (A) (A) (A) (A) (A) (A) (A) (A)
                 (A) (A) (A) (A) (A) (A) (A) (A) (A) (A) (A) (A)
                 (A) (A) (A) (A) (A) (A) (A) (A) (A) (A) (A) (A)
                 (A) (A) (A) (A) (A) (A) (A) (A) (A) (A) (A) (A)
                 (A) (A) (A) (A) (A) (A) (A) (A) (A) (A) (A) (A)
                 (A) (A) (A) (A) (A) (A) (A) (A) (A) (A) (A) (A)
                 (A) (A) (A)
       Virtual   (A) (A) (A) (A) (A) (A) (A) (A) (A) (A) (A) (A)
                 (A) (A) (A) (A) (A) (A) (A) (A) (A) (A) (A) (A)
                 (A) (A) (A) (A) (A) (A) (A) (A) (A) (A) (A) (A)
                 (A) (A) (A) (A) (A) (A) (A) (A) (A) (A) (A) (A)
                 (A) (A) (A) (A) (A) (A) (A) (A) (A) (A) (A) (A)
                 (A) (A) (A) (A) (A) (A) (A) (A) (A) (A) (A) (A)
                 (A) (A) (A) (A) (A) (A) (A) (A) (A) (A) (A) (A)
                 (A) (A) (A) (A) (A) (A) (A) (A) (A) (A) (A) (A)
                 (A) (A) (A) (A) (A) (A) (A) (A) (A) (A) (A) (A)
                 (A) (A) (A) (A) (A) (A) (A) (A) (A) (A) (A) (A)
                 (A) (A) (A) (A) (A) (A) (A) (A) (A) (A) (A) (A)
                 (A) (A) (A) (A) (A) (A) (A) (A) (A) (A) (A) (A)
                 (A) (A) (A) (A) (A) (A) (A) (A) (A) (A) (A) (A)
                 (A) (A) (A) (A) (A) (A) (A) (A) (A) (A) (A) (A)
                 (A) (A) (A) (A) (A) (A) (A) (A) (A) (A) (A) (A)
                 (A) (A) (A) (A) (A) (A) (A) (A) (A) (A) (A) (A)
                 (A) (A) (A) (A) (A) (A) (A) (A) (A) (A) (A) (A)
                 (A) (A) (A) (A) (A) (A) (A) (A) (A) (A) (A) (A)
                 (A) (A) (A) (A) (A) (A) (A) (A) (A) (A) (A) (A)
                 (A) (A) (A) (A) (A) (A) (A) (A) (A) (A) (A) (A)
                 (A) (A) (A) (A) (A) (A) (A) (A) (A) (A) (A) (A)
                 (A) (A) (A) (A) (A) (A) (A) (A) (A) (A) (A) (A)
                 (A) (A) (A) (A) (A) (A) (A) (A) (A) (A) (A) (A)
                 (A) (A) (A) (A) (A) (A) (A) (A) (A) (A) (A) (A)
                 (A) (A) (A) (A) (A) (A) (A) (A) (A) (A) (A) (A)
                 (A) (A) (A) (A) (A) (A) (A) (A) (A) (A) (A) (A)
                 (A) (A) (A) (A) (A) (A) (A) (A) (A) (A) (A) (A)
                 (A) (A) (A) (A) (A) (A) (A) (A) (A) (A) (A) (A)
                 (A) (A) (A) (A) (A) (A) (A) (A) (A) (A) (A) (A)
                 (A) (A) (A) (A) (A) (A) (A) (A) (A) (A) (A) (A)
                 (A) (A) (A) (A) (A) (A) (A) (A) (A) (A) (A) (A)
                 (A) (A) (A) (A) (A) (A) (A) (A) (A) (A) (A) (A)
                 (A) (A) (A) (A) (A) (A) (A) (A) (A) (A) (A) (A)
                 (A) (A) (A) (A) (A) (A) (A) (A) (A) (A) (A) (A)
                 (A) (A) (A) (A) (A) (A) (A) (A) (A) (A) (A) (A)
                 (A) (A) (A) (A) (A) (A) (A) (A) (A) (A) (A) (A)
                 (A) (A) (A) (A) (A) (A) (A) (A) (A) (A) (A) (A)
                 (A) (A) (A) (A) (A) (A) (A) (A) (A) (A) (A) (A)
                 (A) (A) (A) (A) (A) (A) (A) (A) (A) (A) (A) (A)
                 (A) (A) (A) (A) (A) (A) (A) (A) (A) (A) (A) (A)
                 (A) (A) (A) (A) (A) (A) (A) (A) (A) (A) (A) (A)
                 (A) (A) (A) (A) (A) (A) (A) (A) (A) (A) (A) (A)
                 (A) (A) (A) (A) (A) (A) (A) (A) (A) (A) (A) (A)
                 (A) (A) (A) (A) (A) (A) (A) (A) (A) (A) (A) (A)
                 (A) (A) (A) (A) (A) (A) (A) (A) (A) (A) (A) (A)
                 (A) (A) (A) (A) (A) (A) (A) (A) (A) (A) (A) (A)
                 (A) (A) (A) (A) (A) (A) (A) (A) (A) (A) (A) (A)
                 (A) (A) (A) (A) (A) (A) (A) (A) (A) (A) (A) (A)
                 (A) (A) (A) (A) (A) (A) (A) (A) (A) (A) (A) (A)
                 (A) (A) (A) (A) (A) (A) (A) (A) (A) (A) (A) (A)
                 (A) (A) (A) (A) (A) (A) (A) (A) (A) (A) (A) (A)
                 (A) (A) (A) (A) (A) (A) (A) (A) (A) (A) (A) (A)
                 (A) (A) (A) (A) (A) (A) (A) (A) (A) (A) (A) (A)
                 (A) (A) (A) (A) (A) (A) (A) (A) (A) (A) (A) (A)
                 (A) (A) (A) (A) (A) (A) (A) (A) (A) (A) (A) (A)
                 (A) (A) (A) (A) (A) (A) (A) (A) (A) (A) (A) (A)
                 (A) (A) (A) (A) (A) (A) (A) (A) (A) (A) (A) (A)
                 (A) (A) (A) (A) (A) (A) (A) (A) (A) (A) (A) (A)
                 (A) (A) (A) (A) (A) (A) (A) (A) (A) (A) (A) (A)
                 (A) (A) (A) (A) (A) (A) (A) (A) (A) (A) (A) (A)
                 (A) (A) (A) (A) (A) (A) (A) (A) (A) (A) (A) (A)
                 (A) (A) (A) (A) (A) (A) (A) (A) (A) (A) (A) (A)
                 (A) (A) (A) (A) (A) (A) (A) (A) (A) (A) (A) (A)
                 (A) (A) (A) (A) (A) (A) (A) (A) (A) (A) (A) (A)
[...]
   723. RY*(  22) C  45                  0.00000     3.57795   
   724. RY*(  23) C  45                  0.00000     2.82858   
   725. RY*(  24) C  45                  0.00000     3.51470   
   726. RY*(  25) C  45                  0.00000     3.16487   
   727. RY*(  26) C  45                  0.00000     3.57681   
   728. RY*(   1) H  46                  0.00071     0.91788   
   729. RY*(   2) H  46                  0.00017     2.13545   
   730. RY*(   3) H  46                  0.00011     1.89019   
   731. RY*(   4) H  46                  0.00008     1.88118   
   732. RY*(   5) H  46                  0.00002     2.86679   
   733. RY*(   1) H  47                  0.00073     0.90607   
   734. RY*(   2) H  47                  0.00015     2.01933   
   735. RY*(   3) H  47                  0.00011     1.94469   
   736. RY*(   4) H  47                  0.00007     2.13726   
   737. RY*(   5) H  47                  0.00002     2.93230   
   738. RY*(   1) H  48                  0.00040     1.26073   
   739. RY*(   2) H  48                  0.00012     1.67970   
   740. RY*(   3) H  48                  0.00008     2.04545   
   741. RY*(   4) H  48                  0.00005     1.91980   
   742. RY*(   5) H  48                  0.00002     2.72432   
   743. RY*(   1) C  49                  0.00124     1.18242   
   744. RY*(   2) C  49                  0.00091     1.22781   
   745. RY*(   3) C  49                  0.00048     0.90168   
   746. RY*(   4) C  49                  0.00020     1.78069   
   747. RY*(   5) C  49                  0.00015     1.75405   
   748. RY*(   6) C  49                  0.00012     1.97902   
   749. RY*(   7) C  49                  0.00005     2.21915   
   750. RY*(   8) C  49                  0.00004     1.83540   
   751. RY*(   9) C  49                  0.00002     2.13647   
   752. RY*(  10) C  49                  0.00002     2.18375   
   753. RY*(  11) C  49                  0.00002     1.85271   
   754. RY*(  12) C  49                  0.00002     2.65469   
   755. RY*(  13) C  49                  0.00000    21.02908   
   756. RY*(  14) C  49                  0.00000     2.59031   
   757. RY*(  15) C  49                  0.00001     2.53113   
   758. RY*(  16) C  49                  0.00000     3.10337   
   759. RY*(  17) C  49                  0.00000     2.63529   
   760. RY*(  18) C  49                  0.00001     2.68775   
   761. RY*(  19) C  49                  0.00000     3.03188   
   762. RY*(  20) C  49                  0.00000     3.47561   
   763. RY*(  21) C  49                  0.00000     3.30765   
   764. RY*(  22) C  49                  0.00000     3.35036   
   765. RY*(  23) C  49                  0.00000     3.61369   
   766. RY*(  24) C  49                  0.00000     3.19546   
   767. RY*(  25) C  49                  0.00000     3.12816   
   768. RY*(  26) C  49                  0.00000     3.59053   
   769. RY*(   1) H  50                  0.00076     0.91298   
   770. RY*(   2) H  50                  0.00023     1.86311   
   771. RY*(   3) H  50                  0.00011     2.10788   
   772. RY*(   4) H  50                  0.00006     2.00168   
   773. RY*(   5) H  50                  0.00002     2.87471   
   774. RY*(   1) H  51                  0.00094     0.87995   
   775. RY*(   2) H  51                  0.00027     2.42086   
   776. RY*(   3) H  51                  0.00009     2.15873   
   777. RY*(   4) H  51                  0.00007     2.14231   
   778. RY*(   5) H  51                  0.00002     2.98434   
   779. RY*(   1) H  52                  0.00038     1.34490   
   780. RY*(   2) H  52                  0.00017     1.46087   
   781. RY*(   3) H  52                  0.00008     2.08628   
   782. RY*(   4) H  52                  0.00007     2.02966   
   783. RY*(   5) H  52                  0.00001     2.71260   
   784. RY*(   1) C  53                  0.00576     1.59235   
   785. RY*(   2) C  53                  0.00188     0.83350   
   786. RY*(   3) C  53                  0.00184     1.30126   
   787. RY*(   4) C  53                  0.00123     1.68596   
   788. RY*(   5) C  53                  0.00080     1.64641   
   789. RY*(   6) C  53                  0.00049     1.59629   
   790. RY*(   7) C  53                  0.00039     2.50268   
   791. RY*(   8) C  53                  0.00025     2.10166   
   792. RY*(   9) C  53                  0.00019     1.77597   
   793. RY*(  10) C  53                  0.00015     2.07255   
   794. RY*(  11) C  53                  0.00009     2.16015   
   795. RY*(  12) C  53                  0.00006     1.67796   
   796. RY*(  13) C  53                  0.00007     2.41014   
   797. RY*(  14) C  53                  0.00005     3.19498   
   798. RY*(  15) C  53                  0.00002     2.91941   
   799. RY*(  16) C  53                  0.00002     1.35211   
   800. RY*(  17) C  53                  0.00001     3.59832   
   801. RY*(  18) C  53                  0.00001     4.12958   
   802. RY*(  19) C  53                  0.00000    20.03422   
   803. RY*(  20) C  53                  0.00000     3.14359   
   804. RY*(  21) C  53                  0.00001     4.17001   
   805. RY*(  22) C  53                  0.00000     3.42519   
   806. RY*(  23) C  53                  0.00001     3.73463   
   807. RY*(  24) C  53                  0.00000     3.47227   
   808. RY*(  25) C  53                  0.00000     3.58112   
   809. RY*(  26) C  53                  0.00000     3.16284   
   810. RY*(   1) H  54                  0.00190     0.78867   
   811. RY*(   2) H  54                  0.00036     2.37291   
   812. RY*(   3) H  54                  0.00014     2.22979   
   813. RY*(   4) H  54                  0.00009     2.70959   
   814. RY*(   5) H  54                  0.00003     3.16354   
   815. RY*(   1) C  55                  0.00477     1.56810   
   816. RY*(   2) C  55                  0.00186     1.61106   
   817. RY*(   3) C  55                  0.00135     0.58099   
   818. RY*(   4) C  55                  0.00089     1.38456   
   819. RY*(   5) C  55                  0.00054     1.79102   
   820. RY*(   6) C  55                  0.00032     3.18491   
   821. RY*(   7) C  55                  0.00023     2.35956   
   822. RY*(   8) C  55                  0.00012     1.68505   
   823. RY*(   9) C  55                  0.00008     3.08129   
   824. RY*(  10) C  55                  0.00005     1.89931   
   825. RY*(  11) C  55                  0.00002     2.20172   
   826. RY*(  12) C  55                  0.00002     1.64015   
   827. RY*(  13) C  55                  0.00002     2.65098   
   828. RY*(  14) C  55                  0.00003     2.67954   
   829. RY*(  15) C  55                  0.00000     3.13965   
   830. RY*(  16) C  55                  0.00001     3.13131   
   831. RY*(  17) C  55                  0.00000     2.58846   
   832. RY*(  18) C  55                  0.00000    20.70995   
   833. RY*(  19) C  55                  0.00000     1.13448   
   834. RY*(  20) C  55                  0.00000     3.25849   
   835. RY*(  21) C  55                  0.00000     3.95555   
   836. RY*(  22) C  55                  0.00000     3.09073   
   837. RY*(  23) C  55                  0.00000     2.94860   
   838. RY*(  24) C  55                  0.00000     3.28016   
   839. RY*(  25) C  55                  0.00000     3.53037   
   840. RY*(  26) C  55                  0.00000     3.43695   
   841. RY*(   1) H  56                  0.00042     0.95437   
   842. RY*(   2) H  56                  0.00020     1.83515   
   843. RY*(   3) H  56                  0.00012     2.73482   
   844. RY*(   4) H  56                  0.00011     2.15238   
   845. RY*(   5) H  56                  0.00002     3.09079   
   846. RY*(   1) C  57                  0.00472     1.57014   
   847. RY*(   2) C  57                  0.00187     1.61389   
   848. RY*(   3) C  57                  0.00136     0.57464   
   849. RY*(   4) C  57                  0.00091     1.38467   
   850. RY*(   5) C  57                  0.00053     1.77401   
   851. RY*(   6) C  57                  0.00032     3.20123   
   852. RY*(   7) C  57                  0.00023     2.47269   
   853. RY*(   8) C  57                  0.00013     1.67771   
   854. RY*(   9) C  57                  0.00008     2.91079   
   855. RY*(  10) C  57                  0.00005     1.85552   
   856. RY*(  11) C  57                  0.00002     2.93342   
   857. RY*(  12) C  57                  0.00002     1.98524   
   858. RY*(  13) C  57                  0.00002     2.10653   
   859. RY*(  14) C  57                  0.00002     2.07244   
   860. RY*(  15) C  57                  0.00001     3.65762   
   861. RY*(  16) C  57                  0.00000    20.28997   
   862. RY*(  17) C  57                  0.00000     3.01708   
   863. RY*(  18) C  57                  0.00000     1.08734   
   864. RY*(  19) C  57                  0.00000     3.13152   
   865. RY*(  20) C  57                  0.00000     2.58099   
   866. RY*(  21) C  57                  0.00000     3.96960   
   867. RY*(  22) C  57                  0.00000     3.12912   
   868. RY*(  23) C  57                  0.00000     3.32982   
   869. RY*(  24) C  57                  0.00000     3.29153   
   870. RY*(  25) C  57                  0.00000     3.45157   
   871. RY*(  26) C  57                  0.00000     3.44928   
   872. RY*(   1) H  58                  0.00042     0.96702   
   873. RY*(   2) H  58                  0.00020     1.82088   
   874. RY*(   3) H  58                  0.00012     2.73965   
   875. RY*(   4) H  58                  0.00011     2.14808   
   876. RY*(   5) H  58                  0.00002     3.08981   
   877. RY*(   1) C  59                  0.00591     1.58204   
   878. RY*(   2) C  59                  0.00204     0.89904   
   879. RY*(   3) C  59                  0.00180     1.18886   
   880. RY*(   4) C  59                  0.00121     1.70938   
   881. RY*(   5) C  59                  0.00081     1.65782   
   882. RY*(   6) C  59                  0.00047     1.52854   
   883. RY*(   7) C  59                  0.00038     2.66493   
   884. RY*(   8) C  59                  0.00025     2.16602   
   885. RY*(   9) C  59                  0.00021     1.71524   
   886. RY*(  10) C  59                  0.00014     2.12551   
   887. RY*(  11) C  59                  0.00008     2.36825   
   888. RY*(  12) C  59                  0.00007     2.36037   
   889. RY*(  13) C  59                  0.00006     1.97295   
   890. RY*(  14) C  59                  0.00004     2.78059   
   891. RY*(  15) C  59                  0.00003     1.32414   
   892. RY*(  16) C  59                  0.00002     2.64932   
   893. RY*(  17) C  59                  0.00001     3.51490   
   894. RY*(  18) C  59                  0.00000     3.14061   
   895. RY*(  19) C  59                  0.00000    21.21741   
   896. RY*(  20) C  59                  0.00001     3.31585   
   897. RY*(  21) C  59                  0.00001     4.19154   
   898. RY*(  22) C  59                  0.00000     3.36225   
   899. RY*(  23) C  59                  0.00001     3.53489   
   900. RY*(  24) C  59                  0.00000     3.47489   
   901. RY*(  25) C  59                  0.00000     3.58029   
   902. RY*(  26) C  59                  0.00000     3.13611   
   903. RY*(   1) H  60                  0.00200     0.72240   
   904. RY*(   2) H  60                  0.00038     2.38117   
   905. RY*(   3) H  60                  0.00013     2.17486   
   906. RY*(   4) H  60                  0.00010     2.75909   
   907. RY*(   5) H  60                  0.00003     3.15438   
   908. BD*(   1) P   1 - C   3          0.04170     0.22836   
   909. BD*(   1) P   1 - C   5          0.05082     0.19934   
   910. BD*(   1) P   1 - C   7          0.05015     0.20000   
   911. BD*(   1) P   2 - C   4          0.04348     0.23254   
   912. BD*(   1) P   2 - C   9          0.04693     0.20537   
   913. BD*(   1) P   2 - C  11          0.05134     0.20526   
   914. BD*(   1) C   3 - C   4          0.03544     0.51731   
   915. BD*(   2) C   3 - C   4          0.37940     0.02585  966(v),971(v),909(v),913(v)
                                                    912(v),159(g),910(v),185(g)
                                                    785(v)
   916. BD*(   1) C   3 - C  53          0.03645     0.52569   
   917. BD*(   1) C   4 - C  59          0.03606     0.52550   
   918. BD*(   1) C   5 - H   6          0.02237     0.37331   
   919. BD*(   1) C   5 - C  13          0.02058     0.34401   
   920. BD*(   1) C   5 - C  25          0.02561     0.35779   
   921. BD*(   1) C   7 - H   8          0.02174     0.37500   
   922. BD*(   1) C   7 - C  16          0.02179     0.34511   
   923. BD*(   1) C   7 - C  28          0.02514     0.35884   
   924. BD*(   1) C   9 - H  10          0.02804     0.35967   
   925. BD*(   1) C   9 - C  19          0.02224     0.34720   
   926. BD*(   1) C   9 - C  31          0.02361     0.36632   
   927. BD*(   1) C  11 - H  12          0.02585     0.36222   
   928. BD*(   1) C  11 - C  22          0.02213     0.34705   
   929. BD*(   1) C  11 - C  34          0.01982     0.36629   
   930. BD*(   1) C  13 - H  14          0.01423     0.36955   
   931. BD*(   1) C  13 - H  15          0.01558     0.37108   
   932. BD*(   1) C  13 - C  16          0.01577     0.35093   
   933. BD*(   1) C  16 - H  17          0.01502     0.36844   
   934. BD*(   1) C  16 - H  18          0.01939     0.37469   
   935. BD*(   1) C  19 - H  20          0.01612     0.37086   
   936. BD*(   1) C  19 - H  21          0.01961     0.36528   
   937. BD*(   1) C  19 - C  22          0.00909     0.35530   
   938. BD*(   1) C  22 - H  23          0.01678     0.37325   
   939. BD*(   1) C  22 - H  24          0.01849     0.35819   
   940. BD*(   1) C  25 - H  26          0.01885     0.37198   
   941. BD*(   1) C  25 - H  27          0.02009     0.36398   
   942. BD*(   1) C  25 - C  37          0.00632     0.36516   
   943. BD*(   1) C  28 - H  29          0.01882     0.36614   
   944. BD*(   1) C  28 - H  30          0.01783     0.37119   
   945. BD*(   1) C  28 - C  41          0.00592     0.37113   
   946. BD*(   1) C  31 - H  32          0.01491     0.37825   
   947. BD*(   1) C  31 - H  33          0.01804     0.36381   
   948. BD*(   1) C  31 - C  45          0.01022     0.36704   
   949. BD*(   1) C  34 - H  35          0.01901     0.37108   
   950. BD*(   1) C  34 - H  36          0.01966     0.36444   
   951. BD*(   1) C  34 - C  49          0.00666     0.36503   
   952. BD*(   1) C  37 - H  38          0.00576     0.38150   
   953. BD*(   1) C  37 - H  39          0.00939     0.39317   
   954. BD*(   1) C  37 - H  40          0.00909     0.37531   
   955. BD*(   1) C  41 - H  42          0.00949     0.38883   
   956. BD*(   1) C  41 - H  43          0.00584     0.38692   
   957. BD*(   1) C  41 - H  44          0.00953     0.37999   
   958. BD*(   1) C  45 - H  46          0.00906     0.38441   
   959. BD*(   1) C  45 - H  47          0.00897     0.39048   
   960. BD*(   1) C  45 - H  48          0.00549     0.38336   
   961. BD*(   1) C  49 - H  50          0.00895     0.38004   
   962. BD*(   1) C  49 - H  51          0.00887     0.39280   
   963. BD*(   1) C  49 - H  52          0.00603     0.38348   
   964. BD*(   1) C  53 - H  54          0.01770     0.40392   
   965. BD*(   1) C  53 - C  55          0.01840     0.53886   
   966. BD*(   2) C  53 - C  55          0.31126     0.02503  971(v),915(v),817(g),785(g)
   967. BD*(   1) C  55 - H  56          0.01389     0.39837   
   968. BD*(   1) C  55 - C  57          0.01452     0.53163   
   969. BD*(   1) C  57 - H  58          0.01405     0.39861   
   970. BD*(   1) C  57 - C  59          0.01825     0.53865   
   971. BD*(   2) C  57 - C  59          0.31174     0.02482  966(v),915(v),848(g),878(g)
   972. BD*(   1) C  59 - H  60          0.01738     0.40020   
       -------------------------------
              Total Lewis  195.47662  ( 98.7256%)
        Valence non-Lewis    2.22076  (  1.1216%)
        Rydberg non-Lewis    0.30262  (  0.1528%)
       -------------------------------
            Total unit  1  198.00000  (100.0000%)
           Charge unit  1    0.00000
 1\1\GINC-NC028\SP\RPBE1PBE\def2TZVP\C22H36P2\MACKK4\05-Dec-2021\0\\# P
 BE1PBE/def2TZVP int=(grid=ultrafine) empiricaldispersion=GD3BJ pop=nbo
  guess=read geom=check\\SS_Et_DuPhos_3 title\\0,1\P,0,-1.5751079331,-0
 .7157086244,0.0459657721\P,0,1.4776320387,-0.1157613401,0.3296681112\C
 ,0,-0.9904448717,0.9865353427,-0.3871924556\C,0,0.3921754148,1.2558015
 224,-0.2552395568\C,0,-2.9321624903,-0.671933762,1.3582606985\H,0,-2.5
 462188031,-1.3299857797,2.1564970337\C,0,-2.6920284079,-1.1751426587,-
 1.4089135052\H,0,-2.4607565115,-0.4503980471,-2.2118764556\C,0,2.40307
 21367,0.6048213147,1.798790321\H,0,2.4141879704,1.6921078975,1.5742132
 683\C,0,3.0090300838,-0.2874081043,-0.7532993995\H,0,3.1287109184,-1.3
 879142149,-0.7716249114\C,0,-4.1145690914,-1.3653670088,0.6396549159\H
 ,0,-3.9730784782,-2.4575659908,0.7130249301\H,0,-5.0687091965,-1.11256
 93371,1.1361289152\C,0,-4.1132002906,-0.9450378926,-0.8394881769\H,0,-
 4.3920588549,0.1227392226,-0.9242401269\H,0,-4.8544074807,-1.516856332
 7,-1.4262339439\C,0,3.8341379945,0.0781471404,1.5780239769\H,0,4.54308
 08189,0.6017333707,2.2443972481\H,0,3.8780236905,-1.001843342,1.805142
 1352\C,0,4.1576816039,0.3098599102,0.0922225361\H,0,5.117428176,-0.152
 4271153,-0.1984303104\H,0,4.2440839973,1.3969949797,-0.1080334521\C,0,
 -3.2612008401,0.7060022531,1.9560677863\H,0,-3.5497218739,1.4239732881
 ,1.1661823678\H,0,-4.1621096269,0.5714129542,2.5851727294\C,0,-2.46858
 97079,-2.5989635715,-1.951564789\H,0,-3.2828707461,-2.7943035139,-2.67
 64618443\H,0,-2.5719139261,-3.3320484419,-1.1330068233\C,0,1.784319180
 5,0.4379192131,3.1968773978\H,0,0.8164626097,0.9729347389,3.2156530434
 \H,0,2.4437127609,0.9900435204,3.8954896859\C,0,2.8987936634,0.2362047
 061,-2.1891674242\H,0,2.7275244069,1.3293449782,-2.1856736668\H,0,3.88
 55596326,0.0849624689,-2.6680921225\C,0,-2.1327377409,1.2932761004,2.8
 104414462\H,0,-2.4545389434,2.2235168376,3.3083235344\H,0,-1.246645663
 1,1.5332687172,2.198809709\H,0,-1.8191268624,0.5778794695,3.590930572\
 C,0,-1.1119724326,-2.7928178085,-2.6315526338\H,0,-0.288356278,-2.6784
 421532,-1.9016275618\H,0,-1.0307547469,-3.807031903,-3.0563908033\H,0,
 -0.9560531178,-2.0630494754,-3.44749584\C,0,1.5861462508,-0.9929265369
 ,3.7050387526\H,0,2.5165982536,-1.5819899321,3.6686703709\H,0,0.842163
 5009,-1.5409489684,3.1002667215\H,0,1.2309661271,-0.9737899466,4.74983
 55267\C,0,1.8134429651,-0.4599549982,-3.0168798891\H,0,1.9461585172,-1
 .55524498,-3.006271042\H,0,0.8068391456,-0.2467832836,-2.6171446015\H,
 0,1.8350151887,-0.1199599424,-4.0661166655\C,0,-1.8481872464,1.9940465
 483,-0.8691669285\H,0,-2.9154236481,1.7896690808,-1.0017065959\C,0,-1.
 3443121235,3.2611528419,-1.1899542612\H,0,-2.0204603579,4.0367898864,-
 1.5631325338\C,0,0.0220479452,3.5353997872,-1.0324051894\H,0,0.4157689
 875,4.52631819,-1.2794110806\C,0,0.8870461258,2.5362041382,-0.56853944
 96\H,0,1.9544282325,2.7537122463,-0.4543884927\\Version=ES64L-G09RevE.
 01\State=1-A\HF=-1541.813803\RMSD=2.712e-09\Dipole=-0.1027837,0.668276
 1,-0.1549572\Quadrupole=3.5325007,-0.2058333,-3.3266675,0.5964121,0.20
 06733,-1.2584772\PG=C01 [X(C22H36P2)]\\@


 HE THAT RISETH LATE MUST TROT ALL DAY.

                  -- BENJAMIN FRANKLIN
 Job cpu time:       0 days  0 hours 44 minutes 28.6 seconds.
 File lengths (MBytes):  RWF=    487 Int=      0 D2E=      0 Chk=     80 Scr=      1
 Normal termination of Gaussian 09 at Sun Dec  5 09:59:05 2021.
