 Entering Gaussian System, Link 0=g09
 Input=SS_Et_DuPhos_4_SPE_NoPd.com
 Output=SS_Et_DuPhos_4_SPE_NoPd.log
 Initial command:
 /gstore/apps/gaussian/g09.e01-foss-2017a/g09/l1.exe "/local/22791413/Gau-18858.inp" -scrdir="/local/22791413/"
 Entering Link 1 = /gstore/apps/gaussian/g09.e01-foss-2017a/g09/l1.exe PID=     18859.
  
 Copyright (c) 1988,1990,1992,1993,1995,1998,2003,2009,2015,
            Gaussian, Inc.  All Rights Reserved.
  
 This is part of the Gaussian(R) 09 program.  It is based on
 the Gaussian(R) 03 system (copyright 2003, Gaussian, Inc.),
 the Gaussian(R) 98 system (copyright 1998, Gaussian, Inc.),
 the Gaussian(R) 94 system (copyright 1995, Gaussian, Inc.),
 the Gaussian 92(TM) system (copyright 1992, Gaussian, Inc.),
 the Gaussian 90(TM) system (copyright 1990, Gaussian, Inc.),
 the Gaussian 88(TM) system (copyright 1988, Gaussian, Inc.),
 the Gaussian 86(TM) system (copyright 1986, Carnegie Mellon
 University), and the Gaussian 82(TM) system (copyright 1983,
 Carnegie Mellon University). Gaussian is a federally registered
 trademark of Gaussian, Inc.
  
 This software contains proprietary and confidential information,
 including trade secrets, belonging to Gaussian, Inc.
  
 This software is provided under written license and may be
 used, copied, transmitted, or stored only in accord with that
 written license.
  
 The following legend is applicable only to US Government
 contracts under FAR:
  
                    RESTRICTED RIGHTS LEGEND
  
 Use, reproduction and disclosure by the US Government is
 subject to restrictions as set forth in subparagraphs (a)
 and (c) of the Commercial Computer Software - Restricted
 Rights clause in FAR 52.227-19.
  
 Gaussian, Inc.
 340 Quinnipiac St., Bldg. 40, Wallingford CT 06492
  
  
 ---------------------------------------------------------------
 Warning -- This program may not be used in any manner that
 competes with the business of Gaussian, Inc. or will provide
 assistance to any competitor of Gaussian, Inc.  The licensee
 of this program is prohibited from giving any competitor of
 Gaussian, Inc. access to this program.  By using this program,
 the user acknowledges that Gaussian, Inc. is engaged in the
 business of creating and licensing software in the field of
 computational chemistry and represents and warrants to the
 licensee that it is not a competitor of Gaussian, Inc. and that
 it will not use this program in any manner prohibited above.
 ---------------------------------------------------------------
  

 Cite this work as:
 Gaussian 09, Revision E.01,
 M. J. Frisch, G. W. Trucks, H. B. Schlegel, G. E. Scuseria, 
 M. A. Robb, J. R. Cheeseman, G. Scalmani, V. Barone, B. Mennucci, 
 G. A. Petersson, H. Nakatsuji, M. Caricato, X. Li, H. P. Hratchian, 
 A. F. Izmaylov, J. Bloino, G. Zheng, J. L. Sonnenberg, M. Hada, 
 M. Ehara, K. Toyota, R. Fukuda, J. Hasegawa, M. Ishida, T. Nakajima, 
 Y. Honda, O. Kitao, H. Nakai, T. Vreven, J. A. Montgomery, Jr., 
 J. E. Peralta, F. Ogliaro, M. Bearpark, J. J. Heyd, E. Brothers, 
 K. N. Kudin, V. N. Staroverov, T. Keith, R. Kobayashi, J. Normand, 
 K. Raghavachari, A. Rendell, J. C. Burant, S. S. Iyengar, J. Tomasi, 
 M. Cossi, N. Rega, J. M. Millam, M. Klene, J. E. Knox, J. B. Cross, 
 V. Bakken, C. Adamo, J. Jaramillo, R. Gomperts, R. E. Stratmann, 
 O. Yazyev, A. J. Austin, R. Cammi, C. Pomelli, J. W. Ochterski, 
 R. L. Martin, K. Morokuma, V. G. Zakrzewski, G. A. Voth, 
 P. Salvador, J. J. Dannenberg, S. Dapprich, A. D. Daniels, 
 O. Farkas, J. B. Foresman, J. V. Ortiz, J. Cioslowski, 
 and D. J. Fox, Gaussian, Inc., Wallingford CT, 2013.
 
 ******************************************
 Gaussian 09:  ES64L-G09RevE.01 30-Nov-2015
                 5-Dec-2021 
 ******************************************
 %nprocs=14
 Will use up to   14 processors via shared memory.
 %mem=128GB
 %chk=SS_Et_DuPhos_4_SPE_NoPd.chk
 ----------------------------------------------------------------------
 # PBE1PBE/def2TZVP int=(grid=ultrafine) empiricaldispersion=GD3BJ nmr=
 giao
 ----------------------------------------------------------------------
 1/38=1/1;
 2/12=2,17=6,18=5,40=1/2;
 3/5=44,7=101,11=2,16=1,25=1,30=1,74=-13,75=-5,124=41/1,2,8,3;
 4//1;
 5/5=2,38=5/2;
 8/6=1,10=90,11=11/1;
 10/13=100,45=16/2;
 6/7=2,8=2,9=2,10=2,28=1/1;
 99/9=1/99;
 --------------------
 SS_Et_DuPhos_4 title
 --------------------
 Symbolic Z-matrix:
 Charge =  0 Multiplicity = 1
 P                    -1.60778  -0.63904   0.04777 
 P                     1.45109  -0.07414   0.32976 
 C                    -1.01165   1.06055  -0.36113 
 C                     0.37769   1.30867  -0.25916 
 C                    -3.06936  -0.59405   1.23742 
 H                    -2.84737  -1.47232   1.87378 
 C                    -2.63811  -1.15244  -1.44063 
 H                    -2.99409  -0.18016  -1.84124 
 C                     2.44634   0.66603   1.74471 
 H                     2.48486   1.74391   1.48159 
 C                     2.94387  -0.32081  -0.79466 
 H                     3.02877  -1.4246   -0.78937 
 C                    -4.30132  -0.92676   0.36497 
 H                    -5.08456  -1.39708   0.98514 
 H                    -4.72921   0.00851  -0.04927 
 C                    -3.84763  -1.84401  -0.78241 
 H                    -4.64772  -2.00394  -1.52748 
 H                    -3.54752  -2.82742  -0.37919 
 C                     3.85269   0.08656   1.49795 
 H                     4.5965    0.61004   2.1253 
 H                     3.87097  -0.98607   1.76038 
 C                     4.13733   0.2608   -0.00281 
 H                     5.07139  -0.24308  -0.30763 
 H                     4.25368   1.33766  -0.23999 
 C                    -3.20318   0.65299   2.11737 
 H                    -3.37045   1.54827   1.48862 
 H                    -4.12279   0.52946   2.72147 
 C                    -1.94276  -1.89104  -2.59648 
 H                    -1.22004  -1.20045  -3.06896 
 H                    -2.72437  -2.07053  -3.36114 
 C                     1.88056   0.56822   3.17138 
 H                     0.95697   1.17374   3.22414 
 H                     2.61019   1.08299   3.82749 
 C                     2.80799   0.17369  -2.23838 
 H                     2.6668    1.27124  -2.25477 
 H                     3.77603  -0.01597  -2.74119 
 C                    -2.00516   0.88251   3.04394 
 H                    -2.1854    1.72976   3.72699 
 H                    -1.09558   1.11037   2.462 
 H                    -1.79317  -0.01363   3.65206 
 C                    -1.24341  -3.21116  -2.26107 
 H                    -1.91133  -3.91954  -1.74558 
 H                    -0.87937  -3.68854  -3.18714 
 H                    -0.37734  -3.05428  -1.59369 
 C                     1.60328  -0.83494   3.71779 
 H                     2.48314  -1.4939    3.64509 
 H                     0.79037  -1.33458   3.16136 
 H                     1.30343  -0.77202   4.77805 
 C                     1.68008  -0.50922  -3.01806 
 H                     1.77687  -1.60787  -2.98041 
 H                     0.695    -0.24901  -2.59401 
 H                     1.68082  -0.19763  -4.07625 
 C                    -1.87279   2.09078  -0.78421 
 H                    -2.94911   1.90586  -0.86852 
 C                    -1.36082   3.35554  -1.1021 
 H                    -2.03803   4.15139  -1.4277 
 C                     0.01659   3.60088  -1.00303 
 H                     0.41778   4.58771  -1.25446 
 C                     0.88204   2.5828   -0.58196 
 H                     1.95587   2.78372  -0.5028 
 
 Stoichiometry    C22H36P2
 Framework group  C1[X(C22H36P2)]
 Deg. of freedom   174
 Full point group                 C1      NOp   1
 Largest Abelian subgroup         C1      NOp   1
 Largest concise Abelian subgroup C1      NOp   1
                         Standard orientation:                         
 ---------------------------------------------------------------------
 Center     Atomic      Atomic             Coordinates (Angstroms)
 Number     Number       Type             X           Y           Z
 ---------------------------------------------------------------------
      1         15           0        1.560014    0.072307   -0.490241
      2         15           0       -1.559987   -0.072346   -0.490219
      3          6           0        0.706012    0.046346    1.147188
      4          6           0       -0.705954   -0.046311    1.147198
      5          6           0        2.812145    1.477376   -0.597403
      6          1           0        2.681350    1.793383   -1.650315
      7          6           0        2.860438   -1.282262   -0.369787
      8          1           0        3.071616   -1.325143    0.719297
      9          6           0       -2.860435    1.282191   -0.369737
     10          1           0       -3.071560    1.325065    0.719357
     11          6           0       -2.812083   -1.477455   -0.597309
     12          1           0       -2.681299   -1.793486   -1.650214
     13          6           0        4.190894    0.790948   -0.465186
     14          1           0        4.960077    1.390792   -0.982699
     15          1           0        4.480949    0.738299    0.603695
     16          6           0        4.081685   -0.628749   -1.045025
     17          1           0        4.990151   -1.227291   -0.851929
     18          1           0        3.926622   -0.576129   -2.137237
     19          6           0       -4.081707    0.628647   -1.044902
     20          1           0       -4.990178    1.227162   -0.851742
     21          1           0       -3.926710    0.576045   -2.137122
     22          6           0       -4.190850   -0.791063   -0.465078
     23          1           0       -4.960020   -1.390933   -0.982581
     24          1           0       -4.480891   -0.738429    0.603808
     25          6           0        2.582421    2.676827    0.327724
     26          1           0        2.655724    2.362562    1.386349
     27          1           0        3.419047    3.382709    0.161381
     28          6           0        2.482892   -2.705313   -0.814109
     29          1           0        1.710009   -3.093755   -0.125458
     30          1           0        3.379815   -3.331165   -0.636155
     31          6           0       -2.482959    2.705260   -0.814073
     32          1           0       -1.709863    3.093634   -0.125619
     33          1           0       -3.379813    3.331122   -0.635807
     34          6           0       -2.582299   -2.676873    0.327848
     35          1           0       -2.655670   -2.362605    1.386467
     36          1           0       -3.418855   -3.382831    0.161481
     37          6           0        1.249410    3.392041    0.086831
     38          1           0        1.168708    4.303849    0.702420
     39          1           0        0.399332    2.737773    0.346077
     40          1           0        1.135586    3.678329   -0.972838
     41          6           0        2.014207   -2.883745   -2.260761
     42          1           0        2.731512   -2.469820   -2.987253
     43          1           0        1.877169   -3.956478   -2.480961
     44          1           0        1.052636   -2.371524   -2.442675
     45          6           0       -2.014727    2.883794   -2.260860
     46          1           0       -2.732281    2.469956   -2.987158
     47          1           0       -1.053235    2.371545   -2.443123
     48          1           0       -1.877711    3.956538   -2.481017
     49          6           0       -1.249213   -3.391964    0.087016
     50          1           0       -1.135327   -3.678261   -0.972645
     51          1           0       -0.399211   -2.737601    0.346273
     52          1           0       -1.168439   -4.303750    0.702627
     53          6           0        1.399887    0.091912    2.371287
     54          1           0        2.493029    0.160705    2.379774
     55          6           0        0.699764    0.047099    3.583968
     56          1           0        1.247260    0.085673    4.530947
     57          6           0       -0.699679   -0.046861    3.583979
     58          1           0       -1.247165   -0.085346    4.530967
     59          6           0       -1.399816   -0.091758    2.371310
     60          1           0       -2.492960   -0.160517    2.379817
 ---------------------------------------------------------------------
 Rotational constants (GHZ):      0.2569157      0.1692332      0.1504496
 Standard basis: def2TZVP (5D, 7F)
 There are  1092 symmetry adapted cartesian basis functions of A   symmetry.
 There are   972 symmetry adapted basis functions of A   symmetry.
   972 basis functions,  1548 primitive gaussians,  1092 cartesian basis functions
    99 alpha electrons       99 beta electrons
       nuclear repulsion energy      2621.6635316996 Hartrees.
 NAtoms=   60 NActive=   60 NUniq=   60 SFac= 1.00D+00 NAtFMM=   60 NAOKFM=T Big=T
 Integral buffers will be    131072 words long.
 Raffenetti 2 integral format.
 Two-electron integral symmetry is turned on.
 Nuclear repulsion after empirical dispersion term =     2621.5846496063 Hartrees.
 One-electron integrals computed using PRISM.
   1 Symmetry operations used in ECPInt.
 ECPInt:  NShTT=   85078 NPrTT=  253069 LenC2=   74383 LenP2D=  154341.
 LDataN:  DoStor=T MaxTD1= 6 Len=  172
 NBasis=   972 RedAO= T EigKep=  5.87D-06  NBF=   972
 NBsUse=   972 1.00D-06 EigRej= -1.00D+00 NBFU=   972
 ExpMin= 9.04D-02 ExpMax= 5.24D+04 ExpMxC= 1.79D+03 IAcc=3 IRadAn=         5 AccDes= 0.00D+00
 Harris functional with IExCor= 1009 and IRadAn=       5 diagonalized for initial guess.
 HarFok:  IExCor= 1009 AccDes= 0.00D+00 IRadAn=         5 IDoV= 1 UseB2=F ITyADJ=14
 ICtDFT=  3500011 ScaDFX=  1.000000  1.000000  1.000000  1.000000
 FoFCou: FMM=F IPFlag=           0 FMFlag=      100000 FMFlg1=        2001
         NFxFlg=           0 DoJE=T BraDBF=F KetDBF=T FulRan=T
         wScrn=  0.000000 ICntrl=     500 IOpCl=  0 I1Cent=   200000004 NGrid=           0
         NMat0=    1 NMatS0=      1 NMatT0=    0 NMatD0=    1 NMtDS0=    0 NMtDT0=    0
 Petite list used in FoFCou.
 Requested convergence on RMS density matrix=1.00D-08 within 128 cycles.
 Requested convergence on MAX density matrix=1.00D-06.
 Requested convergence on             energy=1.00D-06.
 No special actions if energy rises.
 Integral accuracy reduced to 1.0D-05 until final iterations.
 Rare condition: small coef for last iteration:  0.000D+00
 Rare condition: small coef for last iteration:  0.000D+00
 EnCoef did   100 forward-backward iterations
 Rare condition: small coef for last iteration:  0.000D+00
 EnCoef did   100 forward-backward iterations
 EnCoef did   100 forward-backward iterations
 Rare condition: small coef for last iteration:  0.283D-15
 EnCoef did   100 forward-backward iterations
 EnCoef did   100 forward-backward iterations
 Rare condition: small coef for last iteration:  0.114D-15
 Rare condition: small coef for last iteration:  0.000D+00
 Rare condition: small coef for last iteration:  0.000D+00
 Initial convergence to 1.0D-05 achieved.  Increase integral accuracy.
 SCF Done:  E(RPBE1PBE) =  -1541.81398551     A.U. after   27 cycles
            NFock= 27  Conv=0.40D-08     -V/T= 2.0044
 DoSCS=F DFT=T ScalE2(SS,OS)=  1.000000  1.000000
 Range of M.O.s used for correlation:     1   972
 NBasis=   972 NAE=    99 NBE=    99 NFC=     0 NFV=     0
 NROrb=    972 NOA=    99 NOB=    99 NVA=   873 NVB=   873

 **** Warning!!: The largest alpha MO coefficient is  0.61821825D+02

          Differentiating once with respect to magnetic field using GIAOs.
          Electric field/nuclear overlap derivatives assumed to be zero.
 FoFCou: FMM=F IPFlag=           0 FMFlag=      100000 FMFlg1=        2001
         NFxFlg=           0 DoJE=F BraDBF=F KetDBF=T FulRan=T
         wScrn=  0.000000 ICntrl=    6100 IOpCl=  0 I1Cent=           7 NGrid=          60
         NMat0=    1 NMatS0=      1 NMatT0=    0 NMatD0=    1 NMtDS0=    0 NMtDT0=    0
 Symmetry not used in FoFCou.
   1 Symmetry operations used in ECPInt.
 ECPInt:  NShTT=   85078 NPrTT=  253069 LenC2=   85079 LenP2D=  253069.
 LDataN:  DoStor=T MaxTD1= 7 Len=  274
 FoFJK:  IHMeth= 1 ICntrl=    6127 DoSepK=F KAlg= 0 I1Cent=   0 FoldK=F
 IRaf=         1 NMat=   1 IRICut=       1 DoRegI=T DoRafI=F ISym2E= 0.
          There are     3 degrees of freedom in the 1st order CPHF.  IDoFFX=0 NUNeed=     3.
      3 vectors produced by pass  0 Test12= 2.88D-12 3.33D-08 XBig12= 8.33D+01 1.68D+00.
 AX will form     3 AO Fock derivatives at one time.
      3 vectors produced by pass  1 Test12= 2.88D-12 3.33D-08 XBig12= 1.59D-01 1.74D-01.
      3 vectors produced by pass  2 Test12= 2.88D-12 3.33D-08 XBig12= 1.08D-03 1.14D-02.
      3 vectors produced by pass  3 Test12= 2.88D-12 3.33D-08 XBig12= 3.60D-06 3.93D-04.
      3 vectors produced by pass  4 Test12= 2.88D-12 3.33D-08 XBig12= 1.09D-08 4.42D-05.
      3 vectors produced by pass  5 Test12= 2.88D-12 3.33D-08 XBig12= 6.30D-11 4.63D-06.
      3 vectors produced by pass  6 Test12= 2.88D-12 3.33D-08 XBig12= 4.04D-13 2.46D-07.
 InvSVY:  IOpt=1 It=  1 EMax= 1.78D-15
 Solved reduced A of dimension    21 with     3 vectors.
 Calculating GIAO nuclear magnetic shielding tensors.
 SCF GIAO Magnetic shielding tensor (ppm):
      1  P    Isotropic =   329.6516   Anisotropy =    72.5208
   XX=   337.4701   YX=    22.7454   ZX=   -42.0779
   XY=     3.1956   YY=   326.1556   ZY=    30.1973
   XZ=   -46.3123   YZ=    27.3131   ZZ=   325.3292
   Eigenvalues:   270.2469   340.7092   377.9988
      2  P    Isotropic =   329.6479   Anisotropy =    72.5071
   XX=   337.4724   YX=    22.7500   ZX=    42.0809
   XY=     3.2066   YY=   326.1574   ZY=   -30.1890
   XZ=    46.3031   YZ=   -27.3119   ZZ=   325.3140
   Eigenvalues:   270.2422   340.7155   377.9860
      3  C    Isotropic =    29.5101   Anisotropy =   206.2203
   XX=   -28.7237   YX=   -13.1523   ZX=    23.8927
   XY=   -34.6372   YY=   163.3492   ZY=   -16.8282
   XZ=    25.8053   YZ=    -1.7574   ZZ=   -46.0952
   Eigenvalues:   -63.9141   -14.5459   166.9903
      4  C    Isotropic =    29.5089   Anisotropy =   206.2223
   XX=   -28.7271   YX=   -13.1518   ZX=   -23.8922
   XY=   -34.6382   YY=   163.3509   ZY=    16.8181
   XZ=   -25.8034   YZ=     1.7420   ZZ=   -46.0969
   Eigenvalues:   -63.9158   -14.5478   166.9905
      5  C    Isotropic =   139.2453   Anisotropy =    21.3981
   XX=   147.3023   YX=    -5.3494   ZX=    -6.5491
   XY=    -2.2160   YY=   146.1291   ZY=     4.5010
   XZ=    -5.8917   YZ=     9.5188   ZZ=   124.3046
   Eigenvalues:   121.2832   142.9421   153.5108
      6  H    Isotropic =    29.0546   Anisotropy =     6.2751
   XX=    27.9175   YX=     0.5468   ZX=    -0.5454
   XY=     0.3766   YY=    28.5602   ZY=    -3.5133
   XZ=     0.4113   YZ=    -3.3543   ZZ=    30.6861
   Eigenvalues:    25.9716    27.9542    33.2380
      7  C    Isotropic =   132.9638   Anisotropy =    25.5236
   XX=   147.9618   YX=    11.3560   ZX=    -2.2908
   XY=    -8.1565   YY=   134.3075   ZY=    11.9189
   XZ=   -13.1403   YZ=   -14.5879   ZZ=   116.6222
   Eigenvalues:   114.7805   134.1314   149.9796
      8  H    Isotropic =    28.7255   Anisotropy =     3.6595
   XX=    26.7140   YX=    -0.5393   ZX=     1.7373
   XY=    -2.0487   YY=    28.7676   ZY=     1.4107
   XZ=     1.1519   YZ=    -0.4688   ZZ=    30.6951
   Eigenvalues:    25.6395    29.3719    31.1652
      9  C    Isotropic =   132.9647   Anisotropy =    25.5224
   XX=   147.9619   YX=    11.3552   ZX=     2.2898
   XY=    -8.1575   YY=   134.3085   ZY=   -11.9169
   XZ=    13.1411   YZ=    14.5899   ZZ=   116.6236
   Eigenvalues:   114.7817   134.1327   149.9796
     10  H    Isotropic =    28.7255   Anisotropy =     3.6596
   XX=    26.7137   YX=    -0.5397   ZX=    -1.7371
   XY=    -2.0495   YY=    28.7673   ZY=    -1.4109
   XZ=    -1.1513   YZ=     0.4685   ZZ=    30.6954
   Eigenvalues:    25.6391    29.3722    31.1653
     11  C    Isotropic =   139.2451   Anisotropy =    21.3989
   XX=   147.3047   YX=    -5.3479   ZX=     6.5490
   XY=    -2.2155   YY=   146.1298   ZY=    -4.5015
   XZ=     5.8917   YZ=    -9.5186   ZZ=   124.3007
   Eigenvalues:   121.2797   142.9445   153.5110
     12  H    Isotropic =    29.0545   Anisotropy =     6.2749
   XX=    27.9177   YX=     0.5468   ZX=     0.5454
   XY=     0.3766   YY=    28.5600   ZY=     3.5135
   XZ=    -0.4115   YZ=     3.3544   ZZ=    30.6857
   Eigenvalues:    25.9712    27.9545    33.2378
     13  C    Isotropic =   145.0892   Anisotropy =    27.3233
   XX=   152.8328   YX=   -12.5732   ZX=    -0.5843
   XY=     1.6151   YY=   157.0409   ZY=     8.4843
   XZ=     5.8260   YZ=    16.7579   ZZ=   125.3938
   Eigenvalues:   120.4030   151.5598   163.3047
     14  H    Isotropic =    29.2909   Anisotropy =    10.3714
   XX=    33.4387   YX=     3.4286   ZX=    -2.9480
   XY=     3.6062   YY=    29.0942   ZY=    -1.4041
   XZ=    -2.8355   YZ=    -0.3414   ZZ=    25.3399
   Eigenvalues:    24.3960    27.2715    36.2052
     15  H    Isotropic =    29.7421   Anisotropy =     7.6656
   XX=    31.3243   YX=     0.0686   ZX=     4.2127
   XY=    -0.1446   YY=    27.5710   ZY=     1.4974
   XZ=     3.5580   YZ=     1.2463   ZZ=    30.3310
   Eigenvalues:    26.1035    28.2703    34.8525
     16  C    Isotropic =   151.7308   Anisotropy =    23.6582
   XX=   163.4726   YX=     1.4682   ZX=    -6.9509
   XY=     0.6554   YY=   165.1885   ZY=     5.0309
   XZ=   -16.0428   YZ=     9.1843   ZZ=   126.5314
   Eigenvalues:   122.0676   165.6220   167.5029
     17  H    Isotropic =    29.6489   Anisotropy =    11.0872
   XX=    35.1999   YX=    -3.7846   ZX=    -0.1764
   XY=    -3.6830   YY=    29.1385   ZY=     0.4691
   XZ=    -0.9870   YZ=     1.1752   ZZ=    24.6085
   Eigenvalues:    24.4632    27.4433    37.0404
     18  H    Isotropic =    29.5777   Anisotropy =     7.3703
   XX=    27.9175   YX=     1.2354   ZX=    -2.5730
   XY=     1.5188   YY=    27.6527   ZY=     1.8095
   XZ=    -2.5652   YZ=     2.1822   ZZ=    33.1628
   Eigenvalues:    25.1134    29.1284    34.4912
     19  C    Isotropic =   151.7320   Anisotropy =    23.6569
   XX=   163.4757   YX=     1.4667   ZX=     6.9484
   XY=     0.6553   YY=   165.1875   ZY=    -5.0302
   XZ=    16.0382   YZ=    -9.1842   ZZ=   126.5328
   Eigenvalues:   122.0710   165.6217   167.5033
     20  H    Isotropic =    29.6489   Anisotropy =    11.0871
   XX=    35.2001   YX=    -3.7845   ZX=     0.1757
   XY=    -3.6828   YY=    29.1382   ZY=    -0.4690
   XZ=     0.9864   YZ=    -1.1749   ZZ=    24.6084
   Eigenvalues:    24.4632    27.4432    37.0403
     21  H    Isotropic =    29.5776   Anisotropy =     7.3705
   XX=    27.9171   YX=     1.2355   ZX=     2.5733
   XY=     1.5189   YY=    27.6532   ZY=    -1.8098
   XZ=     2.5655   YZ=    -2.1826   ZZ=    33.1626
   Eigenvalues:    25.1130    29.1286    34.4913
     22  C    Isotropic =   145.0896   Anisotropy =    27.3243
   XX=   152.8352   YX=   -12.5750   ZX=     0.5834
   XY=     1.6134   YY=   157.0399   ZY=    -8.4850
   XZ=    -5.8265   YZ=   -16.7591   ZZ=   125.3936
   Eigenvalues:   120.4019   151.5610   163.3058
     23  H    Isotropic =    29.2909   Anisotropy =    10.3713
   XX=    33.4386   YX=     3.4286   ZX=     2.9479
   XY=     3.6062   YY=    29.0943   ZY=     1.4041
   XZ=     2.8353   YZ=     0.3413   ZZ=    25.3397
   Eigenvalues:    24.3959    27.2716    36.2051
     24  H    Isotropic =    29.7421   Anisotropy =     7.6656
   XX=    31.3240   YX=     0.0685   ZX=    -4.2127
   XY=    -0.1445   YY=    27.5711   ZY=    -1.4976
   XZ=    -3.5580   YZ=    -1.2465   ZZ=    30.3312
   Eigenvalues:    26.1033    28.2704    34.8525
     25  C    Isotropic =   157.3709   Anisotropy =    23.6783
   XX=   154.3692   YX=    -9.2109   ZX=     2.8089
   XY=   -10.5989   YY=   165.9988   ZY=     7.0304
   XZ=    -1.4694   YZ=     6.5440   ZZ=   151.7447
   Eigenvalues:   145.5682   153.3881   173.1564
     26  H    Isotropic =    29.9557   Anisotropy =     5.2297
   XX=    27.4567   YX=    -0.6221   ZX=     1.8508
   XY=     3.0024   YY=    29.4467   ZY=    -1.1724
   XZ=     1.4009   YZ=    -0.2180   ZZ=    32.9638
   Eigenvalues:    26.4228    30.0022    33.4422
     27  H    Isotropic =    29.7942   Anisotropy =    10.0967
   XX=    32.2216   YX=     3.4176   ZX=    -0.2505
   XY=     4.2549   YY=    33.0171   ZY=     0.6834
   XZ=     0.2603   YZ=     1.4028   ZZ=    24.1438
   Eigenvalues:    23.9941    28.8632    36.5253
     28  C    Isotropic =   159.2475   Anisotropy =    16.0503
   XX=   153.2066   YX=     2.9958   ZX=     4.7883
   XY=     0.4332   YY=   167.7780   ZY=     3.9380
   XZ=     5.3653   YZ=     4.6621   ZZ=   156.7579
   Eigenvalues:   149.5313   158.2635   169.9477
     29  H    Isotropic =    29.7799   Anisotropy =     6.7458
   XX=    30.2855   YX=     2.9800   ZX=    -3.3149
   XY=     1.6188   YY=    30.4437   ZY=     0.3270
   XZ=    -3.5345   YZ=    -1.6138   ZZ=    28.6105
   Eigenvalues:    25.7167    29.3460    34.2771
     30  H    Isotropic =    29.7117   Anisotropy =    10.0022
   XX=    29.8974   YX=    -3.6626   ZX=     2.8508
   XY=    -5.2376   YY=    32.8577   ZY=     0.4906
   XZ=     3.0343   YZ=    -0.4743   ZZ=    26.3800
   Eigenvalues:    24.0049    28.7505    36.3798
     31  C    Isotropic =   159.2479   Anisotropy =    16.0480
   XX=   153.2040   YX=     2.9950   ZX=    -4.7865
   XY=     0.4333   YY=   167.7776   ZY=    -3.9360
   XZ=    -5.3633   YZ=    -4.6614   ZZ=   156.7620
   Eigenvalues:   149.5330   158.2641   169.9466
     32  H    Isotropic =    29.7798   Anisotropy =     6.7471
   XX=    30.2872   YX=     2.9802   ZX=     3.3162
   XY=     1.6191   YY=    30.4433   ZY=    -0.3287
   XZ=     3.5360   YZ=     1.6124   ZZ=    28.6088
   Eigenvalues:    25.7146    29.3469    34.2778
     33  H    Isotropic =    29.7117   Anisotropy =    10.0020
   XX=    29.8951   YX=    -3.6625   ZX=    -2.8519
   XY=    -5.2377   YY=    32.8578   ZY=    -0.4893
   XZ=    -3.0354   YZ=     0.4758   ZZ=    26.3823
   Eigenvalues:    24.0049    28.7505    36.3797
     34  C    Isotropic =   157.3706   Anisotropy =    23.6794
   XX=   154.3693   YX=    -9.2120   ZX=    -2.8086
   XY=   -10.6007   YY=   165.9975   ZY=    -7.0310
   XZ=     1.4697   YZ=    -6.5442   ZZ=   151.7449
   Eigenvalues:   145.5671   153.3878   173.1568
     35  H    Isotropic =    29.9559   Anisotropy =     5.2297
   XX=    27.4574   YX=    -0.6224   ZX=    -1.8512
   XY=     3.0019   YY=    29.4467   ZY=     1.1719
   XZ=    -1.4016   YZ=     0.2176   ZZ=    32.9637
   Eigenvalues:    26.4234    30.0019    33.4424
     36  H    Isotropic =    29.7942   Anisotropy =    10.0969
   XX=    32.2210   YX=     3.4177   ZX=     0.2507
   XY=     4.2550   YY=    33.0176   ZY=    -0.6834
   XZ=    -0.2602   YZ=    -1.4028   ZZ=    24.1440
   Eigenvalues:    23.9942    28.8629    36.5254
     37  C    Isotropic =   169.3909   Anisotropy =    24.4917
   XX=   176.8517   YX=   -13.1646   ZX=     2.6473
   XY=    -9.2534   YY=   170.9382   ZY=     0.6279
   XZ=     4.1973   YZ=     0.3642   ZZ=   160.3827
   Eigenvalues:   158.5336   163.9204   185.7186
     38  H    Isotropic =    30.8457   Anisotropy =    11.0655
   XX=    28.6515   YX=    -2.7768   ZX=    -0.4874
   XY=    -1.1970   YY=    36.4712   ZY=     3.6087
   XZ=     0.1346   YZ=     3.9255   ZZ=    27.4144
   Eigenvalues:    25.9438    28.3706    38.2227
     39  H    Isotropic =    30.9481   Anisotropy =     9.4651
   XX=    35.4632   YX=     2.5408   ZX=    -0.0725
   XY=     2.5630   YY=    33.1297   ZY=    -4.3347
   XZ=     0.0913   YZ=    -0.7950   ZZ=    24.2515
   Eigenvalues:    23.5242    32.0620    37.2582
     40  H    Isotropic =    30.7096   Anisotropy =     7.8772
   XX=    29.9382   YX=    -1.1385   ZX=     3.0957
   XY=    -0.7055   YY=    30.7209   ZY=    -4.5949
   XZ=     2.0300   YZ=    -2.9489   ZZ=    31.4697
   Eigenvalues:    26.8394    29.3283    35.9611
     41  C    Isotropic =   176.1279   Anisotropy =    14.6040
   XX=   172.4845   YX=    -0.3952   ZX=     3.6694
   XY=    -0.4986   YY=   172.8459   ZY=     3.8182
   XZ=     5.0594   YZ=     4.9664   ZZ=   183.0535
   Eigenvalues:   169.4019   173.1180   185.8639
     42  H    Isotropic =    30.5564   Anisotropy =     8.2763
   XX=    29.4320   YX=     1.9052   ZX=    -3.1548
   XY=     1.9253   YY=    27.9557   ZY=     1.5978
   XZ=    -3.7445   YZ=     0.5343   ZZ=    34.2816
   Eigenvalues:    25.6011    29.9942    36.0739
     43  H    Isotropic =    30.6759   Anisotropy =    11.1012
   XX=    27.3158   YX=     1.2032   ZX=     0.3838
   XY=     0.7818   YY=    35.2072   ZY=     4.6431
   XZ=     0.6532   YZ=     5.0066   ZZ=    29.5046
   Eigenvalues:    26.7477    27.2032    38.0766
     44  H    Isotropic =    29.8818   Anisotropy =     7.5611
   XX=    33.5830   YX=    -2.8560   ZX=     1.5578
   XY=    -2.6600   YY=    27.5632   ZY=     2.5237
   XZ=     2.4566   YZ=     0.9494   ZZ=    28.4992
   Eigenvalues:    24.8942    29.8287    34.9225
     45  C    Isotropic =   176.1300   Anisotropy =    14.6063
   XX=   172.4832   YX=    -0.3949   ZX=    -3.6686
   XY=    -0.4978   YY=   172.8473   ZY=    -3.8178
   XZ=    -5.0553   YZ=    -4.9662   ZZ=   183.0594
   Eigenvalues:   169.4048   173.1175   185.8675
     46  H    Isotropic =    30.5564   Anisotropy =     8.2766
   XX=    29.4337   YX=     1.9052   ZX=     3.1564
   XY=     1.9251   YY=    27.9559   ZY=    -1.5991
   XZ=     3.7464   YZ=    -0.5355   ZZ=    34.2796
   Eigenvalues:    25.6004    29.9947    36.0741
     47  H    Isotropic =    29.8821   Anisotropy =     7.5599
   XX=    33.5809   YX=    -2.8561   ZX=    -1.5602
   XY=    -2.6603   YY=    27.5634   ZY=    -2.5226
   XZ=    -2.4589   YZ=    -0.9487   ZZ=    28.5019
   Eigenvalues:    24.8945    29.8296    34.9220
     48  H    Isotropic =    30.6758   Anisotropy =    11.1014
   XX=    27.3150   YX=     1.2026   ZX=    -0.3832
   XY=     0.7812   YY=    35.2077   ZY=    -4.6429
   XZ=    -0.6525   YZ=    -5.0066   ZZ=    29.5047
   Eigenvalues:    26.7480    27.2026    38.0768
     49  C    Isotropic =   169.3905   Anisotropy =    24.4908
   XX=   176.8537   YX=   -13.1621   ZX=    -2.6475
   XY=    -9.2520   YY=   170.9374   ZY=    -0.6287
   XZ=    -4.1976   YZ=    -0.3646   ZZ=   160.3806
   Eigenvalues:   158.5323   163.9216   185.7177
     50  H    Isotropic =    30.7095   Anisotropy =     7.8770
   XX=    29.9392   YX=    -1.1385   ZX=    -3.0967
   XY=    -0.7053   YY=    30.7204   ZY=     4.5945
   XZ=    -2.0311   YZ=     2.9484   ZZ=    31.4690
   Eigenvalues:    26.8388    29.3289    35.9608
     51  H    Isotropic =    30.9481   Anisotropy =     9.4652
   XX=    35.4623   YX=     2.5412   ZX=     0.0723
   XY=     2.5634   YY=    33.1307   ZY=     4.3351
   XZ=    -0.0916   YZ=     0.7947   ZZ=    24.2513
   Eigenvalues:    23.5241    32.0619    37.2582
     52  H    Isotropic =    30.8458   Anisotropy =    11.0653
   XX=    28.6521   YX=    -2.7770   ZX=     0.4876
   XY=    -1.1974   YY=    36.4707   ZY=    -3.6091
   XZ=    -0.1345   YZ=    -3.9260   ZZ=    27.4146
   Eigenvalues:    25.9437    28.3709    38.2227
     53  C    Isotropic =    42.9033   Anisotropy =   183.8508
   XX=   -69.7334   YX=    -8.5581   ZX=    -3.4943
   XY=    -7.4921   YY=   165.1960   ZY=     4.2499
   XZ=    -3.8928   YZ=    -3.9020   ZZ=    33.2473
   Eigenvalues:   -70.1386    33.3780   165.4705
     54  H    Isotropic =    23.3528   Anisotropy =    10.5099
   XX=    20.0568   YX=     0.1796   ZX=    -0.7826
   XY=     0.0780   YY=    19.7360   ZY=    -1.4148
   XZ=    -0.0919   YZ=    -0.3606   ZZ=    30.2657
   Eigenvalues:    19.6404    20.0587    30.3594
     55  C    Isotropic =    51.7232   Anisotropy =   184.0480
   XX=    14.4360   YX=   -10.8372   ZX=   -41.5161
   XY=   -12.0711   YY=   173.6018   ZY=    -2.3554
   XZ=   -42.9931   YZ=    -3.5836   ZZ=   -32.8681
   Eigenvalues:   -57.9423    38.6902   174.4219
     56  H    Isotropic =    23.8335   Anisotropy =     5.3778
   XX=    25.6415   YX=     0.4849   ZX=    -1.7795
   XY=     0.4735   YY=    20.1609   ZY=    -0.1928
   XZ=    -1.6550   YZ=    -0.2028   ZZ=    25.6981
   Eigenvalues:    20.1189    23.9629    27.4187
     57  C    Isotropic =    51.7230   Anisotropy =   184.0481
   XX=    14.4364   YX=   -10.8321   ZX=    41.5173
   XY=   -12.0665   YY=   173.6024   ZY=     2.3351
   XZ=    42.9937   YZ=     3.5665   ZZ=   -32.8697
   Eigenvalues:   -57.9428    38.6902   174.4218
     58  H    Isotropic =    23.8335   Anisotropy =     5.3778
   XX=    25.6415   YX=     0.4850   ZX=     1.7795
   XY=     0.4737   YY=    20.1610   ZY=     0.1932
   XZ=     1.6550   YZ=     0.2031   ZZ=    25.6980
   Eigenvalues:    20.1189    23.9629    27.4187
     59  C    Isotropic =    42.9039   Anisotropy =   183.8531
   XX=   -69.7340   YX=    -8.5503   ZX=     3.4947
   XY=    -7.4889   YY=   165.1984   ZY=    -4.2620
   XZ=     3.8949   YZ=     3.8910   ZZ=    33.2472
   Eigenvalues:   -70.1389    33.3779   165.4726
     60  H    Isotropic =    23.3528   Anisotropy =    10.5099
   XX=    20.0567   YX=     0.1796   ZX=     0.7829
   XY=     0.0776   YY=    19.7361   ZY=     1.4153
   XZ=     0.0921   YZ=     0.3611   ZZ=    30.2656
   Eigenvalues:    19.6405    20.0585    30.3594
 End of Minotr F.D. properties file   721 does not exist.
 End of Minotr F.D. properties file   722 does not exist.
 End of Minotr F.D. properties file   788 does not exist.

 **********************************************************************

            Population analysis using the SCF density.

 **********************************************************************

 Orbital symmetries:
       Occupied  (A) (A) (A) (A) (A) (A) (A) (A) (A) (A) (A) (A)
                 (A) (A) (A) (A) (A) (A) (A) (A) (A) (A) (A) (A)
                 (A) (A) (A) (A) (A) (A) (A) (A) (A) (A) (A) (A)
                 (A) (A) (A) (A) (A) (A) (A) (A) (A) (A) (A) (A)
                 (A) (A) (A) (A) (A) (A) (A) (A) (A) (A) (A) (A)
                 (A) (A) (A) (A) (A) (A) (A) (A) (A) (A) (A) (A)
                 (A) (A) (A) (A) (A) (A) (A) (A) (A) (A) (A) (A)
                 (A) (A) (A) (A) (A) (A) (A) (A) (A) (A) (A) (A)
                 (A) (A) (A)
       Virtual   (A) (A) (A) (A) (A) (A) (A) (A) (A) (A) (A) (A)
                 (A) (A) (A) (A) (A) (A) (A) (A) (A) (A) (A) (A)
                 (A) (A) (A) (A) (A) (A) (A) (A) (A) (A) (A) (A)
                 (A) (A) (A) (A) (A) (A) (A) (A) (A) (A) (A) (A)
                 (A) (A) (A) (A) (A) (A) (A) (A) (A) (A) (A) (A)
                 (A) (A) (A) (A) (A) (A) (A) (A) (A) (A) (A) (A)
                 (A) (A) (A) (A) (A) (A) (A) (A) (A) (A) (A) (A)
                 (A) (A) (A) (A) (A) (A) (A) (A) (A) (A) (A) (A)
                 (A) (A) (A) (A) (A) (A) (A) (A) (A) (A) (A) (A)
                 (A) (A) (A) (A) (A) (A) (A) (A) (A) (A) (A) (A)
                 (A) (A) (A) (A) (A) (A) (A) (A) (A) (A) (A) (A)
                 (A) (A) (A) (A) (A) (A) (A) (A) (A) (A) (A) (A)
                 (A) (A) (A) (A) (A) (A) (A) (A) (A) (A) (A) (A)
                 (A) (A) (A) (A) (A) (A) (A) (A) (A) (A) (A) (A)
                 (A) (A) (A) (A) (A) (A) (A) (A) (A) (A) (A) (A)
                 (A) (A) (A) (A) (A) (A) (A) (A) (A) (A) (A) (A)
                 (A) (A) (A) (A) (A) (A) (A) (A) (A) (A) (A) (A)
                 (A) (A) (A) (A) (A) (A) (A) (A) (A) (A) (A) (A)
                 (A) (A) (A) (A) (A) (A) (A) (A) (A) (A) (A) (A)
                 (A) (A) (A) (A) (A) (A) (A) (A) (A) (A) (A) (A)
                 (A) (A) (A) (A) (A) (A) (A) (A) (A) (A) (A) (A)
                 (A) (A) (A) (A) (A) (A) (A) (A) (A) (A) (A) (A)
                 (A) (A) (A) (A) (A) (A) (A) (A) (A) (A) (A) (A)
                 (A) (A) (A) (A) (A) (A) (A) (A) (A) (A) (A) (A)
                 (A) (A) (A) (A) (A) (A) (A) (A) (A) (A) (A) (A)
                 (A) (A) (A) (A) (A) (A) (A) (A) (A) (A) (A) (A)
                 (A) (A) (A) (A) (A) (A) (A) (A) (A) (A) (A) (A)
                 (A) (A) (A) (A) (A) (A) (A) (A) (A) (A) (A) (A)
                 (A) (A) (A) (A) (A) (A) (A) (A) (A) (A) (A) (A)
                 (A) (A) (A) (A) (A) (A) (A) (A) (A) (A) (A) (A)
                 (A) (A) (A) (A) (A) (A) (A) (A) (A) (A) (A) (A)
                 (A) (A) (A) (A) (A) (A) (A) (A) (A) (A) (A) (A)
                 (A) (A) (A) (A) (A) (A) (A) (A) (A) (A) (A) (A)
                 (A) (A) (A) (A) (A) (A) (A) (A) (A) (A) (A) (A)
                 (A) (A) (A) (A) (A) (A) (A) (A) (A) (A) (A) (A)
                 (A) (A) (A) (A) (A) (A) (A) (A) (A) (A) (A) (A)
                 (A) (A) (A) (A) (A) (A) (A) (A) (A) (A) (A) (A)
                 (A) (A) (A) (A) (A) (A) (A) (A) (A) (A) (A) (A)
                 (A) (A) (A) (A) (A) (A) (A) (A) (A) (A) (A) (A)
                 (A) (A) (A) (A) (A) (A) (A) (A) (A) (A) (A) (A)
                 (A) (A) (A) (A) (A) (A) (A) (A) (A) (A) (A) (A)
                 (A) (A) (A) (A) (A) (A) (A) (A) (A) (A) (A) (A)
                 (A) (A) (A) (A) (A) (A) (A) (A) (A) (A) (A) (A)
                 (A) (A) (A) (A) (A) (A) (A) (A) (A) (A) (A) (A)
                 (A) (A) (A) (A) (A) (A) (A) (A) (A) (A) (A) (A)
                 (A) (A) (A) (A) (A) (A) (A) (A) (A) (A) (A) (A)
                 (A) (A) (A) (A) (A) (A) (A) (A) (A) (A) (A) (A)
                 (A) (A) (A) (A) (A) (A) (A) (A) (A) (A) (A) (A)
                 (A) (A) (A) (A) (A) (A) (A) (A) (A) (A) (A) (A)
                 (A) (A) (A) (A) (A) (A) (A) (A) (A) (A) (A) (A)
                 (A) (A) (A) (A) (A) (A) (A) (A) (A) (A) (A) (A)
                 (A) (A) (A) (A) (A) (A) (A) (A) (A) (A) (A) (A)
                 (A) (A) (A) (A) (A) (A) (A) (A) (A) (A) (A) (A)
                 (A) (A) (A) (A) (A) (A) (A) (A) (A) (A) (A) (A)
                 (A) (A) (A) (A) (A) (A) (A) (A) (A) (A) (A) (A)
                 (A) (A) (A) (A) (A) (A) (A) (A) (A) (A) (A) (A)
                 (A) (A) (A) (A) (A) (A) (A) (A) (A) (A) (A) (A)
                 (A) (A) (A) (A) (A) (A) (A) (A) (A) (A) (A) (A)
                 (A) (A) (A) (A) (A) (A) (A) (A) (A) (A) (A) (A)
                 (A) (A) (A) (A) (A) (A) (A) (A) (A) (A) (A) (A)
                 (A) (A) (A) (A) (A) (A) (A) (A) (A) (A) (A) (A)
                 (A) (A) (A) (A) (A) (A) (A) (A) (A) (A) (A) (A)
                 (A) (A) (A) (A) (A) (A) (A) (A) (A) (A) (A) (A)
                 (A) (A) (A) (A) (A) (A) (A) (A) (A) (A) (A) (A)
                 (A) (A) (A) (A) (A) (A) (A) (A) (A) (A) (A) (A)
                 (A) (A) (A) (A) (A) (A) (A) (A) (A) (A) (A) (A)
                 (A) (A) (A) (A) (A) (A) (A) (A) (A) (A) (A) (A)
                 (A) (A) (A) (A) (A) (A) (A) (A) (A) (A) (A) (A)
                 (A) (A) (A) (A) (A) (A) (A) (A) (A) (A) (A) (A)
                 (A) (A) (A) (A) (A) (A) (A) (A) (A) (A) (A) (A)
                 (A) (A) (A) (A) (A) (A) (A) (A) (A) (A) (A) (A)
                 (A) (A) (A) (A) (A) (A) (A) (A) (A) (A) (A) (A)
                 (A) (A) (A) (A) (A) (A) (A) (A) (A)
 The electronic state is 1-A.
 Alpha  occ. eigenvalues --  -77.17308 -77.17308 -10.24171 -10.24120 -10.23915
 Alpha  occ. eigenvalues --  -10.23874 -10.23830 -10.23816 -10.22729 -10.22729
 Alpha  occ. eigenvalues --  -10.22480 -10.22480 -10.22181 -10.22181 -10.22063
 Alpha  occ. eigenvalues --  -10.22063 -10.22059 -10.22059 -10.21712 -10.21712
 Alpha  occ. eigenvalues --  -10.20722 -10.20722 -10.20178 -10.20178  -6.57023
 Alpha  occ. eigenvalues --   -6.57023  -4.70628  -4.70628  -4.70571  -4.70571
 Alpha  occ. eigenvalues --   -4.70125  -4.70125  -0.88428  -0.84982  -0.84882
 Alpha  occ. eigenvalues --   -0.80334  -0.80210  -0.77797  -0.77457  -0.76993
 Alpha  occ. eigenvalues --   -0.76827  -0.70939  -0.70799  -0.68572  -0.67950
 Alpha  occ. eigenvalues --   -0.64033  -0.63965  -0.61862  -0.61450  -0.61371
 Alpha  occ. eigenvalues --   -0.60509  -0.57397  -0.56815  -0.54589  -0.51786
 Alpha  occ. eigenvalues --   -0.49717  -0.48450  -0.48360  -0.47403  -0.47212
 Alpha  occ. eigenvalues --   -0.46312  -0.46072  -0.45282  -0.45098  -0.44552
 Alpha  occ. eigenvalues --   -0.43883  -0.43119  -0.43058  -0.41833  -0.41668
 Alpha  occ. eigenvalues --   -0.41020  -0.40854  -0.39877  -0.39099  -0.38658
 Alpha  occ. eigenvalues --   -0.38532  -0.38334  -0.36724  -0.36549  -0.36041
 Alpha  occ. eigenvalues --   -0.35725  -0.35662  -0.35120  -0.35084  -0.34687
 Alpha  occ. eigenvalues --   -0.33380  -0.33282  -0.32786  -0.32780  -0.32382
 Alpha  occ. eigenvalues --   -0.32196  -0.31585  -0.30845  -0.30752  -0.29663
 Alpha  occ. eigenvalues --   -0.26747  -0.25874  -0.23486  -0.17126
 Alpha virt. eigenvalues --   -0.03032  -0.03006   0.03576   0.03778   0.04081
 Alpha virt. eigenvalues --    0.04538   0.04744   0.05526   0.05920   0.07094
 Alpha virt. eigenvalues --    0.07256   0.07430   0.07663   0.07809   0.08592
 Alpha virt. eigenvalues --    0.08799   0.09326   0.09776   0.09917   0.10657
 Alpha virt. eigenvalues --    0.10683   0.10878   0.11443   0.11476   0.12222
 Alpha virt. eigenvalues --    0.12627   0.12684   0.12948   0.13116   0.13696
 Alpha virt. eigenvalues --    0.13994   0.14355   0.15019   0.15080   0.15317
 Alpha virt. eigenvalues --    0.15647   0.15858   0.16411   0.16615   0.16727
 Alpha virt. eigenvalues --    0.17087   0.17297   0.17530   0.18012   0.18363
 Alpha virt. eigenvalues --    0.19138   0.19208   0.19399   0.19872   0.20007
 Alpha virt. eigenvalues --    0.20239   0.20749   0.20759   0.21323   0.21548
 Alpha virt. eigenvalues --    0.22018   0.22192   0.22430   0.22646   0.22953
 Alpha virt. eigenvalues --    0.23250   0.23642   0.24451   0.24547   0.24925
 Alpha virt. eigenvalues --    0.25378   0.25729   0.26096   0.26494   0.26803
 Alpha virt. eigenvalues --    0.27316   0.27741   0.27920   0.28566   0.28799
 Alpha virt. eigenvalues --    0.29613   0.29846   0.30049   0.30524   0.30590
 Alpha virt. eigenvalues --    0.31159   0.31411   0.32274   0.32850   0.33193
 Alpha virt. eigenvalues --    0.33779   0.34277   0.34333   0.34948   0.35700
 Alpha virt. eigenvalues --    0.36063   0.36407   0.36898   0.36971   0.38108
 Alpha virt. eigenvalues --    0.38749   0.39079   0.39154   0.39863   0.40106
 Alpha virt. eigenvalues --    0.40599   0.41048   0.41713   0.41808   0.42136
 Alpha virt. eigenvalues --    0.42375   0.42479   0.42723   0.42796   0.43274
 Alpha virt. eigenvalues --    0.43533   0.43699   0.43874   0.44025   0.44275
 Alpha virt. eigenvalues --    0.44407   0.44606   0.44720   0.44990   0.45223
 Alpha virt. eigenvalues --    0.45254   0.45662   0.45816   0.46195   0.46217
 Alpha virt. eigenvalues --    0.46471   0.46884   0.47275   0.47694   0.47848
 Alpha virt. eigenvalues --    0.47963   0.48253   0.48744   0.49130   0.49229
 Alpha virt. eigenvalues --    0.49503   0.49531   0.49999   0.50153   0.50581
 Alpha virt. eigenvalues --    0.50713   0.50752   0.51187   0.51454   0.52144
 Alpha virt. eigenvalues --    0.52217   0.52273   0.52806   0.53051   0.53381
 Alpha virt. eigenvalues --    0.53876   0.53933   0.54107   0.54413   0.54466
 Alpha virt. eigenvalues --    0.54977   0.55245   0.55979   0.56021   0.56324
 Alpha virt. eigenvalues --    0.56711   0.57375   0.57951   0.59799   0.60047
 Alpha virt. eigenvalues --    0.60811   0.61076   0.61418   0.62026   0.62683
 Alpha virt. eigenvalues --    0.63732   0.64025   0.64301   0.64605   0.65062
 Alpha virt. eigenvalues --    0.65612   0.65638   0.66222   0.66849   0.67647
 Alpha virt. eigenvalues --    0.68119   0.68303   0.69467   0.70040   0.70713
 Alpha virt. eigenvalues --    0.71034   0.72034   0.72605   0.73179   0.73532
 Alpha virt. eigenvalues --    0.73569   0.74736   0.74934   0.75638   0.76157
 Alpha virt. eigenvalues --    0.77038   0.77474   0.77763   0.78161   0.79329
 Alpha virt. eigenvalues --    0.79760   0.80315   0.80830   0.81164   0.81354
 Alpha virt. eigenvalues --    0.82373   0.84051   0.84519   0.84993   0.85093
 Alpha virt. eigenvalues --    0.85480   0.86098   0.86328   0.86690   0.87309
 Alpha virt. eigenvalues --    0.87351   0.87773   0.88480   0.89578   0.89684
 Alpha virt. eigenvalues --    0.90199   0.90311   0.91436   0.91773   0.92070
 Alpha virt. eigenvalues --    0.92943   0.93115   0.93186   0.93583   0.94264
 Alpha virt. eigenvalues --    0.94647   0.94800   0.95562   0.96466   0.97275
 Alpha virt. eigenvalues --    0.97334   0.98742   0.99660   0.99960   1.01239
 Alpha virt. eigenvalues --    1.02022   1.02422   1.02772   1.02865   1.03815
 Alpha virt. eigenvalues --    1.04107   1.04927   1.05454   1.05758   1.06022
 Alpha virt. eigenvalues --    1.06406   1.07197   1.08127   1.08593   1.09449
 Alpha virt. eigenvalues --    1.10192   1.10596   1.10958   1.11474   1.12364
 Alpha virt. eigenvalues --    1.13293   1.13688   1.13839   1.14637   1.14752
 Alpha virt. eigenvalues --    1.15584   1.16042   1.16407   1.17096   1.18994
 Alpha virt. eigenvalues --    1.19171   1.19492   1.19949   1.20585   1.20751
 Alpha virt. eigenvalues --    1.21182   1.21932   1.22506   1.23025   1.23129
 Alpha virt. eigenvalues --    1.23551   1.23798   1.24677   1.25951   1.25956
 Alpha virt. eigenvalues --    1.26370   1.27350   1.27358   1.27554   1.28379
 Alpha virt. eigenvalues --    1.29378   1.30103   1.30476   1.30887   1.31254
 Alpha virt. eigenvalues --    1.31954   1.32752   1.33599   1.33748   1.34650
 Alpha virt. eigenvalues --    1.35787   1.35967   1.38018   1.38219   1.38881
 Alpha virt. eigenvalues --    1.39361   1.40942   1.41495   1.41891   1.42477
 Alpha virt. eigenvalues --    1.42666   1.44904   1.44921   1.47141   1.48478
 Alpha virt. eigenvalues --    1.48608   1.49149   1.50162   1.50652   1.50886
 Alpha virt. eigenvalues --    1.51827   1.52896   1.53120   1.53624   1.54263
 Alpha virt. eigenvalues --    1.55306   1.55490   1.55614   1.56209   1.56455
 Alpha virt. eigenvalues --    1.56833   1.57375   1.58052   1.58800   1.58838
 Alpha virt. eigenvalues --    1.59182   1.59723   1.59916   1.60776   1.61003
 Alpha virt. eigenvalues --    1.61434   1.61816   1.62198   1.62904   1.63034
 Alpha virt. eigenvalues --    1.63357   1.63753   1.64380   1.64416   1.64571
 Alpha virt. eigenvalues --    1.64794   1.64870   1.65793   1.66665   1.66860
 Alpha virt. eigenvalues --    1.67265   1.67360   1.67635   1.67809   1.68764
 Alpha virt. eigenvalues --    1.68963   1.69315   1.69766   1.69890   1.70305
 Alpha virt. eigenvalues --    1.71383   1.72292   1.72946   1.72987   1.73425
 Alpha virt. eigenvalues --    1.74658   1.75586   1.76300   1.76986   1.77354
 Alpha virt. eigenvalues --    1.77775   1.78310   1.78559   1.79239   1.79932
 Alpha virt. eigenvalues --    1.80646   1.81048   1.81264   1.81722   1.82395
 Alpha virt. eigenvalues --    1.82791   1.83862   1.83920   1.84282   1.84862
 Alpha virt. eigenvalues --    1.85401   1.85614   1.86406   1.87008   1.87254
 Alpha virt. eigenvalues --    1.88675   1.88880   1.88929   1.89310   1.90590
 Alpha virt. eigenvalues --    1.90716   1.91869   1.92102   1.92803   1.93637
 Alpha virt. eigenvalues --    1.95014   1.95025   1.95109   1.96143   1.98350
 Alpha virt. eigenvalues --    1.99775   1.99877   2.00632   2.00895   2.02035
 Alpha virt. eigenvalues --    2.02826   2.02973   2.03341   2.04103   2.04306
 Alpha virt. eigenvalues --    2.04970   2.05050   2.05398   2.05790   2.06202
 Alpha virt. eigenvalues --    2.06295   2.07544   2.08297   2.08588   2.09048
 Alpha virt. eigenvalues --    2.10132   2.11384   2.12305   2.13167   2.13215
 Alpha virt. eigenvalues --    2.13966   2.14876   2.15889   2.16247   2.16307
 Alpha virt. eigenvalues --    2.17622   2.19772   2.20718   2.20786   2.21688
 Alpha virt. eigenvalues --    2.22105   2.22798   2.23011   2.24872   2.25302
 Alpha virt. eigenvalues --    2.26017   2.26520   2.27746   2.28564   2.29761
 Alpha virt. eigenvalues --    2.29846   2.31094   2.31418   2.31770   2.32451
 Alpha virt. eigenvalues --    2.34546   2.34902   2.35451   2.35655   2.37004
 Alpha virt. eigenvalues --    2.37051   2.37366   2.37566   2.38391   2.38738
 Alpha virt. eigenvalues --    2.39132   2.39513   2.40437   2.40556   2.41166
 Alpha virt. eigenvalues --    2.42107   2.42291   2.42600   2.43511   2.43859
 Alpha virt. eigenvalues --    2.44650   2.46059   2.46106   2.46877   2.47132
 Alpha virt. eigenvalues --    2.47390   2.47618   2.47860   2.49076   2.50454
 Alpha virt. eigenvalues --    2.50919   2.51258   2.51566   2.52116   2.53003
 Alpha virt. eigenvalues --    2.53261   2.53993   2.54852   2.54998   2.55202
 Alpha virt. eigenvalues --    2.55935   2.56962   2.57332   2.58941   2.59000
 Alpha virt. eigenvalues --    2.59788   2.59805   2.60544   2.60597   2.60970
 Alpha virt. eigenvalues --    2.61177   2.61541   2.61712   2.62299   2.62757
 Alpha virt. eigenvalues --    2.63044   2.63838   2.63886   2.64174   2.64787
 Alpha virt. eigenvalues --    2.65037   2.65311   2.65706   2.66243   2.66660
 Alpha virt. eigenvalues --    2.66905   2.67403   2.67442   2.68490   2.68715
 Alpha virt. eigenvalues --    2.68977   2.69313   2.69859   2.70053   2.70580
 Alpha virt. eigenvalues --    2.71087   2.71120   2.71654   2.71767   2.72003
 Alpha virt. eigenvalues --    2.73084   2.73623   2.73850   2.74684   2.75062
 Alpha virt. eigenvalues --    2.75405   2.76449   2.76971   2.77233   2.77696
 Alpha virt. eigenvalues --    2.77718   2.78098   2.78326   2.79479   2.79890
 Alpha virt. eigenvalues --    2.80424   2.80655   2.81343   2.82223   2.83949
 Alpha virt. eigenvalues --    2.83992   2.84531   2.84651   2.85635   2.86658
 Alpha virt. eigenvalues --    2.86688   2.87061   2.88235   2.89298   2.89488
 Alpha virt. eigenvalues --    2.90475   2.90660   2.91989   2.92464   2.92658
 Alpha virt. eigenvalues --    2.92770   2.94862   2.95675   2.96205   2.96654
 Alpha virt. eigenvalues --    2.97080   2.99265   3.00651   3.01127   3.01269
 Alpha virt. eigenvalues --    3.02113   3.02907   3.03458   3.04331   3.04644
 Alpha virt. eigenvalues --    3.05303   3.06210   3.08458   3.08674   3.09181
 Alpha virt. eigenvalues --    3.09745   3.09910   3.11878   3.12128   3.12527
 Alpha virt. eigenvalues --    3.13946   3.14702   3.15033   3.15878   3.16145
 Alpha virt. eigenvalues --    3.16709   3.16851   3.17071   3.17295   3.17981
 Alpha virt. eigenvalues --    3.18182   3.18802   3.19369   3.19458   3.20027
 Alpha virt. eigenvalues --    3.20038   3.20651   3.21441   3.21506   3.23223
 Alpha virt. eigenvalues --    3.23475   3.24990   3.25219   3.25868   3.26189
 Alpha virt. eigenvalues --    3.26279   3.27103   3.27575   3.27640   3.28332
 Alpha virt. eigenvalues --    3.28662   3.29136   3.29892   3.30301   3.30589
 Alpha virt. eigenvalues --    3.31127   3.31544   3.32798   3.32931   3.34034
 Alpha virt. eigenvalues --    3.34271   3.34821   3.35620   3.35625   3.36221
 Alpha virt. eigenvalues --    3.36556   3.36956   3.37472   3.37784   3.38352
 Alpha virt. eigenvalues --    3.38520   3.39272   3.39716   3.39828   3.40445
 Alpha virt. eigenvalues --    3.40835   3.41090   3.41539   3.41709   3.41791
 Alpha virt. eigenvalues --    3.43127   3.43235   3.43941   3.44191   3.45493
 Alpha virt. eigenvalues --    3.45599   3.46154   3.46267   3.46894   3.47231
 Alpha virt. eigenvalues --    3.48136   3.48865   3.49253   3.49316   3.49833
 Alpha virt. eigenvalues --    3.50642   3.51199   3.51280   3.52545   3.53113
 Alpha virt. eigenvalues --    3.53275   3.55111   3.55436   3.55440   3.56030
 Alpha virt. eigenvalues --    3.56477   3.57189   3.57445   3.58091   3.59081
 Alpha virt. eigenvalues --    3.59318   3.59488   3.59785   3.60078   3.60538
 Alpha virt. eigenvalues --    3.61893   3.62593   3.63186   3.64440   3.64865
 Alpha virt. eigenvalues --    3.64943   3.65116   3.65454   3.66176   3.66931
 Alpha virt. eigenvalues --    3.67080   3.68206   3.68689   3.68900   3.70037
 Alpha virt. eigenvalues --    3.72232   3.73100   3.73122   3.74968   3.75753
 Alpha virt. eigenvalues --    3.76467   3.76658   3.78052   3.78388   3.78975
 Alpha virt. eigenvalues --    3.79852   3.80256   3.81184   3.81521   3.82532
 Alpha virt. eigenvalues --    3.84403   3.84596   3.85623   3.86532   3.90861
 Alpha virt. eigenvalues --    3.90909   3.91665   3.91681   3.92943   3.93577
 Alpha virt. eigenvalues --    3.94270   3.95214   3.95750   3.96783   3.97866
 Alpha virt. eigenvalues --    3.97931   3.98746   3.98860   4.00168   4.00261
 Alpha virt. eigenvalues --    4.01126   4.02452   4.02457   4.03297   4.05331
 Alpha virt. eigenvalues --    4.05486   4.05739   4.07736   4.08247   4.09104
 Alpha virt. eigenvalues --    4.09731   4.10680   4.12616   4.13568   4.15511
 Alpha virt. eigenvalues --    4.15936   4.16646   4.17971   4.18032   4.19302
 Alpha virt. eigenvalues --    4.19855   4.20079   4.21306   4.22305   4.22873
 Alpha virt. eigenvalues --    4.23360   4.23375   4.24293   4.24742   4.25490
 Alpha virt. eigenvalues --    4.28958   4.29738   4.30298   4.30805   4.32513
 Alpha virt. eigenvalues --    4.34114   4.35027   4.35948   4.36036   4.37507
 Alpha virt. eigenvalues --    4.38203   4.41639   4.41779   4.42404   4.42813
 Alpha virt. eigenvalues --    4.43681   4.45433   4.45730   4.46186   4.46594
 Alpha virt. eigenvalues --    4.48913   4.50211   4.55379   4.56145   4.57545
 Alpha virt. eigenvalues --    4.57578   4.58198   4.58608   4.59032   4.61845
 Alpha virt. eigenvalues --    4.62658   4.63015   4.63477   4.64060   4.65004
 Alpha virt. eigenvalues --    4.65744   4.67073   4.68254   4.69563   4.71350
 Alpha virt. eigenvalues --    4.71858   4.76065   4.76475   4.76872   4.79421
 Alpha virt. eigenvalues --    4.79995   4.85409   4.85940   4.86671   4.86918
 Alpha virt. eigenvalues --    4.88341   4.89377   4.94518   4.99580   5.00719
 Alpha virt. eigenvalues --    5.03218   5.04910   5.04921   5.11579   5.12766
 Alpha virt. eigenvalues --    5.16555   5.16832   5.18998   5.20178   5.23188
 Alpha virt. eigenvalues --    5.39363   5.47078   5.57026   7.77183   7.85885
 Alpha virt. eigenvalues --    7.88269   7.95226   8.00269   8.13658  15.53439
 Alpha virt. eigenvalues --   15.81020  22.21895  22.39584  22.40076  22.41478
 Alpha virt. eigenvalues --   22.44023  22.48940  22.50973  22.55741  22.57046
 Alpha virt. eigenvalues --   22.57201  22.57467  22.59753  22.60511  22.62488
 Alpha virt. eigenvalues --   22.66564  22.69197  22.70752  22.77408  22.79464
 Alpha virt. eigenvalues --   22.81799  22.95153  23.25476
          Condensed to atoms (all electrons):
 Mulliken charges:
               1
     1  P   -0.012436
     2  P   -0.012421
     3  C    0.024583
     4  C    0.024526
     5  C   -0.112495
     6  H    0.093561
     7  C   -0.083011
     8  H    0.079332
     9  C   -0.082996
    10  H    0.079324
    11  C   -0.112491
    12  H    0.093562
    13  C   -0.170821
    14  H    0.104378
    15  H    0.089460
    16  C   -0.184879
    17  H    0.106378
    18  H    0.105187
    19  C   -0.184885
    20  H    0.106378
    21  H    0.105188
    22  C   -0.170827
    23  H    0.104379
    24  H    0.089459
    25  C   -0.128477
    26  H    0.092376
    27  H    0.096423
    28  C   -0.173019
    29  H    0.120041
    30  H    0.094182
    31  C   -0.173001
    32  H    0.120035
    33  H    0.094181
    34  C   -0.128476
    35  H    0.092379
    36  H    0.096424
    37  C   -0.379974
    38  H    0.122218
    39  H    0.112136
    40  H    0.119244
    41  C   -0.407910
    42  H    0.115865
    43  H    0.121228
    44  H    0.144822
    45  C   -0.407917
    46  H    0.115869
    47  H    0.144815
    48  H    0.121232
    49  C   -0.379982
    50  H    0.119247
    51  H    0.112140
    52  H    0.122216
    53  C   -0.218221
    54  H    0.136663
    55  C   -0.124939
    56  H    0.118125
    57  C   -0.124947
    58  H    0.118125
    59  C   -0.218215
    60  H    0.136659
 Sum of Mulliken charges =  -0.00000
 Mulliken charges with hydrogens summed into heavy atoms:
               1
     1  P   -0.012436
     2  P   -0.012421
     3  C    0.024583
     4  C    0.024526
     5  C   -0.018934
     7  C   -0.003680
     9  C   -0.003673
    11  C   -0.018929
    13  C    0.023016
    16  C    0.026686
    19  C    0.026680
    22  C    0.023012
    25  C    0.060322
    28  C    0.041204
    31  C    0.041216
    34  C    0.060326
    37  C   -0.026376
    41  C   -0.025994
    45  C   -0.026000
    49  C   -0.026379
    53  C   -0.081558
    55  C   -0.006814
    57  C   -0.006822
    59  C   -0.081556
 Electronic spatial extent (au):  <R**2>=           8949.9851
 Charge=             -0.0000 electrons
 Dipole moment (field-independent basis, Debye):
    X=             -0.0000    Y=              0.0001    Z=              1.8138  Tot=              1.8138
 Quadrupole moment (field-independent basis, Debye-Ang):
   XX=           -156.4711   YY=           -166.2545   ZZ=           -161.8132
   XY=              1.6381   XZ=             -0.0002   YZ=              0.0003
 Traceless Quadrupole moment (field-independent basis, Debye-Ang):
   XX=              5.0418   YY=             -4.7416   ZZ=             -0.3003
   XY=              1.6381   XZ=             -0.0002   YZ=              0.0003
 Octapole moment (field-independent basis, Debye-Ang**2):
  XXX=              0.0004  YYY=             -0.0002  ZZZ=             34.3853  XYY=             -0.0003
  XXY=              0.0005  XXZ=              1.8008  XZZ=              0.0008  YZZ=              0.0023
  YYZ=            -10.1644  XYZ=             -3.4629
 Hexadecapole moment (field-independent basis, Debye-Ang**3):
 XXXX=          -6377.3330 YYYY=          -3677.3953 ZZZZ=          -2332.4073 XXXY=             -8.4557
 XXXZ=             -0.0011 YYYX=             13.9738 YYYZ=             -0.0039 ZZZX=             -0.0036
 ZZZY=              0.0099 XXYY=          -1680.4160 XXZZ=          -1436.6368 YYZZ=          -1065.5542
 XXYZ=              0.0047 YYXZ=             -0.0006 ZZXY=             21.2335
 N-N= 2.621584649606D+03 E-N=-8.859108428922D+03  KE= 1.535020824897D+03
 1\1\GINC-NC046\SP\RPBE1PBE\def2TZVP\C22H36P2\MACKK4\05-Dec-2021\0\\# P
 BE1PBE/def2TZVP int=(grid=ultrafine) empiricaldispersion=GD3BJ nmr=gia
 o\\SS_Et_DuPhos_4 title\\0,1\P,0,-1.607776249,-0.6390421867,0.04776628
 94\P,0,1.4510946356,-0.0741372524,0.3297594972\C,0,-1.0116478362,1.060
 5455527,-0.3611328411\C,0,0.3776921824,1.3086740106,-0.2591583924\C,0,
 -3.0693591679,-0.5940473427,1.237424561\H,0,-2.8473685447,-1.472320359
 8,1.8737801111\C,0,-2.6381050268,-1.1524362678,-1.4406283284\H,0,-2.99
 40930859,-0.1801598687,-1.8412387066\C,0,2.4463417651,0.6660294321,1.7
 447113582\H,0,2.4848636938,1.7439082099,1.4815924574\C,0,2.9438724636,
 -0.3208097098,-0.7946555403\H,0,3.0287704535,-1.4246000221,-0.78936547
 13\C,0,-4.3013240873,-0.9267603228,0.3649701612\H,0,-5.0845643316,-1.3
 970794535,0.9851395\H,0,-4.7292133053,0.0085070077,-0.0492730668\C,0,-
 3.8476285551,-1.8440118238,-0.7824129186\H,0,-4.6477221708,-2.00393915
 84,-1.5274789583\H,0,-3.5475228981,-2.8274187021,-0.379191291\C,0,3.85
 26851799,0.0865605518,1.4979537394\H,0,4.5965003706,0.6100376291,2.125
 2988839\H,0,3.8709680981,-0.9860695721,1.7603797943\C,0,4.1373261418,0
 .2608031885,-0.0028132729\H,0,5.0713869075,-0.2430761183,-0.3076282629
 \H,0,4.2536754954,1.3376601995,-0.2399884536\C,0,-3.2031799245,0.65299
 42103,2.1173650776\H,0,-3.3704540882,1.5482722554,1.4886212093\H,0,-4.
 1227854761,0.5294594947,2.7214739268\C,0,-1.9427611887,-1.8910388619,-
 2.5964834964\H,0,-1.2200373601,-1.2004513685,-3.0689611224\H,0,-2.7243
 704521,-2.070533722,-3.3611390526\C,0,1.8805642154,0.5682186978,3.1713
 775352\H,0,0.9569651861,1.173744172,3.2241426357\H,0,2.6101935652,1.08
 29873672,3.8274891652\C,0,2.8079946964,0.173690046,-2.2383757184\H,0,2
 .6667964201,1.2712394222,-2.254768811\H,0,3.7760315389,-0.015967265,-2
 .7411850029\C,0,-2.0051602,0.8825118722,3.043944736\H,0,-2.1853967321,
 1.7297584603,3.7269851211\H,0,-1.0955839167,1.1103729419,2.462000408\H
 ,0,-1.7931713137,-0.0136316392,3.6520595329\C,0,-1.2434073043,-3.21115
 63514,-2.2610735498\H,0,-1.9113276913,-3.9195366914,-1.7455820732\H,0,
 -0.8793674358,-3.6885449748,-3.1871397578\H,0,-0.3773405486,-3.0542830
 603,-1.5936897578\C,0,1.6032807119,-0.8349418921,3.7177879795\H,0,2.48
 31360218,-1.4938988954,3.645094572\H,0,0.7903651482,-1.33458156,3.1613
 584495\H,0,1.3034317857,-0.772022957,4.7780498934\C,0,1.6800797985,-0.
 509223035,-3.018061914\H,0,1.7768734337,-1.6078718026,-2.9804089472\H,
 0,0.695000165,-0.2490116192,-2.5940122992\H,0,1.6808233267,-0.19763415
 69,-4.0762526939\C,0,-1.8727944407,2.0907825428,-0.7842143086\H,0,-2.9
 491124131,1.9058642341,-0.8685247961\C,0,-1.360818183,3.3555371782,-1.
 1020999175\H,0,-2.038030629,4.1513851535,-1.4277026172\C,0,0.016594077
 2,3.6008782114,-1.0030339355\H,0,0.4177804968,4.5877120198,-1.25446205
 94\C,0,0.8820359827,2.5827988542,-0.5819648362\H,0,1.9558731179,2.7837
 223627,-0.5028000526\\Version=ES64L-G09RevE.01\State=1-A\HF=-1541.8139
 855\RMSD=4.010e-09\Dipole=-0.1039967,0.6716775,-0.2174074\Quadrupole=3
 .8529841,-0.4569958,-3.3959883,0.6340454,0.0087257,-1.0255503\PG=C01 [
 X(C22H36P2)]\\@


 THE MOST BEAUTIFUL EXPERIENCE WE CAN HAVE IS THE MYSTERIOUS.
 IT IS THE FUNDAMENTAL EMOTION WHICH STANDS AT AT THE CRADLE 
 OF TRUE ART AND TRUE SCIENCE.

                                    -- ALBERT EINSTEIN
 Job cpu time:       0 days  9 hours 17 minutes 14.5 seconds.
 File lengths (MBytes):  RWF=    551 Int=      0 D2E=      0 Chk=     80 Scr=      1
 Normal termination of Gaussian 09 at Sun Dec  5 10:01:25 2021.
 Initial command:
 /gstore/apps/gaussian/g09.e01-foss-2017a/g09/l1.exe "/local/22791413/Gau-18858.inp" -scrdir="/local/22791413/"
 Entering Link 1 = /gstore/apps/gaussian/g09.e01-foss-2017a/g09/l1.exe PID=     30409.
  
 Copyright (c) 1988,1990,1992,1993,1995,1998,2003,2009,2015,
            Gaussian, Inc.  All Rights Reserved.
  
 This is part of the Gaussian(R) 09 program.  It is based on
 the Gaussian(R) 03 system (copyright 2003, Gaussian, Inc.),
 the Gaussian(R) 98 system (copyright 1998, Gaussian, Inc.),
 the Gaussian(R) 94 system (copyright 1995, Gaussian, Inc.),
 the Gaussian 92(TM) system (copyright 1992, Gaussian, Inc.),
 the Gaussian 90(TM) system (copyright 1990, Gaussian, Inc.),
 the Gaussian 88(TM) system (copyright 1988, Gaussian, Inc.),
 the Gaussian 86(TM) system (copyright 1986, Carnegie Mellon
 University), and the Gaussian 82(TM) system (copyright 1983,
 Carnegie Mellon University). Gaussian is a federally registered
 trademark of Gaussian, Inc.
  
 This software contains proprietary and confidential information,
 including trade secrets, belonging to Gaussian, Inc.
  
 This software is provided under written license and may be
 used, copied, transmitted, or stored only in accord with that
 written license.
  
 The following legend is applicable only to US Government
 contracts under FAR:
  
                    RESTRICTED RIGHTS LEGEND
  
 Use, reproduction and disclosure by the US Government is
 subject to restrictions as set forth in subparagraphs (a)
 and (c) of the Commercial Computer Software - Restricted
 Rights clause in FAR 52.227-19.
  
 Gaussian, Inc.
 340 Quinnipiac St., Bldg. 40, Wallingford CT 06492
  
  
 ---------------------------------------------------------------
 Warning -- This program may not be used in any manner that
 competes with the business of Gaussian, Inc. or will provide
 assistance to any competitor of Gaussian, Inc.  The licensee
 of this program is prohibited from giving any competitor of
 Gaussian, Inc. access to this program.  By using this program,
 the user acknowledges that Gaussian, Inc. is engaged in the
 business of creating and licensing software in the field of
 computational chemistry and represents and warrants to the
 licensee that it is not a competitor of Gaussian, Inc. and that
 it will not use this program in any manner prohibited above.
 ---------------------------------------------------------------
  

 Cite this work as:
 Gaussian 09, Revision E.01,
 M. J. Frisch, G. W. Trucks, H. B. Schlegel, G. E. Scuseria, 
 M. A. Robb, J. R. Cheeseman, G. Scalmani, V. Barone, B. Mennucci, 
 G. A. Petersson, H. Nakatsuji, M. Caricato, X. Li, H. P. Hratchian, 
 A. F. Izmaylov, J. Bloino, G. Zheng, J. L. Sonnenberg, M. Hada, 
 M. Ehara, K. Toyota, R. Fukuda, J. Hasegawa, M. Ishida, T. Nakajima, 
 Y. Honda, O. Kitao, H. Nakai, T. Vreven, J. A. Montgomery, Jr., 
 J. E. Peralta, F. Ogliaro, M. Bearpark, J. J. Heyd, E. Brothers, 
 K. N. Kudin, V. N. Staroverov, T. Keith, R. Kobayashi, J. Normand, 
 K. Raghavachari, A. Rendell, J. C. Burant, S. S. Iyengar, J. Tomasi, 
 M. Cossi, N. Rega, J. M. Millam, M. Klene, J. E. Knox, J. B. Cross, 
 V. Bakken, C. Adamo, J. Jaramillo, R. Gomperts, R. E. Stratmann, 
 O. Yazyev, A. J. Austin, R. Cammi, C. Pomelli, J. W. Ochterski, 
 R. L. Martin, K. Morokuma, V. G. Zakrzewski, G. A. Voth, 
 P. Salvador, J. J. Dannenberg, S. Dapprich, A. D. Daniels, 
 O. Farkas, J. B. Foresman, J. V. Ortiz, J. Cioslowski, 
 and D. J. Fox, Gaussian, Inc., Wallingford CT, 2013.
 
 ******************************************
 Gaussian 09:  ES64L-G09RevE.01 30-Nov-2015
                 5-Dec-2021 
 ******************************************
 %nprocs=14
 Will use up to   14 processors via shared memory.
 %mem=128GB
 %chk=SS_Et_DuPhos_4_SPE_NoPd.chk
 ----------------------------------------------------------------------
 # PBE1PBE/def2TZVP int=(grid=ultrafine) empiricaldispersion=GD3BJ pop=
 nbo guess=read geom=check
 ----------------------------------------------------------------------
 1/29=2,38=1/1;
 2/12=2,40=1/2;
 3/5=44,7=101,11=2,14=-4,16=1,25=1,30=1,74=-13,75=-5,116=-2,124=41/1,2,3;
 4/5=1/1;
 5/5=2,38=6/2;
 6/7=2,8=2,9=2,10=2,28=1,40=1/1,7;
 99/5=1,9=1/99;
 --------------------
 SS_Et_DuPhos_4 title
 --------------------
 Structure from the checkpoint file:  "SS_Et_DuPhos_4_SPE_NoPd.chk"
 Charge =  0 Multiplicity = 1
 Z-Matrix found in file.
 P,0,-1.607776249,-0.6390421867,0.0477662894
 P,0,1.4510946356,-0.0741372524,0.3297594972
 C,0,-1.0116478362,1.0605455527,-0.3611328411
 C,0,0.3776921824,1.3086740106,-0.2591583924
 C,0,-3.0693591679,-0.5940473427,1.237424561
 H,0,-2.8473685447,-1.4723203598,1.8737801111
 C,0,-2.6381050268,-1.1524362678,-1.4406283284
 H,0,-2.9940930859,-0.1801598687,-1.8412387066
 C,0,2.4463417651,0.6660294321,1.7447113582
 H,0,2.4848636938,1.7439082099,1.4815924574
 C,0,2.9438724636,-0.3208097098,-0.7946555403
 H,0,3.0287704535,-1.4246000221,-0.7893654713
 C,0,-4.3013240873,-0.9267603228,0.3649701612
 H,0,-5.0845643316,-1.3970794535,0.9851395
 H,0,-4.7292133053,0.0085070077,-0.0492730668
 C,0,-3.8476285551,-1.8440118238,-0.7824129186
 H,0,-4.6477221708,-2.0039391584,-1.5274789583
 H,0,-3.5475228981,-2.8274187021,-0.379191291
 C,0,3.8526851799,0.0865605518,1.4979537394
 H,0,4.5965003706,0.6100376291,2.1252988839
 H,0,3.8709680981,-0.9860695721,1.7603797943
 C,0,4.1373261418,0.2608031885,-0.0028132729
 H,0,5.0713869075,-0.2430761183,-0.3076282629
 H,0,4.2536754954,1.3376601995,-0.2399884536
 C,0,-3.2031799245,0.6529942103,2.1173650776
 H,0,-3.3704540882,1.5482722554,1.4886212093
 H,0,-4.1227854761,0.5294594947,2.7214739268
 C,0,-1.9427611887,-1.8910388619,-2.5964834964
 H,0,-1.2200373601,-1.2004513685,-3.0689611224
 H,0,-2.7243704521,-2.070533722,-3.3611390526
 C,0,1.8805642154,0.5682186978,3.1713775352
 H,0,0.9569651861,1.173744172,3.2241426357
 H,0,2.6101935652,1.0829873672,3.8274891652
 C,0,2.8079946964,0.173690046,-2.2383757184
 H,0,2.6667964201,1.2712394222,-2.254768811
 H,0,3.7760315389,-0.015967265,-2.7411850029
 C,0,-2.0051602,0.8825118722,3.043944736
 H,0,-2.1853967321,1.7297584603,3.7269851211
 H,0,-1.0955839167,1.1103729419,2.462000408
 H,0,-1.7931713137,-0.0136316392,3.6520595329
 C,0,-1.2434073043,-3.2111563514,-2.2610735498
 H,0,-1.9113276913,-3.9195366914,-1.7455820732
 H,0,-0.8793674358,-3.6885449748,-3.1871397578
 H,0,-0.3773405486,-3.0542830603,-1.5936897578
 C,0,1.6032807119,-0.8349418921,3.7177879795
 H,0,2.4831360218,-1.4938988954,3.645094572
 H,0,0.7903651482,-1.33458156,3.1613584495
 H,0,1.3034317857,-0.772022957,4.7780498934
 C,0,1.6800797985,-0.509223035,-3.018061914
 H,0,1.7768734337,-1.6078718026,-2.9804089472
 H,0,0.695000165,-0.2490116192,-2.5940122992
 H,0,1.6808233267,-0.1976341569,-4.0762526939
 C,0,-1.8727944407,2.0907825428,-0.7842143086
 H,0,-2.9491124131,1.9058642341,-0.8685247961
 C,0,-1.360818183,3.3555371782,-1.1020999175
 H,0,-2.038030629,4.1513851535,-1.4277026172
 C,0,0.0165940772,3.6008782114,-1.0030339355
 H,0,0.4177804968,4.5877120198,-1.2544620594
 C,0,0.8820359827,2.5827988542,-0.5819648362
 H,0,1.9558731179,2.7837223627,-0.5028000526
 Recover connectivity data from disk.
 Stoichiometry    C22H36P2
 Framework group  C1[X(C22H36P2)]
 Deg. of freedom   174
 Full point group                 C1      NOp   1
 Largest Abelian subgroup         C1      NOp   1
 Largest concise Abelian subgroup C1      NOp   1
                         Standard orientation:                         
 ---------------------------------------------------------------------
 Center     Atomic      Atomic             Coordinates (Angstroms)
 Number     Number       Type             X           Y           Z
 ---------------------------------------------------------------------
      1         15           0        1.560014    0.072307   -0.490241
      2         15           0       -1.559987   -0.072346   -0.490219
      3          6           0        0.706012    0.046346    1.147188
      4          6           0       -0.705954   -0.046311    1.147198
      5          6           0        2.812145    1.477376   -0.597403
      6          1           0        2.681350    1.793383   -1.650315
      7          6           0        2.860438   -1.282262   -0.369787
      8          1           0        3.071616   -1.325143    0.719297
      9          6           0       -2.860435    1.282191   -0.369737
     10          1           0       -3.071560    1.325065    0.719357
     11          6           0       -2.812083   -1.477455   -0.597309
     12          1           0       -2.681299   -1.793486   -1.650214
     13          6           0        4.190894    0.790948   -0.465186
     14          1           0        4.960077    1.390792   -0.982699
     15          1           0        4.480949    0.738299    0.603695
     16          6           0        4.081685   -0.628749   -1.045025
     17          1           0        4.990151   -1.227291   -0.851929
     18          1           0        3.926622   -0.576129   -2.137237
     19          6           0       -4.081707    0.628647   -1.044902
     20          1           0       -4.990178    1.227162   -0.851742
     21          1           0       -3.926710    0.576045   -2.137122
     22          6           0       -4.190850   -0.791063   -0.465078
     23          1           0       -4.960020   -1.390933   -0.982581
     24          1           0       -4.480891   -0.738429    0.603808
     25          6           0        2.582421    2.676827    0.327724
     26          1           0        2.655724    2.362562    1.386349
     27          1           0        3.419047    3.382709    0.161381
     28          6           0        2.482892   -2.705313   -0.814109
     29          1           0        1.710009   -3.093755   -0.125458
     30          1           0        3.379815   -3.331165   -0.636155
     31          6           0       -2.482959    2.705260   -0.814073
     32          1           0       -1.709863    3.093634   -0.125619
     33          1           0       -3.379813    3.331122   -0.635807
     34          6           0       -2.582299   -2.676873    0.327848
     35          1           0       -2.655670   -2.362605    1.386467
     36          1           0       -3.418855   -3.382831    0.161481
     37          6           0        1.249410    3.392041    0.086831
     38          1           0        1.168708    4.303849    0.702420
     39          1           0        0.399332    2.737773    0.346077
     40          1           0        1.135586    3.678329   -0.972838
     41          6           0        2.014207   -2.883745   -2.260761
     42          1           0        2.731512   -2.469820   -2.987253
     43          1           0        1.877169   -3.956478   -2.480961
     44          1           0        1.052636   -2.371524   -2.442675
     45          6           0       -2.014727    2.883794   -2.260860
     46          1           0       -2.732281    2.469956   -2.987158
     47          1           0       -1.053235    2.371545   -2.443123
     48          1           0       -1.877711    3.956538   -2.481017
     49          6           0       -1.249213   -3.391964    0.087016
     50          1           0       -1.135327   -3.678261   -0.972645
     51          1           0       -0.399211   -2.737601    0.346273
     52          1           0       -1.168439   -4.303750    0.702627
     53          6           0        1.399887    0.091912    2.371287
     54          1           0        2.493029    0.160705    2.379774
     55          6           0        0.699764    0.047099    3.583968
     56          1           0        1.247260    0.085673    4.530947
     57          6           0       -0.699679   -0.046861    3.583979
     58          1           0       -1.247165   -0.085346    4.530967
     59          6           0       -1.399816   -0.091758    2.371310
     60          1           0       -2.492960   -0.160517    2.379817
 ---------------------------------------------------------------------
 Rotational constants (GHZ):      0.2569157      0.1692332      0.1504496
 Standard basis: def2TZVP (5D, 7F)
 There are  1092 symmetry adapted cartesian basis functions of A   symmetry.
 There are   972 symmetry adapted basis functions of A   symmetry.
   972 basis functions,  1548 primitive gaussians,  1092 cartesian basis functions
    99 alpha electrons       99 beta electrons
       nuclear repulsion energy      2621.6635316996 Hartrees.
 NAtoms=   60 NActive=   60 NUniq=   60 SFac= 1.00D+00 NAtFMM=   60 NAOKFM=T Big=T
 Integral buffers will be    131072 words long.
 Raffenetti 2 integral format.
 Two-electron integral symmetry is turned on.
 Nuclear repulsion after empirical dispersion term =     2621.5846496063 Hartrees.
 One-electron integrals computed using PRISM.
   1 Symmetry operations used in ECPInt.
 ECPInt:  NShTT=   85078 NPrTT=  253069 LenC2=   74383 LenP2D=  154341.
 LDataN:  DoStor=T MaxTD1= 6 Len=  172
 NBasis=   972 RedAO= T EigKep=  5.87D-06  NBF=   972
 NBsUse=   972 1.00D-06 EigRej= -1.00D+00 NBFU=   972
 Initial guess from the checkpoint file:  "SS_Et_DuPhos_4_SPE_NoPd.chk"
 B after Tr=    -0.000000    0.000000    0.000000
         Rot=    1.000000    0.000000    0.000000   -0.000000 Ang=   0.00 deg.
 Requested convergence on RMS density matrix=1.00D-08 within 128 cycles.
 Requested convergence on MAX density matrix=1.00D-06.
 Requested convergence on             energy=1.00D-06.
 No special actions if energy rises.
 SCF Done:  E(RPBE1PBE) =  -1541.81398551     A.U. after    2 cycles
            NFock=  2  Conv=0.13D-08     -V/T= 2.0044

 **********************************************************************

            Population analysis using the SCF density.

 **********************************************************************

 Orbital symmetries:
       Occupied  (A) (A) (A) (A) (A) (A) (A) (A) (A) (A) (A) (A)
                 (A) (A) (A) (A) (A) (A) (A) (A) (A) (A) (A) (A)
                 (A) (A) (A) (A) (A) (A) (A) (A) (A) (A) (A) (A)
                 (A) (A) (A) (A) (A) (A) (A) (A) (A) (A) (A) (A)
                 (A) (A) (A) (A) (A) (A) (A) (A) (A) (A) (A) (A)
                 (A) (A) (A) (A) (A) (A) (A) (A) (A) (A) (A) (A)
                 (A) (A) (A) (A) (A) (A) (A) (A) (A) (A) (A) (A)
                 (A) (A) (A) (A) (A) (A) (A) (A) (A) (A) (A) (A)
                 (A) (A) (A)
       Virtual   (A) (A) (A) (A) (A) (A) (A) (A) (A) (A) (A) (A)
                 (A) (A) (A) (A) (A) (A) (A) (A) (A) (A) (A) (A)
                 (A) (A) (A) (A) (A) (A) (A) (A) (A) (A) (A) (A)
                 (A) (A) (A) (A) (A) (A) (A) (A) (A) (A) (A) (A)
                 (A) (A) (A) (A) (A) (A) (A) (A) (A) (A) (A) (A)
                 (A) (A) (A) (A) (A) (A) (A) (A) (A) (A) (A) (A)
                 (A) (A) (A) (A) (A) (A) (A) (A) (A) (A) (A) (A)
                 (A) (A) (A) (A) (A) (A) (A) (A) (A) (A) (A) (A)
                 (A) (A) (A) (A) (A) (A) (A) (A) (A) (A) (A) (A)
                 (A) (A) (A) (A) (A) (A) (A) (A) (A) (A) (A) (A)
                 (A) (A) (A) (A) (A) (A) (A) (A) (A) (A) (A) (A)
                 (A) (A) (A) (A) (A) (A) (A) (A) (A) (A) (A) (A)
                 (A) (A) (A) (A) (A) (A) (A) (A) (A) (A) (A) (A)
                 (A) (A) (A) (A) (A) (A) (A) (A) (A) (A) (A) (A)
                 (A) (A) (A) (A) (A) (A) (A) (A) (A) (A) (A) (A)
                 (A) (A) (A) (A) (A) (A) (A) (A) (A) (A) (A) (A)
                 (A) (A) (A) (A) (A) (A) (A) (A) (A) (A) (A) (A)
                 (A) (A) (A) (A) (A) (A) (A) (A) (A) (A) (A) (A)
                 (A) (A) (A) (A) (A) (A) (A) (A) (A) (A) (A) (A)
                 (A) (A) (A) (A) (A) (A) (A) (A) (A) (A) (A) (A)
                 (A) (A) (A) (A) (A) (A) (A) (A) (A) (A) (A) (A)
                 (A) (A) (A) (A) (A) (A) (A) (A) (A) (A) (A) (A)
                 (A) (A) (A) (A) (A) (A) (A) (A) (A) (A) (A) (A)
                 (A) (A) (A) (A) (A) (A) (A) (A) (A) (A) (A) (A)
                 (A) (A) (A) (A) (A) (A) (A) (A) (A) (A) (A) (A)
                 (A) (A) (A) (A) (A) (A) (A) (A) (A) (A) (A) (A)
                 (A) (A) (A) (A) (A) (A) (A) (A) (A) (A) (A) (A)
                 (A) (A) (A) (A) (A) (A) (A) (A) (A) (A) (A) (A)
                 (A) (A) (A) (A) (A) (A) (A) (A) (A) (A) (A) (A)
                 (A) (A) (A) (A) (A) (A) (A) (A) (A) (A) (A) (A)
                 (A) (A) (A) (A) (A) (A) (A) (A) (A) (A) (A) (A)
                 (A) (A) (A) (A) (A) (A) (A) (A) (A) (A) (A) (A)
                 (A) (A) (A) (A) (A) (A) (A) (A) (A) (A) (A) (A)
                 (A) (A) (A) (A) (A) (A) (A) (A) (A) (A) (A) (A)
                 (A) (A) (A) (A) (A) (A) (A) (A) (A) (A) (A) (A)
                 (A) (A) (A) (A) (A) (A) (A) (A) (A) (A) (A) (A)
                 (A) (A) (A) (A) (A) (A) (A) (A) (A) (A) (A) (A)
                 (A) (A) (A) (A) (A) (A) (A) (A) (A) (A) (A) (A)
                 (A) (A) (A) (A) (A) (A) (A) (A) (A) (A) (A) (A)
                 (A) (A) (A) (A) (A) (A) (A) (A) (A) (A) (A) (A)
                 (A) (A) (A) (A) (A) (A) (A) (A) (A) (A) (A) (A)
                 (A) (A) (A) (A) (A) (A) (A) (A) (A) (A) (A) (A)
                 (A) (A) (A) (A) (A) (A) (A) (A) (A) (A) (A) (A)
                 (A) (A) (A) (A) (A) (A) (A) (A) (A) (A) (A) (A)
                 (A) (A) (A) (A) (A) (A) (A) (A) (A) (A) (A) (A)
                 (A) (A) (A) (A) (A) (A) (A) (A) (A) (A) (A) (A)
                 (A) (A) (A) (A) (A) (A) (A) (A) (A) (A) (A) (A)
                 (A) (A) (A) (A) (A) (A) (A) (A) (A) (A) (A) (A)
                 (A) (A) (A) (A) (A) (A) (A) (A) (A) (A) (A) (A)
                 (A) (A) (A) (A) (A) (A) (A) (A) (A) (A) (A) (A)
                 (A) (A) (A) (A) (A) (A) (A) (A) (A) (A) (A) (A)
                 (A) (A) (A) (A) (A) (A) (A) (A) (A) (A) (A) (A)
                 (A) (A) (A) (A) (A) (A) (A) (A) (A) (A) (A) (A)
                 (A) (A) (A) (A) (A) (A) (A) (A) (A) (A) (A) (A)
                 (A) (A) (A) (A) (A) (A) (A) (A) (A) (A) (A) (A)
                 (A) (A) (A) (A) (A) (A) (A) (A) (A) (A) (A) (A)
                 (A) (A) (A) (A) (A) (A) (A) (A) (A) (A) (A) (A)
                 (A) (A) (A) (A) (A) (A) (A) (A) (A) (A) (A) (A)
                 (A) (A) (A) (A) (A) (A) (A) (A) (A) (A) (A) (A)
                 (A) (A) (A) (A) (A) (A) (A) (A) (A) (A) (A) (A)
[...]
   722. RY*(  21) C  45                  0.00000     3.59908   
   723. RY*(  22) C  45                  0.00000     3.53668   
   724. RY*(  23) C  45                  0.00000     2.88385   
   725. RY*(  24) C  45                  0.00000     3.56061   
   726. RY*(  25) C  45                  0.00000     3.13090   
   727. RY*(  26) C  45                  0.00000     3.68122   
   728. RY*(   1) H  46                  0.00072     0.90507   
   729. RY*(   2) H  46                  0.00016     2.14357   
   730. RY*(   3) H  46                  0.00011     1.90798   
   731. RY*(   4) H  46                  0.00008     1.88149   
   732. RY*(   5) H  46                  0.00003     2.85609   
   733. RY*(   1) H  47                  0.00077     0.88072   
   734. RY*(   2) H  47                  0.00014     2.03427   
   735. RY*(   3) H  47                  0.00011     1.96719   
   736. RY*(   4) H  47                  0.00008     2.14192   
   737. RY*(   5) H  47                  0.00002     2.94527   
   738. RY*(   1) H  48                  0.00040     1.24338   
   739. RY*(   2) H  48                  0.00013     1.68401   
   740. RY*(   3) H  48                  0.00009     2.04051   
   741. RY*(   4) H  48                  0.00005     1.94048   
   742. RY*(   5) H  48                  0.00002     2.73183   
   743. RY*(   1) C  49                  0.00124     1.19601   
   744. RY*(   2) C  49                  0.00091     1.24791   
   745. RY*(   3) C  49                  0.00053     1.10757   
   746. RY*(   4) C  49                  0.00018     1.66474   
   747. RY*(   5) C  49                  0.00014     1.55916   
   748. RY*(   6) C  49                  0.00011     1.96912   
   749. RY*(   7) C  49                  0.00006     1.94212   
   750. RY*(   8) C  49                  0.00004     2.21504   
   751. RY*(   9) C  49                  0.00004     1.75766   
   752. RY*(  10) C  49                  0.00003     2.04481   
   753. RY*(  11) C  49                  0.00002     1.77775   
   754. RY*(  12) C  49                  0.00001     2.54205   
   755. RY*(  13) C  49                  0.00000     2.61362   
   756. RY*(  14) C  49                  0.00000     2.68395   
   757. RY*(  15) C  49                  0.00001     2.41726   
   758. RY*(  16) C  49                  0.00000    21.42566   
   759. RY*(  17) C  49                  0.00001     2.45125   
   760. RY*(  18) C  49                  0.00000     3.14797   
   761. RY*(  19) C  49                  0.00000     3.04780   
   762. RY*(  20) C  49                  0.00000     3.57130   
   763. RY*(  21) C  49                  0.00000     3.38984   
   764. RY*(  22) C  49                  0.00000     3.33426   
   765. RY*(  23) C  49                  0.00000     3.49766   
   766. RY*(  24) C  49                  0.00000     3.32569   
   767. RY*(  25) C  49                  0.00000     3.34814   
   768. RY*(  26) C  49                  0.00000     3.71655   
   769. RY*(   1) H  50                  0.00080     0.87394   
   770. RY*(   2) H  50                  0.00024     1.86861   
   771. RY*(   3) H  50                  0.00011     2.11978   
   772. RY*(   4) H  50                  0.00007     2.03424   
   773. RY*(   5) H  50                  0.00002     2.88975   
   774. RY*(   1) H  51                  0.00091     0.98649   
   775. RY*(   2) H  51                  0.00029     2.38704   
   776. RY*(   3) H  51                  0.00009     2.13500   
   777. RY*(   4) H  51                  0.00007     2.18367   
   778. RY*(   5) H  51                  0.00002     2.96665   
   779. RY*(   1) H  52                  0.00038     1.32116   
   780. RY*(   2) H  52                  0.00017     1.49971   
   781. RY*(   3) H  52                  0.00007     2.07863   
   782. RY*(   4) H  52                  0.00007     2.02329   
   783. RY*(   5) H  52                  0.00001     2.72599   
   784. RY*(   1) C  53                  0.00591     1.57977   
   785. RY*(   2) C  53                  0.00201     0.89435   
   786. RY*(   3) C  53                  0.00182     1.20469   
   787. RY*(   4) C  53                  0.00124     1.70775   
   788. RY*(   5) C  53                  0.00080     1.63836   
   789. RY*(   6) C  53                  0.00047     1.52554   
   790. RY*(   7) C  53                  0.00038     2.71018   
   791. RY*(   8) C  53                  0.00024     2.13110   
   792. RY*(   9) C  53                  0.00021     1.75437   
   793. RY*(  10) C  53                  0.00014     2.05637   
   794. RY*(  11) C  53                  0.00008     2.36053   
   795. RY*(  12) C  53                  0.00007     2.46557   
   796. RY*(  13) C  53                  0.00006     1.84026   
   797. RY*(  14) C  53                  0.00004     2.75471   
   798. RY*(  15) C  53                  0.00003     1.47727   
   799. RY*(  16) C  53                  0.00001     3.38816   
   800. RY*(  17) C  53                  0.00002     2.60276   
   801. RY*(  18) C  53                  0.00000     3.14102   
   802. RY*(  19) C  53                  0.00000    21.39745   
   803. RY*(  20) C  53                  0.00001     3.26606   
   804. RY*(  21) C  53                  0.00001     4.13782   
   805. RY*(  22) C  53                  0.00000     3.35281   
   806. RY*(  23) C  53                  0.00001     3.56116   
   807. RY*(  24) C  53                  0.00000     3.47070   
   808. RY*(  25) C  53                  0.00000     3.50316   
   809. RY*(  26) C  53                  0.00000     3.14565   
   810. RY*(   1) H  54                  0.00196     0.72205   
   811. RY*(   2) H  54                  0.00038     2.37921   
   812. RY*(   3) H  54                  0.00013     2.17416   
   813. RY*(   4) H  54                  0.00009     2.76100   
   814. RY*(   5) H  54                  0.00003     3.14919   
   815. RY*(   1) C  55                  0.00475     1.56732   
   816. RY*(   2) C  55                  0.00186     1.61465   
   817. RY*(   3) C  55                  0.00131     0.58270   
   818. RY*(   4) C  55                  0.00090     1.36865   
   819. RY*(   5) C  55                  0.00053     1.78346   
   820. RY*(   6) C  55                  0.00032     3.20344   
   821. RY*(   7) C  55                  0.00023     2.42506   
   822. RY*(   8) C  55                  0.00012     1.67934   
   823. RY*(   9) C  55                  0.00008     2.92630   
   824. RY*(  10) C  55                  0.00005     1.89867   
   825. RY*(  11) C  55                  0.00002     2.16268   
   826. RY*(  12) C  55                  0.00002     2.00697   
   827. RY*(  13) C  55                  0.00002     2.40750   
   828. RY*(  14) C  55                  0.00001     3.64294   
   829. RY*(  15) C  55                  0.00002     2.43229   
   830. RY*(  16) C  55                  0.00000    20.21982   
   831. RY*(  17) C  55                  0.00000     3.18551   
   832. RY*(  18) C  55                  0.00000     1.14315   
   833. RY*(  19) C  55                  0.00000     3.11927   
   834. RY*(  20) C  55                  0.00000     2.62740   
   835. RY*(  21) C  55                  0.00000     3.88326   
   836. RY*(  22) C  55                  0.00000     3.09749   
   837. RY*(  23) C  55                  0.00000     3.34247   
   838. RY*(  24) C  55                  0.00000     3.22997   
   839. RY*(  25) C  55                  0.00000     3.50978   
   840. RY*(  26) C  55                  0.00000     3.41529   
   841. RY*(   1) H  56                  0.00042     0.96164   
   842. RY*(   2) H  56                  0.00020     1.82874   
   843. RY*(   3) H  56                  0.00012     2.72225   
   844. RY*(   4) H  56                  0.00010     2.16352   
   845. RY*(   5) H  56                  0.00002     3.09063   
   846. RY*(   1) C  57                  0.00475     1.56732   
   847. RY*(   2) C  57                  0.00186     1.61464   
   848. RY*(   3) C  57                  0.00131     0.58271   
   849. RY*(   4) C  57                  0.00090     1.36865   
   850. RY*(   5) C  57                  0.00053     1.78348   
   851. RY*(   6) C  57                  0.00032     3.20344   
   852. RY*(   7) C  57                  0.00023     2.42498   
   853. RY*(   8) C  57                  0.00012     1.67936   
   854. RY*(   9) C  57                  0.00008     2.92636   
   855. RY*(  10) C  57                  0.00005     1.89864   
   856. RY*(  11) C  57                  0.00002     2.16247   
   857. RY*(  12) C  57                  0.00002     2.00634   
   858. RY*(  13) C  57                  0.00002     2.40937   
   859. RY*(  14) C  57                  0.00001     3.64141   
   860. RY*(  15) C  57                  0.00002     2.43157   
   861. RY*(  16) C  57                  0.00000    20.22387   
   862. RY*(  17) C  57                  0.00000     3.18585   
   863. RY*(  18) C  57                  0.00000     1.14323   
   864. RY*(  19) C  57                  0.00000     3.11925   
   865. RY*(  20) C  57                  0.00000     2.62525   
   866. RY*(  21) C  57                  0.00000     3.88302   
   867. RY*(  22) C  57                  0.00000     3.09728   
   868. RY*(  23) C  57                  0.00000     3.34267   
   869. RY*(  24) C  57                  0.00000     3.22957   
   870. RY*(  25) C  57                  0.00000     3.50961   
   871. RY*(  26) C  57                  0.00000     3.41507   
   872. RY*(   1) H  58                  0.00042     0.96164   
   873. RY*(   2) H  58                  0.00020     1.82874   
   874. RY*(   3) H  58                  0.00012     2.72229   
   875. RY*(   4) H  58                  0.00010     2.16348   
   876. RY*(   5) H  58                  0.00002     3.09063   
   877. RY*(   1) C  59                  0.00591     1.57977   
   878. RY*(   2) C  59                  0.00201     0.89435   
   879. RY*(   3) C  59                  0.00182     1.20469   
   880. RY*(   4) C  59                  0.00124     1.70773   
   881. RY*(   5) C  59                  0.00080     1.63836   
   882. RY*(   6) C  59                  0.00047     1.52553   
   883. RY*(   7) C  59                  0.00038     2.71015   
   884. RY*(   8) C  59                  0.00024     2.13106   
   885. RY*(   9) C  59                  0.00021     1.75462   
   886. RY*(  10) C  59                  0.00014     2.05622   
   887. RY*(  11) C  59                  0.00008     2.36053   
   888. RY*(  12) C  59                  0.00007     2.46548   
   889. RY*(  13) C  59                  0.00006     1.83988   
   890. RY*(  14) C  59                  0.00004     2.75500   
   891. RY*(  15) C  59                  0.00003     1.47725   
   892. RY*(  16) C  59                  0.00001     3.38820   
   893. RY*(  17) C  59                  0.00002     2.60278   
   894. RY*(  18) C  59                  0.00000     3.14101   
   895. RY*(  19) C  59                  0.00000    21.39746   
   896. RY*(  20) C  59                  0.00001     3.26604   
   897. RY*(  21) C  59                  0.00001     4.13791   
   898. RY*(  22) C  59                  0.00000     3.35284   
   899. RY*(  23) C  59                  0.00001     3.56116   
   900. RY*(  24) C  59                  0.00000     3.47069   
   901. RY*(  25) C  59                  0.00000     3.50318   
   902. RY*(  26) C  59                  0.00000     3.14564   
   903. RY*(   1) H  60                  0.00196     0.72206   
   904. RY*(   2) H  60                  0.00038     2.37920   
   905. RY*(   3) H  60                  0.00013     2.17416   
   906. RY*(   4) H  60                  0.00009     2.76100   
   907. RY*(   5) H  60                  0.00003     3.14919   
   908. BD*(   1) P   1 - C   3          0.04398     0.23110   
   909. BD*(   1) P   1 - C   5          0.05106     0.20427   
   910. BD*(   1) P   1 - C   7          0.04825     0.20496   
   911. BD*(   1) P   2 - C   4          0.04398     0.23110   
   912. BD*(   1) P   2 - C   9          0.04825     0.20497   
   913. BD*(   1) P   2 - C  11          0.05106     0.20427   
   914. BD*(   1) C   3 - C   4          0.03498     0.51616   
   915. BD*(   2) C   3 - C   4          0.37808     0.02627  971(v),966(v),913(v),909(v)
                                                    910(v),912(v),159(g),185(g)
   916. BD*(   1) C   3 - C  53          0.03599     0.52593   
   917. BD*(   1) C   4 - C  59          0.03599     0.52593   
   918. BD*(   1) C   5 - H   6          0.02596     0.36247   
   919. BD*(   1) C   5 - C  13          0.02200     0.34757   
   920. BD*(   1) C   5 - C  25          0.01980     0.36619   
   921. BD*(   1) C   7 - H   8          0.02817     0.36005   
   922. BD*(   1) C   7 - C  16          0.02206     0.34724   
   923. BD*(   1) C   7 - C  28          0.02364     0.36680   
   924. BD*(   1) C   9 - H  10          0.02817     0.36005   
   925. BD*(   1) C   9 - C  19          0.02206     0.34724   
   926. BD*(   1) C   9 - C  31          0.02364     0.36679   
   927. BD*(   1) C  11 - H  12          0.02596     0.36247   
   928. BD*(   1) C  11 - C  22          0.02200     0.34757   
   929. BD*(   1) C  11 - C  34          0.01980     0.36619   
   930. BD*(   1) C  13 - H  14          0.01669     0.37322   
   931. BD*(   1) C  13 - H  15          0.01849     0.35819   
   932. BD*(   1) C  13 - C  16          0.00912     0.35617   
   933. BD*(   1) C  16 - H  17          0.01607     0.37085   
   934. BD*(   1) C  16 - H  18          0.01966     0.36562   
   935. BD*(   1) C  19 - H  20          0.01607     0.37085   
   936. BD*(   1) C  19 - H  21          0.01966     0.36562   
   937. BD*(   1) C  19 - C  22          0.00912     0.35617   
   938. BD*(   1) C  22 - H  23          0.01669     0.37322   
   939. BD*(   1) C  22 - H  24          0.01849     0.35819   
   940. BD*(   1) C  25 - H  26          0.01894     0.36994   
   941. BD*(   1) C  25 - H  27          0.01971     0.36405   
   942. BD*(   1) C  25 - C  37          0.00682     0.36485   
   943. BD*(   1) C  28 - H  29          0.01508     0.37932   
   944. BD*(   1) C  28 - H  30          0.01819     0.36440   
   945. BD*(   1) C  28 - C  41          0.01033     0.36763   
   946. BD*(   1) C  31 - H  32          0.01508     0.37932   
   947. BD*(   1) C  31 - H  33          0.01819     0.36440   
   948. BD*(   1) C  31 - C  45          0.01033     0.36763   
   949. BD*(   1) C  34 - H  35          0.01894     0.36994   
   950. BD*(   1) C  34 - H  36          0.01971     0.36405   
   951. BD*(   1) C  34 - C  49          0.00682     0.36485   
   952. BD*(   1) C  37 - H  38          0.00604     0.38181   
   953. BD*(   1) C  37 - H  39          0.00964     0.39291   
   954. BD*(   1) C  37 - H  40          0.00907     0.37815   
   955. BD*(   1) C  41 - H  42          0.00903     0.38591   
   956. BD*(   1) C  41 - H  43          0.00555     0.38451   
   957. BD*(   1) C  41 - H  44          0.00897     0.39135   
   958. BD*(   1) C  45 - H  46          0.00903     0.38591   
   959. BD*(   1) C  45 - H  47          0.00897     0.39134   
   960. BD*(   1) C  45 - H  48          0.00555     0.38451   
   961. BD*(   1) C  49 - H  50          0.00907     0.37815   
   962. BD*(   1) C  49 - H  51          0.00964     0.39291   
   963. BD*(   1) C  49 - H  52          0.00604     0.38181   
   964. BD*(   1) C  53 - H  54          0.01737     0.39946   
   965. BD*(   1) C  53 - C  55          0.01823     0.53806   
   966. BD*(   2) C  53 - C  55          0.31222     0.02466  971(v),915(v),817(g),785(g)
   967. BD*(   1) C  55 - H  56          0.01397     0.39831   
   968. BD*(   1) C  55 - C  57          0.01453     0.53142   
   969. BD*(   1) C  57 - H  58          0.01397     0.39831   
   970. BD*(   1) C  57 - C  59          0.01823     0.53806   
   971. BD*(   2) C  57 - C  59          0.31222     0.02466  966(v),915(v),848(g),878(g)
   972. BD*(   1) C  59 - H  60          0.01737     0.39946   
       -------------------------------
              Total Lewis  195.46869  ( 98.7216%)
        Valence non-Lewis    2.22780  (  1.1252%)
        Rydberg non-Lewis    0.30351  (  0.1533%)
       -------------------------------
            Total unit  1  198.00000  (100.0000%)
           Charge unit  1    0.00000
 1\1\GINC-NC046\SP\RPBE1PBE\def2TZVP\C22H36P2\MACKK4\05-Dec-2021\0\\# P
 BE1PBE/def2TZVP int=(grid=ultrafine) empiricaldispersion=GD3BJ pop=nbo
  guess=read geom=check\\SS_Et_DuPhos_4 title\\0,1\P,0,-1.607776249,-0.
 6390421867,0.0477662894\P,0,1.4510946356,-0.0741372524,0.3297594972\C,
 0,-1.0116478362,1.0605455527,-0.3611328411\C,0,0.3776921824,1.30867401
 06,-0.2591583924\C,0,-3.0693591679,-0.5940473427,1.237424561\H,0,-2.84
 73685447,-1.4723203598,1.8737801111\C,0,-2.6381050268,-1.1524362678,-1
 .4406283284\H,0,-2.9940930859,-0.1801598687,-1.8412387066\C,0,2.446341
 7651,0.6660294321,1.7447113582\H,0,2.4848636938,1.7439082099,1.4815924
 574\C,0,2.9438724636,-0.3208097098,-0.7946555403\H,0,3.0287704535,-1.4
 246000221,-0.7893654713\C,0,-4.3013240873,-0.9267603228,0.3649701612\H
 ,0,-5.0845643316,-1.3970794535,0.9851395\H,0,-4.7292133053,0.008507007
 7,-0.0492730668\C,0,-3.8476285551,-1.8440118238,-0.7824129186\H,0,-4.6
 477221708,-2.0039391584,-1.5274789583\H,0,-3.5475228981,-2.8274187021,
 -0.379191291\C,0,3.8526851799,0.0865605518,1.4979537394\H,0,4.59650037
 06,0.6100376291,2.1252988839\H,0,3.8709680981,-0.9860695721,1.76037979
 43\C,0,4.1373261418,0.2608031885,-0.0028132729\H,0,5.0713869075,-0.243
 0761183,-0.3076282629\H,0,4.2536754954,1.3376601995,-0.2399884536\C,0,
 -3.2031799245,0.6529942103,2.1173650776\H,0,-3.3704540882,1.5482722554
 ,1.4886212093\H,0,-4.1227854761,0.5294594947,2.7214739268\C,0,-1.94276
 11887,-1.8910388619,-2.5964834964\H,0,-1.2200373601,-1.2004513685,-3.0
 689611224\H,0,-2.7243704521,-2.070533722,-3.3611390526\C,0,1.880564215
 4,0.5682186978,3.1713775352\H,0,0.9569651861,1.173744172,3.2241426357\
 H,0,2.6101935652,1.0829873672,3.8274891652\C,0,2.8079946964,0.17369004
 6,-2.2383757184\H,0,2.6667964201,1.2712394222,-2.254768811\H,0,3.77603
 15389,-0.015967265,-2.7411850029\C,0,-2.0051602,0.8825118722,3.0439447
 36\H,0,-2.1853967321,1.7297584603,3.7269851211\H,0,-1.0955839167,1.110
 3729419,2.462000408\H,0,-1.7931713137,-0.0136316392,3.6520595329\C,0,-
 1.2434073043,-3.2111563514,-2.2610735498\H,0,-1.9113276913,-3.91953669
 14,-1.7455820732\H,0,-0.8793674358,-3.6885449748,-3.1871397578\H,0,-0.
 3773405486,-3.0542830603,-1.5936897578\C,0,1.6032807119,-0.8349418921,
 3.7177879795\H,0,2.4831360218,-1.4938988954,3.645094572\H,0,0.79036514
 82,-1.33458156,3.1613584495\H,0,1.3034317857,-0.772022957,4.7780498934
 \C,0,1.6800797985,-0.509223035,-3.018061914\H,0,1.7768734337,-1.607871
 8026,-2.9804089472\H,0,0.695000165,-0.2490116192,-2.5940122992\H,0,1.6
 808233267,-0.1976341569,-4.0762526939\C,0,-1.8727944407,2.0907825428,-
 0.7842143086\H,0,-2.9491124131,1.9058642341,-0.8685247961\C,0,-1.36081
 8183,3.3555371782,-1.1020999175\H,0,-2.038030629,4.1513851535,-1.42770
 26172\C,0,0.0165940772,3.6008782114,-1.0030339355\H,0,0.4177804968,4.5
 877120198,-1.2544620594\C,0,0.8820359827,2.5827988542,-0.5819648362\H,
 0,1.9558731179,2.7837223627,-0.5028000526\\Version=ES64L-G09RevE.01\St
 ate=1-A\HF=-1541.8139855\RMSD=1.280e-09\Dipole=-0.1039968,0.6716771,-0
 .2174073\Quadrupole=3.8529837,-0.45699,-3.3959937,0.6340445,0.008728,-
 1.0255539\PG=C01 [X(C22H36P2)]\\@


 THERE'S NOTHING WRONG WITH FOLLOWING A TRAIN OF THOUGHT...
 AS LONG AS IT ULTIMATELY PULLS INTO THE STATION.
 Job cpu time:       0 days  0 hours 44 minutes 13.9 seconds.
 File lengths (MBytes):  RWF=    487 Int=      0 D2E=      0 Chk=     80 Scr=      1
 Normal termination of Gaussian 09 at Sun Dec  5 10:04:43 2021.
