 Entering Gaussian System, Link 0=g09
 Input=SS_Et_DuPhos_1_SPE_NoPd.com
 Output=SS_Et_DuPhos_1_SPE_NoPd.log
 Initial command:
 /gstore/apps/gaussian/g09.e01-foss-2017a/g09/l1.exe "/local/22791407/Gau-6178.inp" -scrdir="/local/22791407/"
 Entering Link 1 = /gstore/apps/gaussian/g09.e01-foss-2017a/g09/l1.exe PID=      6179.
  
 Copyright (c) 1988,1990,1992,1993,1995,1998,2003,2009,2015,
            Gaussian, Inc.  All Rights Reserved.
  
 This is part of the Gaussian(R) 09 program.  It is based on
 the Gaussian(R) 03 system (copyright 2003, Gaussian, Inc.),
 the Gaussian(R) 98 system (copyright 1998, Gaussian, Inc.),
 the Gaussian(R) 94 system (copyright 1995, Gaussian, Inc.),
 the Gaussian 92(TM) system (copyright 1992, Gaussian, Inc.),
 the Gaussian 90(TM) system (copyright 1990, Gaussian, Inc.),
 the Gaussian 88(TM) system (copyright 1988, Gaussian, Inc.),
 the Gaussian 86(TM) system (copyright 1986, Carnegie Mellon
 University), and the Gaussian 82(TM) system (copyright 1983,
 Carnegie Mellon University). Gaussian is a federally registered
 trademark of Gaussian, Inc.
  
 This software contains proprietary and confidential information,
 including trade secrets, belonging to Gaussian, Inc.
  
 This software is provided under written license and may be
 used, copied, transmitted, or stored only in accord with that
 written license.
  
 The following legend is applicable only to US Government
 contracts under FAR:
  
                    RESTRICTED RIGHTS LEGEND
  
 Use, reproduction and disclosure by the US Government is
 subject to restrictions as set forth in subparagraphs (a)
 and (c) of the Commercial Computer Software - Restricted
 Rights clause in FAR 52.227-19.
  
 Gaussian, Inc.
 340 Quinnipiac St., Bldg. 40, Wallingford CT 06492
  
  
 ---------------------------------------------------------------
 Warning -- This program may not be used in any manner that
 competes with the business of Gaussian, Inc. or will provide
 assistance to any competitor of Gaussian, Inc.  The licensee
 of this program is prohibited from giving any competitor of
 Gaussian, Inc. access to this program.  By using this program,
 the user acknowledges that Gaussian, Inc. is engaged in the
 business of creating and licensing software in the field of
 computational chemistry and represents and warrants to the
 licensee that it is not a competitor of Gaussian, Inc. and that
 it will not use this program in any manner prohibited above.
 ---------------------------------------------------------------
  

 Cite this work as:
 Gaussian 09, Revision E.01,
 M. J. Frisch, G. W. Trucks, H. B. Schlegel, G. E. Scuseria, 
 M. A. Robb, J. R. Cheeseman, G. Scalmani, V. Barone, B. Mennucci, 
 G. A. Petersson, H. Nakatsuji, M. Caricato, X. Li, H. P. Hratchian, 
 A. F. Izmaylov, J. Bloino, G. Zheng, J. L. Sonnenberg, M. Hada, 
 M. Ehara, K. Toyota, R. Fukuda, J. Hasegawa, M. Ishida, T. Nakajima, 
 Y. Honda, O. Kitao, H. Nakai, T. Vreven, J. A. Montgomery, Jr., 
 J. E. Peralta, F. Ogliaro, M. Bearpark, J. J. Heyd, E. Brothers, 
 K. N. Kudin, V. N. Staroverov, T. Keith, R. Kobayashi, J. Normand, 
 K. Raghavachari, A. Rendell, J. C. Burant, S. S. Iyengar, J. Tomasi, 
 M. Cossi, N. Rega, J. M. Millam, M. Klene, J. E. Knox, J. B. Cross, 
 V. Bakken, C. Adamo, J. Jaramillo, R. Gomperts, R. E. Stratmann, 
 O. Yazyev, A. J. Austin, R. Cammi, C. Pomelli, J. W. Ochterski, 
 R. L. Martin, K. Morokuma, V. G. Zakrzewski, G. A. Voth, 
 P. Salvador, J. J. Dannenberg, S. Dapprich, A. D. Daniels, 
 O. Farkas, J. B. Foresman, J. V. Ortiz, J. Cioslowski, 
 and D. J. Fox, Gaussian, Inc., Wallingford CT, 2013.
 
 ******************************************
 Gaussian 09:  ES64L-G09RevE.01 30-Nov-2015
                 5-Dec-2021 
 ******************************************
 %nprocs=14
 Will use up to   14 processors via shared memory.
 %mem=128GB
 %chk=SS_Et_DuPhos_1_SPE_NoPd.chk
 ----------------------------------------------------------------------
 # PBE1PBE/def2TZVP int=(grid=ultrafine) empiricaldispersion=GD3BJ nmr=
 giao
 ----------------------------------------------------------------------
 1/38=1/1;
 2/12=2,17=6,18=5,40=1/2;
 3/5=44,7=101,11=2,16=1,25=1,30=1,74=-13,75=-5,124=41/1,2,8,3;
 4//1;
 5/5=2,38=5/2;
 8/6=1,10=90,11=11/1;
 10/13=100,45=16/2;
 6/7=2,8=2,9=2,10=2,28=1/1;
 99/9=1/99;
 --------------------
 SS_Et_DuPhos_1 title
 --------------------
 Symbolic Z-matrix:
 Charge =  0 Multiplicity = 1
 P                    -1.55341  -0.82831   0.05365 
 P                     1.52332  -0.21456   0.37888 
 C                    -0.95177   0.87349  -0.36977 
 C                     0.41169   1.16959  -0.1258 
 C                    -2.97345  -0.73377   1.27452 
 H                    -3.03122  -1.81011   1.54174 
 C                    -2.65708  -1.33632  -1.39902 
 H                    -2.50656  -0.54476  -2.15835 
 C                     2.55886   0.3937    1.83407 
 H                     2.39954   1.49174   1.8542 
 C                     2.9644   -0.28037  -0.84053 
 H                     3.16457  -1.36785  -0.89257 
 C                    -4.19633  -0.40092   0.40299 
 H                    -5.12681  -0.59439   0.96765 
 H                    -4.20946   0.67162   0.13517 
 C                    -4.11005  -1.29148  -0.84692 
 H                    -4.80969  -0.96904  -1.63773 
 H                    -4.39224  -2.32164  -0.56305 
 C                     4.00662   0.09217   1.396 
 H                     4.71955   0.67566   2.00545 
 H                     4.20724  -0.98045   1.56908 
 C                     4.13095   0.40752  -0.09847 
 H                     5.09615   0.06628  -0.51344 
 H                     4.0785    1.50251  -0.26391 
 C                    -2.81924   0.04991   2.58649 
 H                    -3.7547   -0.11838   3.15467 
 H                    -2.02232  -0.42278   3.18505 
 C                    -2.32934  -2.70611  -2.01931 
 H                    -3.13734  -2.92828  -2.74406 
 H                    -2.38522  -3.47079  -1.22421 
 C                     2.19059  -0.19991   3.19886 
 H                     2.92652   0.18129   3.93313 
 H                     2.3199   -1.2959    3.14725 
 C                     2.71894   0.27329  -2.2495 
 H                     2.49103   1.35433  -2.18962 
 H                     3.6792    0.19601  -2.79548 
 C                    -2.56065   1.55764   2.48297 
 H                    -3.30456   2.06404   1.84342 
 H                    -1.56288   1.77596   2.06984 
 H                    -2.61514   2.01899   3.48363 
 C                    -0.97002  -2.79583  -2.70961 
 H                    -0.85741  -2.03347  -3.50155 
 H                    -0.83322  -3.78915  -3.16872 
 H                    -0.15497  -2.65908  -1.97492 
 C                     0.7702    0.13399   3.65304 
 H                     0.04274  -0.34662   2.97481 
 H                     0.57819   1.22268   3.65317 
 H                     0.57539  -0.24905   4.66872 
 C                     1.62166  -0.44523  -3.03539 
 H                     1.56521  -0.06786  -4.07065 
 H                     1.80362  -1.53234  -3.07595 
 H                     0.6337   -0.29175  -2.56997 
 C                    -1.78953   1.8768   -0.89485 
 H                    -2.83666   1.65534  -1.11989 
 C                    -1.29773   3.16757  -1.12555 
 H                    -1.96243   3.93881  -1.5273 
 C                     0.03975   3.47259  -0.83559 
 H                     0.42348   4.48343  -1.00575 
 C                     0.89229   2.47454  -0.34672 
 H                     1.94278   2.71114  -0.14591 
 
 Stoichiometry    C22H36P2
 Framework group  C1[X(C22H36P2)]
 Deg. of freedom   174
 Full point group                 C1      NOp   1
 Largest Abelian subgroup         C1      NOp   1
 Largest concise Abelian subgroup C1      NOp   1
                         Standard orientation:                         
 ---------------------------------------------------------------------
 Center     Atomic      Atomic             Coordinates (Angstroms)
 Number     Number       Type             X           Y           Z
 ---------------------------------------------------------------------
      1         15           0       -1.518442    0.097378   -0.662473
      2         15           0        1.635112    0.050104   -0.622977
      3          6           0       -0.666002   -0.002531    0.980921
      4          6           0        0.745163   -0.124322    0.984462
      5          6           0       -2.778155   -1.281463   -0.829400
      6          1           0       -3.001201   -1.168993   -1.911467
      7          6           0       -2.826172    1.451746   -0.457631
      8          1           0       -2.609088    1.907182    0.527896
      9          6           0        2.894175   -1.351252   -0.727203
     10          1           0        2.935379   -1.770378    0.299496
     11          6           0        2.920687    1.420925   -0.432861
     12          1           0        2.918398    1.872186   -1.443680
     13          6           0       -3.998552   -0.772174   -0.043873
     14          1           0       -4.891489   -1.369926   -0.303513
     15          1           0       -3.845690   -0.893494    1.044314
     16          6           0       -4.189703    0.705043   -0.423495
     17          1           0       -4.891827    1.222082    0.253650
     18          1           0       -4.622797    0.752354   -1.439191
     19          6           0        4.217621   -0.623066   -1.038773
     20          1           0        5.076956   -1.280497   -0.816279
     21          1           0        4.239518   -0.385560   -2.117583
     22          6           0        4.255383    0.673271   -0.222423
     23          1           0        5.101229    1.320764   -0.514893
     24          1           0        4.383318    0.443384    0.854569
     25          6           0       -2.364632   -2.743264   -0.602815
     26          1           0       -3.257645   -3.353667   -0.839849
     27          1           0       -1.611973   -3.015858   -1.361756
     28          6           0       -2.807017    2.545932   -1.539717
     29          1           0       -3.706003    3.172045   -1.374477
     30          1           0       -2.923257    2.062406   -2.525994
     31          6           0        2.555791   -2.468808   -1.720789
     32          1           0        3.413361   -3.169145   -1.733220
     33          1           0        2.482615   -2.025729   -2.730196
     34          6           0        2.646634    2.500445    0.621416
     35          1           0        2.621352    2.039936    1.627139
     36          1           0        3.522324    3.178192    0.620588
     37          6           0       -1.852766   -3.125070    0.791117
     38          1           0       -2.551340   -2.818022    1.588975
     39          1           0       -0.875278   -2.666167    1.009789
     40          1           0       -1.730222   -4.219249    0.861009
     41          6           0       -1.556175    3.422013   -1.552685
     42          1           0       -1.384479    3.911966   -0.577235
     43          1           0       -1.641963    4.208862   -2.320603
     44          1           0       -0.664550    2.817031   -1.801252
     45          6           0        1.266424   -3.218892   -1.388845
     46          1           0        0.404722   -2.535152   -1.489565
     47          1           0        1.272068   -3.621209   -0.359168
     48          1           0        1.102692   -4.058738   -2.084634
     49          6           0        1.370244    3.309707    0.389413
     50          1           0        1.285008    4.131709    1.120452
     51          1           0        1.351247    3.747455   -0.622804
     52          1           0        0.473418    2.676356    0.493428
     53          6           0       -1.357366    0.013863    2.208093
     54          1           0       -2.443603    0.140291    2.224517
     55          6           0       -0.667578   -0.140427    3.417047
     56          1           0       -1.219138   -0.132687    4.362431
     57          6           0        0.724037   -0.311845    3.415581
     58          1           0        1.263826   -0.442625    4.358722
     59          6           0        1.427408   -0.294240    2.204432
     60          1           0        2.517368   -0.402883    2.210315
 ---------------------------------------------------------------------
 Rotational constants (GHZ):      0.2651271      0.1725348      0.1493375
 Standard basis: def2TZVP (5D, 7F)
 There are  1092 symmetry adapted cartesian basis functions of A   symmetry.
 There are   972 symmetry adapted basis functions of A   symmetry.
   972 basis functions,  1548 primitive gaussians,  1092 cartesian basis functions
    99 alpha electrons       99 beta electrons
       nuclear repulsion energy      2633.1025646067 Hartrees.
 NAtoms=   60 NActive=   60 NUniq=   60 SFac= 1.00D+00 NAtFMM=   60 NAOKFM=T Big=T
 Integral buffers will be    131072 words long.
 Raffenetti 2 integral format.
 Two-electron integral symmetry is turned on.
 Nuclear repulsion after empirical dispersion term =     2633.0223244838 Hartrees.
 One-electron integrals computed using PRISM.
   1 Symmetry operations used in ECPInt.
 ECPInt:  NShTT=   85078 NPrTT=  253069 LenC2=   74562 LenP2D=  155040.
 LDataN:  DoStor=T MaxTD1= 6 Len=  172
 NBasis=   972 RedAO= T EigKep=  5.52D-06  NBF=   972
 NBsUse=   972 1.00D-06 EigRej= -1.00D+00 NBFU=   972
 ExpMin= 9.04D-02 ExpMax= 5.24D+04 ExpMxC= 1.79D+03 IAcc=3 IRadAn=         5 AccDes= 0.00D+00
 Harris functional with IExCor= 1009 and IRadAn=       5 diagonalized for initial guess.
 HarFok:  IExCor= 1009 AccDes= 0.00D+00 IRadAn=         5 IDoV= 1 UseB2=F ITyADJ=14
 ICtDFT=  3500011 ScaDFX=  1.000000  1.000000  1.000000  1.000000
 FoFCou: FMM=F IPFlag=           0 FMFlag=      100000 FMFlg1=        2001
         NFxFlg=           0 DoJE=T BraDBF=F KetDBF=T FulRan=T
         wScrn=  0.000000 ICntrl=     500 IOpCl=  0 I1Cent=   200000004 NGrid=           0
         NMat0=    1 NMatS0=      1 NMatT0=    0 NMatD0=    1 NMtDS0=    0 NMtDT0=    0
 Petite list used in FoFCou.
 Requested convergence on RMS density matrix=1.00D-08 within 128 cycles.
 Requested convergence on MAX density matrix=1.00D-06.
 Requested convergence on             energy=1.00D-06.
 No special actions if energy rises.
 Integral accuracy reduced to 1.0D-05 until final iterations.
 Rare condition: small coef for last iteration:  0.000D+00
 EnCoef did   100 forward-backward iterations
 Rare condition: small coef for last iteration:  0.000D+00
 EnCoef did   100 forward-backward iterations
 EnCoef did   100 forward-backward iterations
 Rare condition: small coef for last iteration: -0.225D-15
 EnCoef did   100 forward-backward iterations
 Rare condition: small coef for last iteration:  0.000D+00
 Rare condition: small coef for last iteration:  0.000D+00
 Problem detected with inexpensive integrals.
 Switching to full accuracy and repeating last cycle.
 SCF Done:  E(RPBE1PBE) =  -1541.81626706     A.U. after   21 cycles
            NFock= 21  Conv=0.32D-08     -V/T= 2.0044
 DoSCS=F DFT=T ScalE2(SS,OS)=  1.000000  1.000000
 Range of M.O.s used for correlation:     1   972
 NBasis=   972 NAE=    99 NBE=    99 NFC=     0 NFV=     0
 NROrb=    972 NOA=    99 NOB=    99 NVA=   873 NVB=   873

 **** Warning!!: The largest alpha MO coefficient is  0.51247704D+02

          Differentiating once with respect to magnetic field using GIAOs.
          Electric field/nuclear overlap derivatives assumed to be zero.
 FoFCou: FMM=F IPFlag=           0 FMFlag=      100000 FMFlg1=        2001
         NFxFlg=           0 DoJE=F BraDBF=F KetDBF=T FulRan=T
         wScrn=  0.000000 ICntrl=    6100 IOpCl=  0 I1Cent=           7 NGrid=          60
         NMat0=    1 NMatS0=      1 NMatT0=    0 NMatD0=    1 NMtDS0=    0 NMtDT0=    0
 Symmetry not used in FoFCou.
   1 Symmetry operations used in ECPInt.
 ECPInt:  NShTT=   85078 NPrTT=  253069 LenC2=   85079 LenP2D=  253069.
 LDataN:  DoStor=T MaxTD1= 7 Len=  274
 FoFJK:  IHMeth= 1 ICntrl=    6127 DoSepK=F KAlg= 0 I1Cent=   0 FoldK=F
 IRaf=         1 NMat=   1 IRICut=       1 DoRegI=T DoRafI=F ISym2E= 0.
          There are     3 degrees of freedom in the 1st order CPHF.  IDoFFX=0 NUNeed=     3.
      3 vectors produced by pass  0 Test12= 2.88D-12 3.33D-08 XBig12= 8.48D+01 1.38D+00.
 AX will form     3 AO Fock derivatives at one time.
      3 vectors produced by pass  1 Test12= 2.88D-12 3.33D-08 XBig12= 1.49D-01 1.44D-01.
      3 vectors produced by pass  2 Test12= 2.88D-12 3.33D-08 XBig12= 1.05D-03 9.75D-03.
      3 vectors produced by pass  3 Test12= 2.88D-12 3.33D-08 XBig12= 3.77D-06 5.23D-04.
      3 vectors produced by pass  4 Test12= 2.88D-12 3.33D-08 XBig12= 2.12D-08 8.11D-05.
      3 vectors produced by pass  5 Test12= 2.88D-12 3.33D-08 XBig12= 2.12D-10 5.06D-06.
      3 vectors produced by pass  6 Test12= 2.88D-12 3.33D-08 XBig12= 6.80D-13 1.78D-07.
 InvSVY:  IOpt=1 It=  1 EMax= 1.09D-16
 Solved reduced A of dimension    21 with     3 vectors.
 Calculating GIAO nuclear magnetic shielding tensors.
 SCF GIAO Magnetic shielding tensor (ppm):
      1  P    Isotropic =   314.3465   Anisotropy =    39.6338
   XX=   307.8289   YX=     0.0749   ZX=   -22.5159
   XY=   -21.5276   YY=   322.6671   ZY=   -27.2855
   XZ=    37.2700   YZ=    -7.3164   ZZ=   312.5435
   Eigenvalues:   299.5024   302.7682   340.7690
      2  P    Isotropic =   312.0024   Anisotropy =    47.0844
   XX=   315.0201   YX=     6.0491   ZX=    -7.1175
   XY=    -7.9846   YY=   312.3027   ZY=    29.8536
   XZ=   -36.0899   YZ=    16.2966   ZZ=   308.6846
   Eigenvalues:   279.8383   312.7770   343.3920
      3  C    Isotropic =    25.4063   Anisotropy =   210.8394
   XX=   -35.6257   YX=    16.4419   ZX=   -16.7776
   XY=    11.6906   YY=   163.4780   ZY=    28.0618
   XZ=   -16.9279   YZ=    10.3828   ZZ=   -51.6334
   Eigenvalues:   -64.7613   -24.9856   165.9659
      4  C    Isotropic =    31.7472   Anisotropy =   204.5774
   XX=   -28.1519   YX=    11.4782   ZX=    21.7620
   XY=     0.3492   YY=   167.6567   ZY=    -3.6245
   XZ=    22.7019   YZ=    18.0840   ZZ=   -44.2631
   Eigenvalues:   -59.8821   -13.0084   168.1322
      5  C    Isotropic =   135.1479   Anisotropy =    19.6114
   XX=   148.1564   YX=    -4.4791   ZX=    -0.8608
   XY=     2.9721   YY=   137.9087   ZY=    -8.0268
   XZ=    -0.6166   YZ=     2.8197   ZZ=   119.3785
   Eigenvalues:   118.9958   138.2257   148.2221
      6  H    Isotropic =    29.3736   Anisotropy =     6.9815
   XX=    27.0329   YX=     0.6656   ZX=     2.8686
   XY=    -0.1006   YY=    28.3297   ZY=     1.0738
   XZ=     1.5767   YZ=     2.3266   ZZ=    32.7583
   Eigenvalues:    26.2242    27.8687    34.0280
      7  C    Isotropic =   131.3138   Anisotropy =    23.5847
   XX=   143.0966   YX=    -3.6746   ZX=    -6.5784
   XY=    -5.9190   YY=   141.0597   ZY=    -4.5138
   XZ=    -6.2992   YZ=    -7.3229   ZZ=   109.7852
   Eigenvalues:   107.2433   139.6612   147.0370
      8  H    Isotropic =    29.0967   Anisotropy =     2.4663
   XX=    27.6442   YX=     0.9964   ZX=     0.0035
   XY=    -2.2622   YY=    29.5824   ZY=    -0.3400
   XZ=     0.4029   YZ=     2.0764   ZZ=    30.0635
   Eigenvalues:    27.3755    29.1736    30.7409
      9  C    Isotropic =   131.6078   Anisotropy =    26.2639
   XX=   145.3624   YX=     8.8661   ZX=     2.5029
   XY=     1.5806   YY=   141.0429   ZY=    12.1979
   XZ=    -5.4114   YZ=     3.2356   ZZ=   108.4181
   Eigenvalues:   106.5130   139.1933   149.1170
     10  H    Isotropic =    28.9641   Anisotropy =     3.1278
   XX=    27.4687   YX=    -0.6065   ZX=     0.9860
   XY=    -2.1799   YY=    29.6344   ZY=     0.2432
   XZ=     0.2515   YZ=    -1.7682   ZZ=    29.7892
   Eigenvalues:    26.7694    29.0736    31.0493
     11  C    Isotropic =   137.4780   Anisotropy =    21.2788
   XX=   147.3835   YX=    -5.5009   ZX=    -5.3993
   XY=    -1.3219   YY=   142.0757   ZY=     8.6408
   XZ=    -3.2765   YZ=    10.2808   ZZ=   122.9748
   Eigenvalues:   118.8164   141.9537   151.6639
     12  H    Isotropic =    29.2370   Anisotropy =     6.8846
   XX=    27.9865   YX=     0.9840   ZX=    -1.1989
   XY=     0.6980   YY=    29.7151   ZY=    -3.7337
   XZ=    -0.2284   YZ=    -3.7771   ZZ=    30.0094
   Eigenvalues:    26.0968    27.7874    33.8268
     13  C    Isotropic =   148.1655   Anisotropy =    30.8231
   XX=   161.8367   YX=    -1.3780   ZX=   -10.6793
   XY=     7.3812   YY=   165.0332   ZY=     0.8701
   XZ=   -16.1626   YZ=    -4.5216   ZZ=   117.6265
   Eigenvalues:   113.8536   161.9286   168.7142
     14  H    Isotropic =    29.7052   Anisotropy =    11.3961
   XX=    34.9942   YX=     3.9415   ZX=     0.4031
   XY=     4.3068   YY=    29.8867   ZY=     0.6367
   XZ=     0.3353   YZ=    -0.3746   ZZ=    24.2349
   Eigenvalues:    24.2222    27.5909    37.3026
     15  H    Isotropic =    28.9326   Anisotropy =     6.0166
   XX=    28.1997   YX=    -0.9101   ZX=    -1.4678
   XY=     0.1739   YY=    26.6179   ZY=    -1.4779
   XZ=    -1.4068   YZ=    -2.3916   ZZ=    31.9803
   Eigenvalues:    25.7146    28.1396    32.9437
     16  C    Isotropic =   147.8121   Anisotropy =    34.0620
   XX=   158.2693   YX=     9.4578   ZX=    -1.4022
   XY=     2.4138   YY=   164.3512   ZY=    -8.2176
   XZ=     4.5554   YZ=   -18.8445   ZZ=   120.8158
   Eigenvalues:   116.7118   156.2045   170.5201
     17  H    Isotropic =    28.8756   Anisotropy =     9.8881
   XX=    32.5764   YX=    -2.7217   ZX=    -4.0511
   XY=    -2.8111   YY=    28.0391   ZY=     1.7067
   XZ=    -3.2588   YZ=     0.9165   ZZ=    26.0115
   Eigenvalues:    24.3795    26.7797    35.4677
     18  H    Isotropic =    30.1632   Anisotropy =     8.5835
   XX=    32.1019   YX=     0.2005   ZX=     4.6465
   XY=     0.9560   YY=    28.7771   ZY=    -2.1838
   XZ=     4.7324   YZ=    -2.8546   ZZ=    29.6105
   Eigenvalues:    24.6364    29.9677    35.8855
     19  C    Isotropic =   147.9177   Anisotropy =    31.3320
   XX=   157.2311   YX=    11.7979   ZX=    -1.1576
   XY=     8.1643   YY=   156.7609   ZY=    14.1303
   XZ=   -13.1914   YZ=    20.0554   ZZ=   129.7612
   Eigenvalues:   118.4125   156.5350   168.8057
     20  H    Isotropic =    29.2217   Anisotropy =    10.4173
   XX=    34.3852   YX=    -3.7283   ZX=     0.3297
   XY=    -3.4697   YY=    28.7937   ZY=     0.5256
   XZ=    -0.5042   YZ=     1.3010   ZZ=    24.4863
   Eigenvalues:    24.2474    27.2512    36.1666
     21  H    Isotropic =    29.9853   Anisotropy =     8.1116
   XX=    29.1704   YX=     1.0810   ZX=    -3.7725
   XY=     1.6608   YY=    27.6023   ZY=     0.4942
   XZ=    -3.6432   YZ=     1.0240   ZZ=    33.1833
   Eigenvalues:    25.6827    28.8801    35.3931
     22  C    Isotropic =   144.3593   Anisotropy =    27.8207
   XX=   154.9527   YX=   -12.8294   ZX=    -0.7636
   XY=    -2.2493   YY=   151.7171   ZY=    12.7952
   XZ=    10.0498   YZ=    19.3820   ZZ=   126.4080
   Eigenvalues:   117.0982   153.0732   162.9064
     23  H    Isotropic =    29.4104   Anisotropy =    10.6771
   XX=    34.5336   YX=     3.6584   ZX=    -1.4372
   XY=     3.8641   YY=    29.0261   ZY=    -0.1367
   XZ=    -1.1691   YZ=     0.7981   ZZ=    24.6716
   Eigenvalues:    24.3087    27.3941    36.5285
     24  H    Isotropic =    29.7581   Anisotropy =     6.8142
   XX=    30.3339   YX=    -1.0901   ZX=     3.3556
   XY=    -0.6804   YY=    27.2020   ZY=     0.5588
   XZ=     3.0184   YZ=     0.6177   ZZ=    31.7384
   Eigenvalues:    26.3903    28.5831    34.3009
     25  C    Isotropic =   159.6575   Anisotropy =    14.3178
   XX=   153.6314   YX=    -3.5977   ZX=     4.0722
   XY=    -2.4749   YY=   168.5814   ZY=     2.2313
   XZ=     5.2291   YZ=    -1.5542   ZZ=   156.7597
   Eigenvalues:   149.9047   159.8652   169.2027
     26  H    Isotropic =    29.7331   Anisotropy =    10.7581
   XX=    29.9549   YX=     3.2919   ZX=     3.4342
   XY=     4.6875   YY=    32.7305   ZY=     2.2178
   XZ=     3.7290   YZ=     1.6964   ZZ=    26.5140
   Eigenvalues:    24.2250    28.0692    36.9052
     27  H    Isotropic =    29.1204   Anisotropy =     8.3851
   XX=    30.3219   YX=    -2.1859   ZX=    -2.7767
   XY=    -1.6992   YY=    28.2074   ZY=     3.9697
   XZ=    -3.5738   YZ=     2.2102   ZZ=    28.8318
   Eigenvalues:    25.2542    27.3965    34.7104
     28  C    Isotropic =   150.5148   Anisotropy =    24.1343
   XX=   147.1654   YX=     7.3604   ZX=     5.0420
   XY=     7.0430   YY=   156.4355   ZY=   -12.4716
   XZ=     2.1267   YZ=   -13.4232   ZZ=   147.9435
   Eigenvalues:   134.4304   150.5096   166.6043
     29  H    Isotropic =    29.6218   Anisotropy =     9.1732
   XX=    32.5194   YX=    -3.1384   ZX=    -0.4709
   XY=    -3.4316   YY=    31.6762   ZY=    -2.9439
   XZ=     0.2393   YZ=    -2.8881   ZZ=    24.6698
   Eigenvalues:    23.4291    29.6991    35.7373
     30  H    Isotropic =    30.1109   Anisotropy =     6.2166
   XX=    28.2015   YX=     1.7694   ZX=     2.5113
   XY=     1.3716   YY=    28.7294   ZY=    -0.5840
   XZ=     2.0306   YZ=    -0.7748   ZZ=    33.4018
   Eigenvalues:    26.1960    29.8814    34.2553
     31  C    Isotropic =   152.9208   Anisotropy =    23.3253
   XX=   145.9695   YX=     7.4274   ZX=    -0.8715
   XY=     5.3797   YY=   159.6357   ZY=    10.6870
   XZ=     1.1333   YZ=     9.9643   ZZ=   153.1571
   Eigenvalues:   141.5376   148.7537   168.4710
     32  H    Isotropic =    29.5368   Anisotropy =     9.7407
   XX=    31.8563   YX=    -2.8014   ZX=    -1.0750
   XY=    -3.4812   YY=    32.0433   ZY=     3.3813
   XZ=    -1.5488   YZ=     3.0603   ZZ=    24.7110
   Eigenvalues:    23.4951    29.0847    36.0306
     33  H    Isotropic =    29.9506   Anisotropy =     6.4817
   XX=    28.1196   YX=     1.5393   ZX=    -1.3423
   XY=     1.2792   YY=    27.6485   ZY=     0.4963
   XZ=    -0.8036   YZ=     0.1346   ZZ=    34.0839
   Eigenvalues:    26.3406    29.2395    34.2718
     34  C    Isotropic =   157.0321   Anisotropy =    23.6365
   XX=   153.4383   YX=   -10.1991   ZX=     1.6457
   XY=    -9.6599   YY=   164.7817   ZY=     7.7363
   XZ=    -2.3303   YZ=     7.1428   ZZ=   152.8762
   Eigenvalues:   145.5542   152.7523   172.7897
     35  H    Isotropic =    30.2951   Anisotropy =     4.5793
   XX=    27.9134   YX=    -0.6087   ZX=     0.9687
   XY=     3.6055   YY=    30.3491   ZY=    -1.9703
   XZ=     1.0318   YZ=    -0.9472   ZZ=    32.6226
   Eigenvalues:    26.7862    30.7510    33.3479
     36  H    Isotropic =    29.9272   Anisotropy =    10.0879
   XX=    32.7429   YX=     3.1519   ZX=     0.7558
   XY=     3.9637   YY=    32.4528   ZY=     1.9800
   XZ=     1.4753   YZ=     2.7134   ZZ=    24.5860
   Eigenvalues:    23.9368    29.1924    36.6525
     37  C    Isotropic =   173.1974   Anisotropy =     7.9481
   XX=   171.4181   YX=     2.5280   ZX=     3.7312
   XY=     3.1737   YY=   172.7437   ZY=     1.1957
   XZ=     4.9487   YZ=    -1.9616   ZZ=   175.4303
   Eigenvalues:   167.3495   173.7465   178.4961
     38  H    Isotropic =    31.0612   Anisotropy =     5.7957
   XX=    29.2772   YX=    -1.0076   ZX=    -2.5022
   XY=     1.9691   YY=    30.6941   ZY=    -0.9388
   XZ=    -3.2747   YZ=    -0.5563   ZZ=    33.2122
   Eigenvalues:    27.7478    30.5107    34.9250
     39  H    Isotropic =    32.0702   Anisotropy =    10.6870
   XX=    33.9437   YX=     3.4112   ZX=     2.0237
   XY=     5.1663   YY=    34.5229   ZY=     2.7423
   XZ=     2.8167   YZ=     0.2572   ZZ=    27.7440
   Eigenvalues:    26.9110    30.1047    39.1949
     40  H    Isotropic =    31.1272   Anisotropy =    11.2835
   XX=    27.4221   YX=    -0.5801   ZX=     0.3859
   XY=     0.1885   YY=    37.9654   ZY=    -2.0300
   XZ=     0.5944   YZ=    -3.3341   ZZ=    27.9942
   Eigenvalues:    26.9361    27.7960    38.6496
     41  C    Isotropic =   166.4826   Anisotropy =    20.7941
   XX=   173.5515   YX=    11.4605   ZX=     0.8352
   XY=     8.1469   YY=   166.0699   ZY=    -3.0593
   XZ=     3.4779   YZ=     0.0251   ZZ=   159.8264
   Eigenvalues:   157.0700   162.0325   180.3453
     42  H    Isotropic =    30.8892   Anisotropy =     6.1688
   XX=    30.4326   YX=     1.8956   ZX=     3.1477
   XY=     0.7680   YY=    32.3303   ZY=     1.6047
   XZ=     2.2957   YZ=     2.4429   ZZ=    29.9045
   Eigenvalues:    27.3430    30.3228    35.0017
     43  H    Isotropic =    30.3037   Anisotropy =    10.8529
   XX=    28.0966   YX=     1.5667   ZX=    -0.0999
   XY=     0.7051   YY=    33.1558   ZY=    -6.2378
   XZ=     0.3582   YZ=    -5.3616   ZZ=    29.6587
   Eigenvalues:    25.1394    28.2328    37.5390
     44  H    Isotropic =    29.7262   Anisotropy =     7.6679
   XX=    34.3679   YX=    -2.0532   ZX=    -0.4497
   XY=    -1.2953   YY=    28.8739   ZY=    -2.4342
   XZ=    -0.5673   YZ=    -0.8588   ZZ=    25.9367
   Eigenvalues:    25.0513    29.2890    34.8381
     45  C    Isotropic =   167.5799   Anisotropy =    24.3528
   XX=   176.5787   YX=    12.0683   ZX=    -2.0659
   XY=     8.9792   YY=   168.1835   ZY=     4.8294
   XZ=    -4.8064   YZ=    -0.4620   ZZ=   157.9774
   Eigenvalues:   155.4108   163.5137   183.8151
     46  H    Isotropic =    29.8288   Anisotropy =    10.6548
   XX=    36.1484   YX=    -2.6051   ZX=    -0.7545
   XY=    -1.7811   YY=    28.9407   ZY=     3.0515
   XZ=    -1.0683   YZ=     1.0698   ZZ=    24.3974
   Eigenvalues:    23.6017    28.9528    36.9320
     47  H    Isotropic =    30.8741   Anisotropy =     5.2277
   XX=    29.5502   YX=     1.4396   ZX=    -2.2961
   XY=     0.0651   YY=    32.0221   ZY=    -1.3765
   XZ=    -1.5760   YZ=    -2.7569   ZZ=    31.0499
   Eigenvalues:    28.1183    30.1447    34.3592
     48  H    Isotropic =    30.3579   Anisotropy =    10.7391
   XX=    29.0410   YX=     2.9947   ZX=     0.6884
   XY=     2.0776   YY=    33.6323   ZY=     5.9713
   XZ=    -0.0727   YZ=     4.5152   ZZ=    28.4005
   Eigenvalues:    24.8496    28.7068    37.5173
     49  C    Isotropic =   167.6630   Anisotropy =    22.6136
   XX=   175.2739   YX=   -12.1422   ZX=     2.9700
   XY=    -7.7065   YY=   167.0423   ZY=    -1.5426
   XZ=     5.2593   YZ=    -1.5942   ZZ=   160.6728
   Eigenvalues:   159.1202   161.1300   182.7388
     50  H    Isotropic =    30.9366   Anisotropy =    10.5469
   XX=    28.7620   YX=    -2.3209   ZX=    -0.5405
   XY=    -1.2341   YY=    35.5497   ZY=     4.2437
   XZ=     0.1801   YZ=     4.5506   ZZ=    28.4980
   Eigenvalues:    26.2268    28.6151    37.9679
     51  H    Isotropic =    30.8621   Anisotropy =     7.8285
   XX=    30.1963   YX=    -1.3280   ZX=     2.5607
   XY=    -0.7081   YY=    31.8005   ZY=    -4.8492
   XZ=     1.7837   YZ=    -3.1740   ZZ=    30.5895
   Eigenvalues:    26.7971    29.7081    36.0811
     52  H    Isotropic =    31.2738   Anisotropy =     8.9963
   XX=    35.7322   YX=     2.6152   ZX=     0.5807
   XY=     1.9765   YY=    33.8416   ZY=    -3.4619
   XZ=     1.2130   YZ=     0.2807   ZZ=    24.2475
   Eigenvalues:    23.8537    32.6963    37.2713
     53  C    Isotropic =    42.0553   Anisotropy =   183.0226
   XX=   -64.3451   YX=    33.4549   ZX=     7.5223
   XY=    28.5779   YY=   159.7629   ZY=    -3.4907
   XZ=     5.5089   YZ=     8.8636   ZZ=    30.7482
   Eigenvalues:   -68.9314    31.0270   164.0704
     54  H    Isotropic =    23.2795   Anisotropy =    11.0171
   XX=    20.2812   YX=     0.5308   ZX=     2.2465
   XY=     0.0226   YY=    19.1920   ZY=     0.9442
   XZ=     0.8858   YZ=    -0.0307   ZZ=    30.3653
   Eigenvalues:    19.1250    20.0892    30.6242
     55  C    Isotropic =    51.7751   Anisotropy =   184.3509
   XX=    15.7473   YX=    17.3605   ZX=    42.3569
   XY=    13.4303   YY=   172.4571   ZY=     6.6806
   XZ=    45.1290   YZ=     8.6935   ZZ=   -32.8791
   Eigenvalues:   -58.6177    39.2673   174.6757
     56  H    Isotropic =    23.9183   Anisotropy =     5.3507
   XX=    25.6799   YX=    -0.5871   ZX=     1.8162
   XY=    -0.7298   YY=    20.3589   ZY=    -0.1304
   XZ=     1.6589   YZ=    -0.2381   ZZ=    25.7163
   Eigenvalues:    20.2784    23.9911    27.4855
     57  C    Isotropic =    52.2764   Anisotropy =   183.8422
   XX=    17.2464   YX=    21.7704   ZX=   -39.0976
   XY=    16.9004   YY=   171.3967   ZY=    19.2268
   XZ=   -41.5765   YZ=    19.6431   ZZ=   -31.8141
   Eigenvalues:   -57.5496    39.5409   174.8379
     58  H    Isotropic =    23.8881   Anisotropy =     5.1772
   XX=    25.6615   YX=    -0.2919   ZX=    -1.7611
   XY=    -0.5088   YY=    20.3511   ZY=    -0.5101
   XZ=    -1.6049   YZ=    -0.2817   ZZ=    25.6516
   Eigenvalues:    20.2656    24.0590    27.3396
     59  C    Isotropic =    42.6977   Anisotropy =   183.7323
   XX=   -66.2320   YX=    31.0801   ZX=    -2.0672
   XY=    27.6697   YY=   160.5004   ZY=    15.3601
   XZ=    -3.4566   YZ=     7.7605   ZZ=    33.8247
   Eigenvalues:   -70.1465    33.0538   165.1859
     60  H    Isotropic =    23.4361   Anisotropy =    10.3138
   XX=    20.4184   YX=     0.2448   ZX=    -1.2526
   XY=     0.2574   YY=    19.9962   ZY=    -2.1839
   XZ=    -0.4262   YZ=    -1.5559   ZZ=    29.8939
   Eigenvalues:    19.6415    20.3549    30.3120
 End of Minotr F.D. properties file   721 does not exist.
 End of Minotr F.D. properties file   722 does not exist.
 End of Minotr F.D. properties file   788 does not exist.

 **********************************************************************

            Population analysis using the SCF density.

 **********************************************************************

 Orbital symmetries:
       Occupied  (A) (A) (A) (A) (A) (A) (A) (A) (A) (A) (A) (A)
                 (A) (A) (A) (A) (A) (A) (A) (A) (A) (A) (A) (A)
                 (A) (A) (A) (A) (A) (A) (A) (A) (A) (A) (A) (A)
                 (A) (A) (A) (A) (A) (A) (A) (A) (A) (A) (A) (A)
                 (A) (A) (A) (A) (A) (A) (A) (A) (A) (A) (A) (A)
                 (A) (A) (A) (A) (A) (A) (A) (A) (A) (A) (A) (A)
                 (A) (A) (A) (A) (A) (A) (A) (A) (A) (A) (A) (A)
                 (A) (A) (A) (A) (A) (A) (A) (A) (A) (A) (A) (A)
                 (A) (A) (A)
       Virtual   (A) (A) (A) (A) (A) (A) (A) (A) (A) (A) (A) (A)
                 (A) (A) (A) (A) (A) (A) (A) (A) (A) (A) (A) (A)
                 (A) (A) (A) (A) (A) (A) (A) (A) (A) (A) (A) (A)
                 (A) (A) (A) (A) (A) (A) (A) (A) (A) (A) (A) (A)
                 (A) (A) (A) (A) (A) (A) (A) (A) (A) (A) (A) (A)
                 (A) (A) (A) (A) (A) (A) (A) (A) (A) (A) (A) (A)
                 (A) (A) (A) (A) (A) (A) (A) (A) (A) (A) (A) (A)
                 (A) (A) (A) (A) (A) (A) (A) (A) (A) (A) (A) (A)
                 (A) (A) (A) (A) (A) (A) (A) (A) (A) (A) (A) (A)
                 (A) (A) (A) (A) (A) (A) (A) (A) (A) (A) (A) (A)
                 (A) (A) (A) (A) (A) (A) (A) (A) (A) (A) (A) (A)
                 (A) (A) (A) (A) (A) (A) (A) (A) (A) (A) (A) (A)
                 (A) (A) (A) (A) (A) (A) (A) (A) (A) (A) (A) (A)
                 (A) (A) (A) (A) (A) (A) (A) (A) (A) (A) (A) (A)
                 (A) (A) (A) (A) (A) (A) (A) (A) (A) (A) (A) (A)
                 (A) (A) (A) (A) (A) (A) (A) (A) (A) (A) (A) (A)
                 (A) (A) (A) (A) (A) (A) (A) (A) (A) (A) (A) (A)
                 (A) (A) (A) (A) (A) (A) (A) (A) (A) (A) (A) (A)
                 (A) (A) (A) (A) (A) (A) (A) (A) (A) (A) (A) (A)
                 (A) (A) (A) (A) (A) (A) (A) (A) (A) (A) (A) (A)
                 (A) (A) (A) (A) (A) (A) (A) (A) (A) (A) (A) (A)
                 (A) (A) (A) (A) (A) (A) (A) (A) (A) (A) (A) (A)
                 (A) (A) (A) (A) (A) (A) (A) (A) (A) (A) (A) (A)
                 (A) (A) (A) (A) (A) (A) (A) (A) (A) (A) (A) (A)
                 (A) (A) (A) (A) (A) (A) (A) (A) (A) (A) (A) (A)
                 (A) (A) (A) (A) (A) (A) (A) (A) (A) (A) (A) (A)
                 (A) (A) (A) (A) (A) (A) (A) (A) (A) (A) (A) (A)
                 (A) (A) (A) (A) (A) (A) (A) (A) (A) (A) (A) (A)
                 (A) (A) (A) (A) (A) (A) (A) (A) (A) (A) (A) (A)
                 (A) (A) (A) (A) (A) (A) (A) (A) (A) (A) (A) (A)
                 (A) (A) (A) (A) (A) (A) (A) (A) (A) (A) (A) (A)
                 (A) (A) (A) (A) (A) (A) (A) (A) (A) (A) (A) (A)
                 (A) (A) (A) (A) (A) (A) (A) (A) (A) (A) (A) (A)
                 (A) (A) (A) (A) (A) (A) (A) (A) (A) (A) (A) (A)
                 (A) (A) (A) (A) (A) (A) (A) (A) (A) (A) (A) (A)
                 (A) (A) (A) (A) (A) (A) (A) (A) (A) (A) (A) (A)
                 (A) (A) (A) (A) (A) (A) (A) (A) (A) (A) (A) (A)
                 (A) (A) (A) (A) (A) (A) (A) (A) (A) (A) (A) (A)
                 (A) (A) (A) (A) (A) (A) (A) (A) (A) (A) (A) (A)
                 (A) (A) (A) (A) (A) (A) (A) (A) (A) (A) (A) (A)
                 (A) (A) (A) (A) (A) (A) (A) (A) (A) (A) (A) (A)
                 (A) (A) (A) (A) (A) (A) (A) (A) (A) (A) (A) (A)
                 (A) (A) (A) (A) (A) (A) (A) (A) (A) (A) (A) (A)
                 (A) (A) (A) (A) (A) (A) (A) (A) (A) (A) (A) (A)
                 (A) (A) (A) (A) (A) (A) (A) (A) (A) (A) (A) (A)
                 (A) (A) (A) (A) (A) (A) (A) (A) (A) (A) (A) (A)
                 (A) (A) (A) (A) (A) (A) (A) (A) (A) (A) (A) (A)
                 (A) (A) (A) (A) (A) (A) (A) (A) (A) (A) (A) (A)
                 (A) (A) (A) (A) (A) (A) (A) (A) (A) (A) (A) (A)
                 (A) (A) (A) (A) (A) (A) (A) (A) (A) (A) (A) (A)
                 (A) (A) (A) (A) (A) (A) (A) (A) (A) (A) (A) (A)
                 (A) (A) (A) (A) (A) (A) (A) (A) (A) (A) (A) (A)
                 (A) (A) (A) (A) (A) (A) (A) (A) (A) (A) (A) (A)
                 (A) (A) (A) (A) (A) (A) (A) (A) (A) (A) (A) (A)
                 (A) (A) (A) (A) (A) (A) (A) (A) (A) (A) (A) (A)
                 (A) (A) (A) (A) (A) (A) (A) (A) (A) (A) (A) (A)
                 (A) (A) (A) (A) (A) (A) (A) (A) (A) (A) (A) (A)
                 (A) (A) (A) (A) (A) (A) (A) (A) (A) (A) (A) (A)
                 (A) (A) (A) (A) (A) (A) (A) (A) (A) (A) (A) (A)
                 (A) (A) (A) (A) (A) (A) (A) (A) (A) (A) (A) (A)
                 (A) (A) (A) (A) (A) (A) (A) (A) (A) (A) (A) (A)
                 (A) (A) (A) (A) (A) (A) (A) (A) (A) (A) (A) (A)
                 (A) (A) (A) (A) (A) (A) (A) (A) (A) (A) (A) (A)
                 (A) (A) (A) (A) (A) (A) (A) (A) (A) (A) (A) (A)
                 (A) (A) (A) (A) (A) (A) (A) (A) (A) (A) (A) (A)
                 (A) (A) (A) (A) (A) (A) (A) (A) (A) (A) (A) (A)
                 (A) (A) (A) (A) (A) (A) (A) (A) (A) (A) (A) (A)
                 (A) (A) (A) (A) (A) (A) (A) (A) (A) (A) (A) (A)
                 (A) (A) (A) (A) (A) (A) (A) (A) (A) (A) (A) (A)
                 (A) (A) (A) (A) (A) (A) (A) (A) (A) (A) (A) (A)
                 (A) (A) (A) (A) (A) (A) (A) (A) (A) (A) (A) (A)
                 (A) (A) (A) (A) (A) (A) (A) (A) (A) (A) (A) (A)
                 (A) (A) (A) (A) (A) (A) (A) (A) (A)
 The electronic state is 1-A.
 Alpha  occ. eigenvalues --  -77.17646 -77.17437 -10.24191 -10.24115 -10.23865
 Alpha  occ. eigenvalues --  -10.23808 -10.23780 -10.23670 -10.22905 -10.22638
 Alpha  occ. eigenvalues --  -10.22633 -10.22538 -10.22068 -10.22051 -10.22039
 Alpha  occ. eigenvalues --  -10.22034 -10.21970 -10.21819 -10.21665 -10.21633
 Alpha  occ. eigenvalues --  -10.20511 -10.20497 -10.20407 -10.20188  -6.57316
 Alpha  occ. eigenvalues --   -6.57136  -4.70918  -4.70863  -4.70737  -4.70687
 Alpha  occ. eigenvalues --   -4.70432  -4.70246  -0.88391  -0.84937  -0.84811
 Alpha  occ. eigenvalues --   -0.80419  -0.80234  -0.77731  -0.77370  -0.77043
 Alpha  occ. eigenvalues --   -0.76789  -0.71151  -0.70869  -0.68616  -0.67926
 Alpha  occ. eigenvalues --   -0.64128  -0.63877  -0.61859  -0.61279  -0.60698
 Alpha  occ. eigenvalues --   -0.60020  -0.57745  -0.57081  -0.54850  -0.52083
 Alpha  occ. eigenvalues --   -0.50181  -0.48515  -0.48215  -0.47567  -0.47291
 Alpha  occ. eigenvalues --   -0.46082  -0.45737  -0.45004  -0.44941  -0.44603
 Alpha  occ. eigenvalues --   -0.44276  -0.43278  -0.42409  -0.41669  -0.41404
 Alpha  occ. eigenvalues --   -0.41138  -0.40653  -0.40443  -0.39637  -0.39249
 Alpha  occ. eigenvalues --   -0.38744  -0.38487  -0.36580  -0.36373  -0.36302
 Alpha  occ. eigenvalues --   -0.35514  -0.35379  -0.34792  -0.34462  -0.34183
 Alpha  occ. eigenvalues --   -0.33465  -0.33170  -0.32847  -0.32754  -0.32551
 Alpha  occ. eigenvalues --   -0.32249  -0.31557  -0.30984  -0.30563  -0.29796
 Alpha  occ. eigenvalues --   -0.26672  -0.25843  -0.23665  -0.17618
 Alpha virt. eigenvalues --   -0.03093  -0.02981   0.03642   0.03882   0.04046
 Alpha virt. eigenvalues --    0.04467   0.05046   0.05385   0.05759   0.06765
 Alpha virt. eigenvalues --    0.07361   0.07487   0.07741   0.08169   0.08731
 Alpha virt. eigenvalues --    0.08849   0.09567   0.09697   0.10163   0.10215
 Alpha virt. eigenvalues --    0.10488   0.10971   0.11315   0.11816   0.12154
 Alpha virt. eigenvalues --    0.12702   0.12775   0.13045   0.13431   0.13599
 Alpha virt. eigenvalues --    0.14001   0.14114   0.14343   0.14667   0.14892
 Alpha virt. eigenvalues --    0.15341   0.15792   0.15962   0.16364   0.16559
 Alpha virt. eigenvalues --    0.17130   0.17469   0.17678   0.17853   0.18383
 Alpha virt. eigenvalues --    0.18671   0.19042   0.19416   0.19816   0.20325
 Alpha virt. eigenvalues --    0.20385   0.20749   0.20943   0.21455   0.21808
 Alpha virt. eigenvalues --    0.21959   0.22209   0.22826   0.23227   0.23341
 Alpha virt. eigenvalues --    0.24035   0.24851   0.24970   0.25328   0.25645
 Alpha virt. eigenvalues --    0.25934   0.26446   0.26636   0.26750   0.27250
 Alpha virt. eigenvalues --    0.27588   0.28069   0.28138   0.28813   0.29370
 Alpha virt. eigenvalues --    0.29815   0.30208   0.30680   0.30798   0.31286
 Alpha virt. eigenvalues --    0.31762   0.32201   0.32538   0.32666   0.33257
 Alpha virt. eigenvalues --    0.33989   0.34319   0.34625   0.34821   0.35337
 Alpha virt. eigenvalues --    0.35572   0.36232   0.36787   0.36895   0.37595
 Alpha virt. eigenvalues --    0.38128   0.38761   0.39315   0.39914   0.40610
 Alpha virt. eigenvalues --    0.40912   0.41065   0.41197   0.41790   0.42053
 Alpha virt. eigenvalues --    0.42495   0.42581   0.42810   0.43317   0.43454
 Alpha virt. eigenvalues --    0.43595   0.43831   0.44027   0.44182   0.44549
 Alpha virt. eigenvalues --    0.44767   0.45031   0.45181   0.45472   0.45634
 Alpha virt. eigenvalues --    0.45767   0.46024   0.46226   0.46295   0.46755
 Alpha virt. eigenvalues --    0.47001   0.47205   0.47595   0.47680   0.47854
 Alpha virt. eigenvalues --    0.48083   0.48634   0.48826   0.49005   0.49217
 Alpha virt. eigenvalues --    0.49658   0.49729   0.49768   0.49921   0.50303
 Alpha virt. eigenvalues --    0.50451   0.50880   0.51119   0.51531   0.51661
 Alpha virt. eigenvalues --    0.52362   0.52535   0.53136   0.53265   0.53605
 Alpha virt. eigenvalues --    0.53945   0.54021   0.54213   0.54478   0.55222
 Alpha virt. eigenvalues --    0.55345   0.56298   0.56439   0.56818   0.57031
 Alpha virt. eigenvalues --    0.57732   0.58152   0.58349   0.59156   0.59975
 Alpha virt. eigenvalues --    0.60317   0.60382   0.61301   0.61834   0.62502
 Alpha virt. eigenvalues --    0.62746   0.63224   0.63850   0.64574   0.65153
 Alpha virt. eigenvalues --    0.65575   0.65841   0.66304   0.67114   0.67707
 Alpha virt. eigenvalues --    0.68739   0.69074   0.69687   0.70105   0.70914
 Alpha virt. eigenvalues --    0.71344   0.72066   0.72118   0.72768   0.73338
 Alpha virt. eigenvalues --    0.74279   0.75152   0.75554   0.75998   0.76858
 Alpha virt. eigenvalues --    0.77130   0.77748   0.78490   0.79174   0.79663
 Alpha virt. eigenvalues --    0.80108   0.80545   0.80812   0.81792   0.82862
 Alpha virt. eigenvalues --    0.83062   0.83490   0.83578   0.84001   0.84695
 Alpha virt. eigenvalues --    0.85047   0.85776   0.86017   0.86884   0.87111
 Alpha virt. eigenvalues --    0.87676   0.88346   0.88490   0.89325   0.89492
 Alpha virt. eigenvalues --    0.89768   0.90855   0.91368   0.91431   0.91707
 Alpha virt. eigenvalues --    0.92547   0.93348   0.93639   0.94044   0.94805
 Alpha virt. eigenvalues --    0.95105   0.95552   0.96028   0.96865   0.97369
 Alpha virt. eigenvalues --    0.97646   0.97920   0.99207   0.99983   1.01189
 Alpha virt. eigenvalues --    1.01710   1.01893   1.02677   1.03358   1.03546
 Alpha virt. eigenvalues --    1.04151   1.04734   1.05263   1.06111   1.07017
 Alpha virt. eigenvalues --    1.07771   1.08528   1.09171   1.09626   1.09862
 Alpha virt. eigenvalues --    1.10215   1.10385   1.11236   1.12307   1.12812
 Alpha virt. eigenvalues --    1.13315   1.13714   1.14311   1.15288   1.15740
 Alpha virt. eigenvalues --    1.15989   1.17217   1.17650   1.18686   1.19046
 Alpha virt. eigenvalues --    1.19496   1.20186   1.20778   1.21016   1.21581
 Alpha virt. eigenvalues --    1.21832   1.22544   1.23017   1.23329   1.23960
 Alpha virt. eigenvalues --    1.24123   1.24660   1.25316   1.25765   1.26238
 Alpha virt. eigenvalues --    1.26610   1.26948   1.27765   1.28684   1.29128
 Alpha virt. eigenvalues --    1.29659   1.29694   1.30863   1.31104   1.31445
 Alpha virt. eigenvalues --    1.31859   1.32689   1.33328   1.33757   1.35404
 Alpha virt. eigenvalues --    1.35555   1.36229   1.36915   1.38258   1.39373
 Alpha virt. eigenvalues --    1.39851   1.40534   1.41181   1.41775   1.41956
 Alpha virt. eigenvalues --    1.44418   1.45584   1.46471   1.46957   1.48088
 Alpha virt. eigenvalues --    1.49755   1.50044   1.50263   1.50843   1.51888
 Alpha virt. eigenvalues --    1.52608   1.53086   1.53684   1.54038   1.54650
 Alpha virt. eigenvalues --    1.54708   1.55011   1.56100   1.56742   1.57155
 Alpha virt. eigenvalues --    1.57389   1.57764   1.58344   1.58406   1.58925
 Alpha virt. eigenvalues --    1.59197   1.59659   1.59728   1.60762   1.60923
 Alpha virt. eigenvalues --    1.61865   1.62045   1.62487   1.62837   1.63188
 Alpha virt. eigenvalues --    1.63780   1.63854   1.64216   1.64525   1.64876
 Alpha virt. eigenvalues --    1.65025   1.65455   1.65639   1.65712   1.66513
 Alpha virt. eigenvalues --    1.67022   1.67319   1.67533   1.68167   1.68948
 Alpha virt. eigenvalues --    1.69056   1.69497   1.69873   1.70906   1.71060
 Alpha virt. eigenvalues --    1.71736   1.72043   1.72555   1.73291   1.73817
 Alpha virt. eigenvalues --    1.74619   1.75534   1.76031   1.76563   1.77136
 Alpha virt. eigenvalues --    1.77716   1.78315   1.78646   1.79116   1.79497
 Alpha virt. eigenvalues --    1.80065   1.80833   1.81283   1.81736   1.82956
 Alpha virt. eigenvalues --    1.83225   1.84041   1.84054   1.84674   1.85234
 Alpha virt. eigenvalues --    1.86035   1.86801   1.86889   1.87231   1.88619
 Alpha virt. eigenvalues --    1.88666   1.89065   1.90651   1.90898   1.91235
 Alpha virt. eigenvalues --    1.91630   1.92271   1.92732   1.93351   1.93782
 Alpha virt. eigenvalues --    1.94777   1.95619   1.96787   1.97422   1.97843
 Alpha virt. eigenvalues --    1.98588   1.99514   1.99885   2.00692   2.01391
 Alpha virt. eigenvalues --    2.01871   2.02223   2.03033   2.03964   2.04245
 Alpha virt. eigenvalues --    2.04697   2.05346   2.05816   2.06505   2.06593
 Alpha virt. eigenvalues --    2.07359   2.08243   2.08486   2.09421   2.09839
 Alpha virt. eigenvalues --    2.10640   2.11233   2.12338   2.12888   2.13639
 Alpha virt. eigenvalues --    2.14108   2.14954   2.15198   2.15719   2.17142
 Alpha virt. eigenvalues --    2.18038   2.18490   2.19237   2.20569   2.21100
 Alpha virt. eigenvalues --    2.21336   2.22192   2.24067   2.24761   2.25122
 Alpha virt. eigenvalues --    2.26151   2.26674   2.29057   2.29502   2.30003
 Alpha virt. eigenvalues --    2.30673   2.30900   2.31995   2.33002   2.33471
 Alpha virt. eigenvalues --    2.34140   2.34370   2.35352   2.36169   2.36609
 Alpha virt. eigenvalues --    2.36853   2.36969   2.38400   2.38832   2.39110
 Alpha virt. eigenvalues --    2.39293   2.40102   2.41007   2.41835   2.42423
 Alpha virt. eigenvalues --    2.42615   2.42691   2.43466   2.43758   2.45101
 Alpha virt. eigenvalues --    2.45516   2.46594   2.46983   2.47401   2.47783
 Alpha virt. eigenvalues --    2.48573   2.49226   2.50144   2.50608   2.51118
 Alpha virt. eigenvalues --    2.51621   2.51924   2.52180   2.52962   2.53341
 Alpha virt. eigenvalues --    2.53558   2.53892   2.54842   2.55125   2.55586
 Alpha virt. eigenvalues --    2.55685   2.56443   2.57184   2.57812   2.58247
 Alpha virt. eigenvalues --    2.59321   2.59652   2.60115   2.60482   2.60782
 Alpha virt. eigenvalues --    2.61111   2.61343   2.61766   2.62324   2.62808
 Alpha virt. eigenvalues --    2.63332   2.63742   2.63962   2.64775   2.64974
 Alpha virt. eigenvalues --    2.65162   2.65653   2.66164   2.66712   2.66934
 Alpha virt. eigenvalues --    2.67281   2.67713   2.67797   2.68092   2.68183
 Alpha virt. eigenvalues --    2.68709   2.69075   2.69406   2.69813   2.70196
 Alpha virt. eigenvalues --    2.70811   2.71109   2.71900   2.72266   2.72798
 Alpha virt. eigenvalues --    2.73082   2.73522   2.73796   2.74194   2.75315
 Alpha virt. eigenvalues --    2.75592   2.76046   2.76554   2.76937   2.77192
 Alpha virt. eigenvalues --    2.78304   2.78649   2.79095   2.79539   2.80599
 Alpha virt. eigenvalues --    2.80720   2.80784   2.81636   2.82505   2.83292
 Alpha virt. eigenvalues --    2.84178   2.84297   2.84733   2.85371   2.86030
 Alpha virt. eigenvalues --    2.86583   2.88217   2.88887   2.89105   2.90049
 Alpha virt. eigenvalues --    2.90327   2.90773   2.92212   2.92729   2.92874
 Alpha virt. eigenvalues --    2.93489   2.94983   2.95299   2.95995   2.96964
 Alpha virt. eigenvalues --    2.97600   2.98495   2.99775   3.00297   3.01026
 Alpha virt. eigenvalues --    3.01790   3.03060   3.03940   3.04840   3.04955
 Alpha virt. eigenvalues --    3.06246   3.07199   3.08453   3.08804   3.10540
 Alpha virt. eigenvalues --    3.11435   3.11625   3.12019   3.13970   3.14062
 Alpha virt. eigenvalues --    3.14625   3.15268   3.15766   3.16068   3.16658
 Alpha virt. eigenvalues --    3.16867   3.17229   3.17540   3.18422   3.18607
 Alpha virt. eigenvalues --    3.18953   3.19863   3.19994   3.20420   3.20782
 Alpha virt. eigenvalues --    3.21396   3.22262   3.22578   3.22837   3.24221
 Alpha virt. eigenvalues --    3.24442   3.24745   3.24832   3.25457   3.25895
 Alpha virt. eigenvalues --    3.26828   3.27255   3.27977   3.28000   3.29094
 Alpha virt. eigenvalues --    3.29330   3.29686   3.30890   3.31371   3.31666
 Alpha virt. eigenvalues --    3.32425   3.32569   3.33196   3.33401   3.33849
 Alpha virt. eigenvalues --    3.34249   3.34352   3.35011   3.35585   3.36227
 Alpha virt. eigenvalues --    3.36519   3.36827   3.37128   3.37404   3.37836
 Alpha virt. eigenvalues --    3.38319   3.38765   3.39347   3.39643   3.40474
 Alpha virt. eigenvalues --    3.40786   3.41092   3.41171   3.42141   3.42527
 Alpha virt. eigenvalues --    3.42935   3.43898   3.44843   3.45307   3.45879
 Alpha virt. eigenvalues --    3.46251   3.46481   3.46735   3.47233   3.48192
 Alpha virt. eigenvalues --    3.48451   3.49140   3.49352   3.50742   3.51496
 Alpha virt. eigenvalues --    3.51550   3.51860   3.52599   3.52916   3.53142
 Alpha virt. eigenvalues --    3.54048   3.54529   3.54904   3.55478   3.55849
 Alpha virt. eigenvalues --    3.56211   3.57586   3.57764   3.58593   3.59172
 Alpha virt. eigenvalues --    3.59527   3.59956   3.60242   3.60716   3.61168
 Alpha virt. eigenvalues --    3.61859   3.62447   3.63201   3.63802   3.64571
 Alpha virt. eigenvalues --    3.64904   3.65447   3.66391   3.66675   3.67438
 Alpha virt. eigenvalues --    3.67931   3.68286   3.68940   3.69666   3.70685
 Alpha virt. eigenvalues --    3.71935   3.72273   3.72662   3.74008   3.75040
 Alpha virt. eigenvalues --    3.76283   3.76837   3.77630   3.78850   3.79629
 Alpha virt. eigenvalues --    3.79776   3.80750   3.82308   3.82787   3.83106
 Alpha virt. eigenvalues --    3.85341   3.85808   3.86172   3.87588   3.90098
 Alpha virt. eigenvalues --    3.91077   3.92254   3.92372   3.93394   3.94970
 Alpha virt. eigenvalues --    3.95251   3.95881   3.96262   3.96627   3.97016
 Alpha virt. eigenvalues --    3.97348   3.98451   3.99170   3.99753   4.00451
 Alpha virt. eigenvalues --    4.02270   4.02816   4.02979   4.03242   4.04122
 Alpha virt. eigenvalues --    4.04184   4.06123   4.06701   4.08340   4.08879
 Alpha virt. eigenvalues --    4.11381   4.11818   4.13031   4.15074   4.15690
 Alpha virt. eigenvalues --    4.16549   4.17883   4.18888   4.18934   4.19984
 Alpha virt. eigenvalues --    4.20388   4.21193   4.21860   4.22509   4.22587
 Alpha virt. eigenvalues --    4.23460   4.24515   4.24992   4.25262   4.26580
 Alpha virt. eigenvalues --    4.28341   4.28721   4.29864   4.30504   4.32454
 Alpha virt. eigenvalues --    4.33773   4.34973   4.36392   4.36951   4.38556
 Alpha virt. eigenvalues --    4.40168   4.41099   4.41622   4.42090   4.42593
 Alpha virt. eigenvalues --    4.43653   4.44767   4.45697   4.46998   4.47853
 Alpha virt. eigenvalues --    4.48321   4.49799   4.55115   4.55436   4.57812
 Alpha virt. eigenvalues --    4.58431   4.59129   4.59737   4.60275   4.61462
 Alpha virt. eigenvalues --    4.62454   4.62893   4.63538   4.63906   4.65139
 Alpha virt. eigenvalues --    4.67118   4.67623   4.68527   4.70034   4.71722
 Alpha virt. eigenvalues --    4.72759   4.74327   4.76129   4.77747   4.78064
 Alpha virt. eigenvalues --    4.79674   4.84556   4.85101   4.87300   4.88564
 Alpha virt. eigenvalues --    4.89581   4.92832   4.94743   4.99504   5.03176
 Alpha virt. eigenvalues --    5.04407   5.05793   5.07938   5.12026   5.12245
 Alpha virt. eigenvalues --    5.16493   5.16924   5.18280   5.20494   5.23620
 Alpha virt. eigenvalues --    5.38952   5.47175   5.56108   7.77449   7.84430
 Alpha virt. eigenvalues --    7.88785   7.94419   7.99987   8.11644  15.53585
 Alpha virt. eigenvalues --   15.78104  22.25774  22.40728  22.43006  22.45523
 Alpha virt. eigenvalues --   22.46451  22.50862  22.52191  22.55143  22.57307
 Alpha virt. eigenvalues --   22.57621  22.58933  22.59860  22.62324  22.62534
 Alpha virt. eigenvalues --   22.66600  22.69498  22.71476  22.76450  22.79812
 Alpha virt. eigenvalues --   22.81498  22.93185  23.24404
          Condensed to atoms (all electrons):
 Mulliken charges:
               1
     1  P   -0.018737
     2  P   -0.006467
     3  C    0.006508
     4  C    0.021359
     5  C   -0.045843
     6  H    0.092836
     7  C   -0.102537
     8  H    0.094535
     9  C   -0.140736
    10  H    0.083149
    11  C   -0.124093
    12  H    0.091782
    13  C   -0.194551
    14  H    0.093934
    15  H    0.097669
    16  C   -0.198473
    17  H    0.109149
    18  H    0.102642
    19  C   -0.142094
    20  H    0.106848
    21  H    0.098966
    22  C   -0.167207
    23  H    0.100955
    24  H    0.090168
    25  C   -0.198241
    26  H    0.096777
    27  H    0.126510
    28  C   -0.152562
    29  H    0.101896
    30  H    0.095950
    31  C   -0.136071
    32  H    0.095662
    33  H    0.097766
    34  C   -0.120698
    35  H    0.098613
    36  H    0.095734
    37  C   -0.386962
    38  H    0.114661
    39  H    0.137608
    40  H    0.125062
    41  C   -0.416778
    42  H    0.118732
    43  H    0.123615
    44  H    0.149034
    45  C   -0.384022
    46  H    0.116675
    47  H    0.113096
    48  H    0.122655
    49  C   -0.402634
    50  H    0.119811
    51  H    0.123510
    52  H    0.131829
    53  C   -0.159565
    54  H    0.134716
    55  C   -0.149554
    56  H    0.117194
    57  C   -0.120752
    58  H    0.117979
    59  C   -0.231710
    60  H    0.134700
 Sum of Mulliken charges =  -0.00000
 Mulliken charges with hydrogens summed into heavy atoms:
               1
     1  P   -0.018737
     2  P   -0.006467
     3  C    0.006508
     4  C    0.021359
     5  C    0.046993
     7  C   -0.008003
     9  C   -0.057587
    11  C   -0.032311
    13  C   -0.002949
    16  C    0.013318
    19  C    0.063721
    22  C    0.023915
    25  C    0.025045
    28  C    0.045284
    31  C    0.057357
    34  C    0.073649
    37  C   -0.009631
    41  C   -0.025396
    45  C   -0.031596
    49  C   -0.027484
    53  C   -0.024849
    55  C   -0.032360
    57  C   -0.002773
    59  C   -0.097009
 Electronic spatial extent (au):  <R**2>=           8853.0216
 Charge=             -0.0000 electrons
 Dipole moment (field-independent basis, Debye):
    X=             -0.0172    Y=             -0.2505    Z=              1.6743  Tot=              1.6930
 Quadrupole moment (field-independent basis, Debye-Ang):
   XX=           -156.9766   YY=           -166.5097   ZZ=           -161.7241
   XY=             -0.2694   XZ=              0.3029   YZ=              0.3971
 Traceless Quadrupole moment (field-independent basis, Debye-Ang):
   XX=              4.7602   YY=             -4.7729   ZZ=              0.0127
   XY=             -0.2694   XZ=              0.3029   YZ=              0.3971
 Octapole moment (field-independent basis, Debye-Ang**2):
  XXX=              3.2527  YYY=             -0.4135  ZZZ=             27.6652  XYY=              1.6463
  XXY=             -0.9690  XXZ=              1.0223  XZZ=             -1.7128  YZZ=             -2.1695
  YYZ=            -11.7653  XYZ=             -6.1308
 Hexadecapole moment (field-independent basis, Debye-Ang**3):
 XXXX=          -6450.1039 YYYY=          -3739.5666 ZZZZ=          -2124.4266 XXXY=              0.3361
 XXXZ=              0.9465 YYYX=              2.9058 YYYZ=             15.6477 ZZZX=              3.4198
 ZZZY=            -13.4213 XXYY=          -1684.5746 XXZZ=          -1411.6445 YYZZ=          -1017.3099
 XXYZ=             -2.8019 YYXZ=             -0.1923 ZZXY=             -3.8517
 N-N= 2.633022324484D+03 E-N=-8.881986612853D+03  KE= 1.535043263157D+03
 1\1\GINC-NC239\SP\RPBE1PBE\def2TZVP\C22H36P2\MACKK4\05-Dec-2021\0\\# P
 BE1PBE/def2TZVP int=(grid=ultrafine) empiricaldispersion=GD3BJ nmr=gia
 o\\SS_Et_DuPhos_1 title\\0,1\P,0,-1.5534086934,-0.8283122526,0.0536547
 218\P,0,1.5233168,-0.2145646161,0.3788789695\C,0,-0.9517698817,0.87348
 74658,-0.3697701895\C,0,0.4116949182,1.1695910796,-0.1258036721\C,0,-2
 .9734455073,-0.7337670365,1.2745165755\H,0,-3.0312162011,-1.8101134343
 ,1.5417432179\C,0,-2.657082636,-1.3363184667,-1.3990195133\H,0,-2.5065
 609753,-0.5447575035,-2.1583528405\C,0,2.5588570146,0.3936988029,1.834
 0681567\H,0,2.3995441706,1.4917383027,1.8541969955\C,0,2.9643952792,-0
 .2803681893,-0.8405315115\H,0,3.1645712892,-1.3678515315,-0.8925661343
 \C,0,-4.1963308421,-0.4009192124,0.4029890385\H,0,-5.1268077007,-0.594
 3866086,0.9676480074\H,0,-4.2094581569,0.671617581,0.1351664094\C,0,-4
 .110054283,-1.2914782837,-0.8469238703\H,0,-4.8096910422,-0.9690417477
 ,-1.6377322579\H,0,-4.3922379412,-2.321640432,-0.5630491623\C,0,4.0066
 181982,0.09216669,1.3959962926\H,0,4.7195501122,0.6756620624,2.0054520
 149\H,0,4.20723554,-0.9804529585,1.5690791374\C,0,4.1309499333,0.40751
 51706,-0.0984731427\H,0,5.0961470793,0.066283125,-0.513438623\H,0,4.07
 84957013,1.5025063393,-0.2639104342\C,0,-2.819237625,0.0499113841,2.58
 64889482\H,0,-3.7547015604,-0.1183805678,3.1546724141\H,0,-2.022316657
 6,-0.4227764401,3.1850524112\C,0,-2.3293367778,-2.7061137119,-2.019312
 9967\H,0,-3.1373423516,-2.9282804284,-2.7440649912\H,0,-2.3852177541,-
 3.4707945672,-1.2242068452\C,0,2.1905883648,-0.1999071525,3.1988598626
 \H,0,2.9265169246,0.1812853143,3.9331306508\H,0,2.3199029852,-1.295895
 3463,3.147251494\C,0,2.7189366456,0.2732870802,-2.2494964456\H,0,2.491
 0319041,1.35433419,-2.1896244396\H,0,3.6791979412,0.1960071804,-2.7954
 821344\C,0,-2.5606493647,1.5576406858,2.4829694326\H,0,-3.3045558311,2
 .0640372599,1.8434177749\H,0,-1.5628765586,1.7759592433,2.0698356836\H
 ,0,-2.6151410609,2.018991458,3.4836263114\C,0,-0.9700235853,-2.7958294
 81,-2.7096096759\H,0,-0.8574103132,-2.0334717503,-3.5015478496\H,0,-0.
 8332225933,-3.7891540192,-3.1687194027\H,0,-0.154968691,-2.6590783595,
 -1.9749207844\C,0,0.7701957447,0.1339877684,3.6530408929\H,0,0.0427424
 05,-0.3466209263,2.9748067978\H,0,0.5781923523,1.2226846565,3.65317127
 09\H,0,0.5753943601,-0.2490495579,4.6687217557\C,0,1.6216638452,-0.445
 2324974,-3.0353883675\H,0,1.5652084639,-0.0678609959,-4.0706535583\H,0
 ,1.8036187936,-1.532344797,-3.0759539921\H,0,0.633697259,-0.2917509763
 ,-2.5699700751\C,0,-1.7895348785,1.8768042971,-0.8948495247\H,0,-2.836
 6632946,1.6553409707,-1.1198871728\C,0,-1.2977301165,3.1675746786,-1.1
 255515058\H,0,-1.9624260994,3.9388099194,-1.5273029466\C,0,0.039753853
 1,3.4725932417,-0.8355878445\H,0,0.4234832834,4.4834265848,-1.00575314
 74\C,0,0.8922869916,2.4745373287,-0.3467178641\H,0,1.9427845582,2.7111
 42581,-0.1459104603\\Version=ES64L-G09RevE.01\State=1-A\HF=-1541.81626
 71\RMSD=3.213e-09\Dipole=-0.1089914,0.6401923,-0.1481661\Quadrupole=3.
 1854407,-0.3852316,-2.8002091,1.1139873,0.9388807,-1.2433493\PG=C01 [X
 (C22H36P2)]\\@


 Time has a wonderful way of weeding out the trivial.
                                -- Richard Ben Sapir
 Job cpu time:       0 days  8 hours 43 minutes 49.5 seconds.
 File lengths (MBytes):  RWF=    551 Int=      0 D2E=      0 Chk=     80 Scr=      1
 Normal termination of Gaussian 09 at Sun Dec  5 09:25:51 2021.
 Initial command:
 /gstore/apps/gaussian/g09.e01-foss-2017a/g09/l1.exe "/local/22791407/Gau-6178.inp" -scrdir="/local/22791407/"
 Entering Link 1 = /gstore/apps/gaussian/g09.e01-foss-2017a/g09/l1.exe PID=     19879.
  
 Copyright (c) 1988,1990,1992,1993,1995,1998,2003,2009,2015,
            Gaussian, Inc.  All Rights Reserved.
  
 This is part of the Gaussian(R) 09 program.  It is based on
 the Gaussian(R) 03 system (copyright 2003, Gaussian, Inc.),
 the Gaussian(R) 98 system (copyright 1998, Gaussian, Inc.),
 the Gaussian(R) 94 system (copyright 1995, Gaussian, Inc.),
 the Gaussian 92(TM) system (copyright 1992, Gaussian, Inc.),
 the Gaussian 90(TM) system (copyright 1990, Gaussian, Inc.),
 the Gaussian 88(TM) system (copyright 1988, Gaussian, Inc.),
 the Gaussian 86(TM) system (copyright 1986, Carnegie Mellon
 University), and the Gaussian 82(TM) system (copyright 1983,
 Carnegie Mellon University). Gaussian is a federally registered
 trademark of Gaussian, Inc.
  
 This software contains proprietary and confidential information,
 including trade secrets, belonging to Gaussian, Inc.
  
 This software is provided under written license and may be
 used, copied, transmitted, or stored only in accord with that
 written license.
  
 The following legend is applicable only to US Government
 contracts under FAR:
  
                    RESTRICTED RIGHTS LEGEND
  
 Use, reproduction and disclosure by the US Government is
 subject to restrictions as set forth in subparagraphs (a)
 and (c) of the Commercial Computer Software - Restricted
 Rights clause in FAR 52.227-19.
  
 Gaussian, Inc.
 340 Quinnipiac St., Bldg. 40, Wallingford CT 06492
  
  
 ---------------------------------------------------------------
 Warning -- This program may not be used in any manner that
 competes with the business of Gaussian, Inc. or will provide
 assistance to any competitor of Gaussian, Inc.  The licensee
 of this program is prohibited from giving any competitor of
 Gaussian, Inc. access to this program.  By using this program,
 the user acknowledges that Gaussian, Inc. is engaged in the
 business of creating and licensing software in the field of
 computational chemistry and represents and warrants to the
 licensee that it is not a competitor of Gaussian, Inc. and that
 it will not use this program in any manner prohibited above.
 ---------------------------------------------------------------
  

 Cite this work as:
 Gaussian 09, Revision E.01,
 M. J. Frisch, G. W. Trucks, H. B. Schlegel, G. E. Scuseria, 
 M. A. Robb, J. R. Cheeseman, G. Scalmani, V. Barone, B. Mennucci, 
 G. A. Petersson, H. Nakatsuji, M. Caricato, X. Li, H. P. Hratchian, 
 A. F. Izmaylov, J. Bloino, G. Zheng, J. L. Sonnenberg, M. Hada, 
 M. Ehara, K. Toyota, R. Fukuda, J. Hasegawa, M. Ishida, T. Nakajima, 
 Y. Honda, O. Kitao, H. Nakai, T. Vreven, J. A. Montgomery, Jr., 
 J. E. Peralta, F. Ogliaro, M. Bearpark, J. J. Heyd, E. Brothers, 
 K. N. Kudin, V. N. Staroverov, T. Keith, R. Kobayashi, J. Normand, 
 K. Raghavachari, A. Rendell, J. C. Burant, S. S. Iyengar, J. Tomasi, 
 M. Cossi, N. Rega, J. M. Millam, M. Klene, J. E. Knox, J. B. Cross, 
 V. Bakken, C. Adamo, J. Jaramillo, R. Gomperts, R. E. Stratmann, 
 O. Yazyev, A. J. Austin, R. Cammi, C. Pomelli, J. W. Ochterski, 
 R. L. Martin, K. Morokuma, V. G. Zakrzewski, G. A. Voth, 
 P. Salvador, J. J. Dannenberg, S. Dapprich, A. D. Daniels, 
 O. Farkas, J. B. Foresman, J. V. Ortiz, J. Cioslowski, 
 and D. J. Fox, Gaussian, Inc., Wallingford CT, 2013.
 
 ******************************************
 Gaussian 09:  ES64L-G09RevE.01 30-Nov-2015
                 5-Dec-2021 
 ******************************************
 %nprocs=14
 Will use up to   14 processors via shared memory.
 %mem=128GB
 %chk=SS_Et_DuPhos_1_SPE_NoPd.chk
 ----------------------------------------------------------------------
 # PBE1PBE/def2TZVP int=(grid=ultrafine) empiricaldispersion=GD3BJ pop=
 nbo guess=read geom=check
 ----------------------------------------------------------------------
 1/29=2,38=1/1;
 2/12=2,40=1/2;
 3/5=44,7=101,11=2,14=-4,16=1,25=1,30=1,74=-13,75=-5,116=-2,124=41/1,2,3;
 4/5=1/1;
 5/5=2,38=6/2;
 6/7=2,8=2,9=2,10=2,28=1,40=1/1,7;
 99/5=1,9=1/99;
 --------------------
 SS_Et_DuPhos_1 title
 --------------------
 Structure from the checkpoint file:  "SS_Et_DuPhos_1_SPE_NoPd.chk"
 Charge =  0 Multiplicity = 1
 Z-Matrix found in file.
 P,0,-1.5534086934,-0.8283122526,0.0536547218
 P,0,1.5233168,-0.2145646161,0.3788789695
 C,0,-0.9517698817,0.8734874658,-0.3697701895
 C,0,0.4116949182,1.1695910796,-0.1258036721
 C,0,-2.9734455073,-0.7337670365,1.2745165755
 H,0,-3.0312162011,-1.8101134343,1.5417432179
 C,0,-2.657082636,-1.3363184667,-1.3990195133
 H,0,-2.5065609753,-0.5447575035,-2.1583528405
 C,0,2.5588570146,0.3936988029,1.8340681567
 H,0,2.3995441706,1.4917383027,1.8541969955
 C,0,2.9643952792,-0.2803681893,-0.8405315115
 H,0,3.1645712892,-1.3678515315,-0.8925661343
 C,0,-4.1963308421,-0.4009192124,0.4029890385
 H,0,-5.1268077007,-0.5943866086,0.9676480074
 H,0,-4.2094581569,0.671617581,0.1351664094
 C,0,-4.110054283,-1.2914782837,-0.8469238703
 H,0,-4.8096910422,-0.9690417477,-1.6377322579
 H,0,-4.3922379412,-2.321640432,-0.5630491623
 C,0,4.0066181982,0.09216669,1.3959962926
 H,0,4.7195501122,0.6756620624,2.0054520149
 H,0,4.20723554,-0.9804529585,1.5690791374
 C,0,4.1309499333,0.4075151706,-0.0984731427
 H,0,5.0961470793,0.066283125,-0.513438623
 H,0,4.0784957013,1.5025063393,-0.2639104342
 C,0,-2.819237625,0.0499113841,2.5864889482
 H,0,-3.7547015604,-0.1183805678,3.1546724141
 H,0,-2.0223166576,-0.4227764401,3.1850524112
 C,0,-2.3293367778,-2.7061137119,-2.0193129967
 H,0,-3.1373423516,-2.9282804284,-2.7440649912
 H,0,-2.3852177541,-3.4707945672,-1.2242068452
 C,0,2.1905883648,-0.1999071525,3.1988598626
 H,0,2.9265169246,0.1812853143,3.9331306508
 H,0,2.3199029852,-1.2958953463,3.147251494
 C,0,2.7189366456,0.2732870802,-2.2494964456
 H,0,2.4910319041,1.35433419,-2.1896244396
 H,0,3.6791979412,0.1960071804,-2.7954821344
 C,0,-2.5606493647,1.5576406858,2.4829694326
 H,0,-3.3045558311,2.0640372599,1.8434177749
 H,0,-1.5628765586,1.7759592433,2.0698356836
 H,0,-2.6151410609,2.018991458,3.4836263114
 C,0,-0.9700235853,-2.795829481,-2.7096096759
 H,0,-0.8574103132,-2.0334717503,-3.5015478496
 H,0,-0.8332225933,-3.7891540192,-3.1687194027
 H,0,-0.154968691,-2.6590783595,-1.9749207844
 C,0,0.7701957447,0.1339877684,3.6530408929
 H,0,0.042742405,-0.3466209263,2.9748067978
 H,0,0.5781923523,1.2226846565,3.6531712709
 H,0,0.5753943601,-0.2490495579,4.6687217557
 C,0,1.6216638452,-0.4452324974,-3.0353883675
 H,0,1.5652084639,-0.0678609959,-4.0706535583
 H,0,1.8036187936,-1.532344797,-3.0759539921
 H,0,0.633697259,-0.2917509763,-2.5699700751
 C,0,-1.7895348785,1.8768042971,-0.8948495247
 H,0,-2.8366632946,1.6553409707,-1.1198871728
 C,0,-1.2977301165,3.1675746786,-1.1255515058
 H,0,-1.9624260994,3.9388099194,-1.5273029466
 C,0,0.0397538531,3.4725932417,-0.8355878445
 H,0,0.4234832834,4.4834265848,-1.0057531474
 C,0,0.8922869916,2.4745373287,-0.3467178641
 H,0,1.9427845582,2.711142581,-0.1459104603
 Recover connectivity data from disk.
 Stoichiometry    C22H36P2
 Framework group  C1[X(C22H36P2)]
 Deg. of freedom   174
 Full point group                 C1      NOp   1
 Largest Abelian subgroup         C1      NOp   1
 Largest concise Abelian subgroup C1      NOp   1
                         Standard orientation:                         
 ---------------------------------------------------------------------
 Center     Atomic      Atomic             Coordinates (Angstroms)
 Number     Number       Type             X           Y           Z
 ---------------------------------------------------------------------
      1         15           0       -1.518442    0.097378   -0.662473
      2         15           0        1.635112    0.050104   -0.622977
      3          6           0       -0.666002   -0.002531    0.980921
      4          6           0        0.745163   -0.124322    0.984462
      5          6           0       -2.778155   -1.281463   -0.829400
      6          1           0       -3.001201   -1.168993   -1.911467
      7          6           0       -2.826172    1.451746   -0.457631
      8          1           0       -2.609088    1.907182    0.527896
      9          6           0        2.894175   -1.351252   -0.727203
     10          1           0        2.935379   -1.770378    0.299496
     11          6           0        2.920687    1.420925   -0.432861
     12          1           0        2.918398    1.872186   -1.443680
     13          6           0       -3.998552   -0.772174   -0.043873
     14          1           0       -4.891489   -1.369926   -0.303513
     15          1           0       -3.845690   -0.893494    1.044314
     16          6           0       -4.189703    0.705043   -0.423495
     17          1           0       -4.891827    1.222082    0.253650
     18          1           0       -4.622797    0.752354   -1.439191
     19          6           0        4.217621   -0.623066   -1.038773
     20          1           0        5.076956   -1.280497   -0.816279
     21          1           0        4.239518   -0.385560   -2.117583
     22          6           0        4.255383    0.673271   -0.222423
     23          1           0        5.101229    1.320764   -0.514893
     24          1           0        4.383318    0.443384    0.854569
     25          6           0       -2.364632   -2.743264   -0.602815
     26          1           0       -3.257645   -3.353667   -0.839849
     27          1           0       -1.611973   -3.015858   -1.361756
     28          6           0       -2.807017    2.545932   -1.539717
     29          1           0       -3.706003    3.172045   -1.374477
     30          1           0       -2.923257    2.062406   -2.525994
     31          6           0        2.555791   -2.468808   -1.720789
     32          1           0        3.413361   -3.169145   -1.733220
     33          1           0        2.482615   -2.025729   -2.730196
     34          6           0        2.646634    2.500445    0.621416
     35          1           0        2.621352    2.039936    1.627139
     36          1           0        3.522324    3.178192    0.620588
     37          6           0       -1.852766   -3.125070    0.791117
     38          1           0       -2.551340   -2.818022    1.588975
     39          1           0       -0.875278   -2.666167    1.009789
     40          1           0       -1.730222   -4.219249    0.861009
     41          6           0       -1.556175    3.422013   -1.552685
     42          1           0       -1.384479    3.911966   -0.577235
     43          1           0       -1.641963    4.208862   -2.320603
     44          1           0       -0.664550    2.817031   -1.801252
     45          6           0        1.266424   -3.218892   -1.388845
     46          1           0        0.404722   -2.535152   -1.489565
     47          1           0        1.272068   -3.621209   -0.359168
     48          1           0        1.102692   -4.058738   -2.084634
     49          6           0        1.370244    3.309707    0.389413
     50          1           0        1.285008    4.131709    1.120452
     51          1           0        1.351247    3.747455   -0.622804
     52          1           0        0.473418    2.676356    0.493428
     53          6           0       -1.357366    0.013863    2.208093
     54          1           0       -2.443603    0.140291    2.224517
     55          6           0       -0.667578   -0.140427    3.417047
     56          1           0       -1.219138   -0.132687    4.362431
     57          6           0        0.724037   -0.311845    3.415581
     58          1           0        1.263826   -0.442625    4.358722
     59          6           0        1.427408   -0.294240    2.204432
     60          1           0        2.517368   -0.402883    2.210315
 ---------------------------------------------------------------------
 Rotational constants (GHZ):      0.2651271      0.1725348      0.1493375
 Standard basis: def2TZVP (5D, 7F)
 There are  1092 symmetry adapted cartesian basis functions of A   symmetry.
 There are   972 symmetry adapted basis functions of A   symmetry.
   972 basis functions,  1548 primitive gaussians,  1092 cartesian basis functions
    99 alpha electrons       99 beta electrons
       nuclear repulsion energy      2633.1025646067 Hartrees.
 NAtoms=   60 NActive=   60 NUniq=   60 SFac= 1.00D+00 NAtFMM=   60 NAOKFM=T Big=T
 Integral buffers will be    131072 words long.
 Raffenetti 2 integral format.
 Two-electron integral symmetry is turned on.
 Nuclear repulsion after empirical dispersion term =     2633.0223244838 Hartrees.
 One-electron integrals computed using PRISM.
   1 Symmetry operations used in ECPInt.
 ECPInt:  NShTT=   85078 NPrTT=  253069 LenC2=   74562 LenP2D=  155040.
 LDataN:  DoStor=T MaxTD1= 6 Len=  172
 NBasis=   972 RedAO= T EigKep=  5.52D-06  NBF=   972
 NBsUse=   972 1.00D-06 EigRej= -1.00D+00 NBFU=   972
 Initial guess from the checkpoint file:  "SS_Et_DuPhos_1_SPE_NoPd.chk"
 B after Tr=    -0.000000    0.000000   -0.000000
         Rot=    1.000000   -0.000000   -0.000000    0.000000 Ang=   0.00 deg.
 Requested convergence on RMS density matrix=1.00D-08 within 128 cycles.
 Requested convergence on MAX density matrix=1.00D-06.
 Requested convergence on             energy=1.00D-06.
 No special actions if energy rises.
 SCF Done:  E(RPBE1PBE) =  -1541.81626706     A.U. after    2 cycles
            NFock=  2  Conv=0.27D-08     -V/T= 2.0044

 **********************************************************************

            Population analysis using the SCF density.

 **********************************************************************

 Orbital symmetries:
       Occupied  (A) (A) (A) (A) (A) (A) (A) (A) (A) (A) (A) (A)
                 (A) (A) (A) (A) (A) (A) (A) (A) (A) (A) (A) (A)
                 (A) (A) (A) (A) (A) (A) (A) (A) (A) (A) (A) (A)
                 (A) (A) (A) (A) (A) (A) (A) (A) (A) (A) (A) (A)
                 (A) (A) (A) (A) (A) (A) (A) (A) (A) (A) (A) (A)
                 (A) (A) (A) (A) (A) (A) (A) (A) (A) (A) (A) (A)
                 (A) (A) (A) (A) (A) (A) (A) (A) (A) (A) (A) (A)
                 (A) (A) (A) (A) (A) (A) (A) (A) (A) (A) (A) (A)
                 (A) (A) (A)
       Virtual   (A) (A) (A) (A) (A) (A) (A) (A) (A) (A) (A) (A)
                 (A) (A) (A) (A) (A) (A) (A) (A) (A) (A) (A) (A)
                 (A) (A) (A) (A) (A) (A) (A) (A) (A) (A) (A) (A)
                 (A) (A) (A) (A) (A) (A) (A) (A) (A) (A) (A) (A)
                 (A) (A) (A) (A) (A) (A) (A) (A) (A) (A) (A) (A)
                 (A) (A) (A) (A) (A) (A) (A) (A) (A) (A) (A) (A)
                 (A) (A) (A) (A) (A) (A) (A) (A) (A) (A) (A) (A)
                 (A) (A) (A) (A) (A) (A) (A) (A) (A) (A) (A) (A)
                 (A) (A) (A) (A) (A) (A) (A) (A) (A) (A) (A) (A)
                 (A) (A) (A) (A) (A) (A) (A) (A) (A) (A) (A) (A)
                 (A) (A) (A) (A) (A) (A) (A) (A) (A) (A) (A) (A)
                 (A) (A) (A) (A) (A) (A) (A) (A) (A) (A) (A) (A)
                 (A) (A) (A) (A) (A) (A) (A) (A) (A) (A) (A) (A)
                 (A) (A) (A) (A) (A) (A) (A) (A) (A) (A) (A) (A)
                 (A) (A) (A) (A) (A) (A) (A) (A) (A) (A) (A) (A)
                 (A) (A) (A) (A) (A) (A) (A) (A) (A) (A) (A) (A)
                 (A) (A) (A) (A) (A) (A) (A) (A) (A) (A) (A) (A)
                 (A) (A) (A) (A) (A) (A) (A) (A) (A) (A) (A) (A)
                 (A) (A) (A) (A) (A) (A) (A) (A) (A) (A) (A) (A)
                 (A) (A) (A) (A) (A) (A) (A) (A) (A) (A) (A) (A)
                 (A) (A) (A) (A) (A) (A) (A) (A) (A) (A) (A) (A)
                 (A) (A) (A) (A) (A) (A) (A) (A) (A) (A) (A) (A)
                 (A) (A) (A) (A) (A) (A) (A) (A) (A) (A) (A) (A)
                 (A) (A) (A) (A) (A) (A) (A) (A) (A) (A) (A) (A)
                 (A) (A) (A) (A) (A) (A) (A) (A) (A) (A) (A) (A)
                 (A) (A) (A) (A) (A) (A) (A) (A) (A) (A) (A) (A)
                 (A) (A) (A) (A) (A) (A) (A) (A) (A) (A) (A) (A)
                 (A) (A) (A) (A) (A) (A) (A) (A) (A) (A) (A) (A)
                 (A) (A) (A) (A) (A) (A) (A) (A) (A) (A) (A) (A)
                 (A) (A) (A) (A) (A) (A) (A) (A) (A) (A) (A) (A)
                 (A) (A) (A) (A) (A) (A) (A) (A) (A) (A) (A) (A)
                 (A) (A) (A) (A) (A) (A) (A) (A) (A) (A) (A) (A)
                 (A) (A) (A) (A) (A) (A) (A) (A) (A) (A) (A) (A)
                 (A) (A) (A) (A) (A) (A) (A) (A) (A) (A) (A) (A)
                 (A) (A) (A) (A) (A) (A) (A) (A) (A) (A) (A) (A)
                 (A) (A) (A) (A) (A) (A) (A) (A) (A) (A) (A) (A)
                 (A) (A) (A) (A) (A) (A) (A) (A) (A) (A) (A) (A)
                 (A) (A) (A) (A) (A) (A) (A) (A) (A) (A) (A) (A)
                 (A) (A) (A) (A) (A) (A) (A) (A) (A) (A) (A) (A)
                 (A) (A) (A) (A) (A) (A) (A) (A) (A) (A) (A) (A)
                 (A) (A) (A) (A) (A) (A) (A) (A) (A) (A) (A) (A)
                 (A) (A) (A) (A) (A) (A) (A) (A) (A) (A) (A) (A)
                 (A) (A) (A) (A) (A) (A) (A) (A) (A) (A) (A) (A)
                 (A) (A) (A) (A) (A) (A) (A) (A) (A) (A) (A) (A)
                 (A) (A) (A) (A) (A) (A) (A) (A) (A) (A) (A) (A)
                 (A) (A) (A) (A) (A) (A) (A) (A) (A) (A) (A) (A)
                 (A) (A) (A) (A) (A) (A) (A) (A) (A) (A) (A) (A)
                 (A) (A) (A) (A) (A) (A) (A) (A) (A) (A) (A) (A)
                 (A) (A) (A) (A) (A) (A) (A) (A) (A) (A) (A) (A)
                 (A) (A) (A) (A) (A) (A) (A) (A) (A) (A) (A) (A)
                 (A) (A) (A) (A) (A) (A) (A) (A) (A) (A) (A) (A)
                 (A) (A) (A) (A) (A) (A) (A) (A) (A) (A) (A) (A)
                 (A) (A) (A) (A) (A) (A) (A) (A) (A) (A) (A) (A)
                 (A) (A) (A) (A) (A) (A) (A) (A) (A) (A) (A) (A)
                 (A) (A) (A) (A) (A) (A) (A) (A) (A) (A) (A) (A)
                 (A) (A) (A) (A) (A) (A) (A) (A) (A) (A) (A) (A)
                 (A) (A) (A) (A) (A) (A) (A) (A) (A) (A) (A) (A)
                 (A) (A) (A) (A) (A) (A) (A) (A) (A) (A) (A) (A)
                 (A) (A) (A) (A) (A) (A) (A) (A) (A) (A) (A) (A)
                 (A) (A) (A) (A) (A) (A) (A) (A) (A) (A) (A) (A)
                 (A) (A) (A) (A) (A) (A) (A) (A) (A) (A) (A) (A)
                 (A) (A) (A) (A) (A) (A) (A) (A) (A) (A) (A) (A)
                 (A) (A) (A) (A) (A) (A) (A) (A) (A) (A) (A) (A)
                 (A) (A) (A) (A) (A) (A) (A) (A) (A) (A) (A) (A)
[...]
   725. RY*(  24) C  45                  0.00000     3.27428   
   726. RY*(  25) C  45                  0.00000     3.32151   
   727. RY*(  26) C  45                  0.00000     3.46108   
   728. RY*(   1) H  46                  0.00100     1.32290   
   729. RY*(   2) H  46                  0.00018     1.84710   
   730. RY*(   3) H  46                  0.00012     2.07367   
   731. RY*(   4) H  46                  0.00008     2.15695   
   732. RY*(   5) H  46                  0.00002     2.97242   
   733. RY*(   1) H  47                  0.00062     1.39085   
   734. RY*(   2) H  47                  0.00020     1.57729   
   735. RY*(   3) H  47                  0.00010     2.13247   
   736. RY*(   4) H  47                  0.00006     1.85041   
   737. RY*(   5) H  47                  0.00001     2.84511   
   738. RY*(   1) H  48                  0.00037     1.40972   
   739. RY*(   2) H  48                  0.00014     1.37876   
   740. RY*(   3) H  48                  0.00009     2.08900   
   741. RY*(   4) H  48                  0.00007     2.08216   
   742. RY*(   5) H  48                  0.00002     2.70690   
   743. RY*(   1) C  49                  0.00109     1.09438   
   744. RY*(   2) C  49                  0.00073     1.09968   
   745. RY*(   3) C  49                  0.00061     1.00336   
   746. RY*(   4) C  49                  0.00030     1.08559   
   747. RY*(   5) C  49                  0.00027     1.99720   
   748. RY*(   6) C  49                  0.00019     1.77849   
   749. RY*(   7) C  49                  0.00013     1.89680   
   750. RY*(   8) C  49                  0.00008     1.63041   
   751. RY*(   9) C  49                  0.00006     1.63562   
   752. RY*(  10) C  49                  0.00004     1.42705   
   753. RY*(  11) C  49                  0.00002     2.18796   
   754. RY*(  12) C  49                  0.00002     2.16299   
   755. RY*(  13) C  49                  0.00002     1.63507   
   756. RY*(  14) C  49                  0.00001     2.58417   
   757. RY*(  15) C  49                  0.00001     2.84133   
   758. RY*(  16) C  49                  0.00000     3.26486   
   759. RY*(  17) C  49                  0.00000    20.98655   
   760. RY*(  18) C  49                  0.00000     2.76232   
   761. RY*(  19) C  49                  0.00000     3.31322   
   762. RY*(  20) C  49                  0.00000     3.30369   
   763. RY*(  21) C  49                  0.00000     3.44425   
   764. RY*(  22) C  49                  0.00000     3.62911   
   765. RY*(  23) C  49                  0.00000     3.56906   
   766. RY*(  24) C  49                  0.00000     3.28649   
   767. RY*(  25) C  49                  0.00000     3.24634   
   768. RY*(  26) C  49                  0.00000     3.48406   
   769. RY*(   1) H  50                  0.00032     1.00304   
   770. RY*(   2) H  50                  0.00020     1.87887   
   771. RY*(   3) H  50                  0.00012     2.04370   
   772. RY*(   4) H  50                  0.00007     2.17679   
   773. RY*(   5) H  50                  0.00002     3.02373   
   774. RY*(   1) H  51                  0.00072     0.95954   
   775. RY*(   2) H  51                  0.00021     1.90214   
   776. RY*(   3) H  51                  0.00011     2.17003   
   777. RY*(   4) H  51                  0.00007     2.14065   
   778. RY*(   5) H  51                  0.00002     3.00438   
   779. RY*(   1) H  52                  0.00077     0.93501   
   780. RY*(   2) H  52                  0.00027     2.47041   
   781. RY*(   3) H  52                  0.00010     2.38076   
   782. RY*(   4) H  52                  0.00007     2.21720   
   783. RY*(   5) H  52                  0.00003     3.08818   
   784. RY*(   1) C  53                  0.00570     1.57818   
   785. RY*(   2) C  53                  0.00190     1.34371   
   786. RY*(   3) C  53                  0.00181     0.79481   
   787. RY*(   4) C  53                  0.00115     1.66299   
   788. RY*(   5) C  53                  0.00080     1.63303   
   789. RY*(   6) C  53                  0.00047     1.45516   
   790. RY*(   7) C  53                  0.00036     2.56160   
   791. RY*(   8) C  53                  0.00026     2.01778   
   792. RY*(   9) C  53                  0.00020     2.33285   
   793. RY*(  10) C  53                  0.00016     1.74311   
   794. RY*(  11) C  53                  0.00006     2.25044   
   795. RY*(  12) C  53                  0.00007     1.64668   
   796. RY*(  13) C  53                  0.00007     3.13481   
   797. RY*(  14) C  53                  0.00006     2.91803   
   798. RY*(  15) C  53                  0.00003     2.78087   
   799. RY*(  16) C  53                  0.00003     1.40022   
   800. RY*(  17) C  53                  0.00001     3.48966   
   801. RY*(  18) C  53                  0.00000     3.15550   
   802. RY*(  19) C  53                  0.00000    21.33762   
   803. RY*(  20) C  53                  0.00001     3.21921   
   804. RY*(  21) C  53                  0.00000     3.52214   
   805. RY*(  22) C  53                  0.00000     3.43910   
   806. RY*(  23) C  53                  0.00001     3.71051   
   807. RY*(  24) C  53                  0.00000     3.46770   
   808. RY*(  25) C  53                  0.00000     3.52611   
   809. RY*(  26) C  53                  0.00000     3.15271   
   810. RY*(   1) H  54                  0.00175     0.78391   
   811. RY*(   2) H  54                  0.00035     2.36200   
   812. RY*(   3) H  54                  0.00015     2.18501   
   813. RY*(   4) H  54                  0.00010     2.74078   
   814. RY*(   5) H  54                  0.00004     3.17670   
   815. RY*(   1) C  55                  0.00477     1.56612   
   816. RY*(   2) C  55                  0.00186     1.61153   
   817. RY*(   3) C  55                  0.00137     0.57584   
   818. RY*(   4) C  55                  0.00087     1.38940   
   819. RY*(   5) C  55                  0.00054     1.78501   
   820. RY*(   6) C  55                  0.00033     3.20003   
   821. RY*(   7) C  55                  0.00024     2.30647   
   822. RY*(   8) C  55                  0.00013     1.69431   
   823. RY*(   9) C  55                  0.00008     3.06491   
   824. RY*(  10) C  55                  0.00005     1.70239   
   825. RY*(  11) C  55                  0.00003     1.45416   
   826. RY*(  12) C  55                  0.00003     2.36200   
   827. RY*(  13) C  55                  0.00003     1.80330   
   828. RY*(  14) C  55                  0.00001     3.25064   
   829. RY*(  15) C  55                  0.00000     2.92243   
   830. RY*(  16) C  55                  0.00000    20.80268   
   831. RY*(  17) C  55                  0.00000     3.18651   
   832. RY*(  18) C  55                  0.00001     2.19353   
   833. RY*(  19) C  55                  0.00000     1.41831   
   834. RY*(  20) C  55                  0.00001     3.37270   
   835. RY*(  21) C  55                  0.00000     3.99671   
   836. RY*(  22) C  55                  0.00000     3.13252   
   837. RY*(  23) C  55                  0.00000     3.42474   
   838. RY*(  24) C  55                  0.00000     3.28845   
   839. RY*(  25) C  55                  0.00000     3.59775   
   840. RY*(  26) C  55                  0.00000     3.45233   
   841. RY*(   1) H  56                  0.00042     0.97586   
   842. RY*(   2) H  56                  0.00020     1.80588   
   843. RY*(   3) H  56                  0.00012     2.72970   
   844. RY*(   4) H  56                  0.00011     2.15918   
   845. RY*(   5) H  56                  0.00002     3.08988   
   846. RY*(   1) C  57                  0.00475     1.56576   
   847. RY*(   2) C  57                  0.00188     1.61494   
   848. RY*(   3) C  57                  0.00140     0.56920   
   849. RY*(   4) C  57                  0.00091     1.38096   
   850. RY*(   5) C  57                  0.00054     1.76394   
   851. RY*(   6) C  57                  0.00032     3.18524   
   852. RY*(   7) C  57                  0.00023     2.47599   
   853. RY*(   8) C  57                  0.00013     1.67658   
   854. RY*(   9) C  57                  0.00008     2.94228   
   855. RY*(  10) C  57                  0.00005     1.78528   
   856. RY*(  11) C  57                  0.00004     1.57126   
   857. RY*(  12) C  57                  0.00002     1.36266   
   858. RY*(  13) C  57                  0.00002     2.37837   
   859. RY*(  14) C  57                  0.00002     2.19871   
   860. RY*(  15) C  57                  0.00000     3.12767   
   861. RY*(  16) C  57                  0.00001     3.09961   
   862. RY*(  17) C  57                  0.00001     3.15210   
   863. RY*(  18) C  57                  0.00001     1.19663   
   864. RY*(  19) C  57                  0.00000    20.99138   
   865. RY*(  20) C  57                  0.00001     3.48667   
   866. RY*(  21) C  57                  0.00000     3.99450   
   867. RY*(  22) C  57                  0.00000     3.26343   
   868. RY*(  23) C  57                  0.00000     3.44501   
   869. RY*(  24) C  57                  0.00000     3.33787   
   870. RY*(  25) C  57                  0.00000     3.51892   
   871. RY*(  26) C  57                  0.00000     3.45373   
   872. RY*(   1) H  58                  0.00042     0.98154   
   873. RY*(   2) H  58                  0.00021     1.80344   
   874. RY*(   3) H  58                  0.00011     2.73706   
   875. RY*(   4) H  58                  0.00011     2.15020   
   876. RY*(   5) H  58                  0.00002     3.08882   
   877. RY*(   1) C  59                  0.00593     1.56443   
   878. RY*(   2) C  59                  0.00208     0.84007   
   879. RY*(   3) C  59                  0.00181     1.22864   
   880. RY*(   4) C  59                  0.00122     1.69603   
   881. RY*(   5) C  59                  0.00081     1.68914   
   882. RY*(   6) C  59                  0.00052     1.54539   
   883. RY*(   7) C  59                  0.00038     2.72561   
   884. RY*(   8) C  59                  0.00024     2.19366   
   885. RY*(   9) C  59                  0.00020     1.65745   
   886. RY*(  10) C  59                  0.00014     2.11009   
   887. RY*(  11) C  59                  0.00008     2.36716   
   888. RY*(  12) C  59                  0.00006     2.47890   
   889. RY*(  13) C  59                  0.00006     2.26483   
   890. RY*(  14) C  59                  0.00006     2.45431   
   891. RY*(  15) C  59                  0.00004     1.64443   
   892. RY*(  16) C  59                  0.00002     2.20098   
   893. RY*(  17) C  59                  0.00001     3.52583   
   894. RY*(  18) C  59                  0.00000     3.15767   
   895. RY*(  19) C  59                  0.00000    21.24392   
   896. RY*(  20) C  59                  0.00001     3.09727   
   897. RY*(  21) C  59                  0.00001     4.09501   
   898. RY*(  22) C  59                  0.00000     3.42479   
   899. RY*(  23) C  59                  0.00001     3.73462   
   900. RY*(  24) C  59                  0.00000     3.47265   
   901. RY*(  25) C  59                  0.00000     3.58539   
   902. RY*(  26) C  59                  0.00000     3.19873   
   903. RY*(   1) H  60                  0.00209     0.75450   
   904. RY*(   2) H  60                  0.00036     2.37999   
   905. RY*(   3) H  60                  0.00014     2.18410   
   906. RY*(   4) H  60                  0.00010     2.74297   
   907. RY*(   5) H  60                  0.00003     3.16602   
   908. BD*(   1) P   1 - C   3          0.04604     0.22614   
   909. BD*(   1) P   1 - C   5          0.05013     0.20459   
   910. BD*(   1) P   1 - C   7          0.04692     0.20101   
   911. BD*(   1) P   2 - C   4          0.04258     0.23080   
   912. BD*(   1) P   2 - C   9          0.04697     0.20244   
   913. BD*(   1) P   2 - C  11          0.05218     0.20286   
   914. BD*(   1) C   3 - C   4          0.03486     0.51508   
   915. BD*(   2) C   3 - C   4          0.37976     0.02525  971(v),966(v),909(v),913(v)
                                                    185(g),159(g),912(v),910(v)
                                                    786(v)
   916. BD*(   1) C   3 - C  53          0.03634     0.52629   
   917. BD*(   1) C   4 - C  59          0.03586     0.52607   
   918. BD*(   1) C   5 - H   6          0.02170     0.35560   
   919. BD*(   1) C   5 - C  13          0.03049     0.34775   
   920. BD*(   1) C   5 - C  25          0.02150     0.36568   
   921. BD*(   1) C   7 - H   8          0.02369     0.36849   
   922. BD*(   1) C   7 - C  16          0.02486     0.34089   
   923. BD*(   1) C   7 - C  28          0.02098     0.36060   
   924. BD*(   1) C   9 - H  10          0.03016     0.36067   
   925. BD*(   1) C   9 - C  19          0.01937     0.34954   
   926. BD*(   1) C   9 - C  31          0.02058     0.36638   
   927. BD*(   1) C  11 - H  12          0.02576     0.36501   
   928. BD*(   1) C  11 - C  22          0.02223     0.34844   
   929. BD*(   1) C  11 - C  34          0.01934     0.36623   
   930. BD*(   1) C  13 - H  14          0.02002     0.37014   
   931. BD*(   1) C  13 - H  15          0.01965     0.36697   
   932. BD*(   1) C  13 - C  16          0.00961     0.35954   
   933. BD*(   1) C  16 - H  17          0.01344     0.37538   
   934. BD*(   1) C  16 - H  18          0.01684     0.36504   
   935. BD*(   1) C  19 - H  20          0.01518     0.37136   
   936. BD*(   1) C  19 - H  21          0.01904     0.36347   
   937. BD*(   1) C  19 - C  22          0.00973     0.36228   
   938. BD*(   1) C  22 - H  23          0.01777     0.37260   
   939. BD*(   1) C  22 - H  24          0.01880     0.35904   
   940. BD*(   1) C  25 - H  26          0.01867     0.36226   
   941. BD*(   1) C  25 - H  27          0.01553     0.37865   
   942. BD*(   1) C  25 - C  37          0.00947     0.36402   
   943. BD*(   1) C  28 - H  29          0.01903     0.36616   
   944. BD*(   1) C  28 - H  30          0.01809     0.36881   
   945. BD*(   1) C  28 - C  41          0.00722     0.37489   
   946. BD*(   1) C  31 - H  32          0.01896     0.36543   
   947. BD*(   1) C  31 - H  33          0.01850     0.36904   
   948. BD*(   1) C  31 - C  45          0.00643     0.37190   
   949. BD*(   1) C  34 - H  35          0.01900     0.37337   
   950. BD*(   1) C  34 - H  36          0.01950     0.36476   
   951. BD*(   1) C  34 - C  49          0.00733     0.37264   
   952. BD*(   1) C  37 - H  38          0.00908     0.38025   
   953. BD*(   1) C  37 - H  39          0.00868     0.39714   
   954. BD*(   1) C  37 - H  40          0.00557     0.38410   
   955. BD*(   1) C  41 - H  42          0.00948     0.38144   
   956. BD*(   1) C  41 - H  43          0.00610     0.38614   
   957. BD*(   1) C  41 - H  44          0.00939     0.38869   
   958. BD*(   1) C  45 - H  46          0.01087     0.39076   
   959. BD*(   1) C  45 - H  47          0.00962     0.37777   
   960. BD*(   1) C  45 - H  48          0.00607     0.38373   
   961. BD*(   1) C  49 - H  50          0.00615     0.38406   
   962. BD*(   1) C  49 - H  51          0.00912     0.38144   
   963. BD*(   1) C  49 - H  52          0.00898     0.39543   
   964. BD*(   1) C  53 - H  54          0.01749     0.40793   
   965. BD*(   1) C  53 - C  55          0.01844     0.54028   
   966. BD*(   2) C  53 - C  55          0.30973     0.02579  915(v),971(v),817(g),786(g)
   967. BD*(   1) C  55 - H  56          0.01400     0.39936   
   968. BD*(   1) C  55 - C  57          0.01460     0.53270   
   969. BD*(   1) C  57 - H  58          0.01409     0.39927   
   970. BD*(   1) C  57 - C  59          0.01838     0.53872   
   971. BD*(   2) C  57 - C  59          0.31297     0.02503  915(v),966(v),848(g),878(g)
   972. BD*(   1) C  59 - H  60          0.01752     0.40233   
       -------------------------------
              Total Lewis  195.46821  ( 98.7213%)
        Valence non-Lewis    2.22645  (  1.1245%)
        Rydberg non-Lewis    0.30534  (  0.1542%)
       -------------------------------
            Total unit  1  198.00000  (100.0000%)
           Charge unit  1    0.00000
 1\1\GINC-NC239\SP\RPBE1PBE\def2TZVP\C22H36P2\MACKK4\05-Dec-2021\0\\# P
 BE1PBE/def2TZVP int=(grid=ultrafine) empiricaldispersion=GD3BJ pop=nbo
  guess=read geom=check\\SS_Et_DuPhos_1 title\\0,1\P,0,-1.5534086934,-0
 .8283122526,0.0536547218\P,0,1.5233168,-0.2145646161,0.3788789695\C,0,
 -0.9517698817,0.8734874658,-0.3697701895\C,0,0.4116949182,1.1695910796
 ,-0.1258036721\C,0,-2.9734455073,-0.7337670365,1.2745165755\H,0,-3.031
 2162011,-1.8101134343,1.5417432179\C,0,-2.657082636,-1.3363184667,-1.3
 990195133\H,0,-2.5065609753,-0.5447575035,-2.1583528405\C,0,2.55885701
 46,0.3936988029,1.8340681567\H,0,2.3995441706,1.4917383027,1.854196995
 5\C,0,2.9643952792,-0.2803681893,-0.8405315115\H,0,3.1645712892,-1.367
 8515315,-0.8925661343\C,0,-4.1963308421,-0.4009192124,0.4029890385\H,0
 ,-5.1268077007,-0.5943866086,0.9676480074\H,0,-4.2094581569,0.67161758
 1,0.1351664094\C,0,-4.110054283,-1.2914782837,-0.8469238703\H,0,-4.809
 6910422,-0.9690417477,-1.6377322579\H,0,-4.3922379412,-2.321640432,-0.
 5630491623\C,0,4.0066181982,0.09216669,1.3959962926\H,0,4.7195501122,0
 .6756620624,2.0054520149\H,0,4.20723554,-0.9804529585,1.5690791374\C,0
 ,4.1309499333,0.4075151706,-0.0984731427\H,0,5.0961470793,0.066283125,
 -0.513438623\H,0,4.0784957013,1.5025063393,-0.2639104342\C,0,-2.819237
 625,0.0499113841,2.5864889482\H,0,-3.7547015604,-0.1183805678,3.154672
 4141\H,0,-2.0223166576,-0.4227764401,3.1850524112\C,0,-2.3293367778,-2
 .7061137119,-2.0193129967\H,0,-3.1373423516,-2.9282804284,-2.744064991
 2\H,0,-2.3852177541,-3.4707945672,-1.2242068452\C,0,2.1905883648,-0.19
 99071525,3.1988598626\H,0,2.9265169246,0.1812853143,3.9331306508\H,0,2
 .3199029852,-1.2958953463,3.147251494\C,0,2.7189366456,0.2732870802,-2
 .2494964456\H,0,2.4910319041,1.35433419,-2.1896244396\H,0,3.6791979412
 ,0.1960071804,-2.7954821344\C,0,-2.5606493647,1.5576406858,2.482969432
 6\H,0,-3.3045558311,2.0640372599,1.8434177749\H,0,-1.5628765586,1.7759
 592433,2.0698356836\H,0,-2.6151410609,2.018991458,3.4836263114\C,0,-0.
 9700235853,-2.795829481,-2.7096096759\H,0,-0.8574103132,-2.0334717503,
 -3.5015478496\H,0,-0.8332225933,-3.7891540192,-3.1687194027\H,0,-0.154
 968691,-2.6590783595,-1.9749207844\C,0,0.7701957447,0.1339877684,3.653
 0408929\H,0,0.042742405,-0.3466209263,2.9748067978\H,0,0.5781923523,1.
 2226846565,3.6531712709\H,0,0.5753943601,-0.2490495579,4.6687217557\C,
 0,1.6216638452,-0.4452324974,-3.0353883675\H,0,1.5652084639,-0.0678609
 959,-4.0706535583\H,0,1.8036187936,-1.532344797,-3.0759539921\H,0,0.63
 3697259,-0.2917509763,-2.5699700751\C,0,-1.7895348785,1.8768042971,-0.
 8948495247\H,0,-2.8366632946,1.6553409707,-1.1198871728\C,0,-1.2977301
 165,3.1675746786,-1.1255515058\H,0,-1.9624260994,3.9388099194,-1.52730
 29466\C,0,0.0397538531,3.4725932417,-0.8355878445\H,0,0.4234832834,4.4
 834265848,-1.0057531474\C,0,0.8922869916,2.4745373287,-0.3467178641\H,
 0,1.9427845582,2.711142581,-0.1459104603\\Version=ES64L-G09RevE.01\Sta
 te=1-A\HF=-1541.8162671\RMSD=2.738e-09\Dipole=-0.1089918,0.6401918,-0.
 1481656\Quadrupole=3.1854435,-0.385245,-2.8001984,1.1139854,0.9388855,
 -1.2433422\PG=C01 [X(C22H36P2)]\\@


 IF YOU WANT TO LEARN FROM THE THEORETICAL PHYSICISTS ABOUT THE
 METHODS WHICH THEY USE, I ADVISE YOU TO FOLLOW THIS PRINCIPLE VERY STRICTLY:
 DON'T LISTEN TO THEIR WORDS; PAY ATTENTION, INSTEAD, TO THEIR ACTIONS.
 -- A.EINSTEIN, 1934
 Job cpu time:       0 days  0 hours 44 minutes 48.4 seconds.
 File lengths (MBytes):  RWF=    487 Int=      0 D2E=      0 Chk=     80 Scr=      1
 Normal termination of Gaussian 09 at Sun Dec  5 09:29:07 2021.
