 Entering Gaussian System, Link 0=g09
 Input=SS_Et_DuPhos_5_SPE_NoPd.com
 Output=SS_Et_DuPhos_5_SPE_NoPd.log
 Initial command:
 /gstore/apps/gaussian/g09.e01-foss-2017a/g09/l1.exe "/local/22791415/Gau-28332.inp" -scrdir="/local/22791415/"
 Entering Link 1 = /gstore/apps/gaussian/g09.e01-foss-2017a/g09/l1.exe PID=     28360.
  
 Copyright (c) 1988,1990,1992,1993,1995,1998,2003,2009,2015,
            Gaussian, Inc.  All Rights Reserved.
  
 This is part of the Gaussian(R) 09 program.  It is based on
 the Gaussian(R) 03 system (copyright 2003, Gaussian, Inc.),
 the Gaussian(R) 98 system (copyright 1998, Gaussian, Inc.),
 the Gaussian(R) 94 system (copyright 1995, Gaussian, Inc.),
 the Gaussian 92(TM) system (copyright 1992, Gaussian, Inc.),
 the Gaussian 90(TM) system (copyright 1990, Gaussian, Inc.),
 the Gaussian 88(TM) system (copyright 1988, Gaussian, Inc.),
 the Gaussian 86(TM) system (copyright 1986, Carnegie Mellon
 University), and the Gaussian 82(TM) system (copyright 1983,
 Carnegie Mellon University). Gaussian is a federally registered
 trademark of Gaussian, Inc.
  
 This software contains proprietary and confidential information,
 including trade secrets, belonging to Gaussian, Inc.
  
 This software is provided under written license and may be
 used, copied, transmitted, or stored only in accord with that
 written license.
  
 The following legend is applicable only to US Government
 contracts under FAR:
  
                    RESTRICTED RIGHTS LEGEND
  
 Use, reproduction and disclosure by the US Government is
 subject to restrictions as set forth in subparagraphs (a)
 and (c) of the Commercial Computer Software - Restricted
 Rights clause in FAR 52.227-19.
  
 Gaussian, Inc.
 340 Quinnipiac St., Bldg. 40, Wallingford CT 06492
  
  
 ---------------------------------------------------------------
 Warning -- This program may not be used in any manner that
 competes with the business of Gaussian, Inc. or will provide
 assistance to any competitor of Gaussian, Inc.  The licensee
 of this program is prohibited from giving any competitor of
 Gaussian, Inc. access to this program.  By using this program,
 the user acknowledges that Gaussian, Inc. is engaged in the
 business of creating and licensing software in the field of
 computational chemistry and represents and warrants to the
 licensee that it is not a competitor of Gaussian, Inc. and that
 it will not use this program in any manner prohibited above.
 ---------------------------------------------------------------
  

 Cite this work as:
 Gaussian 09, Revision E.01,
 M. J. Frisch, G. W. Trucks, H. B. Schlegel, G. E. Scuseria, 
 M. A. Robb, J. R. Cheeseman, G. Scalmani, V. Barone, B. Mennucci, 
 G. A. Petersson, H. Nakatsuji, M. Caricato, X. Li, H. P. Hratchian, 
 A. F. Izmaylov, J. Bloino, G. Zheng, J. L. Sonnenberg, M. Hada, 
 M. Ehara, K. Toyota, R. Fukuda, J. Hasegawa, M. Ishida, T. Nakajima, 
 Y. Honda, O. Kitao, H. Nakai, T. Vreven, J. A. Montgomery, Jr., 
 J. E. Peralta, F. Ogliaro, M. Bearpark, J. J. Heyd, E. Brothers, 
 K. N. Kudin, V. N. Staroverov, T. Keith, R. Kobayashi, J. Normand, 
 K. Raghavachari, A. Rendell, J. C. Burant, S. S. Iyengar, J. Tomasi, 
 M. Cossi, N. Rega, J. M. Millam, M. Klene, J. E. Knox, J. B. Cross, 
 V. Bakken, C. Adamo, J. Jaramillo, R. Gomperts, R. E. Stratmann, 
 O. Yazyev, A. J. Austin, R. Cammi, C. Pomelli, J. W. Ochterski, 
 R. L. Martin, K. Morokuma, V. G. Zakrzewski, G. A. Voth, 
 P. Salvador, J. J. Dannenberg, S. Dapprich, A. D. Daniels, 
 O. Farkas, J. B. Foresman, J. V. Ortiz, J. Cioslowski, 
 and D. J. Fox, Gaussian, Inc., Wallingford CT, 2013.
 
 ******************************************
 Gaussian 09:  ES64L-G09RevE.01 30-Nov-2015
                30-Nov-2021 
 ******************************************
 %nprocs=14
 Will use up to   14 processors via shared memory.
 %mem=128GB
 %chk=SS_Et_DuPhos_5_SPE_NoPd.chk
 ----------------------------------------------------------------------
 # PBE1PBE/def2TZVP int=(grid=ultrafine) empiricaldispersion=GD3BJ nmr=
 giao
 ----------------------------------------------------------------------
 1/38=1/1;
 2/12=2,17=6,18=5,40=1/2;
 3/5=44,7=101,11=2,16=1,25=1,30=1,74=-13,75=-5,124=41/1,2,8,3;
 4//1;
 5/5=2,38=5/2;
 8/6=1,10=90,11=11/1;
 10/13=100,45=16/2;
 6/7=2,8=2,9=2,10=2,28=1/1;
 99/9=1/99;
 --------------------
 SS_Et_DuPhos_5 title
 --------------------
 Symbolic Z-matrix:
 Charge =  0 Multiplicity = 1
 P                    -1.60174  -0.77521  -0.02932 
 P                     1.47692  -0.19601   0.3445 
 C                    -0.97578   0.92653  -0.42772 
 C                     0.40209   1.18992  -0.2267 
 C                    -3.04998  -0.63335   1.14464 
 H                    -3.14582  -1.69156   1.46545 
 C                    -2.66411  -1.27483  -1.51442 
 H                    -2.48269  -0.4875   -2.27144 
 C                     2.53904   0.47774   1.74189 
 H                     2.57624   1.57368   1.5656 
 C                     2.92492  -0.43421  -0.85225 
 H                     2.98109  -1.53618  -0.92837 
 C                    -4.24632  -0.30594   0.23613 
 H                    -5.19216  -0.49005   0.77746 
 H                    -4.24792   0.76561  -0.03713 
 C                    -4.13139  -1.21027  -1.00266 
 H                    -4.80659  -0.89097  -1.81563 
 H                    -4.42959  -2.23496  -0.71532 
 C                     3.9283   -0.10648   1.4259 
 H                     4.69921   0.4047    2.03015 
 H                     3.93836  -1.17948   1.68627 
 C                     4.16258   0.08027  -0.0784 
 H                     5.06859  -0.44687  -0.42538 
 H                     4.30588   1.15647  -0.30303 
 C                    -2.84631   0.24194   2.38848 
 H                    -2.33069   1.18391   2.11764 
 H                    -3.84402   0.5414    2.76315 
 C                    -2.33033  -2.65121  -2.11571 
 H                    -3.11545  -2.87242  -2.86534 
 H                    -2.41775  -3.40981  -1.31758 
 C                     2.00526   0.21989   3.15552 
 H                     2.85266   0.30534   3.86225 
 H                     1.64727  -0.82366   3.22259 
 C                     2.78511   0.17908  -2.25166 
 H                     2.6606    1.2752   -2.1668 
 H                     3.75313   0.02512  -2.76708 
 C                    -2.08711  -0.50254   3.49411 
 H                    -1.90469   0.14756   4.3658 
 H                    -1.11475  -0.87741   3.12832 
 H                    -2.6602   -1.38303   3.83111 
 C                    -0.94944  -2.75369  -2.75976 
 H                    -0.15904  -2.61017  -1.99983 
 H                    -0.80044  -3.75253  -3.20281 
 H                    -0.80882  -2.00059  -3.5559 
 C                     0.90905   1.21383   3.55198 
 H                     0.06146   1.18134   2.84577 
 H                     1.29777   2.24846   3.55601 
 H                     0.5126    0.99544   4.55709 
 C                     1.65574  -0.40785  -3.09911 
 H                     1.75233  -1.50277  -3.18956 
 H                     0.6692   -0.19716  -2.65271 
 H                     1.66093   0.02131  -4.11552 
 C                    -1.80142   1.95395  -0.9258 
 H                    -2.86128   1.76394  -1.11515 
 C                    -1.27918   3.22642  -1.1922 
 H                    -1.9364    4.01383  -1.57442 
 C                     0.07933   3.4898   -0.96921 
 H                     0.48912   4.48379  -1.17426 
 C                     0.91608   2.4735   -0.49227 
 H                     1.97889   2.6812   -0.32811 
 
 Stoichiometry    C22H36P2
 Framework group  C1[X(C22H36P2)]
 Deg. of freedom   174
 Full point group                 C1      NOp   1
 Largest Abelian subgroup         C1      NOp   1
 Largest concise Abelian subgroup C1      NOp   1
                         Standard orientation:                         
 ---------------------------------------------------------------------
 Center     Atomic      Atomic             Coordinates (Angstroms)
 Number     Number       Type             X           Y           Z
 ---------------------------------------------------------------------
      1         15           0        1.581480   -0.012371   -0.546320
      2         15           0       -1.572518   -0.035701   -0.618142
      3          6           0        0.668794   -0.067007    1.069374
      4          6           0       -0.747677   -0.044300    1.031669
      5          6           0        2.818536    1.388823   -0.501275
      6          1           0        3.092468    1.442227   -1.575532
      7          6           0        2.893486   -1.371462   -0.422763
      8          1           0        2.644507   -1.923502    0.504134
      9          6           0       -2.909880    1.284098   -0.552420
     10          1           0       -3.151892    1.387879    0.526558
     11          6           0       -2.786688   -1.482991   -0.747762
     12          1           0       -2.604014   -1.844586   -1.776922
     13          6           0        4.020711    0.811363    0.263663
     14          1           0        4.912785    1.441695    0.095064
     15          1           0        3.832984    0.823267    1.353393
     16          6           0        4.243938   -0.617089   -0.261046
     17          1           0        4.930357   -1.194711    0.382343
     18          1           0        4.711418   -0.552470   -1.260428
     19          6           0       -4.100314    0.597631   -1.247282
     20          1           0       -5.026741    1.170830   -1.063151
     21          1           0       -3.918957    0.571641   -2.336161
     22          6           0       -4.187234   -0.827253   -0.686169
     23          1           0       -4.916543   -1.446154   -1.237725
     24          1           0       -4.522439   -0.792623    0.370067
     25          6           0        2.291341    2.760273   -0.058608
     26          1           0        1.627908    2.653223    0.821686
     27          1           0        3.153530    3.363453    0.285317
     28          6           0        2.925968   -2.350107   -1.609608
     29          1           0        3.823477   -2.985740   -1.476432
     30          1           0        3.072815   -1.767702   -2.536628
     31          6           0       -2.506605    2.655801   -1.105184
     32          1           0       -3.431370    3.205522   -1.364944
     33          1           0       -1.950917    2.516146   -2.050360
     34          6           0       -2.611152   -2.635885    0.249263
     35          1           0       -2.727290   -2.255778    1.281839
     36          1           0       -3.457859   -3.331099    0.087424
     37          6           0        1.576518    3.494324   -1.200196
     38          1           0        1.160923    4.457964   -0.861928
     39          1           0        0.753502    2.884800   -1.613647
     40          1           0        2.275160    3.689783   -2.031443
     41          6           0        1.683010   -3.225283   -1.755471
     42          1           0        0.795236   -2.600456   -1.965831
     43          1           0        1.797909   -3.925927   -2.599317
     44          1           0        1.485409   -3.816278   -0.843076
     45          6           0       -1.695147    3.472726   -0.094764
     46          1           0       -0.781219    2.936975    0.214922
     47          1           0       -2.287295    3.672566    0.816826
     48          1           0       -1.384720    4.442027   -0.518085
     49          6           0       -1.291985   -3.398584    0.121879
     50          1           0       -1.148321   -3.778936   -0.903326
     51          1           0       -0.430819   -2.751528    0.359856
     52          1           0       -1.264768   -4.258321    0.812837
     53          6           0        1.317164   -0.139502    2.318265
     54          1           0        2.408243   -0.186844    2.368945
     55          6           0        0.578343   -0.159628    3.508475
     56          1           0        1.099056   -0.211486    4.469842
     57          6           0       -0.821940   -0.112695    3.467810
     58          1           0       -1.401231   -0.125830    4.396381
     59          6           0       -1.480890   -0.059398    2.233527
     60          1           0       -2.575492   -0.032060    2.206171
 ---------------------------------------------------------------------
 Rotational constants (GHZ):      0.2582099      0.1736291      0.1468774
 Standard basis: def2TZVP (5D, 7F)
 There are  1092 symmetry adapted cartesian basis functions of A   symmetry.
 There are   972 symmetry adapted basis functions of A   symmetry.
   972 basis functions,  1548 primitive gaussians,  1092 cartesian basis functions
    99 alpha electrons       99 beta electrons
       nuclear repulsion energy      2622.1817225498 Hartrees.
 NAtoms=   60 NActive=   60 NUniq=   60 SFac= 1.00D+00 NAtFMM=   60 NAOKFM=T Big=T
 Integral buffers will be    131072 words long.
 Raffenetti 2 integral format.
 Two-electron integral symmetry is turned on.
 Nuclear repulsion after empirical dispersion term =     2622.1026058486 Hartrees.
 One-electron integrals computed using PRISM.
   1 Symmetry operations used in ECPInt.
 ECPInt:  NShTT=   85078 NPrTT=  253069 LenC2=   74385 LenP2D=  154387.
 LDataN:  DoStor=T MaxTD1= 6 Len=  172
 NBasis=   972 RedAO= T EigKep=  5.83D-06  NBF=   972
 NBsUse=   972 1.00D-06 EigRej= -1.00D+00 NBFU=   972
 ExpMin= 9.04D-02 ExpMax= 5.24D+04 ExpMxC= 1.79D+03 IAcc=3 IRadAn=         5 AccDes= 0.00D+00
 Harris functional with IExCor= 1009 and IRadAn=       5 diagonalized for initial guess.
 HarFok:  IExCor= 1009 AccDes= 0.00D+00 IRadAn=         5 IDoV= 1 UseB2=F ITyADJ=14
 ICtDFT=  3500011 ScaDFX=  1.000000  1.000000  1.000000  1.000000
 FoFCou: FMM=F IPFlag=           0 FMFlag=      100000 FMFlg1=        2001
         NFxFlg=           0 DoJE=T BraDBF=F KetDBF=T FulRan=T
         wScrn=  0.000000 ICntrl=     500 IOpCl=  0 I1Cent=   200000004 NGrid=           0
         NMat0=    1 NMatS0=      1 NMatT0=    0 NMatD0=    1 NMtDS0=    0 NMtDT0=    0
 Petite list used in FoFCou.
 Requested convergence on RMS density matrix=1.00D-08 within 128 cycles.
 Requested convergence on MAX density matrix=1.00D-06.
 Requested convergence on             energy=1.00D-06.
 No special actions if energy rises.
 Integral accuracy reduced to 1.0D-05 until final iterations.
 Rare condition: small coef for last iteration:  0.000D+00
 EnCoef did   100 forward-backward iterations
 EnCoef did   100 forward-backward iterations
 Rare condition: small coef for last iteration:  0.000D+00
 EnCoef did   100 forward-backward iterations
 Rare condition: small coef for last iteration:  0.000D+00
 Initial convergence to 1.0D-05 achieved.  Increase integral accuracy.
 SCF Done:  E(RPBE1PBE) =  -1541.81642261     A.U. after   25 cycles
            NFock= 25  Conv=0.43D-08     -V/T= 2.0044
 DoSCS=F DFT=T ScalE2(SS,OS)=  1.000000  1.000000
 Range of M.O.s used for correlation:     1   972
 NBasis=   972 NAE=    99 NBE=    99 NFC=     0 NFV=     0
 NROrb=    972 NOA=    99 NOB=    99 NVA=   873 NVB=   873

 **** Warning!!: The largest alpha MO coefficient is  0.44200353D+02

          Differentiating once with respect to magnetic field using GIAOs.
          Electric field/nuclear overlap derivatives assumed to be zero.
 FoFCou: FMM=F IPFlag=           0 FMFlag=      100000 FMFlg1=        2001
         NFxFlg=           0 DoJE=F BraDBF=F KetDBF=T FulRan=T
         wScrn=  0.000000 ICntrl=    6100 IOpCl=  0 I1Cent=           7 NGrid=          60
         NMat0=    1 NMatS0=      1 NMatT0=    0 NMatD0=    1 NMtDS0=    0 NMtDT0=    0
 Symmetry not used in FoFCou.
   1 Symmetry operations used in ECPInt.
 ECPInt:  NShTT=   85078 NPrTT=  253069 LenC2=   85079 LenP2D=  253069.
 LDataN:  DoStor=T MaxTD1= 7 Len=  274
 FoFJK:  IHMeth= 1 ICntrl=    6127 DoSepK=F KAlg= 0 I1Cent=   0 FoldK=F
 IRaf=         1 NMat=   1 IRICut=       1 DoRegI=T DoRafI=F ISym2E= 0.
          There are     3 degrees of freedom in the 1st order CPHF.  IDoFFX=0 NUNeed=     3.
      3 vectors produced by pass  0 Test12= 2.88D-12 3.33D-08 XBig12= 8.55D+01 1.35D+00.
 AX will form     3 AO Fock derivatives at one time.
      3 vectors produced by pass  1 Test12= 2.88D-12 3.33D-08 XBig12= 1.54D-01 1.42D-01.
      3 vectors produced by pass  2 Test12= 2.88D-12 3.33D-08 XBig12= 1.07D-03 9.59D-03.
      3 vectors produced by pass  3 Test12= 2.88D-12 3.33D-08 XBig12= 3.72D-06 3.85D-04.
      3 vectors produced by pass  4 Test12= 2.88D-12 3.33D-08 XBig12= 1.70D-08 5.80D-05.
      3 vectors produced by pass  5 Test12= 2.88D-12 3.33D-08 XBig12= 1.78D-10 6.51D-06.
      3 vectors produced by pass  6 Test12= 2.88D-12 3.33D-08 XBig12= 7.06D-13 2.21D-07.
 InvSVY:  IOpt=1 It=  1 EMax= 3.55D-15
 Solved reduced A of dimension    21 with     3 vectors.
 Calculating GIAO nuclear magnetic shielding tensors.
 SCF GIAO Magnetic shielding tensor (ppm):
      1  P    Isotropic =   313.7372   Anisotropy =    69.2206
   XX=   311.8226   YX=    -7.4017   ZX=     1.7456
   XY=   -18.4797   YY=   316.2326   ZY=    27.1500
   XZ=   -65.0944   YZ=    20.2434   ZZ=   313.1564
   Eigenvalues:   278.8224   302.5049   359.8843
      2  P    Isotropic =   303.8823   Anisotropy =    63.2804
   XX=   303.8829   YX=     1.1963   ZX=     8.5049
   XY=   -19.6303   YY=   314.5267   ZY=   -38.3848
   XZ=    13.1638   YZ=   -33.7678   ZZ=   293.2373
   Eigenvalues:   265.9857   299.5919   346.0692
      3  C    Isotropic =    27.8968   Anisotropy =   205.0227
   XX=   -33.8433   YX=     1.1690   ZX=    21.0082
   XY=    -4.7292   YY=   164.5615   ZY=    -6.0756
   XZ=    21.2095   YZ=     7.4076   ZZ=   -47.0279
   Eigenvalues:   -62.5610   -18.3272   164.5786
      4  C    Isotropic =    29.8867   Anisotropy =   207.7428
   XX=   -28.5354   YX=     1.9899   ZX=   -23.0477
   XY=   -11.7591   YY=   167.3753   ZY=    21.8097
   XZ=   -22.7234   YZ=     4.6427   ZZ=   -49.1800
   Eigenvalues:   -64.2757   -14.4462   168.3819
      5  C    Isotropic =   133.0899   Anisotropy =    24.8941
   XX=   139.5297   YX=   -10.9413   ZX=     3.7696
   XY=    -7.7431   YY=   140.7973   ZY=     4.1186
   XZ=     4.1323   YZ=    -2.7235   ZZ=   118.9426
   Eigenvalues:   117.9135   131.6701   149.6859
      6  H    Isotropic =    29.7341   Anisotropy =     6.4180
   XX=    28.4316   YX=     0.4512   ZX=    -2.1796
   XY=    -0.6211   YY=    29.5623   ZY=    -2.4586
   XZ=    -1.5379   YZ=    -3.8343   ZZ=    31.2084
   Eigenvalues:    26.3370    28.8525    34.0128
      7  C    Isotropic =   132.0996   Anisotropy =    23.6634
   XX=   144.2336   YX=    -4.2423   ZX=     6.4996
   XY=    -6.9681   YY=   139.2446   ZY=     8.8834
   XZ=     6.6855   YZ=    10.8886   ZZ=   112.8207
   Eigenvalues:   107.7515   140.6721   147.8752
      8  H    Isotropic =    29.1965   Anisotropy =     2.5783
   XX=    27.8419   YX=     0.9201   ZX=    -0.2348
   XY=    -2.3820   YY=    29.8849   ZY=     0.2968
   XZ=    -0.6782   YZ=    -2.3509   ZZ=    29.8627
   Eigenvalues:    27.3583    29.3159    30.9153
      9  C    Isotropic =   132.7339   Anisotropy =    32.7378
   XX=   138.7721   YX=    15.3276   ZX=     4.9304
   XY=     4.4210   YY=   144.7477   ZY=    -2.9923
   XZ=    12.7519   YZ=    14.4684   ZZ=   114.6818
   Eigenvalues:   111.5903   132.0522   154.5591
     10  H    Isotropic =    29.0999   Anisotropy =     2.8689
   XX=    27.9317   YX=    -0.2478   ZX=    -1.5613
   XY=    -1.3428   YY=    29.5834   ZY=    -0.3034
   XZ=    -1.0096   YZ=     1.4798   ZZ=    29.7847
   Eigenvalues:    27.1840    29.1032    31.0125
     11  C    Isotropic =   138.8955   Anisotropy =    21.9589
   XX=   147.8494   YX=    -4.3636   ZX=     6.9748
   XY=    -0.5934   YY=   147.7774   ZY=    -5.6351
   XZ=     7.1538   YZ=    -9.2609   ZZ=   121.0596
   Eigenvalues:   117.8144   145.3373   153.5348
     12  H    Isotropic =    29.0026   Anisotropy =     6.4894
   XX=    27.9093   YX=     0.1792   ZX=     0.2632
   XY=     0.1210   YY=    28.5434   ZY=     3.8550
   XZ=    -0.6107   YZ=     3.4307   ZZ=    30.5552
   Eigenvalues:    25.7468    27.9322    33.3289
     13  C    Isotropic =   144.9634   Anisotropy =    30.9746
   XX=   152.8430   YX=   -11.0866   ZX=    12.6126
   XY=    -0.0812   YY=   163.1040   ZY=     6.8484
   XZ=    19.8328   YZ=     9.9920   ZZ=   118.9433
   Eigenvalues:   110.5646   158.7125   165.6132
     14  H    Isotropic =    29.4777   Anisotropy =    10.9045
   XX=    34.3679   YX=     3.8262   ZX=     0.8771
   XY=     4.1495   YY=    29.7510   ZY=    -0.1296
   XZ=     1.0864   YZ=     0.7183   ZZ=    24.3142
   Eigenvalues:    24.2172    27.4686    36.7474
     15  H    Isotropic =    29.2029   Anisotropy =     6.8087
   XX=    28.4591   YX=    -0.1465   ZX=     1.6125
   XY=     0.5659   YY=    26.0155   ZY=     0.5328
   XZ=     1.6777   YZ=     1.0560   ZZ=    33.1340
   Eigenvalues:    25.9276    27.9390    33.7420
     16  C    Isotropic =   147.6735   Anisotropy =    34.0569
   XX=   158.9403   YX=     7.8908   ZX=     3.9589
   XY=     1.9187   YY=   161.4529   ZY=    12.8484
   XZ=    -3.8628   YZ=    23.2078   ZZ=   122.6274
   Eigenvalues:   115.4764   157.1661   170.3782
     17  H    Isotropic =    28.9463   Anisotropy =    10.0986
   XX=    32.5578   YX=    -3.0227   ZX=     4.0989
   XY=    -3.0997   YY=    28.3248   ZY=    -1.5636
   XZ=     3.2713   YZ=    -0.8763   ZZ=    25.9564
   Eigenvalues:    24.3037    26.8565    35.6787
     18  H    Isotropic =    30.1805   Anisotropy =     8.4987
   XX=    32.5301   YX=     0.6433   ZX=    -4.5446
   XY=     1.2643   YY=    28.4257   ZY=     2.1324
   XZ=    -4.4627   YZ=     2.4899   ZZ=    29.5858
   Eigenvalues:    24.7142    29.9810    35.8463
     19  C    Isotropic =   148.7131   Anisotropy =    31.4219
   XX=   155.1447   YX=     9.5639   ZX=     9.0171
   XY=     5.9332   YY=   165.5130   ZY=    -7.0893
   XZ=    19.4688   YZ=    -9.3209   ZZ=   125.4816
   Eigenvalues:   117.4361   159.0421   169.6610
     20  H    Isotropic =    29.4276   Anisotropy =    10.5383
   XX=    34.7430   YX=    -3.3929   ZX=     0.8423
   XY=    -3.3463   YY=    28.9506   ZY=    -0.1578
   XZ=     1.7287   YZ=    -0.9106   ZZ=    24.5891
   Eigenvalues:    24.4252    27.4044    36.4531
     21  H    Isotropic =    29.8597   Anisotropy =     7.9428
   XX=    27.9503   YX=     0.5239   ZX=     2.9051
   XY=     0.7942   YY=    27.8248   ZY=    -1.2912
   XZ=     2.9240   YZ=    -1.4771   ZZ=    33.8041
   Eigenvalues:    25.9923    28.4320    35.1549
     22  C    Isotropic =   144.5764   Anisotropy =    29.1905
   XX=   154.6563   YX=   -12.3483   ZX=     2.6781
   XY=     0.5260   YY=   156.4690   ZY=    -9.0126
   XZ=    -4.5652   YZ=   -17.3837   ZZ=   122.6037
   Eigenvalues:   117.8488   151.8436   164.0367
     23  H    Isotropic =    29.3390   Anisotropy =    10.3930
   XX=    33.0513   YX=     3.3747   ZX=     3.4360
   XY=     3.5632   YY=    29.2999   ZY=     1.7799
   XZ=     3.1972   YZ=     0.6933   ZZ=    25.6658
   Eigenvalues:    24.3930    27.3564    36.2676
     24  H    Isotropic =    29.8701   Anisotropy =     7.1816
   XX=    31.7297   YX=    -0.1349   ZX=    -3.9303
   XY=     0.0071   YY=    28.0262   ZY=    -1.7502
   XZ=    -3.2986   YZ=    -1.4184   ZZ=    29.8543
   Eigenvalues:    26.1287    28.8237    34.6578
     25  C    Isotropic =   160.9270   Anisotropy =    22.6484
   XX=   157.2619   YX=    -8.0196   ZX=     4.5879
   XY=    -8.6968   YY=   172.1261   ZY=    -1.7566
   XZ=     3.4566   YZ=     1.4175   ZZ=   153.3928
   Eigenvalues:   149.7869   156.9681   176.0259
     26  H    Isotropic =    30.2718   Anisotropy =     4.3742
   XX=    29.2184   YX=    -0.8388   ZX=    -2.5390
   XY=     2.0961   YY=    31.2254   ZY=    -2.1276
   XZ=    -2.6815   YZ=     0.0915   ZZ=    30.3717
   Eigenvalues:    27.1162    30.5113    33.1880
     27  H    Isotropic =    29.9316   Anisotropy =     9.2926
   XX=    30.8574   YX=     2.4225   ZX=     3.8080
   XY=     3.5077   YY=    32.7354   ZY=     0.7129
   XZ=     4.1757   YZ=     1.6901   ZZ=    26.2018
   Eigenvalues:    23.8842    29.7838    36.1266
     28  C    Isotropic =   150.7603   Anisotropy =    23.6230
   XX=   147.5066   YX=     7.1551   ZX=    -4.7018
   XY=     6.3496   YY=   154.0058   ZY=    13.0891
   XZ=    -1.7930   YZ=    13.9922   ZZ=   150.7685
   Eigenvalues:   134.8839   150.8881   166.5090
     29  H    Isotropic =    29.6552   Anisotropy =     9.2918
   XX=    32.6438   YX=    -3.3549   ZX=     0.3168
   XY=    -3.5411   YY=    31.0352   ZY=     3.4657
   XZ=    -0.3424   YZ=     3.3433   ZZ=    25.2866
   Eigenvalues:    23.4497    29.6661    35.8498
     30  H    Isotropic =    30.1458   Anisotropy =     6.2507
   XX=    28.3703   YX=     1.9888   ZX=    -2.6540
   XY=     1.5910   YY=    28.7707   ZY=     0.2006
   XZ=    -2.1529   YZ=     0.3033   ZZ=    33.2963
   Eigenvalues:    26.1902    29.9342    34.3129
     31  C    Isotropic =   155.0326   Anisotropy =    26.2079
   XX=   147.9161   YX=     6.0729   ZX=    -0.3102
   XY=     4.5933   YY=   169.6039   ZY=    -7.1084
   XZ=    -2.0079   YZ=    -5.5608   ZZ=   147.5778
   Eigenvalues:   145.8157   146.7776   172.5046
     32  H    Isotropic =    29.6801   Anisotropy =     9.5266
   XX=    31.3630   YX=    -2.2554   ZX=     3.3845
   XY=    -3.2250   YY=    32.2391   ZY=    -2.3319
   XZ=     3.7058   YZ=    -1.8130   ZZ=    25.4382
   Eigenvalues:    23.7104    29.2987    36.0312
     33  H    Isotropic =    29.6467   Anisotropy =     5.2246
   XX=    28.7739   YX=     0.8070   ZX=    -1.2770
   XY=     0.6498   YY=    28.2922   ZY=    -1.9972
   XZ=    -1.9390   YZ=    -0.9989   ZZ=    31.8741
   Eigenvalues:    27.7036    28.1068    33.1297
     34  C    Isotropic =   156.3017   Anisotropy =    25.5606
   XX=   154.3425   YX=    -9.7431   ZX=    -2.6604
   XY=   -12.2722   YY=   164.1841   ZY=    -8.7064
   XZ=     1.6682   YZ=    -7.8457   ZZ=   150.3785
   Eigenvalues:   143.0221   152.5409   173.3422
     35  H    Isotropic =    30.0837   Anisotropy =     4.7084
   XX=    27.8960   YX=    -0.7296   ZX=    -1.8064
   XY=     3.2916   YY=    29.7746   ZY=     1.6222
   XZ=    -1.3494   YZ=     0.6182   ZZ=    32.5805
   Eigenvalues:    26.6291    30.3993    33.2226
     36  H    Isotropic =    29.9231   Anisotropy =     9.8226
   XX=    32.5554   YX=     3.3196   ZX=     0.5444
   XY=     4.0303   YY=    32.9184   ZY=    -0.9736
   XZ=    -0.1128   YZ=    -1.6858   ZZ=    24.2955
   Eigenvalues:    24.0138    29.2841    36.4715
     37  C    Isotropic =   166.5985   Anisotropy =    24.2019
   XX=   164.4562   YX=   -13.1973   ZX=     1.1487
   XY=    -8.7674   YY=   169.3992   ZY=    -6.2935
   XZ=     6.7427   YZ=    -9.6875   ZZ=   165.9400
   Eigenvalues:   155.1818   161.8806   182.7330
     38  H    Isotropic =    30.5064   Anisotropy =    10.0087
   XX=    29.9933   YX=    -3.5729   ZX=    -0.7739
   XY=    -2.6895   YY=    35.7648   ZY=    -0.8337
   XZ=     0.0165   YZ=    -1.0002   ZZ=    25.7611
   Eigenvalues:    25.5537    28.7867    37.1789
     39  H    Isotropic =    30.0076   Anisotropy =     7.4019
   XX=    33.8691   YX=     1.7556   ZX=     2.3564
   XY=     1.7072   YY=    29.0114   ZY=    -2.5707
   XZ=     2.5807   YZ=    -0.2349   ZZ=    27.1424
   Eigenvalues:    25.3374    29.7432    34.9423
     40  H    Isotropic =    30.5426   Anisotropy =     9.5507
   XX=    29.7497   YX=     1.2258   ZX=    -2.6228
   XY=     1.3417   YY=    29.6342   ZY=    -4.8969
   XZ=    -3.3069   YZ=    -3.8834   ZZ=    32.2438
   Eigenvalues:    26.1423    28.5757    36.9097
     41  C    Isotropic =   166.2944   Anisotropy =    21.0356
   XX=   173.5778   YX=    11.4043   ZX=     0.7146
   XY=     8.4659   YY=   165.6200   ZY=     3.7545
   XZ=    -2.3726   YZ=     0.7957   ZZ=   159.6854
   Eigenvalues:   156.9032   161.6620   180.3181
     42  H    Isotropic =    29.7335   Anisotropy =     7.6420
   XX=    34.3541   YX=    -2.1039   ZX=     0.3598
   XY=    -1.3212   YY=    28.6412   ZY=     2.6783
   XZ=     0.7276   YZ=     1.0555   ZZ=    26.2053
   Eigenvalues:    25.0084    29.3639    34.8282
     43  H    Isotropic =    30.2971   Anisotropy =    10.7899
   XX=    28.1152   YX=     1.3219   ZX=     0.0554
   XY=     0.5339   YY=    31.9236   ZY=     6.4842
   XZ=    -0.4010   YZ=     5.6040   ZZ=    30.8525
   Eigenvalues:    25.1282    28.2726    37.4903
     44  H    Isotropic =    30.9048   Anisotropy =     6.3031
   XX=    30.6919   YX=     2.2402   ZX=    -3.0242
   XY=     1.1344   YY=    32.7403   ZY=    -1.2958
   XZ=    -2.1406   YZ=    -2.1810   ZZ=    29.2821
   Eigenvalues:    27.2810    30.3265    35.1068
     45  C    Isotropic =   166.5582   Anisotropy =    20.6827
   XX=   165.9584   YX=    12.6507   ZX=     0.8148
   XY=     7.2772   YY=   170.8801   ZY=     2.8565
   XZ=     5.4098   YZ=     5.9800   ZZ=   162.8360
   Eigenvalues:   158.1331   161.1947   180.3466
     46  H    Isotropic =    31.0065   Anisotropy =     8.6027
   XX=    35.6811   YX=    -1.4451   ZX=     1.6946
   XY=    -1.7826   YY=    31.8646   ZY=    -2.5965
   XZ=     2.0747   YZ=    -0.4243   ZZ=    25.4739
   Eigenvalues:    24.9190    31.3590    36.7417
     47  H    Isotropic =    30.9654   Anisotropy =     7.9731
   XX=    29.1416   YX=    -0.8076   ZX=    -2.0710
   XY=    -2.2917   YY=    31.5402   ZY=     3.0218
   XZ=    -2.8437   YZ=     3.4439   ZZ=    32.2142
   Eigenvalues:    27.7517    28.8636    36.2808
     48  H    Isotropic =    30.5916   Anisotropy =    10.2826
   XX=    29.5640   YX=     3.1184   ZX=    -0.7406
   XY=     2.1630   YY=    36.3453   ZY=    -2.3329
   XZ=    -0.1394   YZ=    -0.5382   ZZ=    25.8656
   Eigenvalues:    25.6703    28.6578    37.4467
     49  C    Isotropic =   167.6325   Anisotropy =    21.9795
   XX=   176.0305   YX=   -11.7231   ZX=    -2.0912
   XY=    -7.2401   YY=   166.4609   ZY=     1.1012
   XZ=    -4.2929   YZ=     0.0671   ZZ=   160.4061
   Eigenvalues:   159.0988   161.5132   182.2855
     50  H    Isotropic =    30.8850   Anisotropy =     8.0232
   XX=    30.7561   YX=    -1.4380   ZX=    -3.2386
   XY=    -0.9314   YY=    31.2101   ZY=     4.7088
   XZ=    -2.2515   YZ=     3.0206   ZZ=    30.6888
   Eigenvalues:    26.6301    29.7911    36.2338
     51  H    Isotropic =    31.3613   Anisotropy =     8.8235
   XX=    35.2411   YX=     2.5425   ZX=     0.2895
   XY=     2.1817   YY=    33.8854   ZY=     4.3200
   XZ=    -0.1212   YZ=     0.7828   ZZ=    24.9575
   Eigenvalues:    24.2535    32.5869    37.2436
     52  H    Isotropic =    30.9386   Anisotropy =    10.6114
   XX=    28.5893   YX=    -2.1846   ZX=     0.4962
   XY=    -0.8358   YY=    35.9816   ZY=    -3.9471
   XZ=    -0.0665   YZ=    -4.3432   ZZ=    28.2448
   Eigenvalues:    26.3630    28.4399    38.0129
     53  C    Isotropic =    42.4595   Anisotropy =   180.7275
   XX=   -66.3697   YX=    14.4057   ZX=    -8.7611
   XY=    13.0983   YY=   161.3615   ZY=    17.1917
   XZ=    -6.1586   YZ=     3.5835   ZZ=    32.3865
   Eigenvalues:   -67.8496    32.2836   162.9444
     54  H    Isotropic =    23.2722   Anisotropy =    11.6273
   XX=    20.7937   YX=     0.7787   ZX=    -2.4421
   XY=     0.4661   YY=    18.5913   ZY=    -2.2490
   XZ=    -1.3042   YZ=    -1.0382   ZZ=    30.4315
   Eigenvalues:    18.3067    20.4861    31.0237
     55  C    Isotropic =    51.5592   Anisotropy =   184.1330
   XX=    16.7190   YX=     6.7966   ZX=   -39.4483
   XY=     5.1987   YY=   173.7597   ZY=    10.8411
   XZ=   -42.4099   YZ=     8.4155   ZZ=   -35.8011
   Eigenvalues:   -58.7218    39.0849   174.3145
     56  H    Isotropic =    23.8766   Anisotropy =     5.4443
   XX=    25.8846   YX=    -0.0189   ZX=    -1.8084
   XY=    -0.1000   YY=    20.1751   ZY=    -0.2253
   XZ=    -1.7325   YZ=    -0.1966   ZZ=    25.5700
   Eigenvalues:    20.1636    23.9600    27.5061
     57  C    Isotropic =    52.1686   Anisotropy =   183.8626
   XX=    12.1448   YX=     3.2747   ZX=    42.7400
   XY=    -1.5098   YY=   174.5669   ZY=     5.2308
   XZ=    44.5109   YZ=     5.8246   ZZ=   -30.2059
   Eigenvalues:   -57.6002    39.3624   174.7437
     58  H    Isotropic =    23.8592   Anisotropy =     5.2937
   XX=    25.5567   YX=    -0.1454   ZX=     1.7651
   XY=    -0.3471   YY=    20.2305   ZY=     0.0202
   XZ=     1.6448   YZ=    -0.1162   ZZ=    25.7905
   Eigenvalues:    20.2189    23.9704    27.3884
     59  C    Isotropic =    43.0414   Anisotropy =   184.5310
   XX=   -69.1463   YX=    12.0733   ZX=     1.0516
   XY=     6.9649   YY=   165.6419   ZY=    -2.2779
   XZ=     3.0033   YZ=     6.4341   ZZ=    32.6287
   Eigenvalues:   -69.5685    32.6307   166.0621
     60  H    Isotropic =    23.3815   Anisotropy =    10.2050
   XX=    19.9319   YX=    -0.0797   ZX=     0.5423
   XY=    -0.0906   YY=    20.0506   ZY=     0.7548
   XZ=    -0.1540   YZ=     0.1305   ZZ=    30.1619
   Eigenvalues:    19.8730    20.0866    30.1848
 End of Minotr F.D. properties file   721 does not exist.
 End of Minotr F.D. properties file   722 does not exist.
 End of Minotr F.D. properties file   788 does not exist.

 **********************************************************************

            Population analysis using the SCF density.

 **********************************************************************

 Orbital symmetries:
       Occupied  (A) (A) (A) (A) (A) (A) (A) (A) (A) (A) (A) (A)
                 (A) (A) (A) (A) (A) (A) (A) (A) (A) (A) (A) (A)
                 (A) (A) (A) (A) (A) (A) (A) (A) (A) (A) (A) (A)
                 (A) (A) (A) (A) (A) (A) (A) (A) (A) (A) (A) (A)
                 (A) (A) (A) (A) (A) (A) (A) (A) (A) (A) (A) (A)
                 (A) (A) (A) (A) (A) (A) (A) (A) (A) (A) (A) (A)
                 (A) (A) (A) (A) (A) (A) (A) (A) (A) (A) (A) (A)
                 (A) (A) (A) (A) (A) (A) (A) (A) (A) (A) (A) (A)
                 (A) (A) (A)
       Virtual   (A) (A) (A) (A) (A) (A) (A) (A) (A) (A) (A) (A)
                 (A) (A) (A) (A) (A) (A) (A) (A) (A) (A) (A) (A)
                 (A) (A) (A) (A) (A) (A) (A) (A) (A) (A) (A) (A)
                 (A) (A) (A) (A) (A) (A) (A) (A) (A) (A) (A) (A)
                 (A) (A) (A) (A) (A) (A) (A) (A) (A) (A) (A) (A)
                 (A) (A) (A) (A) (A) (A) (A) (A) (A) (A) (A) (A)
                 (A) (A) (A) (A) (A) (A) (A) (A) (A) (A) (A) (A)
                 (A) (A) (A) (A) (A) (A) (A) (A) (A) (A) (A) (A)
                 (A) (A) (A) (A) (A) (A) (A) (A) (A) (A) (A) (A)
                 (A) (A) (A) (A) (A) (A) (A) (A) (A) (A) (A) (A)
                 (A) (A) (A) (A) (A) (A) (A) (A) (A) (A) (A) (A)
                 (A) (A) (A) (A) (A) (A) (A) (A) (A) (A) (A) (A)
                 (A) (A) (A) (A) (A) (A) (A) (A) (A) (A) (A) (A)
                 (A) (A) (A) (A) (A) (A) (A) (A) (A) (A) (A) (A)
                 (A) (A) (A) (A) (A) (A) (A) (A) (A) (A) (A) (A)
                 (A) (A) (A) (A) (A) (A) (A) (A) (A) (A) (A) (A)
                 (A) (A) (A) (A) (A) (A) (A) (A) (A) (A) (A) (A)
                 (A) (A) (A) (A) (A) (A) (A) (A) (A) (A) (A) (A)
                 (A) (A) (A) (A) (A) (A) (A) (A) (A) (A) (A) (A)
                 (A) (A) (A) (A) (A) (A) (A) (A) (A) (A) (A) (A)
                 (A) (A) (A) (A) (A) (A) (A) (A) (A) (A) (A) (A)
                 (A) (A) (A) (A) (A) (A) (A) (A) (A) (A) (A) (A)
                 (A) (A) (A) (A) (A) (A) (A) (A) (A) (A) (A) (A)
                 (A) (A) (A) (A) (A) (A) (A) (A) (A) (A) (A) (A)
                 (A) (A) (A) (A) (A) (A) (A) (A) (A) (A) (A) (A)
                 (A) (A) (A) (A) (A) (A) (A) (A) (A) (A) (A) (A)
                 (A) (A) (A) (A) (A) (A) (A) (A) (A) (A) (A) (A)
                 (A) (A) (A) (A) (A) (A) (A) (A) (A) (A) (A) (A)
                 (A) (A) (A) (A) (A) (A) (A) (A) (A) (A) (A) (A)
                 (A) (A) (A) (A) (A) (A) (A) (A) (A) (A) (A) (A)
                 (A) (A) (A) (A) (A) (A) (A) (A) (A) (A) (A) (A)
                 (A) (A) (A) (A) (A) (A) (A) (A) (A) (A) (A) (A)
                 (A) (A) (A) (A) (A) (A) (A) (A) (A) (A) (A) (A)
                 (A) (A) (A) (A) (A) (A) (A) (A) (A) (A) (A) (A)
                 (A) (A) (A) (A) (A) (A) (A) (A) (A) (A) (A) (A)
                 (A) (A) (A) (A) (A) (A) (A) (A) (A) (A) (A) (A)
                 (A) (A) (A) (A) (A) (A) (A) (A) (A) (A) (A) (A)
                 (A) (A) (A) (A) (A) (A) (A) (A) (A) (A) (A) (A)
                 (A) (A) (A) (A) (A) (A) (A) (A) (A) (A) (A) (A)
                 (A) (A) (A) (A) (A) (A) (A) (A) (A) (A) (A) (A)
                 (A) (A) (A) (A) (A) (A) (A) (A) (A) (A) (A) (A)
                 (A) (A) (A) (A) (A) (A) (A) (A) (A) (A) (A) (A)
                 (A) (A) (A) (A) (A) (A) (A) (A) (A) (A) (A) (A)
                 (A) (A) (A) (A) (A) (A) (A) (A) (A) (A) (A) (A)
                 (A) (A) (A) (A) (A) (A) (A) (A) (A) (A) (A) (A)
                 (A) (A) (A) (A) (A) (A) (A) (A) (A) (A) (A) (A)
                 (A) (A) (A) (A) (A) (A) (A) (A) (A) (A) (A) (A)
                 (A) (A) (A) (A) (A) (A) (A) (A) (A) (A) (A) (A)
                 (A) (A) (A) (A) (A) (A) (A) (A) (A) (A) (A) (A)
                 (A) (A) (A) (A) (A) (A) (A) (A) (A) (A) (A) (A)
                 (A) (A) (A) (A) (A) (A) (A) (A) (A) (A) (A) (A)
                 (A) (A) (A) (A) (A) (A) (A) (A) (A) (A) (A) (A)
                 (A) (A) (A) (A) (A) (A) (A) (A) (A) (A) (A) (A)
                 (A) (A) (A) (A) (A) (A) (A) (A) (A) (A) (A) (A)
                 (A) (A) (A) (A) (A) (A) (A) (A) (A) (A) (A) (A)
                 (A) (A) (A) (A) (A) (A) (A) (A) (A) (A) (A) (A)
                 (A) (A) (A) (A) (A) (A) (A) (A) (A) (A) (A) (A)
                 (A) (A) (A) (A) (A) (A) (A) (A) (A) (A) (A) (A)
                 (A) (A) (A) (A) (A) (A) (A) (A) (A) (A) (A) (A)
                 (A) (A) (A) (A) (A) (A) (A) (A) (A) (A) (A) (A)
                 (A) (A) (A) (A) (A) (A) (A) (A) (A) (A) (A) (A)
                 (A) (A) (A) (A) (A) (A) (A) (A) (A) (A) (A) (A)
                 (A) (A) (A) (A) (A) (A) (A) (A) (A) (A) (A) (A)
                 (A) (A) (A) (A) (A) (A) (A) (A) (A) (A) (A) (A)
                 (A) (A) (A) (A) (A) (A) (A) (A) (A) (A) (A) (A)
                 (A) (A) (A) (A) (A) (A) (A) (A) (A) (A) (A) (A)
                 (A) (A) (A) (A) (A) (A) (A) (A) (A) (A) (A) (A)
                 (A) (A) (A) (A) (A) (A) (A) (A) (A) (A) (A) (A)
                 (A) (A) (A) (A) (A) (A) (A) (A) (A) (A) (A) (A)
                 (A) (A) (A) (A) (A) (A) (A) (A) (A) (A) (A) (A)
                 (A) (A) (A) (A) (A) (A) (A) (A) (A) (A) (A) (A)
                 (A) (A) (A) (A) (A) (A) (A) (A) (A) (A) (A) (A)
                 (A) (A) (A) (A) (A) (A) (A) (A) (A)
 The electronic state is 1-A.
 Alpha  occ. eigenvalues --  -77.17540 -77.17457 -10.24273 -10.24196 -10.23895
 Alpha  occ. eigenvalues --  -10.23842 -10.23806 -10.23753 -10.22746 -10.22726
 Alpha  occ. eigenvalues --  -10.22607 -10.22401 -10.22139 -10.22073 -10.22064
 Alpha  occ. eigenvalues --  -10.22063 -10.22039 -10.21879 -10.21662 -10.21596
 Alpha  occ. eigenvalues --  -10.20617 -10.20565 -10.20475 -10.20217  -6.57227
 Alpha  occ. eigenvalues --   -6.57160  -4.70831  -4.70775  -4.70758  -4.70711
 Alpha  occ. eigenvalues --   -4.70337  -4.70269  -0.88412  -0.84945  -0.84828
 Alpha  occ. eigenvalues --   -0.80445  -0.80283  -0.77775  -0.77449  -0.77094
 Alpha  occ. eigenvalues --   -0.76901  -0.71175  -0.70796  -0.68415  -0.67914
 Alpha  occ. eigenvalues --   -0.63885  -0.63629  -0.61804  -0.61105  -0.60738
 Alpha  occ. eigenvalues --   -0.60221  -0.57876  -0.57588  -0.55044  -0.52457
 Alpha  occ. eigenvalues --   -0.50457  -0.48421  -0.48120  -0.47723  -0.47369
 Alpha  occ. eigenvalues --   -0.46210  -0.45411  -0.45150  -0.44636  -0.44207
 Alpha  occ. eigenvalues --   -0.44063  -0.42849  -0.42500  -0.41713  -0.41511
 Alpha  occ. eigenvalues --   -0.41321  -0.40811  -0.40438  -0.39617  -0.39411
 Alpha  occ. eigenvalues --   -0.38971  -0.38537  -0.36510  -0.36111  -0.35785
 Alpha  occ. eigenvalues --   -0.35578  -0.35391  -0.34994  -0.34650  -0.34484
 Alpha  occ. eigenvalues --   -0.33461  -0.33141  -0.32987  -0.32765  -0.32557
 Alpha  occ. eigenvalues --   -0.32475  -0.31559  -0.30840  -0.30679  -0.29667
 Alpha  occ. eigenvalues --   -0.26803  -0.25965  -0.23692  -0.17599
 Alpha virt. eigenvalues --   -0.03111  -0.03055   0.03637   0.03737   0.04187
 Alpha virt. eigenvalues --    0.04565   0.05023   0.05518   0.05912   0.06895
 Alpha virt. eigenvalues --    0.07291   0.07581   0.07629   0.08182   0.08679
 Alpha virt. eigenvalues --    0.08911   0.09355   0.09693   0.09865   0.10200
 Alpha virt. eigenvalues --    0.10361   0.10712   0.11592   0.11706   0.12041
 Alpha virt. eigenvalues --    0.12200   0.12762   0.12902   0.13345   0.13411
 Alpha virt. eigenvalues --    0.13716   0.13995   0.14368   0.14625   0.14844
 Alpha virt. eigenvalues --    0.15055   0.15645   0.16218   0.16510   0.16890
 Alpha virt. eigenvalues --    0.17431   0.17815   0.17904   0.18177   0.18523
 Alpha virt. eigenvalues --    0.18783   0.18906   0.19202   0.19614   0.19968
 Alpha virt. eigenvalues --    0.20565   0.21025   0.21183   0.21512   0.21806
 Alpha virt. eigenvalues --    0.22029   0.22630   0.22800   0.22948   0.23324
 Alpha virt. eigenvalues --    0.23578   0.24297   0.24797   0.24948   0.25321
 Alpha virt. eigenvalues --    0.25826   0.25930   0.26847   0.26886   0.27245
 Alpha virt. eigenvalues --    0.27282   0.27680   0.28052   0.29102   0.29219
 Alpha virt. eigenvalues --    0.29696   0.29736   0.30158   0.30612   0.31104
 Alpha virt. eigenvalues --    0.31702   0.31986   0.32537   0.32714   0.33002
 Alpha virt. eigenvalues --    0.33745   0.33971   0.34396   0.34770   0.35508
 Alpha virt. eigenvalues --    0.36036   0.36406   0.36574   0.36653   0.37749
 Alpha virt. eigenvalues --    0.38261   0.38566   0.39363   0.39807   0.40309
 Alpha virt. eigenvalues --    0.40472   0.40846   0.41117   0.41499   0.41927
 Alpha virt. eigenvalues --    0.42573   0.42694   0.43034   0.43178   0.43309
 Alpha virt. eigenvalues --    0.43748   0.43916   0.44065   0.44114   0.44417
 Alpha virt. eigenvalues --    0.44692   0.44949   0.45096   0.45468   0.45525
 Alpha virt. eigenvalues --    0.45856   0.45983   0.46289   0.46510   0.46961
 Alpha virt. eigenvalues --    0.47044   0.47191   0.47465   0.47712   0.47785
 Alpha virt. eigenvalues --    0.48208   0.48389   0.48724   0.48808   0.49275
 Alpha virt. eigenvalues --    0.49358   0.49529   0.49877   0.50068   0.50187
 Alpha virt. eigenvalues --    0.50313   0.50923   0.51085   0.51305   0.51587
 Alpha virt. eigenvalues --    0.51808   0.52529   0.52587   0.52885   0.53100
 Alpha virt. eigenvalues --    0.53787   0.53967   0.54286   0.54420   0.55052
 Alpha virt. eigenvalues --    0.55688   0.55907   0.56363   0.56644   0.56929
 Alpha virt. eigenvalues --    0.57140   0.57706   0.58591   0.58905   0.59189
 Alpha virt. eigenvalues --    0.60354   0.60836   0.60945   0.61814   0.62151
 Alpha virt. eigenvalues --    0.62470   0.63043   0.63952   0.64354   0.64868
 Alpha virt. eigenvalues --    0.65441   0.65535   0.66065   0.67010   0.68169
 Alpha virt. eigenvalues --    0.68327   0.68496   0.69117   0.69975   0.70337
 Alpha virt. eigenvalues --    0.70870   0.71766   0.72060   0.73027   0.73547
 Alpha virt. eigenvalues --    0.74181   0.74539   0.75736   0.76050   0.76630
 Alpha virt. eigenvalues --    0.77241   0.78364   0.78486   0.78621   0.79533
 Alpha virt. eigenvalues --    0.80279   0.80510   0.81092   0.81637   0.81825
 Alpha virt. eigenvalues --    0.82315   0.83248   0.83718   0.84192   0.84475
 Alpha virt. eigenvalues --    0.85007   0.85605   0.86339   0.86722   0.87230
 Alpha virt. eigenvalues --    0.87569   0.88239   0.89211   0.89384   0.90230
 Alpha virt. eigenvalues --    0.90739   0.91292   0.91475   0.91678   0.92496
 Alpha virt. eigenvalues --    0.92767   0.93163   0.94478   0.95084   0.95530
 Alpha virt. eigenvalues --    0.96122   0.96286   0.96363   0.96765   0.97482
 Alpha virt. eigenvalues --    0.98151   0.98261   0.98403   1.00273   1.00700
 Alpha virt. eigenvalues --    1.01219   1.01935   1.02620   1.02744   1.03878
 Alpha virt. eigenvalues --    1.04610   1.05238   1.06271   1.06485   1.07276
 Alpha virt. eigenvalues --    1.07479   1.07923   1.08497   1.08986   1.09819
 Alpha virt. eigenvalues --    1.10511   1.10592   1.11478   1.12635   1.13131
 Alpha virt. eigenvalues --    1.13638   1.13991   1.14265   1.14933   1.15337
 Alpha virt. eigenvalues --    1.16199   1.16596   1.17424   1.17654   1.18353
 Alpha virt. eigenvalues --    1.18735   1.19269   1.19511   1.20287   1.21010
 Alpha virt. eigenvalues --    1.21591   1.21966   1.22480   1.23347   1.23492
 Alpha virt. eigenvalues --    1.24032   1.24420   1.24673   1.25497   1.26008
 Alpha virt. eigenvalues --    1.27287   1.27883   1.28047   1.28579   1.29469
 Alpha virt. eigenvalues --    1.30007   1.30115   1.30552   1.30966   1.31899
 Alpha virt. eigenvalues --    1.32026   1.32974   1.33541   1.34541   1.35094
 Alpha virt. eigenvalues --    1.35932   1.36277   1.37391   1.37994   1.38617
 Alpha virt. eigenvalues --    1.38940   1.39895   1.40232   1.41428   1.42204
 Alpha virt. eigenvalues --    1.43405   1.44770   1.45228   1.46820   1.47314
 Alpha virt. eigenvalues --    1.48935   1.49402   1.49979   1.50815   1.51080
 Alpha virt. eigenvalues --    1.52000   1.52300   1.53438   1.53930   1.54209
 Alpha virt. eigenvalues --    1.54819   1.55448   1.55658   1.56075   1.56512
 Alpha virt. eigenvalues --    1.57186   1.57634   1.58119   1.58509   1.58948
 Alpha virt. eigenvalues --    1.59513   1.59662   1.59859   1.60413   1.60553
 Alpha virt. eigenvalues --    1.61028   1.61695   1.61878   1.62305   1.62442
 Alpha virt. eigenvalues --    1.62882   1.63218   1.63570   1.64174   1.64575
 Alpha virt. eigenvalues --    1.64873   1.65031   1.65365   1.65671   1.66265
 Alpha virt. eigenvalues --    1.66578   1.66679   1.66831   1.67443   1.67875
 Alpha virt. eigenvalues --    1.68359   1.68759   1.69161   1.70602   1.70950
 Alpha virt. eigenvalues --    1.71001   1.71585   1.71852   1.72549   1.73567
 Alpha virt. eigenvalues --    1.74086   1.74671   1.75165   1.75526   1.75714
 Alpha virt. eigenvalues --    1.77082   1.77716   1.78555   1.78671   1.79505
 Alpha virt. eigenvalues --    1.79749   1.80325   1.81149   1.81518   1.82532
 Alpha virt. eigenvalues --    1.82788   1.83226   1.83908   1.84289   1.84962
 Alpha virt. eigenvalues --    1.85340   1.86397   1.86788   1.87481   1.88027
 Alpha virt. eigenvalues --    1.88841   1.89496   1.90469   1.90606   1.91132
 Alpha virt. eigenvalues --    1.91524   1.92310   1.92836   1.93442   1.94469
 Alpha virt. eigenvalues --    1.95426   1.95602   1.96514   1.97376   1.97713
 Alpha virt. eigenvalues --    1.98589   1.99514   2.00052   2.00619   2.01126
 Alpha virt. eigenvalues --    2.01972   2.02579   2.02715   2.03017   2.03835
 Alpha virt. eigenvalues --    2.03941   2.04421   2.05207   2.05833   2.06222
 Alpha virt. eigenvalues --    2.06410   2.07413   2.08021   2.08434   2.09558
 Alpha virt. eigenvalues --    2.10898   2.11230   2.12273   2.12767   2.13707
 Alpha virt. eigenvalues --    2.14080   2.14658   2.15543   2.16565   2.17826
 Alpha virt. eigenvalues --    2.18078   2.18306   2.20029   2.20604   2.21203
 Alpha virt. eigenvalues --    2.22056   2.22577   2.24298   2.24476   2.24748
 Alpha virt. eigenvalues --    2.25791   2.26786   2.27717   2.28687   2.28939
 Alpha virt. eigenvalues --    2.29970   2.30725   2.31440   2.31827   2.32854
 Alpha virt. eigenvalues --    2.33683   2.34117   2.34515   2.35074   2.36047
 Alpha virt. eigenvalues --    2.36582   2.37353   2.37539   2.38331   2.39039
 Alpha virt. eigenvalues --    2.39605   2.39830   2.40269   2.41476   2.41717
 Alpha virt. eigenvalues --    2.42142   2.42536   2.43659   2.44256   2.44966
 Alpha virt. eigenvalues --    2.45331   2.46002   2.46055   2.47353   2.47836
 Alpha virt. eigenvalues --    2.48353   2.48530   2.49120   2.49501   2.50353
 Alpha virt. eigenvalues --    2.50957   2.51010   2.51677   2.52662   2.53019
 Alpha virt. eigenvalues --    2.53481   2.54030   2.54310   2.54678   2.55064
 Alpha virt. eigenvalues --    2.55457   2.56135   2.56786   2.57468   2.58517
 Alpha virt. eigenvalues --    2.58747   2.59391   2.59600   2.59985   2.60609
 Alpha virt. eigenvalues --    2.60690   2.61195   2.61280   2.62005   2.62266
 Alpha virt. eigenvalues --    2.63028   2.63615   2.63782   2.63985   2.64708
 Alpha virt. eigenvalues --    2.64914   2.65543   2.65571   2.66075   2.66523
 Alpha virt. eigenvalues --    2.66868   2.67118   2.67333   2.67401   2.68001
 Alpha virt. eigenvalues --    2.68270   2.69442   2.69566   2.69928   2.70496
 Alpha virt. eigenvalues --    2.70539   2.71037   2.71406   2.72031   2.72538
 Alpha virt. eigenvalues --    2.73000   2.73553   2.73737   2.74254   2.74897
 Alpha virt. eigenvalues --    2.75253   2.75704   2.76058   2.77481   2.78257
 Alpha virt. eigenvalues --    2.78509   2.79175   2.79401   2.79786   2.80292
 Alpha virt. eigenvalues --    2.80614   2.81721   2.82277   2.82965   2.83312
 Alpha virt. eigenvalues --    2.83990   2.84758   2.85300   2.85924   2.86055
 Alpha virt. eigenvalues --    2.87493   2.88241   2.88697   2.89371   2.89736
 Alpha virt. eigenvalues --    2.90495   2.90854   2.91940   2.92044   2.92773
 Alpha virt. eigenvalues --    2.94013   2.95448   2.96213   2.96238   2.96756
 Alpha virt. eigenvalues --    2.97301   2.99050   2.99494   3.00364   3.01068
 Alpha virt. eigenvalues --    3.02298   3.03682   3.04091   3.04685   3.05362
 Alpha virt. eigenvalues --    3.05973   3.07448   3.07980   3.09708   3.10170
 Alpha virt. eigenvalues --    3.10574   3.11748   3.12072   3.12856   3.13502
 Alpha virt. eigenvalues --    3.13788   3.14846   3.15266   3.15730   3.16044
 Alpha virt. eigenvalues --    3.16539   3.17049   3.17267   3.17951   3.18331
 Alpha virt. eigenvalues --    3.18723   3.19277   3.19579   3.20000   3.20630
 Alpha virt. eigenvalues --    3.21193   3.21524   3.22238   3.22335   3.23477
 Alpha virt. eigenvalues --    3.23939   3.24236   3.24429   3.25562   3.25850
 Alpha virt. eigenvalues --    3.27027   3.27572   3.28193   3.28350   3.28990
 Alpha virt. eigenvalues --    3.29247   3.29955   3.30187   3.30895   3.31278
 Alpha virt. eigenvalues --    3.31921   3.31964   3.32347   3.32835   3.33083
 Alpha virt. eigenvalues --    3.33489   3.34163   3.34580   3.35132   3.35571
 Alpha virt. eigenvalues --    3.35955   3.36662   3.36996   3.37310   3.37745
 Alpha virt. eigenvalues --    3.37998   3.38777   3.39326   3.39891   3.40316
 Alpha virt. eigenvalues --    3.40501   3.40842   3.41196   3.42112   3.42405
 Alpha virt. eigenvalues --    3.43012   3.43860   3.44575   3.44870   3.44983
 Alpha virt. eigenvalues --    3.45701   3.46680   3.46718   3.47531   3.47736
 Alpha virt. eigenvalues --    3.47895   3.49078   3.50032   3.50261   3.50619
 Alpha virt. eigenvalues --    3.51288   3.51829   3.51960   3.52353   3.53055
 Alpha virt. eigenvalues --    3.53703   3.53907   3.55105   3.56037   3.56264
 Alpha virt. eigenvalues --    3.56363   3.57178   3.57725   3.58115   3.59188
 Alpha virt. eigenvalues --    3.59224   3.59754   3.60409   3.60789   3.60858
 Alpha virt. eigenvalues --    3.61742   3.62329   3.62747   3.63294   3.64474
 Alpha virt. eigenvalues --    3.65255   3.65504   3.65952   3.66359   3.66679
 Alpha virt. eigenvalues --    3.67277   3.68053   3.68628   3.69780   3.70419
 Alpha virt. eigenvalues --    3.71439   3.71633   3.73199   3.74821   3.75437
 Alpha virt. eigenvalues --    3.76040   3.76506   3.77449   3.77870   3.78996
 Alpha virt. eigenvalues --    3.79995   3.80207   3.81536   3.82793   3.83760
 Alpha virt. eigenvalues --    3.86148   3.86817   3.87022   3.88057   3.89694
 Alpha virt. eigenvalues --    3.90136   3.92549   3.92618   3.93111   3.93871
 Alpha virt. eigenvalues --    3.94156   3.94653   3.96169   3.96542   3.97040
 Alpha virt. eigenvalues --    3.97769   3.98059   3.98945   3.99470   4.00482
 Alpha virt. eigenvalues --    4.01009   4.01859   4.02595   4.03285   4.04059
 Alpha virt. eigenvalues --    4.05241   4.06546   4.08204   4.08710   4.08807
 Alpha virt. eigenvalues --    4.10951   4.12025   4.12752   4.15600   4.15995
 Alpha virt. eigenvalues --    4.16587   4.17777   4.18566   4.19443   4.19771
 Alpha virt. eigenvalues --    4.20337   4.21114   4.21917   4.22499   4.22700
 Alpha virt. eigenvalues --    4.23640   4.24177   4.24676   4.27264   4.27771
 Alpha virt. eigenvalues --    4.28534   4.29171   4.30099   4.31097   4.32509
 Alpha virt. eigenvalues --    4.33936   4.35043   4.35492   4.35938   4.38242
 Alpha virt. eigenvalues --    4.39942   4.40715   4.41064   4.42303   4.42442
 Alpha virt. eigenvalues --    4.42910   4.43560   4.44579   4.47150   4.48167
 Alpha virt. eigenvalues --    4.48844   4.49486   4.54628   4.55715   4.57115
 Alpha virt. eigenvalues --    4.58149   4.58364   4.59447   4.59586   4.60636
 Alpha virt. eigenvalues --    4.62169   4.62283   4.62988   4.63181   4.64700
 Alpha virt. eigenvalues --    4.65769   4.66887   4.68404   4.69358   4.69919
 Alpha virt. eigenvalues --    4.70859   4.73777   4.74783   4.77222   4.77680
 Alpha virt. eigenvalues --    4.79909   4.84225   4.84965   4.88779   4.89445
 Alpha virt. eigenvalues --    4.91721   4.92966   4.93837   4.99274   5.01775
 Alpha virt. eigenvalues --    5.03279   5.04938   5.05812   5.11885   5.12238
 Alpha virt. eigenvalues --    5.14542   5.15513   5.18323   5.20088   5.23237
 Alpha virt. eigenvalues --    5.38953   5.47196   5.55982   7.76823   7.84990
 Alpha virt. eigenvalues --    7.88493   7.94299   8.00239   8.13107  15.52442
 Alpha virt. eigenvalues --   15.79910  22.20035  22.41328  22.43273  22.45212
 Alpha virt. eigenvalues --   22.46437  22.49794  22.52108  22.53971  22.55262
 Alpha virt. eigenvalues --   22.56491  22.57584  22.58954  22.61468  22.62761
 Alpha virt. eigenvalues --   22.66114  22.68809  22.70493  22.75503  22.79117
 Alpha virt. eigenvalues --   22.81043  22.94953  23.24491
          Condensed to atoms (all electrons):
 Mulliken charges:
               1
     1  P   -0.021501
     2  P   -0.001267
     3  C    0.030670
     4  C   -0.015325
     5  C   -0.078112
     6  H    0.083805
     7  C   -0.103508
     8  H    0.095552
     9  C   -0.130898
    10  H    0.070633
    11  C   -0.107994
    12  H    0.092877
    13  C   -0.161913
    14  H    0.095258
    15  H    0.101170
    16  C   -0.206080
    17  H    0.109437
    18  H    0.103549
    19  C   -0.132745
    20  H    0.106670
    21  H    0.103013
    22  C   -0.182646
    23  H    0.105711
    24  H    0.091430
    25  C   -0.198635
    26  H    0.131005
    27  H    0.098386
    28  C   -0.150255
    29  H    0.101691
    30  H    0.095932
    31  C   -0.165854
    32  H    0.095411
    33  H    0.110992
    34  C   -0.130863
    35  H    0.093925
    36  H    0.096408
    37  C   -0.397641
    38  H    0.119571
    39  H    0.144381
    40  H    0.123516
    41  C   -0.416941
    42  H    0.147030
    43  H    0.123391
    44  H    0.119242
    45  C   -0.376005
    46  H    0.121592
    47  H    0.118643
    48  H    0.116627
    49  C   -0.405824
    50  H    0.125540
    51  H    0.134782
    52  H    0.120157
    53  C   -0.150417
    54  H    0.123699
    55  C   -0.155156
    56  H    0.117612
    57  C   -0.120524
    58  H    0.118199
    59  C   -0.214116
    60  H    0.136714
 Sum of Mulliken charges =  -0.00000
 Mulliken charges with hydrogens summed into heavy atoms:
               1
     1  P   -0.021501
     2  P   -0.001267
     3  C    0.030670
     4  C   -0.015325
     5  C    0.005693
     7  C   -0.007957
     9  C   -0.060266
    11  C   -0.015117
    13  C    0.034515
    16  C    0.006906
    19  C    0.076938
    22  C    0.014494
    25  C    0.030756
    28  C    0.047368
    31  C    0.040550
    34  C    0.059470
    37  C   -0.010173
    41  C   -0.027278
    45  C   -0.019142
    49  C   -0.025345
    53  C   -0.026717
    55  C   -0.037545
    57  C   -0.002326
    59  C   -0.077402
 Electronic spatial extent (au):  <R**2>=           8946.8673
 Charge=             -0.0000 electrons
 Dipole moment (field-independent basis, Debye):
    X=             -0.0658    Y=             -0.0719    Z=              1.7489  Tot=              1.7517
 Quadrupole moment (field-independent basis, Debye-Ang):
   XX=           -156.5406   YY=           -166.7712   ZZ=           -161.6817
   XY=              0.5463   XZ=             -0.2108   YZ=             -0.4263
 Traceless Quadrupole moment (field-independent basis, Debye-Ang):
   XX=              5.1239   YY=             -5.1067   ZZ=             -0.0172
   XY=              0.5463   XZ=             -0.2108   YZ=             -0.4263
 Octapole moment (field-independent basis, Debye-Ang**2):
  XXX=             -4.3691  YYY=              1.6920  ZZZ=             30.1402  XYY=              0.9325
  XXY=              2.0616  XXZ=              1.2850  XZZ=             -0.4776  YZZ=             -4.9445
  YYZ=            -10.8525  XYZ=             -5.0441
 Hexadecapole moment (field-independent basis, Debye-Ang**3):
 XXXX=          -6413.2042 YYYY=          -3936.7940 ZZZZ=          -2076.5607 XXXY=             -0.0828
 XXXZ=             -7.0240 YYYX=              5.2582 YYYZ=             -2.3869 ZZZX=             -5.6132
 ZZZY=             -1.7720 XXYY=          -1714.3740 XXZZ=          -1398.1067 YYZZ=          -1050.9661
 XXYZ=             -3.9492 YYXZ=              3.9078 ZZXY=              4.1259
 N-N= 2.622102605849D+03 E-N=-8.860118697638D+03  KE= 1.535041110940D+03
 1\1\GINC-NC240\SP\RPBE1PBE\def2TZVP\C22H36P2\MACKK4\30-Nov-2021\0\\# P
 BE1PBE/def2TZVP int=(grid=ultrafine) empiricaldispersion=GD3BJ nmr=gia
 o\\SS_Et_DuPhos_5 title\\0,1\P,0,-1.6017437191,-0.7752098351,-0.029323
 2936\P,0,1.4769216861,-0.1960053367,0.3445024174\C,0,-0.9757838704,0.9
 265252768,-0.4277196862\C,0,0.4020928137,1.189915955,-0.2267037401\C,0
 ,-3.0499757874,-0.6333461061,1.1446358809\H,0,-3.1458220544,-1.6915572
 64,1.4654507917\C,0,-2.6641139806,-1.2748288009,-1.5144170352\H,0,-2.4
 826857104,-0.4875009528,-2.2714351486\C,0,2.5390409642,0.4777425412,1.
 7418911959\H,0,2.5762400278,1.5736766533,1.5655954173\C,0,2.9249232335
 ,-0.4342131388,-0.852246081\H,0,2.9810916549,-1.536184361,-0.928372950
 6\C,0,-4.2463178372,-0.305935948,0.2361308766\H,0,-5.1921558741,-0.490
 047718,0.7774562496\H,0,-4.2479245057,0.7656128523,-0.037134776\C,0,-4
 .1313855702,-1.2102680849,-1.0026583964\H,0,-4.8065906185,-0.890969002
 1,-1.81562562\H,0,-4.4295898144,-2.234957149,-0.7153199615\C,0,3.92829
 80525,-0.106480593,1.4258998618\H,0,4.6992136654,0.4046958139,2.030147
 8231\H,0,3.9383552212,-1.1794801973,1.6862740096\C,0,4.1625770929,0.08
 02744686,-0.0784042723\H,0,5.0685940085,-0.4468729014,-0.4253789693\H,
 0,4.305884831,1.1564740968,-0.3030267926\C,0,-2.846306015,0.2419389711
 ,2.388484304\H,0,-2.3306949495,1.1839105425,2.1176426865\H,0,-3.844018
 3053,0.5414015492,2.763147198\C,0,-2.3303284573,-2.6512146276,-2.11570
 92759\H,0,-3.1154485953,-2.8724237723,-2.8653363523\H,0,-2.4177499596,
 -3.4098111371,-1.3175776777\C,0,2.0052606375,0.2198901391,3.1555171779
 \H,0,2.8526558826,0.3053439999,3.8622543649\H,0,1.6472675514,-0.823658
 2656,3.2225907008\C,0,2.7851106188,0.1790808389,-2.2516608292\H,0,2.66
 05981427,1.2751994039,-2.1667989261\H,0,3.75313033,0.0251174559,-2.767
 0824033\C,0,-2.0871097819,-0.5025387224,3.4941072561\H,0,-1.9046889423
 ,0.1475551303,4.3657991323\H,0,-1.114748388,-0.8774144119,3.1283223904
 \H,0,-2.660204832,-1.3830307351,3.8311098841\C,0,-0.9494391991,-2.7536
 920577,-2.7597556172\H,0,-0.1590441419,-2.6101691372,-1.9998345344\H,0
 ,-0.8004392847,-3.7525324051,-3.2028101345\H,0,-0.8088242135,-2.000585
 6413,-3.5558988738\C,0,0.9090492403,1.2138298079,3.5519793905\H,0,0.06
 14577468,1.1813380125,2.8457698249\H,0,1.2977669171,2.248457353,3.5560
 11435\H,0,0.5125993886,0.9954383587,4.5570877461\C,0,1.6557396109,-0.4
 078543677,-3.0991086395\H,0,1.7523343933,-1.502770348,-3.1895594775\H,
 0,0.6692033904,-0.1971589504,-2.6527058104\H,0,1.6609293557,0.02130969
 43,-4.1155246175\C,0,-1.8014221113,1.9539539163,-0.9257971664\H,0,-2.8
 61281402,1.7639410222,-1.1151508772\C,0,-1.2791827933,3.2264159088,-1.
 1921978833\H,0,-1.9364007323,4.0138327772,-1.5744243005\C,0,0.07932821
 56,3.4898031489,-0.9692127274\H,0,0.4891249251,4.4837922034,-1.1742643
 181\C,0,0.9160828331,2.4734983356,-0.4922673813\H,0,1.978890296,2.6812
 044185,-0.328109432\\Version=ES64L-G09RevE.01\State=1-A\HF=-1541.81642
 26\RMSD=4.271e-09\Dipole=-0.0848687,0.6483412,-0.217676\Quadrupole=3.5
 467867,-0.2256762,-3.3211105,1.0498003,0.6798505,-1.1658216\PG=C01 [X(
 C22H36P2)]\\@


 ON A CLEAR DISK YOU CAN SEEK FOREVER.
 Job cpu time:       0 days  8 hours 40 minutes 39.8 seconds.
 File lengths (MBytes):  RWF=    551 Int=      0 D2E=      0 Chk=     80 Scr=      1
 Normal termination of Gaussian 09 at Tue Nov 30 21:09:55 2021.
 Initial command:
 /gstore/apps/gaussian/g09.e01-foss-2017a/g09/l1.exe "/local/22791415/Gau-28332.inp" -scrdir="/local/22791415/"
 Entering Link 1 = /gstore/apps/gaussian/g09.e01-foss-2017a/g09/l1.exe PID=      7034.
  
 Copyright (c) 1988,1990,1992,1993,1995,1998,2003,2009,2015,
            Gaussian, Inc.  All Rights Reserved.
  
 This is part of the Gaussian(R) 09 program.  It is based on
 the Gaussian(R) 03 system (copyright 2003, Gaussian, Inc.),
 the Gaussian(R) 98 system (copyright 1998, Gaussian, Inc.),
 the Gaussian(R) 94 system (copyright 1995, Gaussian, Inc.),
 the Gaussian 92(TM) system (copyright 1992, Gaussian, Inc.),
 the Gaussian 90(TM) system (copyright 1990, Gaussian, Inc.),
 the Gaussian 88(TM) system (copyright 1988, Gaussian, Inc.),
 the Gaussian 86(TM) system (copyright 1986, Carnegie Mellon
 University), and the Gaussian 82(TM) system (copyright 1983,
 Carnegie Mellon University). Gaussian is a federally registered
 trademark of Gaussian, Inc.
  
 This software contains proprietary and confidential information,
 including trade secrets, belonging to Gaussian, Inc.
  
 This software is provided under written license and may be
 used, copied, transmitted, or stored only in accord with that
 written license.
  
 The following legend is applicable only to US Government
 contracts under FAR:
  
                    RESTRICTED RIGHTS LEGEND
  
 Use, reproduction and disclosure by the US Government is
 subject to restrictions as set forth in subparagraphs (a)
 and (c) of the Commercial Computer Software - Restricted
 Rights clause in FAR 52.227-19.
  
 Gaussian, Inc.
 340 Quinnipiac St., Bldg. 40, Wallingford CT 06492
  
  
 ---------------------------------------------------------------
 Warning -- This program may not be used in any manner that
 competes with the business of Gaussian, Inc. or will provide
 assistance to any competitor of Gaussian, Inc.  The licensee
 of this program is prohibited from giving any competitor of
 Gaussian, Inc. access to this program.  By using this program,
 the user acknowledges that Gaussian, Inc. is engaged in the
 business of creating and licensing software in the field of
 computational chemistry and represents and warrants to the
 licensee that it is not a competitor of Gaussian, Inc. and that
 it will not use this program in any manner prohibited above.
 ---------------------------------------------------------------
  

 Cite this work as:
 Gaussian 09, Revision E.01,
 M. J. Frisch, G. W. Trucks, H. B. Schlegel, G. E. Scuseria, 
 M. A. Robb, J. R. Cheeseman, G. Scalmani, V. Barone, B. Mennucci, 
 G. A. Petersson, H. Nakatsuji, M. Caricato, X. Li, H. P. Hratchian, 
 A. F. Izmaylov, J. Bloino, G. Zheng, J. L. Sonnenberg, M. Hada, 
 M. Ehara, K. Toyota, R. Fukuda, J. Hasegawa, M. Ishida, T. Nakajima, 
 Y. Honda, O. Kitao, H. Nakai, T. Vreven, J. A. Montgomery, Jr., 
 J. E. Peralta, F. Ogliaro, M. Bearpark, J. J. Heyd, E. Brothers, 
 K. N. Kudin, V. N. Staroverov, T. Keith, R. Kobayashi, J. Normand, 
 K. Raghavachari, A. Rendell, J. C. Burant, S. S. Iyengar, J. Tomasi, 
 M. Cossi, N. Rega, J. M. Millam, M. Klene, J. E. Knox, J. B. Cross, 
 V. Bakken, C. Adamo, J. Jaramillo, R. Gomperts, R. E. Stratmann, 
 O. Yazyev, A. J. Austin, R. Cammi, C. Pomelli, J. W. Ochterski, 
 R. L. Martin, K. Morokuma, V. G. Zakrzewski, G. A. Voth, 
 P. Salvador, J. J. Dannenberg, S. Dapprich, A. D. Daniels, 
 O. Farkas, J. B. Foresman, J. V. Ortiz, J. Cioslowski, 
 and D. J. Fox, Gaussian, Inc., Wallingford CT, 2013.
 
 ******************************************
 Gaussian 09:  ES64L-G09RevE.01 30-Nov-2015
                30-Nov-2021 
 ******************************************
 %nprocs=14
 Will use up to   14 processors via shared memory.
 %mem=128GB
 %chk=SS_Et_DuPhos_5_SPE_NoPd.chk
 ----------------------------------------------------------------------
 # PBE1PBE/def2TZVP int=(grid=ultrafine) empiricaldispersion=GD3BJ pop=
 nbo guess=read geom=check
 ----------------------------------------------------------------------
 1/29=2,38=1/1;
 2/12=2,40=1/2;
 3/5=44,7=101,11=2,14=-4,16=1,25=1,30=1,74=-13,75=-5,116=-2,124=41/1,2,3;
 4/5=1/1;
 5/5=2,38=6/2;
 6/7=2,8=2,9=2,10=2,28=1,40=1/1,7;
 99/5=1,9=1/99;
 --------------------
 SS_Et_DuPhos_5 title
 --------------------
 Structure from the checkpoint file:  "SS_Et_DuPhos_5_SPE_NoPd.chk"
 Charge =  0 Multiplicity = 1
 Z-Matrix found in file.
 P,0,-1.6017437191,-0.7752098351,-0.0293232936
 P,0,1.4769216861,-0.1960053367,0.3445024174
 C,0,-0.9757838704,0.9265252768,-0.4277196862
 C,0,0.4020928137,1.189915955,-0.2267037401
 C,0,-3.0499757874,-0.6333461061,1.1446358809
 H,0,-3.1458220544,-1.691557264,1.4654507917
 C,0,-2.6641139806,-1.2748288009,-1.5144170352
 H,0,-2.4826857104,-0.4875009528,-2.2714351486
 C,0,2.5390409642,0.4777425412,1.7418911959
 H,0,2.5762400278,1.5736766533,1.5655954173
 C,0,2.9249232335,-0.4342131388,-0.852246081
 H,0,2.9810916549,-1.536184361,-0.9283729506
 C,0,-4.2463178372,-0.305935948,0.2361308766
 H,0,-5.1921558741,-0.490047718,0.7774562496
 H,0,-4.2479245057,0.7656128523,-0.037134776
 C,0,-4.1313855702,-1.2102680849,-1.0026583964
 H,0,-4.8065906185,-0.8909690021,-1.81562562
 H,0,-4.4295898144,-2.234957149,-0.7153199615
 C,0,3.9282980525,-0.106480593,1.4258998618
 H,0,4.6992136654,0.4046958139,2.0301478231
 H,0,3.9383552212,-1.1794801973,1.6862740096
 C,0,4.1625770929,0.0802744686,-0.0784042723
 H,0,5.0685940085,-0.4468729014,-0.4253789693
 H,0,4.305884831,1.1564740968,-0.3030267926
 C,0,-2.846306015,0.2419389711,2.388484304
 H,0,-2.3306949495,1.1839105425,2.1176426865
 H,0,-3.8440183053,0.5414015492,2.763147198
 C,0,-2.3303284573,-2.6512146276,-2.1157092759
 H,0,-3.1154485953,-2.8724237723,-2.8653363523
 H,0,-2.4177499596,-3.4098111371,-1.3175776777
 C,0,2.0052606375,0.2198901391,3.1555171779
 H,0,2.8526558826,0.3053439999,3.8622543649
 H,0,1.6472675514,-0.8236582656,3.2225907008
 C,0,2.7851106188,0.1790808389,-2.2516608292
 H,0,2.6605981427,1.2751994039,-2.1667989261
 H,0,3.75313033,0.0251174559,-2.7670824033
 C,0,-2.0871097819,-0.5025387224,3.4941072561
 H,0,-1.9046889423,0.1475551303,4.3657991323
 H,0,-1.114748388,-0.8774144119,3.1283223904
 H,0,-2.660204832,-1.3830307351,3.8311098841
 C,0,-0.9494391991,-2.7536920577,-2.7597556172
 H,0,-0.1590441419,-2.6101691372,-1.9998345344
 H,0,-0.8004392847,-3.7525324051,-3.2028101345
 H,0,-0.8088242135,-2.0005856413,-3.5558988738
 C,0,0.9090492403,1.2138298079,3.5519793905
 H,0,0.0614577468,1.1813380125,2.8457698249
 H,0,1.2977669171,2.248457353,3.556011435
 H,0,0.5125993886,0.9954383587,4.5570877461
 C,0,1.6557396109,-0.4078543677,-3.0991086395
 H,0,1.7523343933,-1.502770348,-3.1895594775
 H,0,0.6692033904,-0.1971589504,-2.6527058104
 H,0,1.6609293557,0.0213096943,-4.1155246175
 C,0,-1.8014221113,1.9539539163,-0.9257971664
 H,0,-2.861281402,1.7639410222,-1.1151508772
 C,0,-1.2791827933,3.2264159088,-1.1921978833
 H,0,-1.9364007323,4.0138327772,-1.5744243005
 C,0,0.0793282156,3.4898031489,-0.9692127274
 H,0,0.4891249251,4.4837922034,-1.1742643181
 C,0,0.9160828331,2.4734983356,-0.4922673813
 H,0,1.978890296,2.6812044185,-0.328109432
 Recover connectivity data from disk.
 Stoichiometry    C22H36P2
 Framework group  C1[X(C22H36P2)]
 Deg. of freedom   174
 Full point group                 C1      NOp   1
 Largest Abelian subgroup         C1      NOp   1
 Largest concise Abelian subgroup C1      NOp   1
                         Standard orientation:                         
 ---------------------------------------------------------------------
 Center     Atomic      Atomic             Coordinates (Angstroms)
 Number     Number       Type             X           Y           Z
 ---------------------------------------------------------------------
      1         15           0        1.581480   -0.012371   -0.546320
      2         15           0       -1.572518   -0.035701   -0.618142
      3          6           0        0.668794   -0.067007    1.069374
      4          6           0       -0.747677   -0.044300    1.031669
      5          6           0        2.818536    1.388823   -0.501275
      6          1           0        3.092468    1.442227   -1.575532
      7          6           0        2.893486   -1.371462   -0.422763
      8          1           0        2.644507   -1.923502    0.504134
      9          6           0       -2.909880    1.284098   -0.552420
     10          1           0       -3.151892    1.387879    0.526558
     11          6           0       -2.786688   -1.482991   -0.747762
     12          1           0       -2.604014   -1.844586   -1.776922
     13          6           0        4.020711    0.811363    0.263663
     14          1           0        4.912785    1.441695    0.095064
     15          1           0        3.832984    0.823267    1.353393
     16          6           0        4.243938   -0.617089   -0.261046
     17          1           0        4.930357   -1.194711    0.382343
     18          1           0        4.711418   -0.552470   -1.260428
     19          6           0       -4.100314    0.597631   -1.247282
     20          1           0       -5.026741    1.170830   -1.063151
     21          1           0       -3.918957    0.571641   -2.336161
     22          6           0       -4.187234   -0.827253   -0.686169
     23          1           0       -4.916543   -1.446154   -1.237725
     24          1           0       -4.522439   -0.792623    0.370067
     25          6           0        2.291341    2.760273   -0.058608
     26          1           0        1.627908    2.653223    0.821686
     27          1           0        3.153530    3.363453    0.285317
     28          6           0        2.925968   -2.350107   -1.609608
     29          1           0        3.823477   -2.985740   -1.476432
     30          1           0        3.072815   -1.767702   -2.536628
     31          6           0       -2.506605    2.655801   -1.105184
     32          1           0       -3.431370    3.205522   -1.364944
     33          1           0       -1.950917    2.516146   -2.050360
     34          6           0       -2.611152   -2.635885    0.249263
     35          1           0       -2.727290   -2.255778    1.281839
     36          1           0       -3.457859   -3.331099    0.087424
     37          6           0        1.576518    3.494324   -1.200196
     38          1           0        1.160923    4.457964   -0.861928
     39          1           0        0.753502    2.884800   -1.613647
     40          1           0        2.275160    3.689783   -2.031443
     41          6           0        1.683010   -3.225283   -1.755471
     42          1           0        0.795236   -2.600456   -1.965831
     43          1           0        1.797909   -3.925927   -2.599317
     44          1           0        1.485409   -3.816278   -0.843076
     45          6           0       -1.695147    3.472726   -0.094764
     46          1           0       -0.781219    2.936975    0.214922
     47          1           0       -2.287295    3.672566    0.816826
     48          1           0       -1.384720    4.442027   -0.518085
     49          6           0       -1.291985   -3.398584    0.121879
     50          1           0       -1.148321   -3.778936   -0.903326
     51          1           0       -0.430819   -2.751528    0.359856
     52          1           0       -1.264768   -4.258321    0.812837
     53          6           0        1.317164   -0.139502    2.318265
     54          1           0        2.408243   -0.186844    2.368945
     55          6           0        0.578343   -0.159628    3.508475
     56          1           0        1.099056   -0.211486    4.469842
     57          6           0       -0.821940   -0.112695    3.467810
     58          1           0       -1.401231   -0.125830    4.396381
     59          6           0       -1.480890   -0.059398    2.233527
     60          1           0       -2.575492   -0.032060    2.206171
 ---------------------------------------------------------------------
 Rotational constants (GHZ):      0.2582099      0.1736291      0.1468774
 Standard basis: def2TZVP (5D, 7F)
 There are  1092 symmetry adapted cartesian basis functions of A   symmetry.
 There are   972 symmetry adapted basis functions of A   symmetry.
   972 basis functions,  1548 primitive gaussians,  1092 cartesian basis functions
    99 alpha electrons       99 beta electrons
       nuclear repulsion energy      2622.1817225498 Hartrees.
 NAtoms=   60 NActive=   60 NUniq=   60 SFac= 1.00D+00 NAtFMM=   60 NAOKFM=T Big=T
 Integral buffers will be    131072 words long.
 Raffenetti 2 integral format.
 Two-electron integral symmetry is turned on.
 Nuclear repulsion after empirical dispersion term =     2622.1026058486 Hartrees.
 One-electron integrals computed using PRISM.
   1 Symmetry operations used in ECPInt.
 ECPInt:  NShTT=   85078 NPrTT=  253069 LenC2=   74385 LenP2D=  154387.
 LDataN:  DoStor=T MaxTD1= 6 Len=  172
 NBasis=   972 RedAO= T EigKep=  5.83D-06  NBF=   972
 NBsUse=   972 1.00D-06 EigRej= -1.00D+00 NBFU=   972
 Initial guess from the checkpoint file:  "SS_Et_DuPhos_5_SPE_NoPd.chk"
 B after Tr=     0.000000    0.000000    0.000000
         Rot=    1.000000   -0.000000   -0.000000    0.000000 Ang=   0.00 deg.
 Requested convergence on RMS density matrix=1.00D-08 within 128 cycles.
 Requested convergence on MAX density matrix=1.00D-06.
 Requested convergence on             energy=1.00D-06.
 No special actions if energy rises.
 SCF Done:  E(RPBE1PBE) =  -1541.81642261     A.U. after    2 cycles
            NFock=  2  Conv=0.24D-08     -V/T= 2.0044

 **********************************************************************

            Population analysis using the SCF density.

 **********************************************************************

 Orbital symmetries:
       Occupied  (A) (A) (A) (A) (A) (A) (A) (A) (A) (A) (A) (A)
                 (A) (A) (A) (A) (A) (A) (A) (A) (A) (A) (A) (A)
                 (A) (A) (A) (A) (A) (A) (A) (A) (A) (A) (A) (A)
                 (A) (A) (A) (A) (A) (A) (A) (A) (A) (A) (A) (A)
                 (A) (A) (A) (A) (A) (A) (A) (A) (A) (A) (A) (A)
                 (A) (A) (A) (A) (A) (A) (A) (A) (A) (A) (A) (A)
                 (A) (A) (A) (A) (A) (A) (A) (A) (A) (A) (A) (A)
                 (A) (A) (A) (A) (A) (A) (A) (A) (A) (A) (A) (A)
                 (A) (A) (A)
       Virtual   (A) (A) (A) (A) (A) (A) (A) (A) (A) (A) (A) (A)
                 (A) (A) (A) (A) (A) (A) (A) (A) (A) (A) (A) (A)
                 (A) (A) (A) (A) (A) (A) (A) (A) (A) (A) (A) (A)
                 (A) (A) (A) (A) (A) (A) (A) (A) (A) (A) (A) (A)
                 (A) (A) (A) (A) (A) (A) (A) (A) (A) (A) (A) (A)
                 (A) (A) (A) (A) (A) (A) (A) (A) (A) (A) (A) (A)
                 (A) (A) (A) (A) (A) (A) (A) (A) (A) (A) (A) (A)
                 (A) (A) (A) (A) (A) (A) (A) (A) (A) (A) (A) (A)
                 (A) (A) (A) (A) (A) (A) (A) (A) (A) (A) (A) (A)
                 (A) (A) (A) (A) (A) (A) (A) (A) (A) (A) (A) (A)
                 (A) (A) (A) (A) (A) (A) (A) (A) (A) (A) (A) (A)
                 (A) (A) (A) (A) (A) (A) (A) (A) (A) (A) (A) (A)
                 (A) (A) (A) (A) (A) (A) (A) (A) (A) (A) (A) (A)
                 (A) (A) (A) (A) (A) (A) (A) (A) (A) (A) (A) (A)
                 (A) (A) (A) (A) (A) (A) (A) (A) (A) (A) (A) (A)
                 (A) (A) (A) (A) (A) (A) (A) (A) (A) (A) (A) (A)
                 (A) (A) (A) (A) (A) (A) (A) (A) (A) (A) (A) (A)
                 (A) (A) (A) (A) (A) (A) (A) (A) (A) (A) (A) (A)
                 (A) (A) (A) (A) (A) (A) (A) (A) (A) (A) (A) (A)
                 (A) (A) (A) (A) (A) (A) (A) (A) (A) (A) (A) (A)
                 (A) (A) (A) (A) (A) (A) (A) (A) (A) (A) (A) (A)
                 (A) (A) (A) (A) (A) (A) (A) (A) (A) (A) (A) (A)
                 (A) (A) (A) (A) (A) (A) (A) (A) (A) (A) (A) (A)
                 (A) (A) (A) (A) (A) (A) (A) (A) (A) (A) (A) (A)
                 (A) (A) (A) (A) (A) (A) (A) (A) (A) (A) (A) (A)
                 (A) (A) (A) (A) (A) (A) (A) (A) (A) (A) (A) (A)
                 (A) (A) (A) (A) (A) (A) (A) (A) (A) (A) (A) (A)
                 (A) (A) (A) (A) (A) (A) (A) (A) (A) (A) (A) (A)
                 (A) (A) (A) (A) (A) (A) (A) (A) (A) (A) (A) (A)
                 (A) (A) (A) (A) (A) (A) (A) (A) (A) (A) (A) (A)
                 (A) (A) (A) (A) (A) (A) (A) (A) (A) (A) (A) (A)
                 (A) (A) (A) (A) (A) (A) (A) (A) (A) (A) (A) (A)
                 (A) (A) (A) (A) (A) (A) (A) (A) (A) (A) (A) (A)
                 (A) (A) (A) (A) (A) (A) (A) (A) (A) (A) (A) (A)
                 (A) (A) (A) (A) (A) (A) (A) (A) (A) (A) (A) (A)
                 (A) (A) (A) (A) (A) (A) (A) (A) (A) (A) (A) (A)
                 (A) (A) (A) (A) (A) (A) (A) (A) (A) (A) (A) (A)
                 (A) (A) (A) (A) (A) (A) (A) (A) (A) (A) (A) (A)
                 (A) (A) (A) (A) (A) (A) (A) (A) (A) (A) (A) (A)
                 (A) (A) (A) (A) (A) (A) (A) (A) (A) (A) (A) (A)
                 (A) (A) (A) (A) (A) (A) (A) (A) (A) (A) (A) (A)
                 (A) (A) (A) (A) (A) (A) (A) (A) (A) (A) (A) (A)
                 (A) (A) (A) (A) (A) (A) (A) (A) (A) (A) (A) (A)
                 (A) (A) (A) (A) (A) (A) (A) (A) (A) (A) (A) (A)
                 (A) (A) (A) (A) (A) (A) (A) (A) (A) (A) (A) (A)
                 (A) (A) (A) (A) (A) (A) (A) (A) (A) (A) (A) (A)
                 (A) (A) (A) (A) (A) (A) (A) (A) (A) (A) (A) (A)
                 (A) (A) (A) (A) (A) (A) (A) (A) (A) (A) (A) (A)
                 (A) (A) (A) (A) (A) (A) (A) (A) (A) (A) (A) (A)
                 (A) (A) (A) (A) (A) (A) (A) (A) (A) (A) (A) (A)
                 (A) (A) (A) (A) (A) (A) (A) (A) (A) (A) (A) (A)
                 (A) (A) (A) (A) (A) (A) (A) (A) (A) (A) (A) (A)
                 (A) (A) (A) (A) (A) (A) (A) (A) (A) (A) (A) (A)
                 (A) (A) (A) (A) (A) (A) (A) (A) (A) (A) (A) (A)
                 (A) (A) (A) (A) (A) (A) (A) (A) (A) (A) (A) (A)
                 (A) (A) (A) (A) (A) (A) (A) (A) (A) (A) (A) (A)
                 (A) (A) (A) (A) (A) (A) (A) (A) (A) (A) (A) (A)
                 (A) (A) (A) (A) (A) (A) (A) (A) (A) (A) (A) (A)
                 (A) (A) (A) (A) (A) (A) (A) (A) (A) (A) (A) (A)
                 (A) (A) (A) (A) (A) (A) (A) (A) (A) (A) (A) (A)
                 (A) (A) (A) (A) (A) (A) (A) (A) (A) (A) (A) (A)
                 (A) (A) (A) (A) (A) (A) (A) (A) (A) (A) (A) (A)
                 (A) (A) (A) (A) (A) (A) (A) (A) (A) (A) (A) (A)
                 (A) (A) (A) (A) (A) (A) (A) (A) (A) (A) (A) (A)
                 (A) (A) (A) (A) (A) (A) (A) (A) (A) (A) (A) (A)
                 (A) (A) (A) (A) (A) (A) (A) (A) (A) (A) (A) (A)
                 (A) (A) (A) (A) (A) (A) (A) (A) (A) (A) (A) (A)
                 (A) (A) (A) (A) (A) (A) (A) (A) (A) (A) (A) (A)
[...]
   728. RY*(   1) H  46                  0.00085     1.00623   
   729. RY*(   2) H  46                  0.00024     2.44817   
   730. RY*(   3) H  46                  0.00012     2.18568   
   731. RY*(   4) H  46                  0.00006     2.00165   
   732. RY*(   5) H  46                  0.00003     3.00672   
   733. RY*(   1) H  47                  0.00058     1.31265   
   734. RY*(   2) H  47                  0.00018     1.39194   
   735. RY*(   3) H  47                  0.00011     2.18547   
   736. RY*(   4) H  47                  0.00007     2.04048   
   737. RY*(   5) H  47                  0.00002     2.70498   
   738. RY*(   1) H  48                  0.00050     1.01209   
   739. RY*(   2) H  48                  0.00016     1.65663   
   740. RY*(   3) H  48                  0.00008     2.09123   
   741. RY*(   4) H  48                  0.00008     2.10629   
   742. RY*(   5) H  48                  0.00003     2.87924   
   743. RY*(   1) C  49                  0.00110     1.12604   
   744. RY*(   2) C  49                  0.00074     1.09150   
   745. RY*(   3) C  49                  0.00065     0.97824   
   746. RY*(   4) C  49                  0.00029     1.08501   
   747. RY*(   5) C  49                  0.00027     1.95757   
   748. RY*(   6) C  49                  0.00019     1.77382   
   749. RY*(   7) C  49                  0.00014     1.95120   
   750. RY*(   8) C  49                  0.00009     1.59455   
   751. RY*(   9) C  49                  0.00006     1.56637   
   752. RY*(  10) C  49                  0.00003     1.40271   
   753. RY*(  11) C  49                  0.00002     2.08350   
   754. RY*(  12) C  49                  0.00002     1.60750   
   755. RY*(  13) C  49                  0.00001     2.79658   
   756. RY*(  14) C  49                  0.00001     2.60555   
   757. RY*(  15) C  49                  0.00000     2.98184   
   758. RY*(  16) C  49                  0.00001     2.30622   
   759. RY*(  17) C  49                  0.00000    20.99290   
   760. RY*(  18) C  49                  0.00000     3.17559   
   761. RY*(  19) C  49                  0.00000     3.29205   
   762. RY*(  20) C  49                  0.00000     3.39690   
   763. RY*(  21) C  49                  0.00000     3.41636   
   764. RY*(  22) C  49                  0.00000     3.48941   
   765. RY*(  23) C  49                  0.00000     3.57600   
   766. RY*(  24) C  49                  0.00000     3.33060   
   767. RY*(  25) C  49                  0.00000     3.23789   
   768. RY*(  26) C  49                  0.00000     3.47401   
   769. RY*(   1) H  50                  0.00072     0.98072   
   770. RY*(   2) H  50                  0.00021     1.87755   
   771. RY*(   3) H  50                  0.00011     2.17059   
   772. RY*(   4) H  50                  0.00007     2.15498   
   773. RY*(   5) H  50                  0.00002     2.99813   
   774. RY*(   1) H  51                  0.00084     0.88813   
   775. RY*(   2) H  51                  0.00027     2.46710   
   776. RY*(   3) H  51                  0.00009     2.35366   
   777. RY*(   4) H  51                  0.00009     2.27630   
   778. RY*(   5) H  51                  0.00003     3.06915   
   779. RY*(   1) H  52                  0.00032     1.00860   
   780. RY*(   2) H  52                  0.00020     1.87067   
   781. RY*(   3) H  52                  0.00012     2.05289   
   782. RY*(   4) H  52                  0.00007     2.17418   
   783. RY*(   5) H  52                  0.00002     3.01446   
   784. RY*(   1) C  53                  0.00558     1.59668   
   785. RY*(   2) C  53                  0.00197     0.93755   
   786. RY*(   3) C  53                  0.00174     1.23169   
   787. RY*(   4) C  53                  0.00122     1.66885   
   788. RY*(   5) C  53                  0.00079     1.60099   
   789. RY*(   6) C  53                  0.00048     1.46768   
   790. RY*(   7) C  53                  0.00036     2.88672   
   791. RY*(   8) C  53                  0.00024     2.07492   
   792. RY*(   9) C  53                  0.00020     1.61682   
   793. RY*(  10) C  53                  0.00014     2.41797   
   794. RY*(  11) C  53                  0.00007     2.46253   
   795. RY*(  12) C  53                  0.00006     1.49037   
   796. RY*(  13) C  53                  0.00005     3.16765   
   797. RY*(  14) C  53                  0.00005     2.16949   
   798. RY*(  15) C  53                  0.00003     1.55362   
   799. RY*(  16) C  53                  0.00001     2.48629   
   800. RY*(  17) C  53                  0.00001     3.45173   
   801. RY*(  18) C  53                  0.00001     3.61857   
   802. RY*(  19) C  53                  0.00000    20.71140   
   803. RY*(  20) C  53                  0.00000     3.13106   
   804. RY*(  21) C  53                  0.00001     4.14088   
   805. RY*(  22) C  53                  0.00000     3.36507   
   806. RY*(  23) C  53                  0.00001     3.67225   
   807. RY*(  24) C  53                  0.00000     3.43584   
   808. RY*(  25) C  53                  0.00000     3.59516   
   809. RY*(  26) C  53                  0.00000     3.07284   
   810. RY*(   1) H  54                  0.00178     0.79814   
   811. RY*(   2) H  54                  0.00033     2.35264   
   812. RY*(   3) H  54                  0.00014     2.19451   
   813. RY*(   4) H  54                  0.00010     2.71933   
   814. RY*(   5) H  54                  0.00004     3.18931   
   815. RY*(   1) C  55                  0.00473     1.57018   
   816. RY*(   2) C  55                  0.00187     1.62762   
   817. RY*(   3) C  55                  0.00132     0.58094   
   818. RY*(   4) C  55                  0.00089     1.38140   
   819. RY*(   5) C  55                  0.00053     1.72774   
   820. RY*(   6) C  55                  0.00033     3.23003   
   821. RY*(   7) C  55                  0.00023     2.43068   
   822. RY*(   8) C  55                  0.00012     1.72593   
   823. RY*(   9) C  55                  0.00007     3.05670   
   824. RY*(  10) C  55                  0.00004     2.23617   
   825. RY*(  11) C  55                  0.00004     1.82939   
   826. RY*(  12) C  55                  0.00003     1.25292   
   827. RY*(  13) C  55                  0.00001     3.39115   
   828. RY*(  14) C  55                  0.00001     2.04950   
   829. RY*(  15) C  55                  0.00000     2.96816   
   830. RY*(  16) C  55                  0.00000     1.09519   
   831. RY*(  17) C  55                  0.00000     3.33849   
   832. RY*(  18) C  55                  0.00000    20.70610   
   833. RY*(  19) C  55                  0.00001     1.73728   
   834. RY*(  20) C  55                  0.00001     3.54968   
   835. RY*(  21) C  55                  0.00000     4.01579   
   836. RY*(  22) C  55                  0.00000     3.17573   
   837. RY*(  23) C  55                  0.00000     3.43621   
   838. RY*(  24) C  55                  0.00000     3.33360   
   839. RY*(  25) C  55                  0.00000     3.57963   
   840. RY*(  26) C  55                  0.00000     3.43650   
   841. RY*(   1) H  56                  0.00042     0.96442   
   842. RY*(   2) H  56                  0.00020     1.81499   
   843. RY*(   3) H  56                  0.00012     2.74876   
   844. RY*(   4) H  56                  0.00011     2.14753   
   845. RY*(   5) H  56                  0.00002     3.09215   
   846. RY*(   1) C  57                  0.00477     1.56476   
   847. RY*(   2) C  57                  0.00187     1.60142   
   848. RY*(   3) C  57                  0.00130     0.58798   
   849. RY*(   4) C  57                  0.00090     1.37273   
   850. RY*(   5) C  57                  0.00053     1.78452   
   851. RY*(   6) C  57                  0.00032     3.18328   
   852. RY*(   7) C  57                  0.00023     2.40352   
   853. RY*(   8) C  57                  0.00013     1.68139   
   854. RY*(   9) C  57                  0.00008     3.01540   
   855. RY*(  10) C  57                  0.00005     1.80083   
   856. RY*(  11) C  57                  0.00003     2.99916   
   857. RY*(  12) C  57                  0.00002     1.98365   
   858. RY*(  13) C  57                  0.00001     2.22868   
   859. RY*(  14) C  57                  0.00002     2.08061   
   860. RY*(  15) C  57                  0.00000     3.13169   
   861. RY*(  16) C  57                  0.00001     2.49068   
   862. RY*(  17) C  57                  0.00001     3.76800   
   863. RY*(  18) C  57                  0.00000    19.82389   
   864. RY*(  19) C  57                  0.00000     1.10904   
   865. RY*(  20) C  57                  0.00001     3.39489   
   866. RY*(  21) C  57                  0.00000     3.99996   
   867. RY*(  22) C  57                  0.00000     3.07700   
   868. RY*(  23) C  57                  0.00000     3.23485   
   869. RY*(  24) C  57                  0.00000     3.26936   
   870. RY*(  25) C  57                  0.00000     3.46811   
   871. RY*(  26) C  57                  0.00000     3.43511   
   872. RY*(   1) H  58                  0.00043     0.96850   
   873. RY*(   2) H  58                  0.00020     1.82090   
   874. RY*(   3) H  58                  0.00012     2.73290   
   875. RY*(   4) H  58                  0.00011     2.14848   
   876. RY*(   5) H  58                  0.00002     3.09106   
   877. RY*(   1) C  59                  0.00599     1.56856   
   878. RY*(   2) C  59                  0.00191     0.98915   
   879. RY*(   3) C  59                  0.00183     1.09134   
   880. RY*(   4) C  59                  0.00122     1.71430   
   881. RY*(   5) C  59                  0.00082     1.66619   
   882. RY*(   6) C  59                  0.00047     1.54877   
   883. RY*(   7) C  59                  0.00038     2.59391   
   884. RY*(   8) C  59                  0.00023     2.24090   
   885. RY*(   9) C  59                  0.00020     1.70673   
   886. RY*(  10) C  59                  0.00016     2.12636   
   887. RY*(  11) C  59                  0.00008     2.43518   
   888. RY*(  12) C  59                  0.00006     1.76586   
   889. RY*(  13) C  59                  0.00007     2.56070   
   890. RY*(  14) C  59                  0.00004     2.64267   
   891. RY*(  15) C  59                  0.00002     2.97125   
   892. RY*(  16) C  59                  0.00003     1.50248   
   893. RY*(  17) C  59                  0.00001     3.55677   
   894. RY*(  18) C  59                  0.00000     3.14553   
   895. RY*(  19) C  59                  0.00000    21.19072   
   896. RY*(  20) C  59                  0.00001     3.37098   
   897. RY*(  21) C  59                  0.00000     3.53369   
   898. RY*(  22) C  59                  0.00000     3.29669   
   899. RY*(  23) C  59                  0.00001     3.77004   
   900. RY*(  24) C  59                  0.00000     3.44446   
   901. RY*(  25) C  59                  0.00000     3.58363   
   902. RY*(  26) C  59                  0.00000     3.13447   
   903. RY*(   1) H  60                  0.00183     0.72698   
   904. RY*(   2) H  60                  0.00039     2.37706   
   905. RY*(   3) H  60                  0.00014     2.17955   
   906. RY*(   4) H  60                  0.00009     2.76154   
   907. RY*(   5) H  60                  0.00003     3.15043   
   908. BD*(   1) P   1 - C   3          0.04465     0.22376   
   909. BD*(   1) P   1 - C   5          0.04801     0.20713   
   910. BD*(   1) P   1 - C   7          0.04733     0.20133   
   911. BD*(   1) P   2 - C   4          0.04265     0.23216   
   912. BD*(   1) P   2 - C   9          0.04559     0.20560   
   913. BD*(   1) P   2 - C  11          0.05119     0.19931   
   914. BD*(   1) C   3 - C   4          0.03440     0.51337   
   915. BD*(   2) C   3 - C   4          0.37969     0.02518  971(v),966(v),913(v),185(g)
                                                    909(v),910(v),912(v),158(g)
                                                    159(g)
   916. BD*(   1) C   3 - C  53          0.03561     0.52476   
   917. BD*(   1) C   4 - C  59          0.03573     0.52550   
   918. BD*(   1) C   5 - H   6          0.02577     0.35173   
   919. BD*(   1) C   5 - C  13          0.02701     0.35249   
   920. BD*(   1) C   5 - C  25          0.01872     0.36327   
   921. BD*(   1) C   7 - H   8          0.02351     0.36864   
   922. BD*(   1) C   7 - C  16          0.02481     0.34071   
   923. BD*(   1) C   7 - C  28          0.02095     0.36081   
   924. BD*(   1) C   9 - H  10          0.03261     0.35746   
   925. BD*(   1) C   9 - C  19          0.01839     0.35205   
   926. BD*(   1) C   9 - C  31          0.02039     0.36736   
   927. BD*(   1) C  11 - H  12          0.02561     0.36705   
   928. BD*(   1) C  11 - C  22          0.02076     0.34610   
   929. BD*(   1) C  11 - C  34          0.02033     0.36476   
   930. BD*(   1) C  13 - H  14          0.01953     0.37029   
   931. BD*(   1) C  13 - H  15          0.01953     0.36789   
   932. BD*(   1) C  13 - C  16          0.01006     0.35757   
   933. BD*(   1) C  16 - H  17          0.01332     0.37534   
   934. BD*(   1) C  16 - H  18          0.01663     0.36492   
   935. BD*(   1) C  19 - H  20          0.01545     0.37023   
   936. BD*(   1) C  19 - H  21          0.01934     0.36584   
   937. BD*(   1) C  19 - C  22          0.00985     0.36001   
   938. BD*(   1) C  22 - H  23          0.01630     0.37348   
   939. BD*(   1) C  22 - H  24          0.01830     0.35836   
   940. BD*(   1) C  25 - H  26          0.01795     0.37314   
   941. BD*(   1) C  25 - H  27          0.01810     0.36485   
   942. BD*(   1) C  25 - C  37          0.00487     0.36222   
   943. BD*(   1) C  28 - H  29          0.01904     0.36635   
   944. BD*(   1) C  28 - H  30          0.01811     0.36879   
   945. BD*(   1) C  28 - C  41          0.00724     0.37471   
   946. BD*(   1) C  31 - H  32          0.01868     0.36682   
   947. BD*(   1) C  31 - H  33          0.01930     0.37238   
   948. BD*(   1) C  31 - C  45          0.00506     0.36624   
   949. BD*(   1) C  34 - H  35          0.01919     0.37187   
   950. BD*(   1) C  34 - H  36          0.01984     0.36460   
   951. BD*(   1) C  34 - C  49          0.00736     0.37178   
   952. BD*(   1) C  37 - H  38          0.00596     0.38505   
   953. BD*(   1) C  37 - H  39          0.00929     0.38788   
   954. BD*(   1) C  37 - H  40          0.00927     0.38107   
   955. BD*(   1) C  41 - H  42          0.00951     0.38830   
   956. BD*(   1) C  41 - H  43          0.00610     0.38598   
   957. BD*(   1) C  41 - H  44          0.00948     0.38147   
   958. BD*(   1) C  45 - H  46          0.00947     0.39347   
   959. BD*(   1) C  45 - H  47          0.00953     0.37873   
   960. BD*(   1) C  45 - H  48          0.00600     0.38546   
   961. BD*(   1) C  49 - H  50          0.00905     0.38109   
   962. BD*(   1) C  49 - H  51          0.00912     0.39370   
   963. BD*(   1) C  49 - H  52          0.00602     0.38326   
   964. BD*(   1) C  53 - H  54          0.01760     0.40834   
   965. BD*(   1) C  53 - C  55          0.01839     0.53847   
   966. BD*(   2) C  53 - C  55          0.31094     0.02453  915(v),971(v),817(g)
   967. BD*(   1) C  55 - H  56          0.01389     0.39875   
   968. BD*(   1) C  55 - C  57          0.01457     0.53276   
   969. BD*(   1) C  57 - H  58          0.01412     0.39822   
   970. BD*(   1) C  57 - C  59          0.01839     0.53923   
   971. BD*(   2) C  57 - C  59          0.31140     0.02516  915(v),966(v),848(g)
   972. BD*(   1) C  59 - H  60          0.01748     0.40014   
       -------------------------------
              Total Lewis  195.48544  ( 98.7300%)
        Valence non-Lewis    2.21235  (  1.1173%)
        Rydberg non-Lewis    0.30221  (  0.1526%)
       -------------------------------
            Total unit  1  198.00000  (100.0000%)
           Charge unit  1    0.00000
 1\1\GINC-NC240\SP\RPBE1PBE\def2TZVP\C22H36P2\MACKK4\30-Nov-2021\0\\# P
 BE1PBE/def2TZVP int=(grid=ultrafine) empiricaldispersion=GD3BJ pop=nbo
  guess=read geom=check\\SS_Et_DuPhos_5 title\\0,1\P,0,-1.6017437191,-0
 .7752098351,-0.0293232936\P,0,1.4769216861,-0.1960053367,0.3445024174\
 C,0,-0.9757838704,0.9265252768,-0.4277196862\C,0,0.4020928137,1.189915
 955,-0.2267037401\C,0,-3.0499757874,-0.6333461061,1.1446358809\H,0,-3.
 1458220544,-1.691557264,1.4654507917\C,0,-2.6641139806,-1.2748288009,-
 1.5144170352\H,0,-2.4826857104,-0.4875009528,-2.2714351486\C,0,2.53904
 09642,0.4777425412,1.7418911959\H,0,2.5762400278,1.5736766533,1.565595
 4173\C,0,2.9249232335,-0.4342131388,-0.852246081\H,0,2.9810916549,-1.5
 36184361,-0.9283729506\C,0,-4.2463178372,-0.305935948,0.2361308766\H,0
 ,-5.1921558741,-0.490047718,0.7774562496\H,0,-4.2479245057,0.765612852
 3,-0.037134776\C,0,-4.1313855702,-1.2102680849,-1.0026583964\H,0,-4.80
 65906185,-0.8909690021,-1.81562562\H,0,-4.4295898144,-2.234957149,-0.7
 153199615\C,0,3.9282980525,-0.106480593,1.4258998618\H,0,4.6992136654,
 0.4046958139,2.0301478231\H,0,3.9383552212,-1.1794801973,1.6862740096\
 C,0,4.1625770929,0.0802744686,-0.0784042723\H,0,5.0685940085,-0.446872
 9014,-0.4253789693\H,0,4.305884831,1.1564740968,-0.3030267926\C,0,-2.8
 46306015,0.2419389711,2.388484304\H,0,-2.3306949495,1.1839105425,2.117
 6426865\H,0,-3.8440183053,0.5414015492,2.763147198\C,0,-2.3303284573,-
 2.6512146276,-2.1157092759\H,0,-3.1154485953,-2.8724237723,-2.86533635
 23\H,0,-2.4177499596,-3.4098111371,-1.3175776777\C,0,2.0052606375,0.21
 98901391,3.1555171779\H,0,2.8526558826,0.3053439999,3.8622543649\H,0,1
 .6472675514,-0.8236582656,3.2225907008\C,0,2.7851106188,0.1790808389,-
 2.2516608292\H,0,2.6605981427,1.2751994039,-2.1667989261\H,0,3.7531303
 3,0.0251174559,-2.7670824033\C,0,-2.0871097819,-0.5025387224,3.4941072
 561\H,0,-1.9046889423,0.1475551303,4.3657991323\H,0,-1.114748388,-0.87
 74144119,3.1283223904\H,0,-2.660204832,-1.3830307351,3.8311098841\C,0,
 -0.9494391991,-2.7536920577,-2.7597556172\H,0,-0.1590441419,-2.6101691
 372,-1.9998345344\H,0,-0.8004392847,-3.7525324051,-3.2028101345\H,0,-0
 .8088242135,-2.0005856413,-3.5558988738\C,0,0.9090492403,1.2138298079,
 3.5519793905\H,0,0.0614577468,1.1813380125,2.8457698249\H,0,1.29776691
 71,2.248457353,3.556011435\H,0,0.5125993886,0.9954383587,4.5570877461\
 C,0,1.6557396109,-0.4078543677,-3.0991086395\H,0,1.7523343933,-1.50277
 0348,-3.1895594775\H,0,0.6692033904,-0.1971589504,-2.6527058104\H,0,1.
 6609293557,0.0213096943,-4.1155246175\C,0,-1.8014221113,1.9539539163,-
 0.9257971664\H,0,-2.861281402,1.7639410222,-1.1151508772\C,0,-1.279182
 7933,3.2264159088,-1.1921978833\H,0,-1.9364007323,4.0138327772,-1.5744
 243005\C,0,0.0793282156,3.4898031489,-0.9692127274\H,0,0.4891249251,4.
 4837922034,-1.1742643181\C,0,0.9160828331,2.4734983356,-0.4922673813\H
 ,0,1.978890296,2.6812044185,-0.328109432\\Version=ES64L-G09RevE.01\Sta
 te=1-A\HF=-1541.8164226\RMSD=2.398e-09\Dipole=-0.0848672,0.6483404,-0.
 2176758\Quadrupole=3.5467901,-0.2256751,-3.321115,1.049803,0.679851,-1
 .1658172\PG=C01 [X(C22H36P2)]\\@


 PENOTUS DIED A HUNDRED YEARS OLD WANTING BUT TWO...
 AND HE USED TO SAY BEFORE HE DIED, HAVING SPENT HIS
 WHOLE LIFE IN VAINLY SEARCHING AFTER THE PHILOSOPHER'S
 STONE, THAT IF HE HAD A MORTAL ENEMY HE DID NOT DARE
 TO ENCOUNTER OPENLY, HE WOULD ADVISE HIM ABOVE ALL
 THINGS TO GIVE HIMSELF UP TO THE STUDY AND PRACTICE
 OF ALCHEMY.  --  NICOLAS LEMERY, M.D.
 "A COURSE OF CHYMISTRY", WALTER KETTILBY, LONDON, 1686
 Job cpu time:       0 days  0 hours 42 minutes 43.9 seconds.
 File lengths (MBytes):  RWF=    487 Int=      0 D2E=      0 Chk=     80 Scr=      1
 Normal termination of Gaussian 09 at Tue Nov 30 21:12:59 2021.
