 Entering Gaussian System, Link 0=/uufs/chpc.utah.edu/sys/installdir/gaussian16/B01/E6B/g16/g16
 Input=W005_1_5_SPE_NoPd.com
 Output=W005_1_5_SPE_NoPd.log
 Initial command:
 /uufs/chpc.utah.edu/sys/installdir/gaussian16/B01/E6B/g16/l1.exe "/scratch/general/lustre/u6034117/4108809/notchpeak.peaks/Gau-312963.inp" -scrdir="/scratch/general/lustre/u6034117/4108809/notchpeak.peaks/"
 Entering Link 1 = /uufs/chpc.utah.edu/sys/installdir/gaussian16/B01/E6B/g16/l1.exe PID=    312965.
  
 Copyright (c) 1988-2017, Gaussian, Inc.  All Rights Reserved.
  
 This is part of the Gaussian(R) 16 program.  It is based on
 the Gaussian(R) 09 system (copyright 2009, Gaussian, Inc.),
 the Gaussian(R) 03 system (copyright 2003, Gaussian, Inc.),
 the Gaussian(R) 98 system (copyright 1998, Gaussian, Inc.),
 the Gaussian(R) 94 system (copyright 1995, Gaussian, Inc.),
 the Gaussian 92(TM) system (copyright 1992, Gaussian, Inc.),
 the Gaussian 90(TM) system (copyright 1990, Gaussian, Inc.),
 the Gaussian 88(TM) system (copyright 1988, Gaussian, Inc.),
 the Gaussian 86(TM) system (copyright 1986, Carnegie Mellon
 University), and the Gaussian 82(TM) system (copyright 1983,
 Carnegie Mellon University). Gaussian is a federally registered
 trademark of Gaussian, Inc.
  
 This software contains proprietary and confidential information,
 including trade secrets, belonging to Gaussian, Inc.
  
 This software is provided under written license and may be
 used, copied, transmitted, or stored only in accord with that
 written license.
  
 The following legend is applicable only to US Government
 contracts under FAR:
  
                    RESTRICTED RIGHTS LEGEND
  
 Use, reproduction and disclosure by the US Government is
 subject to restrictions as set forth in subparagraphs (a)
 and (c) of the Commercial Computer Software - Restricted
 Rights clause in FAR 52.227-19.
  
 Gaussian, Inc.
 340 Quinnipiac St., Bldg. 40, Wallingford CT 06492
  
  
 ---------------------------------------------------------------
 Warning -- This program may not be used in any manner that
 competes with the business of Gaussian, Inc. or will provide
 assistance to any competitor of Gaussian, Inc.  The licensee
 of this program is prohibited from giving any competitor of
 Gaussian, Inc. access to this program.  By using this program,
 the user acknowledges that Gaussian, Inc. is engaged in the
 business of creating and licensing software in the field of
 computational chemistry and represents and warrants to the
 licensee that it is not a competitor of Gaussian, Inc. and that
 it will not use this program in any manner prohibited above.
 ---------------------------------------------------------------
  

 Cite this work as:
 Gaussian 16, Revision B.01,
 M. J. Frisch, G. W. Trucks, H. B. Schlegel, G. E. Scuseria, 
 M. A. Robb, J. R. Cheeseman, G. Scalmani, V. Barone, 
 G. A. Petersson, H. Nakatsuji, X. Li, M. Caricato, A. V. Marenich, 
 J. Bloino, B. G. Janesko, R. Gomperts, B. Mennucci, H. P. Hratchian, 
 J. V. Ortiz, A. F. Izmaylov, J. L. Sonnenberg, D. Williams-Young, 
 F. Ding, F. Lipparini, F. Egidi, J. Goings, B. Peng, A. Petrone, 
 T. Henderson, D. Ranasinghe, V. G. Zakrzewski, J. Gao, N. Rega, 
 G. Zheng, W. Liang, M. Hada, M. Ehara, K. Toyota, R. Fukuda, 
 J. Hasegawa, M. Ishida, T. Nakajima, Y. Honda, O. Kitao, H. Nakai, 
 T. Vreven, K. Throssell, J. A. Montgomery, Jr., J. E. Peralta, 
 F. Ogliaro, M. J. Bearpark, J. J. Heyd, E. N. Brothers, K. N. Kudin, 
 V. N. Staroverov, T. A. Keith, R. Kobayashi, J. Normand, 
 K. Raghavachari, A. P. Rendell, J. C. Burant, S. S. Iyengar, 
 J. Tomasi, M. Cossi, J. M. Millam, M. Klene, C. Adamo, R. Cammi, 
 J. W. Ochterski, R. L. Martin, K. Morokuma, O. Farkas, 
 J. B. Foresman, and D. J. Fox, Gaussian, Inc., Wallingford CT, 2016.
 
 ******************************************
 Gaussian 16:  ES64L-G16RevB.01 20-Dec-2017
                 4-Mar-2022 
 ******************************************
 %NProcShared=52
 Will use up to   52 processors via shared memory.
 %mem=18GB
 %chk=W005_1_5_SPE_NoPd.chk
 ----------------------------------------------------------------------
 # PBE1PBE gen pseudo=read int=(grid=ultrafine) empiricaldispersion=GD3
 BJ nmr=giao
 ----------------------------------------------------------------------
 1/38=1,172=1/1;
 2/12=2,17=6,18=5,40=1/2;
 3/5=7,11=2,16=1,17=8,25=1,30=1,74=-13,75=-5,124=41/1,2,3,8;
 4//1;
 5/5=2,38=5/2;
 8/6=1,10=90,11=11/1;
 10/13=100,45=16/2;
 6/7=2,8=2,9=2,10=2,28=1/1;
 99/9=1/99;
 --------------
 W005_1_5 title
 --------------
 Symbolic Z-matrix:
 Charge =  0 Multiplicity = 1
 C                     1.7757   -1.99335   5.24078 
 C                     2.50971  -0.91288   5.83573 
 C                     3.86754  -1.34507   6.01599 
 C                     3.97248  -2.69368   5.53295 
 C                     2.67877  -3.09435   5.04946 
 H                     2.1182    0.08045   6.05809 
 H                     4.68735  -0.73791   6.40138 
 H                     4.88597  -3.28958   5.51281 
 H                     2.4282   -4.05426   4.59617 
 H                     0.72313  -1.96752   4.96128 
 Fe                    3.34594  -1.42943   4.03873 
 C                     4.21547   0.21985   3.23009 
 C                     4.94174  -0.95678   2.85017 
 C                     4.04544  -1.8258    2.1303 
 C                     2.74742  -1.18994   2.08712 
 C                     2.8614    0.0753    2.77713 
 H                     4.60365   1.05075   3.81989 
 H                     2.05728   0.78177   2.97879 
 C                     1.59045  -1.71713   1.28019 
 P                     1.50466  -0.59298  -0.24088 
 H                     1.88388  -2.70633   0.88003 
 C                     0.27024  -1.84366   2.05264 
 H                    -0.58216  -2.08547   1.39662 
 H                     0.374    -2.6475    2.79925 
 H                     0.02796  -0.90962   2.58314 
 C                    -1.50886   2.48776   1.4911 
 C                    -1.98091   1.39568   0.75248 
 C                    -1.08352   0.48487   0.1732 
 C                     0.29915   0.68181   0.30783 
 C                     0.77562   1.8105    0.99412 
 C                    -0.12713   2.6862    1.6093 
 H                    -2.209     3.18482   1.95686 
 C                    -3.46333   1.13283   0.65192 
 H                    -1.47248  -0.36827  -0.39002 
 H                     1.8491    2.00846   1.03464 
 C                     0.43309   3.79669   2.46145 
 C                    -0.66169  -2.76355  -3.73287 
 C                    -0.66388  -3.35939  -2.46844 
 C                    -0.02689  -2.73415  -1.38268 
 C                     0.60481  -1.49521  -1.56302 
 C                     0.61356  -0.89338  -2.83899 
 C                    -0.01465  -1.53116  -3.91167 
 H                    -1.13327  -3.26615  -4.58063 
 C                    -1.37048  -4.67158  -2.23783 
 H                    -0.01996  -3.23693  -0.41194 
 H                     1.12896   0.06377  -2.98196 
 C                    -0.0266   -0.87781  -5.27505 
 F                    -1.19497  -0.21198  -5.48746 
 F                     0.98511   0.01473  -5.41617 
 F                     0.09291  -1.80372  -6.26645 
 F                    -2.56642  -4.49139  -1.61506 
 F                    -1.60978  -5.33762  -3.39738 
 F                    -0.63015  -5.4944   -1.43388 
 F                    -4.19104   2.2715    0.78911 
 F                    -3.791     0.56643  -0.54032 
 F                    -3.87428   0.27122   1.62761 
 F                    -0.51631   4.69044   2.83827 
 F                     0.97766   3.27522   3.60961 
 F                     1.42363   4.47108   1.83094 
 P                     4.61019  -1.85784  -1.08891 
 C                     9.21296  -1.74994  -1.43285 
 C                     8.4882   -2.436    -2.42963 
 C                     7.08595  -2.43972  -2.35015 
 C                     6.4287   -1.76934  -1.30802 
 C                     7.17216  -1.10456  -0.31931 
 C                     8.5723   -1.08584  -0.36273 
 H                     6.50912  -2.96043  -3.1218 
 H                     6.65305  -0.5673    0.48223 
 H                     5.98428  -1.18111   3.07904 
 C                     5.21143  -5.62364   0.44571 
 C                     5.01497  -5.48248   1.8255 
 C                     4.62393  -4.24547   2.34264 
 C                     4.40407  -3.12564   1.51225 
 C                     4.58689  -3.27589   0.11467 
 C                     5.01225  -4.5249   -0.39322 
 H                     5.53517  -6.57957   0.02206 
 H                     5.1768   -6.33026   2.49912 
 H                     4.48194  -4.11282   3.41611 
 H                     5.21351  -4.62945  -1.46272 
 C                     2.81081  -3.39364  -5.07484 
 C                     3.56579  -2.19847  -5.04912 
 C                     4.11885  -1.78999  -3.82531 
 C                     3.92168  -2.54374  -2.64889 
 C                     3.11248  -3.69353  -2.69561 
 C                     2.56602  -4.14639  -3.90716 
 H                     4.68684  -0.85254  -3.77629 
 H                     2.90526  -4.26504  -1.78568 
 C                     9.21447  -3.1512   -3.54256 
 H                     8.52618  -3.80114  -4.10701 
 H                     9.66257  -2.43925  -4.25993 
 H                     10.04099  -3.76466  -3.14735 
 C                     9.37362  -0.37261   0.69817 
 H                     8.83047  -0.35752   1.6577 
 H                     10.35035  -0.86006   0.84765 
 H                     9.56471   0.68026   0.41862 
 O                     10.60079  -1.78452  -1.48737 
 C                     11.16708  -0.63249  -2.12721 
 H                     10.80149  -0.52834  -3.16652 
 H                     10.93291   0.29719  -1.57526 
 H                     12.25691  -0.78796  -2.13536 
 C                     3.73566  -1.36365  -6.29444 
 H                     2.82189  -1.39474  -6.90804 
 H                     4.57154  -1.72653  -6.92131 
 H                     3.95127  -0.31622  -6.03071 
 C                     1.74057  -5.40762  -3.9677 
 H                     0.85316  -5.27716  -4.60646 
 H                     2.32012  -6.24665  -4.39603 
 H                     1.40733  -5.71063  -2.96292 
 O                     2.21956  -3.8143   -6.25644 
 C                     3.10362  -4.55568  -7.1056 
 H                     2.51643  -4.83412  -7.99386 
 H                     3.97448  -3.94981  -7.41905 
 H                     3.46824  -5.47283  -6.60372 
 
 Stoichiometry    C52H44F12FeO2P2
 Framework group  C1[X(C52H44F12FeO2P2)]
 Deg. of freedom   333
 Full point group                 C1      NOp   1
 Largest Abelian subgroup         C1      NOp   1
 Largest concise Abelian subgroup C1      NOp   1
                         Standard orientation:                         
 ---------------------------------------------------------------------
 Center     Atomic      Atomic             Coordinates (Angstroms)
 Number     Number       Type             X           Y           Z
 ---------------------------------------------------------------------
      1          6           0        2.702613   -4.281039    2.744816
      2          6           0        2.752551   -5.382056    1.825356
      3          6           0        1.541094   -6.139275    1.973560
      4          6           0        0.742437   -5.506321    2.985786
      5          6           0        1.459199   -4.353762    3.461036
      6          1           0        3.545130   -5.575660    1.101634
      7          1           0        1.253613   -7.010113    1.383432
      8          1           0       -0.247013   -5.833623    3.308023
      9          1           0        1.114142   -3.644848    4.214730
     10          1           0        3.466439   -3.512443    2.856718
     11         26           0        1.118366   -4.210346    1.435715
     12          6           0        0.688306   -4.335672   -0.546563
     13          6           0       -0.516007   -4.144687    0.208043
     14          6           0       -0.403567   -2.901139    0.927557
     15          6           0        0.892620   -2.331744    0.633076
     16          6           0        1.564726   -3.231673   -0.277054
     17          1           0        0.927451   -5.201503   -1.164705
     18          1           0        2.581124   -3.134890   -0.656473
     19          6           0        1.313919   -0.954097    1.071538
     20         15           0        1.178504    0.115475   -0.484875
     21          1           0        0.530084   -0.563170    1.747948
     22          6           0        2.678609   -0.889301    1.770861
     23          1           0        3.018985    0.145729    1.939065
     24          1           0        2.598582   -1.392627    2.747910
     25          1           0        3.453432   -1.403145    1.180811
     26          6           0        5.557541   -0.424569   -1.935552
     27          6           0        5.226889    0.663396   -1.118224
     28          6           0        3.898958    0.875588   -0.715688
     29          6           0        2.886408    0.010201   -1.156751
     30          6           0        3.205522   -1.044330   -2.027434
     31          6           0        4.539511   -1.276140   -2.383826
     32          1           0        6.594193   -0.598712   -2.232284
     33          6           0        6.311096    1.565805   -0.582551
     34          1           0        3.663081    1.724453   -0.067500
     35          1           0        2.409874   -1.672582   -2.434155
     36          6           0        4.851441   -2.507708   -3.195701
     37          6           0        0.695284    4.591442    0.668676
     38          6           0        0.996952    3.668427    1.674098
     39          6           0        1.158639    2.306077    1.368452
     40          6           0        1.030912    1.868191    0.042374
     41          6           0        0.721288    2.796142   -0.974210
     42          6           0        0.553032    4.145759   -0.654402
     43          1           0        0.542262    5.644938    0.914461
     44          6           0        1.179740    4.118632    3.101751
     45          1           0        1.365931    1.602633    2.179222
     46          1           0        0.598466    2.446791   -2.006232
     47          6           0        0.243713    5.146058   -1.745061
     48          9           0        1.373710    5.782948   -2.158600
     49          9           0       -0.313162    4.553351   -2.830731
     50          9           0       -0.618138    6.104270   -1.305152
     51          9           0        2.495702    4.178815    3.441184
     52          9           0        0.643120    5.346182    3.326664
     53          9           0        0.590065    3.243973    3.972791
     54          9           0        7.401295    1.585236   -1.392510
     55          9           0        5.871707    2.844895   -0.439471
     56          9           0        6.729958    1.149404    0.648050
     57          9           0        6.131728   -2.521324   -3.646027
     58          9           0        4.680907   -3.631371   -2.424297
     59          9           0        4.025940   -2.636769   -4.261250
     60         15           0       -2.220946   -0.510877   -0.363576
     61          6           0       -6.128487   -2.617626   -1.631730
     62          6           0       -6.203659   -1.271119   -1.218440
     63          6           0       -5.012689   -0.614453   -0.867731
     64          6           0       -3.781994   -1.283809   -0.936741
     65          6           0       -3.733698   -2.628736   -1.338084
     66          6           0       -4.902249   -3.317445   -1.688490
     67          1           0       -5.053908    0.433850   -0.553574
     68          1           0       -2.767688   -3.141156   -1.407586
     69          1           0       -1.367810   -4.824008    0.258485
     70          6           0       -3.507169   -1.297392    3.460667
     71          6           0       -2.717625   -2.372363    3.888937
     72          6           0       -1.710548   -2.862712    3.054739
     73          6           0       -1.449615   -2.296966    1.788345
     74          6           0       -2.238718   -1.198278    1.364774
     75          6           0       -3.274874   -0.730730    2.205423
     76          1           0       -4.313217   -0.909613    4.091534
     77          1           0       -2.892663   -2.835648    4.865366
     78          1           0       -1.096613   -3.709455    3.364899
     79          1           0       -3.925510    0.076249    1.857980
     80          6           0       -2.972365    4.052002   -0.047938
     81          6           0       -3.132933    3.388746   -1.286237
     82          6           0       -2.926613    2.000850   -1.326475
     83          6           0       -2.560168    1.284785   -0.167188
     84          6           0       -2.346304    1.983789    1.034753
     85          6           0       -2.569802    3.367502    1.118015
     86          1           0       -3.020565    1.469108   -2.281591
     87          1           0       -2.013283    1.455664    1.933491
     88          6           0       -7.537833   -0.568971   -1.150914
     89          1           0       -7.449745    0.391958   -0.618364
     90          1           0       -7.936739   -0.354570   -2.159475
     91          1           0       -8.289355   -1.192819   -0.639361
     92          6           0       -4.853426   -4.762387   -2.119862
     93          1           0       -3.999738   -5.283047   -1.655033
     94          1           0       -5.783540   -5.286125   -1.846862
     95          1           0       -4.728619   -4.851603   -3.215154
     96          8           0       -7.311673   -3.279489   -1.935431
     97          6           0       -7.609286   -3.283574   -3.338521
     98          1           0       -7.699632   -2.254064   -3.734270
     99          1           0       -6.833906   -3.818490   -3.918548
    100          1           0       -8.572629   -3.804935   -3.448592
    101          6           0       -3.474723    4.158923   -2.537876
    102          1           0       -2.986117    5.145658   -2.529881
    103          1           0       -4.563937    4.326223   -2.632615
    104          1           0       -3.146403    3.606935   -3.432672
    105          6           0       -2.390483    4.109962    2.418919
    106          1           0       -1.872904    5.069797    2.266095
    107          1           0       -3.365669    4.345170    2.884741
    108          1           0       -1.812088    3.511035    3.139463
    109          8           0       -3.134175    5.427079    0.027571
    110          6           0       -4.499076    5.834414    0.180571
    111          1           0       -4.488391    6.933587    0.235640
    112          1           0       -5.119783    5.518103   -0.678738
    113          1           0       -4.939454    5.424096    1.109921
 ---------------------------------------------------------------------
 Rotational constants (GHZ):           0.0307110           0.0278078           0.0195153
 General basis read from cards:  (5D, 7F)
 ======================================================================================================
                                       Pseudopotential Parameters
 ======================================================================================================
  Center     Atomic      Valence      Angular      Power
  Number     Number     Electrons     Momentum     of R      Exponent        Coefficient   SO-Coeffient
 ======================================================================================================
    1          6
                                   No pseudopotential on this center.
    2          6
                                   No pseudopotential on this center.
    3          6
                                   No pseudopotential on this center.
    4          6
                                   No pseudopotential on this center.
    5          6
                                   No pseudopotential on this center.
    6          1
                                   No pseudopotential on this center.
    7          1
                                   No pseudopotential on this center.
    8          1
                                   No pseudopotential on this center.
    9          1
                                   No pseudopotential on this center.
   10          1
                                   No pseudopotential on this center.
   11         26           16
                                      F and up 
                                                     2        1.0000000        0.00000000    0.00000000
                                      S - F
                                                     2       20.9300000      253.74958800    0.00000000
                                                     2        9.4450000       37.92284500    0.00000000
                                      P - F
                                                     2       21.7600000      161.03681200    0.00000000
                                                     2        9.1780000       27.65129800    0.00000000
                                      D - F
                                                     2       25.9000000      -24.43127600    0.00000000
                                                     2        8.8350000       -1.43425100    0.00000000
   12          6
                                   No pseudopotential on this center.
   13          6
                                   No pseudopotential on this center.
   14          6
                                   No pseudopotential on this center.
   15          6
                                   No pseudopotential on this center.
   16          6
                                   No pseudopotential on this center.
   17          1
                                   No pseudopotential on this center.
   18          1
                                   No pseudopotential on this center.
   19          6
                                   No pseudopotential on this center.
   20         15
                                   No pseudopotential on this center.
   21          1
                                   No pseudopotential on this center.
   22          6
                                   No pseudopotential on this center.
   23          1
                                   No pseudopotential on this center.
   24          1
                                   No pseudopotential on this center.
   25          1
                                   No pseudopotential on this center.
   26          6
                                   No pseudopotential on this center.
   27          6
                                   No pseudopotential on this center.
   28          6
                                   No pseudopotential on this center.
   29          6
                                   No pseudopotential on this center.
   30          6
                                   No pseudopotential on this center.
   31          6
                                   No pseudopotential on this center.
   32          1
                                   No pseudopotential on this center.
   33          6
                                   No pseudopotential on this center.
   34          1
                                   No pseudopotential on this center.
   35          1
                                   No pseudopotential on this center.
   36          6
                                   No pseudopotential on this center.
   37          6
                                   No pseudopotential on this center.
   38          6
                                   No pseudopotential on this center.
   39          6
                                   No pseudopotential on this center.
   40          6
                                   No pseudopotential on this center.
   41          6
                                   No pseudopotential on this center.
   42          6
                                   No pseudopotential on this center.
   43          1
                                   No pseudopotential on this center.
   44          6
                                   No pseudopotential on this center.
   45          1
                                   No pseudopotential on this center.
   46          1
                                   No pseudopotential on this center.
   47          6
                                   No pseudopotential on this center.
   48          9
                                   No pseudopotential on this center.
   49          9
                                   No pseudopotential on this center.
   50          9
                                   No pseudopotential on this center.
   51          9
                                   No pseudopotential on this center.
   52          9
                                   No pseudopotential on this center.
   53          9
                                   No pseudopotential on this center.
   54          9
                                   No pseudopotential on this center.
   55          9
                                   No pseudopotential on this center.
   56          9
                                   No pseudopotential on this center.
   57          9
                                   No pseudopotential on this center.
   58          9
                                   No pseudopotential on this center.
   59          9
                                   No pseudopotential on this center.
   60         15
                                   No pseudopotential on this center.
   61          6
                                   No pseudopotential on this center.
   62          6
                                   No pseudopotential on this center.
   63          6
                                   No pseudopotential on this center.
   64          6
                                   No pseudopotential on this center.
   65          6
                                   No pseudopotential on this center.
   66          6
                                   No pseudopotential on this center.
   67          1
                                   No pseudopotential on this center.
   68          1
                                   No pseudopotential on this center.
   69          1
                                   No pseudopotential on this center.
   70          6
                                   No pseudopotential on this center.
   71          6
                                   No pseudopotential on this center.
   72          6
                                   No pseudopotential on this center.
   73          6
                                   No pseudopotential on this center.
   74          6
                                   No pseudopotential on this center.
   75          6
                                   No pseudopotential on this center.
   76          1
                                   No pseudopotential on this center.
   77          1
                                   No pseudopotential on this center.
   78          1
                                   No pseudopotential on this center.
   79          1
                                   No pseudopotential on this center.
   80          6
                                   No pseudopotential on this center.
   81          6
                                   No pseudopotential on this center.
   82          6
                                   No pseudopotential on this center.
   83          6
                                   No pseudopotential on this center.
   84          6
                                   No pseudopotential on this center.
   85          6
                                   No pseudopotential on this center.
   86          1
                                   No pseudopotential on this center.
   87          1
                                   No pseudopotential on this center.
   88          6
                                   No pseudopotential on this center.
   89          1
                                   No pseudopotential on this center.
   90          1
                                   No pseudopotential on this center.
   91          1
                                   No pseudopotential on this center.
   92          6
                                   No pseudopotential on this center.
   93          1
                                   No pseudopotential on this center.
   94          1
                                   No pseudopotential on this center.
   95          1
                                   No pseudopotential on this center.
   96          8
                                   No pseudopotential on this center.
   97          6
                                   No pseudopotential on this center.
   98          1
                                   No pseudopotential on this center.
   99          1
                                   No pseudopotential on this center.
  100          1
                                   No pseudopotential on this center.
  101          6
                                   No pseudopotential on this center.
  102          1
                                   No pseudopotential on this center.
  103          1
                                   No pseudopotential on this center.
  104          1
                                   No pseudopotential on this center.
  105          6
                                   No pseudopotential on this center.
  106          1
                                   No pseudopotential on this center.
  107          1
                                   No pseudopotential on this center.
  108          1
                                   No pseudopotential on this center.
  109          8
                                   No pseudopotential on this center.
  110          6
                                   No pseudopotential on this center.
  111          1
                                   No pseudopotential on this center.
  112          1
                                   No pseudopotential on this center.
  113          1
                                   No pseudopotential on this center.
 ======================================================================================================
 There are  2773 symmetry adapted cartesian basis functions of A   symmetry.
 There are  2427 symmetry adapted basis functions of A   symmetry.
  2427 basis functions,  3931 primitive gaussians,  2773 cartesian basis functions
   263 alpha electrons      263 beta electrons
       nuclear repulsion energy     12937.4160131116 Hartrees.
 NAtoms=  113 NActive=  113 NUniq=  113 SFac= 1.00D+00 NAtFMM=   60 NAOKFM=T Big=T
 Integral buffers will be    131072 words long.
 Raffenetti 2 integral format.
 Two-electron integral symmetry is turned on.
 Nuclear repulsion after empirical dispersion term =    12937.2356140764 Hartrees.
 One-electron integrals computed using PRISM.
   1 Symmetry operations used in ECPInt.
 ECPInt:  NShTT=  445096 NPrTT= 1380297 LenC2=  293813 LenP2D=  575851.
 LDataN:  DoStor=T MaxTD1= 6 Len=  172
 Number of processors reduced to  16 by ecpmxn.
 NBasis=  2427 RedAO= T EigKep=  3.53D-06  NBF=  2427
 NBsUse=  2427 1.00D-06 EigRej= -1.00D+00 NBFU=  2427
 ExpMin= 1.00D-02 ExpMax= 5.24D+04 ExpMxC= 1.79D+03 IAcc=3 IRadAn=         5 AccDes= 0.00D+00
 Harris functional with IExCor= 1009 and IRadAn=       5 diagonalized for initial guess.
 HarFok:  IExCor= 1009 AccDes= 0.00D+00 IRadAn=         5 IDoV= 1 UseB2=F ITyADJ=14
 ICtDFT=  3500011 ScaDFX=  1.000000  1.000000  1.000000  1.000000
 FoFCou: FMM=F IPFlag=           0 FMFlag=      100000 FMFlg1=        2001
         NFxFlg=           0 DoJE=T BraDBF=F KetDBF=T FulRan=T
         wScrn=  0.000000 ICntrl=       500 IOpCl=  0 I1Cent=   200000004 NGrid=           0
         NMat0=    1 NMatS0=      1 NMatT0=    0 NMatD0=    1 NMtDS0=    0 NMtDT0=    0
 Petite list used in FoFCou.
 Requested convergence on RMS density matrix=1.00D-08 within 128 cycles.
 Requested convergence on MAX density matrix=1.00D-06.
 Requested convergence on             energy=1.00D-06.
 No special actions if energy rises.
 EnCoef did     5 forward-backward iterations
 Restarting incremental Fock formation.
 SCF Done:  E(RPBE1PBE) =  -4160.77803213     A.U. after   22 cycles
            NFock= 22  Conv=0.32D-08     -V/T= 2.0173
 DoSCS=F DFT=T ScalE2(SS,OS)=  1.000000  1.000000
 Range of M.O.s used for correlation:     1  2427
 NBasis=  2427 NAE=   263 NBE=   263 NFC=     0 NFV=     0
 NROrb=   2427 NOA=   263 NOB=   263 NVA=  2164 NVB=  2164

 **** Warning!!: The largest alpha MO coefficient is  0.42855488D+02

          Differentiating once with respect to magnetic field using GIAOs.
          Electric field/nuclear overlap derivatives assumed to be zero.
 FoFCou: FMM=F IPFlag=           0 FMFlag=      100000 FMFlg1=        2001
         NFxFlg=           0 DoJE=F BraDBF=F KetDBF=T FulRan=T
         wScrn=  0.000000 ICntrl=      6100 IOpCl=  0 I1Cent=           7 NGrid=         113
         NMat0=    1 NMatS0=      1 NMatT0=    0 NMatD0=    1 NMtDS0=    0 NMtDT0=    0
 Symmetry not used in FoFCou.
   1 Symmetry operations used in ECPInt.
 ECPInt:  NShTT=  445096 NPrTT= 1380297 LenC2=  445097 LenP2D= 1380297.
 LDataN:  DoStor=T MaxTD1= 7 Len=  274
 Number of processors reduced to  10 by ecpmxn.
 FoFJK:  IHMeth= 1 ICntrl=    6127 DoSepK=F KAlg= 0 I1Cent=           0 FoldK=F
 IRaf=         1 NMat=       1 IRICut=       1 DoRegI=T DoRafI=F ISym2E= 0 IDoP0=0 IntGTp=1.
          There are     3 degrees of freedom in the 1st order CPHF.  IDoFFX=0 NUNeed=     3.
      3 vectors produced by pass  0 Test12= 1.90D-11 3.33D-08 XBig12= 4.60D+02 1.88D+00.
 AX will form     3 AO Fock derivatives at one time.
      3 vectors produced by pass  1 Test12= 1.90D-11 3.33D-08 XBig12= 2.09D+00 4.01D-01.
      3 vectors produced by pass  2 Test12= 1.90D-11 3.33D-08 XBig12= 1.02D-01 8.16D-02.
      3 vectors produced by pass  3 Test12= 1.90D-11 3.33D-08 XBig12= 1.55D-03 7.05D-03.
      3 vectors produced by pass  4 Test12= 1.90D-11 3.33D-08 XBig12= 2.75D-05 2.03D-03.
      3 vectors produced by pass  5 Test12= 1.90D-11 3.33D-08 XBig12= 9.34D-07 1.90D-04.
      3 vectors produced by pass  6 Test12= 1.90D-11 3.33D-08 XBig12= 5.68D-09 1.11D-05.
      3 vectors produced by pass  7 Test12= 1.90D-11 3.33D-08 XBig12= 3.97D-11 2.31D-06.
      3 vectors produced by pass  8 Test12= 1.90D-11 3.33D-08 XBig12= 1.03D-12 2.67D-07.
 InvSVY:  IOpt=1 It=  1 EMax= 1.07D-14
 Solved reduced A of dimension    27 with     3 vectors.
 Calculating GIAO nuclear magnetic shielding tensors.
 SCF GIAO Magnetic shielding tensor (ppm):
      1  C    Isotropic =   110.3417   Anisotropy =    93.2468
   XX=    77.2951   YX=   -45.4080   ZX=     2.6527
   XY=   -33.9915   YY=   122.7953   ZY=   -32.7404
   XZ=     0.7085   YZ=   -40.0854   ZZ=   130.9347
   Eigenvalues:    50.2406   108.2783   172.5062
      2  C    Isotropic =   112.8483   Anisotropy =    89.7723
   XX=    77.8466   YX=     2.9041   ZX=    41.2216
   XY=    11.0849   YY=   123.5003   ZY=   -40.1203
   XZ=    28.7638   YZ=   -31.3619   ZZ=   137.1981
   Eigenvalues:    54.1105   111.7380   172.6965
      3  C    Isotropic =   112.2621   Anisotropy =    88.5493
   XX=   124.8483   YX=   -13.6666   ZX=    20.3717
   XY=   -21.8822   YY=    72.3044   ZY=   -44.5678
   XZ=    19.1275   YZ=   -32.9370   ZZ=   139.6335
   Eigenvalues:    53.6565   111.8348   171.2949
      4  C    Isotropic =   111.7550   Anisotropy =    89.5051
   XX=    97.8655   YX=   -36.5411   ZX=    34.7362
   XY=   -43.4923   YY=   116.9469   ZY=    -6.3054
   XZ=    45.1855   YZ=   -12.0940   ZZ=   120.4526
   Eigenvalues:    54.3481   109.4919   171.4251
      5  C    Isotropic =   111.2111   Anisotropy =    92.2213
   XX=   122.8918   YX=   -15.4195   ZX=    22.1985
   XY=   -18.4217   YY=   121.2884   ZY=   -41.1076
   XZ=    30.7663   YZ=   -53.2762   ZZ=    89.4530
   Eigenvalues:    53.3510   107.5903   172.6919
      6  H    Isotropic =    27.6750   Anisotropy =     5.4040
   XX=    28.9759   YX=    -1.3114   ZX=    -3.3012
   XY=    -1.1689   YY=    27.5703   ZY=     0.6044
   XZ=    -2.6045   YZ=    -0.2810   ZZ=    26.4787
   Eigenvalues:    24.4189    27.3284    31.2777
      7  H    Isotropic =    27.4270   Anisotropy =     6.4824
   XX=    25.4797   YX=     0.7084   ZX=    -0.1949
   XY=     1.2310   YY=    31.0147   ZY=     2.4786
   XZ=    -0.2423   YZ=     1.3184   ZZ=    25.7867
   Eigenvalues:    24.7542    25.7782    31.7487
      8  H    Isotropic =    27.1405   Anisotropy =     5.3758
   XX=    28.3517   YX=     1.1367   ZX=    -2.2099
   XY=     1.2878   YY=    27.2979   ZY=    -1.0635
   XZ=    -3.1552   YZ=    -0.8377   ZZ=    25.7719
   Eigenvalues:    24.0763    26.6209    30.7244
      9  H    Isotropic =    27.4017   Anisotropy =     3.8400
   XX=    26.6547   YX=    -1.4207   ZX=    -0.8953
   XY=     0.3454   YY=    26.9531   ZY=     1.3128
   XZ=    -1.6208   YZ=     1.4951   ZZ=    28.5975
   Eigenvalues:    25.9723    26.2711    29.9617
     10  H    Isotropic =    27.4986   Anisotropy =     4.4556
   XX=    27.4043   YX=     1.5650   ZX=     0.6005
   XY=     1.5017   YY=    29.6715   ZY=    -1.3212
   XZ=     1.1484   YZ=    -0.3168   ZZ=    25.4201
   Eigenvalues:    24.7117    27.3152    30.4690
     11  Fe   Isotropic = -6313.5315   Anisotropy =  8558.2896
   XX= -7552.6223   YX= -2084.3586   ZX=  2615.8151
   XY= -2047.3210   YY= -6720.9119   ZY= -3304.4277
   XZ=  2609.1508   YZ= -3366.7275   ZZ= -4667.0603
   Eigenvalues: -9267.0501 -9065.5393  -608.0051
     12  C    Isotropic =   113.8010   Anisotropy =    83.5496
   XX=   125.5578   YX=    -9.8625   ZX=    16.3043
   XY=    -9.0854   YY=   116.8668   ZY=   -46.2315
   XZ=    20.1717   YZ=   -58.7738   ZZ=    98.9783
   Eigenvalues:    53.7683   118.1339   169.5007
     13  C    Isotropic =   107.4504   Anisotropy =    82.6487
   XX=    69.8203   YX=   -35.7718   ZX=     2.2169
   XY=   -35.3611   YY=   113.8518   ZY=   -24.1912
   XZ=   -19.5128   YZ=   -39.3121   ZZ=   138.6790
   Eigenvalues:    44.0246   115.7771   162.5495
     14  C    Isotropic =    87.0546   Anisotropy =    94.8818
   XX=    55.0365   YX=    -1.2745   ZX=    26.8457
   XY=    -1.4297   YY=    70.5665   ZY=   -35.4177
   XZ=     4.2858   YZ=   -26.5278   ZZ=   135.5608
   Eigenvalues:    50.1825    60.6722   150.3092
     15  C    Isotropic =    88.2534   Anisotropy =    97.4307
   XX=    82.5028   YX=   -16.2321   ZX=    30.9927
   XY=   -11.0806   YY=    55.6311   ZY=   -28.5314
   XZ=    42.4023   YZ=   -10.7810   ZZ=   126.6263
   Eigenvalues:    49.4357    62.1174   153.2072
     16  C    Isotropic =   118.5543   Anisotropy =    83.9543
   XX=   103.9519   YX=    -8.5822   ZX=    44.7741
   XY=   -21.4862   YY=   125.4898   ZY=   -12.2291
   XZ=    61.3184   YZ=    -4.4813   ZZ=   126.2211
   Eigenvalues:    60.2322   120.9068   174.5238
     17  H    Isotropic =    27.2640   Anisotropy =     6.7272
   XX=    25.9530   YX=     0.0695   ZX=    -1.1342
   XY=    -0.0522   YY=    29.7455   ZY=     3.3251
   XZ=    -1.8153   YZ=     3.1839   ZZ=    26.0935
   Eigenvalues:    23.5034    26.5398    31.7488
     18  H    Isotropic =    27.3053   Anisotropy =     8.2483
   XX=    28.1829   YX=     0.1205   ZX=    -4.3483
   XY=     3.0902   YY=    29.3379   ZY=     0.7447
   XZ=    -6.3960   YZ=    -2.0298   ZZ=    24.3951
   Eigenvalues:    20.5737    28.5381    32.8041
     19  C    Isotropic =   155.1331   Anisotropy =    15.3996
   XX=   148.9554   YX=    -3.0919   ZX=     5.5740
   XY=     0.5359   YY=   162.9855   ZY=    -4.0357
   XZ=     5.3295   YZ=    -4.8033   ZZ=   153.4584
   Eigenvalues:   145.1883   154.8115   165.3995
     20  P    Isotropic =   291.5877   Anisotropy =    60.3954
   XX=   278.3853   YX=    19.3703   ZX=    55.2238
   XY=   -19.3097   YY=   289.1042   ZY=    16.3175
   XZ=    12.7791   YZ=     6.1212   ZZ=   307.2736
   Eigenvalues:   254.7418   288.1699   331.8513
     21  H    Isotropic =    28.2520   Anisotropy =     6.9949
   XX=    31.8046   YX=    -0.2577   ZX=    -4.6404
   XY=     1.9021   YY=    29.3180   ZY=     1.3247
   XZ=    -1.6142   YZ=     0.9182   ZZ=    23.6336
   Eigenvalues:    22.3221    29.5187    32.9153
     22  C    Isotropic =   163.6404   Anisotropy =    11.0342
   XX=   164.6470   YX=     5.7566   ZX=     4.3054
   XY=     1.6381   YY=   167.2773   ZY=    -0.0555
   XZ=     8.7696   YZ=    -1.8128   ZZ=   158.9969
   Eigenvalues:   154.0803   165.8444   170.9965
     23  H    Isotropic =    30.1144   Anisotropy =     7.6619
   XX=    29.3493   YX=     1.5469   ZX=     3.2205
   XY=     4.2647   YY=    32.7814   ZY=     0.0598
   XZ=     0.7733   YZ=     3.0044   ZZ=    28.2125
   Eigenvalues:    26.6285    28.4923    35.2223
     24  H    Isotropic =    29.5185   Anisotropy =     8.0816
   XX=    26.7204   YX=    -0.7448   ZX=     2.1442
   XY=     1.9462   YY=    29.3260   ZY=    -3.8865
   XZ=     1.5116   YZ=    -3.0184   ZZ=    32.5092
   Eigenvalues:    25.3227    28.3266    34.9063
     25  H    Isotropic =    31.3018   Anisotropy =     4.2291
   XX=    32.6801   YX=    -2.5977   ZX=    -1.2641
   XY=     0.4177   YY=    30.4578   ZY=    -2.2175
   XZ=    -3.1326   YZ=    -1.0671   ZZ=    30.7676
   Eigenvalues:    27.8416    31.9427    34.1212
     26  C    Isotropic =    57.2136   Anisotropy =   187.3869
   XX=   -30.4992   YX=    -2.1413   ZX=    33.1237
   XY=     8.4028   YY=    76.3164   ZY=   -76.6219
   XZ=    20.9216   YZ=   -73.7528   ZZ=   125.8236
   Eigenvalues:   -37.9816    27.4842   182.1382
     27  C    Isotropic =    46.8321   Anisotropy =   160.4963
   XX=    -4.7282   YX=   -46.3101   ZX=    -9.9621
   XY=   -39.7334   YY=    46.7912   ZY=   -71.7930
   XZ=    -4.9868   YZ=   -77.1669   ZZ=    98.4333
   Eigenvalues:   -45.7592    32.4259   153.8296
     28  C    Isotropic =    41.0989   Anisotropy =   199.9838
   XX=    19.4041   YX=    -8.1433   ZX=    20.9240
   XY=    -6.3796   YY=    29.5604   ZY=  -101.3171
   XZ=    41.3033   YZ=  -128.6841   ZZ=    74.3323
   Eigenvalues:   -67.6203    16.4956   174.4215
     29  C    Isotropic =    36.5388   Anisotropy =   212.0979
   XX=   -37.6169   YX=   -25.4601   ZX=    39.0326
   XY=   -15.4827   YY=    51.9962   ZY=   -99.9510
   XZ=    31.7055   YZ=   -88.6254   ZZ=    95.2371
   Eigenvalues:   -46.6855   -21.6356   177.9374
     30  C    Isotropic =    42.9360   Anisotropy =   191.1743
   XX=   -16.4148   YX=   -41.6752   ZX=   -14.5465
   XY=   -60.4610   YY=    46.7355   ZY=   -88.0326
   XZ=     6.3269   YZ=   -91.7139   ZZ=    98.4874
   Eigenvalues:   -63.5785    22.0010   170.3856
     31  C    Isotropic =    48.3327   Anisotropy =   159.3415
   XX=    30.1763   YX=     8.3984   ZX=    20.0196
   XY=     4.0530   YY=    26.5465   ZY=   -87.8805
   XZ=    16.2592   YZ=   -94.2345   ZZ=    88.2752
   Eigenvalues:   -42.1425    32.5803   154.5604
     32  H    Isotropic =    23.2394   Anisotropy =    10.2873
   XX=    22.2466   YX=     2.2728   ZX=    -0.0111
   XY=     3.2765   YY=    25.9203   ZY=     5.1611
   XZ=    -0.5058   YZ=     5.4701   ZZ=    21.5513
   Eigenvalues:    17.3091    22.3115    30.0976
     33  C    Isotropic =    48.6862   Anisotropy =    14.8942
   XX=    51.3050   YX=    -4.9583   ZX=    -6.8300
   XY=    -4.4916   YY=    48.7452   ZY=     1.4465
   XZ=    -7.2034   YZ=     2.1379   ZZ=    46.0084
   Eigenvalues:    40.9212    46.5217    58.6157
     34  H    Isotropic =    24.0104   Anisotropy =    16.3345
   XX=    34.4153   YX=    -1.3722   ZX=    -2.4126
   XY=     3.5373   YY=    20.7505   ZY=    -0.0116
   XZ=    -2.9079   YZ=    -0.8027   ZZ=    16.8654
   Eigenvalues:    16.4569    20.6743    34.9001
     35  H    Isotropic =    22.6893   Anisotropy =    11.5609
   XX=    22.5536   YX=    -3.5945   ZX=    -5.0162
   XY=    -2.0923   YY=    20.5721   ZY=    -0.0187
   XZ=    -6.4445   YZ=     2.5410   ZZ=    24.9422
   Eigenvalues:    17.1776    20.4937    30.3965
     36  C    Isotropic =    48.0976   Anisotropy =    13.9673
   XX=    56.4591   YX=     2.0420   ZX=    -2.2943
   XY=     2.9339   YY=    41.4096   ZY=    -0.0058
   XZ=    -2.4254   YZ=    -1.5763   ZZ=    46.4241
   Eigenvalues:    40.9765    45.9072    57.4092
     37  C    Isotropic =    56.1784   Anisotropy =   194.0494
   XX=   178.2145   YX=    25.6707   ZX=   -18.1046
   XY=    34.4748   YY=   -31.4063   ZY=   -18.5536
   XZ=   -21.9648   YZ=   -19.0989   ZZ=    21.7270
   Eigenvalues:   -39.8712    22.8618   185.5447
     38  C    Isotropic =    46.5347   Anisotropy =   166.5728
   XX=   150.8812   YX=    18.0909   ZX=   -26.3630
   XY=    14.3657   YY=    26.3029   ZY=   -28.4215
   XZ=   -26.7465   YZ=   -24.8988   ZZ=   -37.5801
   Eigenvalues:   -49.1998    31.2206   157.5832
     39  C    Isotropic =    48.0770   Anisotropy =   196.7738
   XX=   167.2662   YX=    40.6456   ZX=   -45.2662
   XY=    29.6348   YY=    -4.7473   ZY=    33.5884
   XZ=   -32.2491   YZ=    40.4332   ZZ=   -18.2879
   Eigenvalues:   -61.1093    26.0807   179.2596
     40  C    Isotropic =    36.6069   Anisotropy =   211.4189
   XX=   167.8425   YX=    30.7477   ZX=   -24.1963
   XY=    38.8263   YY=   -40.0017   ZY=   -11.7306
   XZ=   -29.7138   YZ=    -6.9981   ZZ=   -18.0202
   Eigenvalues:   -46.6321   -21.1001   177.5529
     41  C    Isotropic =    45.2035   Anisotropy =   195.4739
   XX=   163.4880   YX=    34.9001   ZX=   -42.1218
   XY=    17.9764   YY=    19.0495   ZY=   -21.2485
   XZ=   -29.0152   YZ=   -37.2703   ZZ=   -46.9270
   Eigenvalues:   -60.7610    20.8521   175.5195
     42  C    Isotropic =    46.5779   Anisotropy =   169.9582
   XX=   149.0785   YX=    31.8668   ZX=   -33.7398
   XY=    31.5807   YY=     2.2037   ZY=    33.4379
   XZ=   -32.7702   YZ=    28.3003   ZZ=   -11.5485
   Eigenvalues:   -47.0026    26.8530   159.8833
     43  H    Isotropic =    23.5148   Anisotropy =     8.2974
   XX=    21.2419   YX=     0.6738   ZX=     2.5252
   XY=    -0.0228   YY=    21.2144   ZY=    -1.4692
   XZ=     1.8805   YZ=    -1.9586   ZZ=    28.0882
   Eigenvalues:    19.9530    21.5450    29.0464
     44  C    Isotropic =    48.1257   Anisotropy =    13.0561
   XX=    45.9897   YX=    -2.0550   ZX=     0.5492
   XY=    -2.1281   YY=    56.1790   ZY=    -1.7673
   XZ=    -0.7033   YZ=    -2.0644   ZZ=    42.2083
   Eigenvalues:    41.9169    45.6304    56.8297
     45  H    Isotropic =    23.4380   Anisotropy =    13.9656
   XX=    20.5238   YX=    -1.2524   ZX=    -0.0660
   XY=    -0.3026   YY=    28.6190   ZY=     6.4721
   XZ=    -0.5813   YZ=     7.2271   ZZ=    21.1712
   Eigenvalues:    17.0945    20.4711    32.7484
     46  H    Isotropic =    23.9255   Anisotropy =    12.6648
   XX=    23.7367   YX=    -4.4478   ZX=    -0.0014
   XY=    -3.5495   YY=    29.4394   ZY=    -3.4925
   XZ=     0.9953   YZ=    -3.7404   ZZ=    18.6002
   Eigenvalues:    17.4131    21.9946    32.3687
     47  C    Isotropic =    49.3415   Anisotropy =    11.4168
   XX=    48.6054   YX=     1.5579   ZX=    -1.6690
   XY=    -0.4350   YY=    50.7155   ZY=     7.5791
   XZ=    -0.4898   YZ=     6.7470   ZZ=    48.7037
   Eigenvalues:    42.2557    48.8162    56.9527
     48  F    Isotropic =   221.7757   Anisotropy =   150.1056
   XX=   231.0738   YX=    68.7355   ZX=   -63.5460
   XY=    69.6176   YY=   231.0227   ZY=    -3.9643
   XZ=   -63.5498   YZ=    -5.4711   ZZ=   203.2305
   Eigenvalues:   131.8235   211.6574   321.8461
     49  F    Isotropic =   251.5348   Anisotropy =   123.1070
   XX=   270.0624   YX=    31.7220   ZX=    23.9942
   XY=    15.2185   YY=   192.5210   ZY=    44.8461
   XZ=    31.4960   YZ=    59.5965   ZZ=   292.0211
   Eigenvalues:   168.9244   252.0740   333.6062
     50  F    Isotropic =   237.9551   Anisotropy =   139.0208
   XX=   272.4782   YX=   -44.5742   ZX=   -24.4359
   XY=   -53.6472   YY=   269.1658   ZY=    47.2516
   XZ=    -9.2334   YZ=    35.1426   ZZ=   172.2213
   Eigenvalues:   157.0656   226.1641   330.6356
     51  F    Isotropic =   220.7995   Anisotropy =   149.8017
   XX=   286.4951   YX=    15.2054   ZX=    70.6780
   XY=    14.9550   YY=   208.0192   ZY=   -11.1026
   XZ=    72.1421   YZ=   -13.0907   ZZ=   167.8842
   Eigenvalues:   130.4603   211.2708   320.6673
     52  F    Isotropic =   250.9928   Anisotropy =   126.3730
   XX=   262.6290   YX=   -25.0489   ZX=   -19.6488
   XY=   -29.3411   YY=   314.5532   ZY=    22.4641
   XZ=   -35.9604   YZ=    35.7748   ZZ=   175.7963
   Eigenvalues:   164.6854   253.0517   335.2415
     53  F    Isotropic =   235.7167   Anisotropy =   145.4457
   XX=   234.1395   YX=    20.3839   ZX=   -39.7831
   XY=    13.8152   YY=   232.6050   ZY=   -69.3167
   XZ=   -52.3163   YZ=   -80.4835   ZZ=   240.4056
   Eigenvalues:   155.7930   218.6766   332.6805
     54  F    Isotropic =   250.1904   Anisotropy =   137.1675
   XX=   297.6300   YX=   -14.9887   ZX=   -69.5726
   XY=    -7.1539   YY=   205.6633   ZY=   -48.3259
   XZ=   -56.5104   YZ=   -29.8173   ZZ=   247.2780
   Eigenvalues:   166.0936   242.8422   341.6354
     55  F    Isotropic =   244.1836   Anisotropy =   140.3448
   XX=   178.7808   YX=   -28.9517   ZX=   -21.6694
   XY=   -49.5188   YY=   327.1529   ZY=     2.4115
   XZ=   -18.1275   YZ=     7.6528   ZZ=   226.6172
   Eigenvalues:   163.7847   231.0194   337.7468
     56  F    Isotropic =   218.6885   Anisotropy =   150.5229
   XX=   204.5122   YX=   -44.1164   ZX=    47.5224
   XY=   -44.4066   YY=   156.1588   ZY=    -6.1126
   XZ=    46.9534   YZ=    -6.6165   ZZ=   295.3945
   Eigenvalues:   127.5754   209.4531   319.0371
     57  F    Isotropic =   255.6557   Anisotropy =   128.5900
   XX=   320.7244   YX=   -16.5462   ZX=   -35.4717
   XY=   -28.7016   YY=   192.8970   ZY=   -30.8288
   XZ=   -49.3780   YZ=   -40.8795   ZZ=   253.3456
   Eigenvalues:   166.1619   259.4227   341.3824
     58  F    Isotropic =   217.5079   Anisotropy =   158.1185
   XX=   199.9493   YX=    16.0173   ZX=     4.0591
   XY=    17.2928   YY=   288.2019   ZY=   -72.1955
   XZ=     6.8451   YZ=   -72.6553   ZZ=   164.3725
   Eigenvalues:   128.9772   200.6262   322.9203
     59  F    Isotropic =   240.5514   Anisotropy =   137.5730
   XX=   239.9364   YX=    35.6090   ZX=    47.7430
   XY=    41.4451   YY=   184.6754   ZY=     8.5215
   XZ=    58.4446   YZ=    -3.1426   ZZ=   297.0424
   Eigenvalues:   160.6554   228.7320   332.2667
     60  P    Isotropic =   303.5112   Anisotropy =    61.1693
   XX=   305.8683   YX=   -15.1305   ZX=    10.3203
   XY=   -32.6952   YY=   327.8107   ZY=    -0.3066
   XZ=   -25.7862   YZ=    11.1984   ZZ=   276.8545
   Eigenvalues:   274.9145   291.3283   344.2907
     61  C    Isotropic =    20.6525   Anisotropy =   126.7762
   XX=   -36.6628   YX=   -26.5428   ZX=   -25.2322
   XY=   -28.9365   YY=     6.5087   ZY=   -33.5938
   XZ=   -21.4813   YZ=   -34.1561   ZZ=    92.1117
   Eigenvalues:   -59.0345    15.8221   105.1700
     62  C    Isotropic =    45.9214   Anisotropy =   173.4778
   XX=   -24.8984   YX=    34.0045   ZX=    -9.6917
   XY=    22.9337   YY=    18.1778   ZY=   -42.5980
   XZ=   -18.0040   YZ=   -47.6859   ZZ=   144.4848
   Eigenvalues:   -39.4450    15.6359   161.5733
     63  C    Isotropic =    50.0248   Anisotropy =   155.1112
   XX=    49.2597   YX=    12.8503   ZX=   -12.3099
   XY=    17.1752   YY=   -29.5856   ZY=   -50.0552
   XZ=   -20.6033   YZ=   -66.7789   ZZ=   130.4003
   Eigenvalues:   -49.5144    46.1566   153.4323
     64  C    Isotropic =    39.3423   Anisotropy =   189.3844
   XX=   -25.4736   YX=   -10.1112   ZX=   -27.3221
   XY=   -13.1458   YY=     0.0712   ZY=   -56.2284
   XZ=   -22.4486   YZ=   -58.5100   ZZ=   143.4293
   Eigenvalues:   -43.2524    -4.3193   165.5986
     65  C    Isotropic =    47.7789   Anisotropy =   154.7173
   XX=   -23.8980   YX=    48.0725   ZX=    -0.6010
   XY=    50.3380   YY=    33.9064   ZY=   -28.6843
   XZ=   -13.9190   YZ=   -51.7081   ZZ=   133.3283
   Eigenvalues:   -53.1374    45.5503   150.9238
     66  C    Isotropic =    47.5915   Anisotropy =   172.4744
   XX=    20.6334   YX=    -0.9789   ZX=   -16.9294
   XY=    11.3816   YY=   -20.6565   ZY=   -53.4279
   XZ=   -14.3914   YZ=   -60.3798   ZZ=   142.7977
   Eigenvalues:   -38.5167    18.7167   162.5745
     67  H    Isotropic =    24.3568   Anisotropy =    14.7842
   XX=    32.5311   YX=     5.0517   ZX=     3.6362
   XY=     2.1863   YY=    21.7737   ZY=     0.6287
   XZ=     2.8686   YZ=    -1.5739   ZZ=    18.7655
   Eigenvalues:    17.5797    21.2778    34.2129
     68  H    Isotropic =    24.1239   Anisotropy =    12.0718
   XX=    25.2506   YX=     3.4423   ZX=     5.8135
   XY=     1.3568   YY=    25.0469   ZY=     3.6024
   XZ=     5.5952   YZ=     4.0968   ZZ=    22.0741
   Eigenvalues:    17.3246    22.8753    32.1717
     69  H    Isotropic =    27.2995   Anisotropy =     4.3520
   XX=    28.5313   YX=     3.1846   ZX=     0.8199
   XY=    -0.0134   YY=    28.3617   ZY=     1.0679
   XZ=    -0.0825   YZ=     0.8423   ZZ=    25.0055
   Eigenvalues:    24.7519    26.9457    30.2008
     70  C    Isotropic =    52.4326   Anisotropy =   183.8444
   XX=    35.8868   YX=    86.3482   ZX=    79.2321
   XY=    75.2704   YY=    85.7070   ZY=    21.4618
   XZ=    74.3727   YZ=    17.4146   ZZ=    35.7039
   Eigenvalues:   -57.5392    39.8414   174.9955
     71  C    Isotropic =    52.1845   Anisotropy =   183.3054
   XX=    92.0128   YX=    49.2285   ZX=    53.8599
   XY=    49.1521   YY=    75.8881   ZY=    72.5444
   XZ=    48.2571   YZ=    72.8888   ZZ=   -11.3475
   Eigenvalues:   -55.8886    38.0540   174.3881
     72  C    Isotropic =    43.8513   Anisotropy =   165.0753
   XX=    66.4914   YX=    86.9515   ZX=     6.8524
   XY=    91.4722   YY=    26.7567   ZY=    45.3557
   XZ=    21.4803   YZ=    53.6250   ZZ=    38.3057
   Eigenvalues:   -55.2559    32.9083   153.9015
     73  C    Isotropic =    38.5898   Anisotropy =   187.8693
   XX=    46.2043   YX=    83.8641   ZX=    63.7375
   XY=    83.1317   YY=    60.6451   ZY=    20.1197
   XZ=    80.7150   YZ=    16.7202   ZZ=     8.9198
   Eigenvalues:   -62.4419    14.3752   163.8360
     74  C    Isotropic =    33.9924   Anisotropy =   199.8351
   XX=    67.4322   YX=    77.3943   ZX=    36.6967
   XY=    78.5492   YY=    57.7270   ZY=    53.5076
   XZ=    40.9225   YZ=    70.3707   ZZ=   -23.1822
   Eigenvalues:   -56.8294    -8.4093   167.2157
     75  C    Isotropic =    38.4434   Anisotropy =   200.9676
   XX=    43.8034   YX=   118.3747   ZX=    11.9502
   XY=    98.2006   YY=    44.1280   ZY=    56.9332
   XZ=    22.1385   YZ=    59.9671   ZZ=    27.3989
   Eigenvalues:   -73.9550    16.8634   172.4219
     76  H    Isotropic =    24.1038   Anisotropy =     5.6058
   XX=    22.2797   YX=    -0.4457   ZX=    -1.4643
   XY=    -1.4406   YY=    23.9781   ZY=    -2.8551
   XZ=    -0.5701   YZ=    -2.3601   ZZ=    26.0537
   Eigenvalues:    20.8858    23.5848    27.8410
     77  H    Isotropic =    23.8403   Anisotropy =     5.0861
   XX=    24.3608   YX=    -2.4681   ZX=    -2.5487
   XY=    -2.6809   YY=    23.4792   ZY=    -0.5770
   XZ=    -2.0016   YZ=    -0.3298   ZZ=    23.6807
   Eigenvalues:    20.2474    24.0424    27.2310
     78  H    Isotropic =    22.7023   Anisotropy =     8.4538
   XX=    24.0657   YX=    -2.1828   ZX=    -3.8499
   XY=    -2.4960   YY=    20.1613   ZY=     1.0323
   XZ=    -4.0037   YZ=    -0.4926   ZZ=    23.8799
   Eigenvalues:    18.4723    21.2964    28.3382
     79  H    Isotropic =    23.4295   Anisotropy =    10.0988
   XX=    21.9031   YX=     4.1630   ZX=    -5.5817
   XY=     1.3596   YY=    21.2376   ZY=    -2.5380
   XZ=    -2.9678   YZ=     0.3316   ZZ=    27.1479
   Eigenvalues:    18.1656    21.9610    30.1620
     80  C    Isotropic =    22.2029   Anisotropy =   131.6200
   XX=   101.5510   YX=    24.2147   ZX=   -20.0625
   XY=    25.3416   YY=   -54.0035   ZY=    -8.2910
   XZ=   -18.8783   YZ=    -5.7622   ZZ=    19.0613
   Eigenvalues:   -58.0645    14.7237   109.9496
     81  C    Isotropic =    46.2109   Anisotropy =   180.9902
   XX=   155.0148   YX=    30.4048   ZX=   -36.2462
   XY=    31.1642   YY=     1.5449   ZY=    25.7264
   XZ=   -37.5323   YZ=    11.1859   ZZ=   -17.9272
   Eigenvalues:   -40.6427    12.4043   166.8710
     82  C    Isotropic =    46.4913   Anisotropy =   164.2158
   XX=   147.3376   YX=    12.6373   ZX=   -28.0679
   XY=    15.8808   YY=    23.0609   ZY=   -41.6685
   XZ=   -31.2776   YZ=   -52.9690   ZZ=   -30.9246
   Eigenvalues:   -60.1126    43.6180   155.9685
     83  C    Isotropic =    46.0965   Anisotropy =   188.9198
   XX=   157.3158   YX=    35.2994   ZX=   -45.6821
   XY=    22.8066   YY=   -35.6212   ZY=    -8.7716
   XZ=   -33.1983   YZ=    -8.7218   ZZ=    16.5949
   Eigenvalues:   -40.0747     6.3212   172.0430
     84  C    Isotropic =    45.8964   Anisotropy =   170.3017
   XX=   141.3356   YX=    43.0165   ZX=   -36.7761
   XY=    32.5926   YY=    22.1615   ZY=    28.9350
   XZ=   -53.3764   YZ=    28.9943   ZZ=   -25.8080
   Eigenvalues:   -56.0284    34.2867   159.4309
     85  C    Isotropic =    46.5820   Anisotropy =   181.6741
   XX=   154.2582   YX=    25.1304   ZX=   -34.5812
   XY=    22.6754   YY=     3.0097   ZY=   -37.8732
   XZ=   -41.0567   YZ=   -23.8447   ZZ=   -17.5218
   Eigenvalues:   -41.4182    13.4662   167.6981
     86  H    Isotropic =    24.0620   Anisotropy =    11.0372
   XX=    22.1756   YX=    -0.6476   ZX=     1.7042
   XY=    -0.9048   YY=    28.9456   ZY=    -3.6750
   XZ=     0.7878   YZ=    -6.0242   ZZ=    21.0646
   Eigenvalues:    18.5763    22.1895    31.4201
     87  H    Isotropic =    24.6566   Anisotropy =    12.4141
   XX=    22.6478   YX=     3.7757   ZX=    -3.8240
   XY=     0.2788   YY=    31.9054   ZY=     1.8532
   XZ=    -1.1042   YZ=     4.8149   ZZ=    19.4167
   Eigenvalues:    17.0623    23.9749    32.9327
     88  C    Isotropic =   167.8654   Anisotropy =    29.5991
   XX=   181.5930   YX=   -10.6652   ZX=    -2.6626
   XY=   -11.4676   YY=   165.9639   ZY=     4.2021
   XZ=     0.9506   YZ=     5.1351   ZZ=   156.0394
   Eigenvalues:   153.6498   162.3483   187.5981
     89  H    Isotropic =    29.8349   Anisotropy =     6.2685
   XX=    31.7322   YX=    -1.1567   ZX=     0.5631
   XY=     0.8076   YY=    31.9605   ZY=     4.1150
   XZ=     0.8905   YZ=     4.0609   ZZ=    25.8120
   Eigenvalues:    23.7052    31.7856    34.0139
     90  H    Isotropic =    29.2927   Anisotropy =     8.7953
   XX=    29.9995   YX=    -1.3550   ZX=     4.4571
   XY=    -2.6192   YY=    28.4703   ZY=    -0.5647
   XZ=     5.3985   YZ=    -0.5974   ZZ=    29.4083
   Eigenvalues:    24.5229    28.1990    35.1563
     91  H    Isotropic =    28.9212   Anisotropy =     8.4724
   XX=    32.8078   YX=     2.6180   ZX=    -2.4012
   XY=     1.4231   YY=    28.5207   ZY=     0.4754
   XZ=    -4.2118   YZ=     0.4979   ZZ=    25.4351
   Eigenvalues:    23.8533    28.3408    34.5695
     92  C    Isotropic =   169.5607   Anisotropy =    28.2270
   XX=   161.0643   YX=     0.0061   ZX=     1.2868
   XY=    -1.0132   YY=   186.9001   ZY=     4.1386
   XZ=     7.4215   YZ=     8.6112   ZZ=   160.7177
   Eigenvalues:   155.7036   164.5997   188.3787
     93  H    Isotropic =    29.5532   Anisotropy =     8.1131
   XX=    31.7127   YX=    -0.1526   ZX=     4.4034
   XY=    -3.5258   YY=    31.4058   ZY=     0.4785
   XZ=     5.0748   YZ=    -0.1371   ZZ=    25.5411
   Eigenvalues:    22.8455    30.8521    34.9619
     94  H    Isotropic =    28.7753   Anisotropy =     7.7766
   XX=    32.1005   YX=     1.6580   ZX=    -0.0834
   XY=     2.9479   YY=    31.1055   ZY=     0.3477
   XZ=     0.3525   YZ=    -0.9395   ZZ=    23.1198
   Eigenvalues:    23.1031    29.2630    33.9597
     95  H    Isotropic =    29.2224   Anisotropy =     8.6083
   XX=    27.7183   YX=    -0.4771   ZX=     0.4023
   XY=    -0.7861   YY=    27.3681   ZY=     3.5692
   XZ=     0.6921   YZ=     4.9245   ZZ=    32.5808
   Eigenvalues:    24.7646    27.9413    34.9613
     96  O    Isotropic =   259.4982   Anisotropy =   109.7526
   XX=   272.2936   YX=    40.4076   ZX=   -19.9445
   XY=    48.2393   YY=   242.5746   ZY=   -32.8620
   XZ=   -40.5486   YZ=   -34.1045   ZZ=   263.6264
   Eigenvalues:   208.1180   237.7101   332.6666
     97  C    Isotropic =   126.6327   Anisotropy =    84.1534
   XX=   107.4506   YX=     4.1802   ZX=    22.6339
   XY=     4.5178   YY=    97.9406   ZY=     2.1267
   XZ=    26.3605   YZ=     4.3632   ZZ=   174.5068
   Eigenvalues:    95.3387   101.8244   182.7350
     98  H    Isotropic =    28.1440   Anisotropy =     8.7192
   XX=    25.4648   YX=    -1.3261   ZX=     2.8943
   XY=    -1.7879   YY=    27.4510   ZY=     0.1174
   XZ=     5.2444   YZ=    -2.1189   ZZ=    31.5162
   Eigenvalues:    23.1982    27.2769    33.9568
     99  H    Isotropic =    27.9040   Anisotropy =     8.2211
   XX=    26.5986   YX=    -1.3510   ZX=     2.4148
   XY=    -2.2172   YY=    25.0625   ZY=     1.2705
   XZ=     1.4814   YZ=     4.6863   ZZ=    32.0510
   Eigenvalues:    22.5544    27.7729    33.3848
    100  H    Isotropic =    27.7260   Anisotropy =    10.5622
   XX=    29.8641   YX=     2.6228   ZX=     3.0556
   XY=     2.0251   YY=    25.4384   ZY=     1.4523
   XZ=     6.2393   YZ=     3.1900   ZZ=    27.8754
   Eigenvalues:    23.8690    24.5415    34.7675
    101  C    Isotropic =   167.8278   Anisotropy =    26.8788
   XX=   159.8601   YX=    -8.6593   ZX=     3.0453
   XY=    -0.3224   YY=   165.3752   ZY=   -11.5276
   XZ=     1.7074   YZ=   -11.5352   ZZ=   178.2481
   Eigenvalues:   156.2215   161.5148   185.7470
    102  H    Isotropic =    28.5626   Anisotropy =     5.1057
   XX=    27.0634   YX=     2.0656   ZX=     0.7540
   XY=     2.0655   YY=    30.9094   ZY=    -0.0651
   XZ=     1.0634   YZ=    -2.4471   ZZ=    27.7149
   Eigenvalues:    25.3715    28.3498    31.9664
    103  H    Isotropic =    29.1716   Anisotropy =    10.0462
   XX=    33.0934   YX=    -3.5370   ZX=     4.3816
   XY=    -2.0774   YY=    26.9531   ZY=    -0.0024
   XZ=     3.2158   YZ=    -1.1363   ZZ=    27.4684
   Eigenvalues:    25.0521    26.5937    35.8691
    104  H    Isotropic =    29.5036   Anisotropy =     5.8403
   XX=    26.3290   YX=    -1.5649   ZX=    -0.3999
   XY=    -1.3229   YY=    28.9904   ZY=     0.2835
   XZ=     0.0037   YZ=     1.4496   ZZ=    33.1915
   Eigenvalues:    25.6923    29.4214    33.3972
    105  C    Isotropic =   166.7326   Anisotropy =    21.9818
   XX=   161.6939   YX=    -4.6397   ZX=     3.7463
   XY=     2.6877   YY=   163.2544   ZY=     8.7314
   XZ=     6.5837   YZ=    10.3814   ZZ=   175.2494
   Eigenvalues:   155.8137   162.9969   181.3871
    106  H    Isotropic =    28.9883   Anisotropy =     3.7575
   XX=    29.1123   YX=     0.9248   ZX=     1.0690
   XY=     1.5304   YY=    30.5985   ZY=    -0.6354
   XZ=     1.4744   YZ=     1.2553   ZZ=    27.2540
   Eigenvalues:    26.5861    28.8854    31.4933
    107  H    Isotropic =    29.3182   Anisotropy =    10.1635
   XX=    30.9487   YX=    -3.9768   ZX=    -4.8470
   XY=    -2.6038   YY=    26.7308   ZY=     0.9364
   XZ=    -3.3298   YZ=     2.4729   ZZ=    30.2751
   Eigenvalues:    24.8582    27.0026    36.0939
    108  H    Isotropic =    29.8924   Anisotropy =     5.2024
   XX=    30.5842   YX=    -2.1963   ZX=     1.4620
   XY=    -1.4461   YY=    28.9005   ZY=    -0.2300
   XZ=     3.0800   YZ=    -0.9282   ZZ=    30.1926
   Eigenvalues:    27.4071    28.9095    33.3607
    109  O    Isotropic =   257.2844   Anisotropy =   112.2621
   XX=   271.3654   YX=    56.8044   ZX=   -16.9445
   XY=    39.7356   YY=   289.5218   ZY=    -2.3471
   XZ=   -27.1962   YZ=    -6.4778   ZZ=   210.9658
   Eigenvalues:   201.7777   237.9496   332.1258
    110  C    Isotropic =   126.7877   Anisotropy =    86.1688
   XX=   170.7536   YX=   -31.7707   ZX=    -9.9480
   XY=   -26.6289   YY=   113.3242   ZY=     3.3407
   XZ=   -10.0634   YZ=     2.9762   ZZ=    96.2854
   Eigenvalues:    94.8987   101.2308   184.2336
    111  H    Isotropic =    27.6004   Anisotropy =    11.0921
   XX=    27.9320   YX=    -7.3233   ZX=    -0.4618
   XY=    -3.1454   YY=    30.9750   ZY=     0.7785
   XZ=    -0.3750   YZ=     1.1027   ZZ=    23.8944
   Eigenvalues:    23.6533    24.1529    34.9952
    112  H    Isotropic =    27.7619   Anisotropy =     9.8645
   XX=    32.5927   YX=    -4.5578   ZX=     3.6779
   XY=    -3.0696   YY=    24.5145   ZY=     0.8117
   XZ=     0.1488   YZ=     1.5350   ZZ=    26.1786
   Eigenvalues:    22.1628    26.7847    34.3383
    113  H    Isotropic =    28.0905   Anisotropy =    10.3149
   XX=    32.3124   YX=    -4.2161   ZX=    -4.7781
   XY=    -2.8789   YY=    24.4331   ZY=     0.1866
   XZ=    -1.6964   YZ=     0.1591   ZZ=    27.5260
   Eigenvalues:    22.8114    26.4930    34.9671
 End of Minotr F.D. properties file   721 does not exist.
 End of Minotr F.D. properties file   722 does not exist.
 End of Minotr F.D. properties file   788 does not exist.
 Hyperfine terms turned off by default for NAtoms > 100.

 **********************************************************************

            Population analysis using the SCF Density.

 **********************************************************************

 Orbital symmetries:
       Occupied  (A) (A) (A) (A) (A) (A) (A) (A) (A) (A) (A) (A)
                 (A) (A) (A) (A) (A) (A) (A) (A) (A) (A) (A) (A)
                 (A) (A) (A) (A) (A) (A) (A) (A) (A) (A) (A) (A)
                 (A) (A) (A) (A) (A) (A) (A) (A) (A) (A) (A) (A)
                 (A) (A) (A) (A) (A) (A) (A) (A) (A) (A) (A) (A)
                 (A) (A) (A) (A) (A) (A) (A) (A) (A) (A) (A) (A)
                 (A) (A) (A) (A) (A) (A) (A) (A) (A) (A) (A) (A)
                 (A) (A) (A) (A) (A) (A) (A) (A) (A) (A) (A) (A)
                 (A) (A) (A) (A) (A) (A) (A) (A) (A) (A) (A) (A)
                 (A) (A) (A) (A) (A) (A) (A) (A) (A) (A) (A) (A)
                 (A) (A) (A) (A) (A) (A) (A) (A) (A) (A) (A) (A)
                 (A) (A) (A) (A) (A) (A) (A) (A) (A) (A) (A) (A)
                 (A) (A) (A) (A) (A) (A) (A) (A) (A) (A) (A) (A)
                 (A) (A) (A) (A) (A) (A) (A) (A) (A) (A) (A) (A)
                 (A) (A) (A) (A) (A) (A) (A) (A) (A) (A) (A) (A)
                 (A) (A) (A) (A) (A) (A) (A) (A) (A) (A) (A) (A)
                 (A) (A) (A) (A) (A) (A) (A) (A) (A) (A) (A) (A)
                 (A) (A) (A) (A) (A) (A) (A) (A) (A) (A) (A) (A)
                 (A) (A) (A) (A) (A) (A) (A) (A) (A) (A) (A) (A)
                 (A) (A) (A) (A) (A) (A) (A) (A) (A) (A) (A) (A)
                 (A) (A) (A) (A) (A) (A) (A) (A) (A) (A) (A) (A)
                 (A) (A) (A) (A) (A) (A) (A) (A) (A) (A) (A)
       Virtual   (A) (A) (A) (A) (A) (A) (A) (A) (A) (A) (A) (A)
                 (A) (A) (A) (A) (A) (A) (A) (A) (A) (A) (A) (A)
                 (A) (A) (A) (A) (A) (A) (A) (A) (A) (A) (A) (A)
                 (A) (A) (A) (A) (A) (A) (A) (A) (A) (A) (A) (A)
                 (A) (A) (A) (A) (A) (A) (A) (A) (A) (A) (A) (A)
                 (A) (A) (A) (A) (A) (A) (A) (A) (A) (A) (A) (A)
                 (A) (A) (A) (A) (A) (A) (A) (A) (A) (A) (A) (A)
                 (A) (A) (A) (A) (A) (A) (A) (A) (A) (A) (A) (A)
                 (A) (A) (A) (A) (A) (A) (A) (A) (A) (A) (A) (A)
                 (A) (A) (A) (A) (A) (A) (A) (A) (A) (A) (A) (A)
                 (A) (A) (A) (A) (A) (A) (A) (A) (A) (A) (A) (A)
                 (A) (A) (A) (A) (A) (A) (A) (A) (A) (A) (A) (A)
                 (A) (A) (A) (A) (A) (A) (A) (A) (A) (A) (A) (A)
                 (A) (A) (A) (A) (A) (A) (A) (A) (A) (A) (A) (A)
                 (A) (A) (A) (A) (A) (A) (A) (A) (A) (A) (A) (A)
                 (A) (A) (A) (A) (A) (A) (A) (A) (A) (A) (A) (A)
                 (A) (A) (A) (A) (A) (A) (A) (A) (A) (A) (A) (A)
                 (A) (A) (A) (A) (A) (A) (A) (A) (A) (A) (A) (A)
                 (A) (A) (A) (A) (A) (A) (A) (A) (A) (A) (A) (A)
                 (A) (A) (A) (A) (A) (A) (A) (A) (A) (A) (A) (A)
                 (A) (A) (A) (A) (A) (A) (A) (A) (A) (A) (A) (A)
                 (A) (A) (A) (A) (A) (A) (A) (A) (A) (A) (A) (A)
                 (A) (A) (A) (A) (A) (A) (A) (A) (A) (A) (A) (A)
                 (A) (A) (A) (A) (A) (A) (A) (A) (A) (A) (A) (A)
                 (A) (A) (A) (A) (A) (A) (A) (A) (A) (A) (A) (A)
                 (A) (A) (A) (A) (A) (A) (A) (A) (A) (A) (A) (A)
                 (A) (A) (A) (A) (A) (A) (A) (A) (A) (A) (A) (A)
                 (A) (A) (A) (A) (A) (A) (A) (A) (A) (A) (A) (A)
                 (A) (A) (A) (A) (A) (A) (A) (A) (A) (A) (A) (A)
                 (A) (A) (A) (A) (A) (A) (A) (A) (A) (A) (A) (A)
                 (A) (A) (A) (A) (A) (A) (A) (A) (A) (A) (A) (A)
                 (A) (A) (A) (A) (A) (A) (A) (A) (A) (A) (A) (A)
                 (A) (A) (A) (A) (A) (A) (A) (A) (A) (A) (A) (A)
                 (A) (A) (A) (A) (A) (A) (A) (A) (A) (A) (A) (A)
                 (A) (A) (A) (A) (A) (A) (A) (A) (A) (A) (A) (A)
                 (A) (A) (A) (A) (A) (A) (A) (A) (A) (A) (A) (A)
                 (A) (A) (A) (A) (A) (A) (A) (A) (A) (A) (A) (A)
                 (A) (A) (A) (A) (A) (A) (A) (A) (A) (A) (A) (A)
                 (A) (A) (A) (A) (A) (A) (A) (A) (A) (A) (A) (A)
                 (A) (A) (A) (A) (A) (A) (A) (A) (A) (A) (A) (A)
                 (A) (A) (A) (A) (A) (A) (A) (A) (A) (A) (A) (A)
                 (A) (A) (A) (A) (A) (A) (A) (A) (A) (A) (A) (A)
                 (A) (A) (A) (A) (A) (A) (A) (A) (A) (A) (A) (A)
                 (A) (A) (A) (A) (A) (A) (A) (A) (A) (A) (A) (A)
                 (A) (A) (A) (A) (A) (A) (A) (A) (A) (A) (A) (A)
                 (A) (A) (A) (A) (A) (A) (A) (A) (A) (A) (A) (A)
                 (A) (A) (A) (A) (A) (A) (A) (A) (A) (A) (A) (A)
                 (A) (A) (A) (A) (A) (A) (A) (A) (A) (A) (A) (A)
                 (A) (A) (A) (A) (A) (A) (A) (A) (A) (A) (A) (A)
                 (A) (A) (A) (A) (A) (A) (A) (A) (A) (A) (A) (A)
                 (A) (A) (A) (A) (A) (A) (A) (A) (A) (A) (A) (A)
                 (A) (A) (A) (A) (A) (A) (A) (A) (A) (A) (A) (A)
                 (A) (A) (A) (A) (A) (A) (A) (A) (A) (A) (A) (A)
                 (A) (A) (A) (A) (A) (A) (A) (A) (A) (A) (A) (A)
                 (A) (A) (A) (A) (A) (A) (A) (A) (A) (A) (A) (A)
                 (A) (A) (A) (A) (A) (A) (A) (A) (A) (A) (A) (A)
                 (A) (A) (A) (A) (A) (A) (A) (A) (A) (A) (A) (A)
                 (A) (A) (A) (A) (A) (A) (A) (A) (A) (A) (A) (A)
                 (A) (A) (A) (A) (A) (A) (A) (A) (A) (A) (A) (A)
                 (A) (A) (A) (A) (A) (A) (A) (A) (A) (A) (A) (A)
                 (A) (A) (A) (A) (A) (A) (A) (A) (A) (A) (A) (A)
                 (A) (A) (A) (A) (A) (A) (A) (A) (A) (A) (A) (A)
                 (A) (A) (A) (A) (A) (A) (A) (A) (A) (A) (A) (A)
                 (A) (A) (A) (A) (A) (A) (A) (A) (A) (A) (A) (A)
                 (A) (A) (A) (A) (A) (A) (A) (A) (A) (A) (A) (A)
                 (A) (A) (A) (A) (A) (A) (A) (A) (A) (A) (A) (A)
                 (A) (A) (A) (A) (A) (A) (A) (A) (A) (A) (A) (A)
                 (A) (A) (A) (A) (A) (A) (A) (A) (A) (A) (A) (A)
                 (A) (A) (A) (A) (A) (A) (A) (A) (A) (A) (A) (A)
                 (A) (A) (A) (A) (A) (A) (A) (A) (A) (A) (A) (A)
                 (A) (A) (A) (A) (A) (A) (A) (A) (A) (A) (A) (A)
                 (A) (A) (A) (A) (A) (A) (A) (A) (A) (A) (A) (A)
                 (A) (A) (A) (A) (A) (A) (A) (A) (A) (A) (A) (A)
                 (A) (A) (A) (A) (A) (A) (A) (A) (A) (A) (A) (A)
                 (A) (A) (A) (A) (A) (A) (A) (A) (A) (A) (A) (A)
                 (A) (A) (A) (A) (A) (A) (A) (A) (A) (A) (A) (A)
                 (A) (A) (A) (A) (A) (A) (A) (A) (A) (A) (A) (A)
                 (A) (A) (A) (A) (A) (A) (A) (A) (A) (A) (A) (A)
                 (A) (A) (A) (A) (A) (A) (A) (A) (A) (A) (A) (A)
                 (A) (A) (A) (A) (A) (A) (A) (A) (A) (A) (A) (A)
                 (A) (A) (A) (A) (A) (A) (A) (A) (A) (A) (A) (A)
                 (A) (A) (A) (A) (A) (A) (A) (A) (A) (A) (A) (A)
                 (A) (A) (A) (A) (A) (A) (A) (A) (A) (A) (A) (A)
                 (A) (A) (A) (A) (A) (A) (A) (A) (A) (A) (A) (A)
                 (A) (A) (A) (A) (A) (A) (A) (A) (A) (A) (A) (A)
                 (A) (A) (A) (A) (A) (A) (A) (A) (A) (A) (A) (A)
                 (A) (A) (A) (A) (A) (A) (A) (A) (A) (A) (A) (A)
                 (A) (A) (A) (A) (A) (A) (A) (A) (A) (A) (A) (A)
                 (A) (A) (A) (A) (A) (A) (A) (A) (A) (A) (A) (A)
                 (A) (A) (A) (A) (A) (A) (A) (A) (A) (A) (A) (A)
                 (A) (A) (A) (A) (A) (A) (A) (A) (A) (A) (A) (A)
                 (A) (A) (A) (A) (A) (A) (A) (A) (A) (A) (A) (A)
                 (A) (A) (A) (A) (A) (A) (A) (A) (A) (A) (A) (A)
                 (A) (A) (A) (A) (A) (A) (A) (A) (A) (A) (A) (A)
                 (A) (A) (A) (A) (A) (A) (A) (A) (A) (A) (A) (A)
                 (A) (A) (A) (A) (A) (A) (A) (A) (A) (A) (A) (A)
                 (A) (A) (A) (A) (A) (A) (A) (A) (A) (A) (A) (A)
                 (A) (A) (A) (A) (A) (A) (A) (A) (A) (A) (A) (A)
                 (A) (A) (A) (A) (A) (A) (A) (A) (A) (A) (A) (A)
                 (A) (A) (A) (A) (A) (A) (A) (A) (A) (A) (A) (A)
                 (A) (A) (A) (A) (A) (A) (A) (A) (A) (A) (A) (A)
                 (A) (A) (A) (A) (A) (A) (A) (A) (A) (A) (A) (A)
                 (A) (A) (A) (A) (A) (A) (A) (A) (A) (A) (A) (A)
                 (A) (A) (A) (A) (A) (A) (A) (A) (A) (A) (A) (A)
                 (A) (A) (A) (A) (A) (A) (A) (A) (A) (A) (A) (A)
                 (A) (A) (A) (A) (A) (A) (A) (A) (A) (A) (A) (A)
                 (A) (A) (A) (A) (A) (A) (A) (A) (A) (A) (A) (A)
                 (A) (A) (A) (A) (A) (A) (A) (A) (A) (A) (A) (A)
                 (A) (A) (A) (A) (A) (A) (A) (A) (A) (A) (A) (A)
                 (A) (A) (A) (A) (A) (A) (A) (A) (A) (A) (A) (A)
                 (A) (A) (A) (A) (A) (A) (A) (A) (A) (A) (A) (A)
                 (A) (A) (A) (A) (A) (A) (A) (A) (A) (A) (A) (A)
                 (A) (A) (A) (A) (A) (A) (A) (A) (A) (A) (A) (A)
                 (A) (A) (A) (A) (A) (A) (A) (A) (A) (A) (A) (A)
                 (A) (A) (A) (A) (A) (A) (A) (A) (A) (A) (A) (A)
                 (A) (A) (A) (A) (A) (A) (A) (A) (A) (A) (A) (A)
                 (A) (A) (A) (A) (A) (A) (A) (A) (A) (A) (A) (A)
                 (A) (A) (A) (A) (A) (A) (A) (A) (A) (A) (A) (A)
                 (A) (A) (A) (A) (A) (A) (A) (A) (A) (A) (A) (A)
                 (A) (A) (A) (A) (A) (A) (A) (A) (A) (A) (A) (A)
                 (A) (A) (A) (A) (A) (A) (A) (A) (A) (A) (A) (A)
                 (A) (A) (A) (A) (A) (A) (A) (A) (A) (A) (A) (A)
                 (A) (A) (A) (A) (A) (A) (A) (A) (A) (A) (A) (A)
                 (A) (A) (A) (A) (A) (A) (A) (A) (A) (A) (A) (A)
                 (A) (A) (A) (A) (A) (A) (A) (A) (A) (A) (A) (A)
                 (A) (A) (A) (A) (A) (A) (A) (A) (A) (A) (A) (A)
                 (A) (A) (A) (A) (A) (A) (A) (A) (A) (A) (A) (A)
                 (A) (A) (A) (A) (A) (A) (A) (A) (A) (A) (A) (A)
                 (A) (A) (A) (A) (A) (A) (A) (A) (A) (A) (A) (A)
                 (A) (A) (A) (A) (A) (A) (A) (A) (A) (A) (A) (A)
                 (A) (A) (A) (A) (A) (A) (A) (A) (A) (A) (A) (A)
                 (A) (A) (A) (A) (A) (A) (A) (A) (A) (A) (A) (A)
                 (A) (A) (A) (A) (A) (A) (A) (A) (A) (A) (A) (A)
                 (A) (A) (A) (A) (A) (A) (A) (A) (A) (A) (A) (A)
                 (A) (A) (A) (A) (A) (A) (A) (A) (A) (A) (A) (A)
                 (A) (A) (A) (A) (A) (A) (A) (A) (A) (A) (A) (A)
                 (A) (A) (A) (A) (A) (A) (A) (A) (A) (A) (A) (A)
                 (A) (A) (A) (A) (A) (A) (A) (A) (A) (A) (A) (A)
                 (A) (A) (A) (A) (A) (A) (A) (A) (A) (A) (A) (A)
                 (A) (A) (A) (A) (A) (A) (A) (A) (A) (A) (A) (A)
                 (A) (A) (A) (A) (A) (A) (A) (A) (A) (A) (A) (A)
                 (A) (A) (A) (A) (A) (A) (A) (A) (A) (A) (A) (A)
                 (A) (A) (A) (A) (A) (A) (A) (A) (A) (A) (A) (A)
                 (A) (A) (A) (A) (A) (A) (A) (A) (A) (A) (A) (A)
                 (A) (A) (A) (A) (A) (A) (A) (A) (A) (A) (A) (A)
                 (A) (A) (A) (A) (A) (A) (A) (A) (A) (A) (A) (A)
                 (A) (A) (A) (A) (A) (A) (A) (A) (A) (A) (A) (A)
                 (A) (A) (A) (A) (A) (A) (A) (A) (A) (A) (A) (A)
                 (A) (A) (A) (A) (A) (A) (A) (A) (A) (A) (A) (A)
                 (A) (A) (A) (A) (A) (A) (A) (A) (A) (A) (A) (A)
                 (A) (A) (A) (A) (A) (A) (A) (A) (A) (A) (A) (A)
                 (A) (A) (A) (A) (A) (A) (A) (A) (A) (A) (A) (A)
                 (A) (A) (A) (A) (A) (A) (A) (A) (A) (A) (A) (A)
                 (A) (A) (A) (A) (A) (A) (A) (A) (A) (A) (A) (A)
                 (A) (A) (A) (A) (A) (A) (A) (A) (A) (A) (A) (A)
                 (A) (A) (A) (A) (A) (A) (A) (A) (A) (A) (A) (A)
                 (A) (A) (A) (A) (A) (A) (A) (A) (A) (A) (A) (A)
                 (A) (A) (A) (A) (A) (A) (A) (A) (A) (A) (A) (A)
                 (A) (A) (A) (A) (A) (A) (A) (A) (A) (A) (A) (A)
                 (A) (A) (A) (A) (A) (A) (A) (A) (A) (A) (A) (A)
                 (A) (A) (A) (A) (A) (A) (A) (A) (A) (A) (A) (A)
                 (A) (A) (A) (A) (A) (A) (A) (A) (A) (A) (A) (A)
                 (A) (A) (A) (A) (A) (A) (A) (A) (A) (A) (A) (A)
                 (A) (A) (A) (A) (A) (A) (A) (A) (A) (A) (A) (A)
                 (A) (A) (A) (A) (A) (A) (A) (A) (A) (A) (A) (A)
                 (A) (A) (A) (A) (A) (A) (A) (A) (A) (A) (A) (A)
                 (A) (A) (A) (A) (A) (A) (A) (A) (A) (A) (A) (A)
                 (A) (A) (A) (A) (A) (A) (A) (A) (A) (A) (A) (A)
                 (A) (A) (A) (A) (A) (A) (A) (A) (A) (A) (A) (A)
                 (A) (A) (A) (A) (A) (A) (A) (A) (A) (A) (A) (A)
                 (A) (A) (A) (A) (A) (A) (A) (A) (A) (A) (A) (A)
                 (A) (A) (A) (A) (A) (A) (A) (A) (A) (A) (A) (A)
                 (A) (A) (A) (A) (A) (A) (A) (A) (A) (A) (A) (A)
                 (A) (A) (A) (A) (A) (A) (A) (A) (A) (A) (A) (A)
                 (A) (A) (A) (A) (A) (A) (A) (A) (A) (A) (A) (A)
                 (A) (A) (A) (A) (A) (A) (A) (A) (A) (A) (A) (A)
                 (A) (A) (A) (A) (A) (A) (A) (A) (A) (A) (A) (A)
                 (A) (A) (A) (A) (A) (A) (A) (A) (A) (A) (A) (A)
                 (A) (A) (A) (A) (A) (A) (A) (A) (A) (A) (A) (A)
                 (A) (A) (A) (A) (A) (A) (A) (A) (A) (A) (A) (A)
                 (A) (A) (A) (A)
 The electronic state is 1-A.
 Alpha  occ. eigenvalues --  -77.21691 -77.20287 -24.81723 -24.81598 -24.81500
 Alpha  occ. eigenvalues --  -24.81285 -24.81221 -24.81125 -24.81119 -24.81091
 Alpha  occ. eigenvalues --  -24.81048 -24.80784 -24.80554 -24.80499 -19.22757
 Alpha  occ. eigenvalues --  -19.22710 -10.49135 -10.48926 -10.48777 -10.48429
 Alpha  occ. eigenvalues --  -10.28333 -10.28208 -10.28092 -10.28043 -10.27960
 Alpha  occ. eigenvalues --  -10.27878 -10.27690 -10.27609 -10.27571 -10.27265
 Alpha  occ. eigenvalues --  -10.27253 -10.27198 -10.27190 -10.27137 -10.27120
 Alpha  occ. eigenvalues --  -10.27045 -10.26284 -10.25562 -10.25540 -10.25235
 Alpha  occ. eigenvalues --  -10.24786 -10.24453 -10.24420 -10.24409 -10.24403
 Alpha  occ. eigenvalues --  -10.24365 -10.24344 -10.24331 -10.24307 -10.24305
 Alpha  occ. eigenvalues --  -10.24257 -10.24198 -10.24107 -10.23994 -10.23935
 Alpha  occ. eigenvalues --  -10.23715 -10.23664 -10.23630 -10.23570 -10.23391
 Alpha  occ. eigenvalues --  -10.23258 -10.23160 -10.22875 -10.22779 -10.22440
[...]
  2248. RY*(  24) O 109                  0.00000     5.35100   
  2249. RY*(  25) O 109                  0.00000     5.57842   
  2250. RY*(  26) O 109                  0.00000     5.84352   
  2251. RY*(   1) C 110                  0.00210     1.59054   
  2252. RY*(   2) C 110                  0.00203     1.48961   
  2253. RY*(   3) C 110                  0.00151     1.11398   
  2254. RY*(   4) C 110                  0.00019     1.04493   
  2255. RY*(   5) C 110                  0.00012     1.59791   
  2256. RY*(   6) C 110                  0.00008     1.18071   
  2257. RY*(   7) C 110                  0.00006     1.65550   
  2258. RY*(   8) C 110                  0.00004     1.65288   
  2259. RY*(   9) C 110                  0.00000    21.26032   
  2260. RY*(  10) C 110                  0.00001     1.88799   
  2261. RY*(  11) C 110                  0.00000     2.79417   
  2262. RY*(  12) C 110                  0.00001     1.95128   
  2263. RY*(  13) C 110                  0.00001     2.74177   
  2264. RY*(  14) C 110                  0.00000     2.48290   
  2265. RY*(  15) C 110                  0.00000     2.78042   
  2266. RY*(  16) C 110                  0.00000     3.18255   
  2267. RY*(  17) C 110                  0.00000     2.65132   
  2268. RY*(  18) C 110                  0.00000     2.57286   
  2269. RY*(  19) C 110                  0.00000     2.57793   
  2270. RY*(  20) C 110                  0.00000     3.28777   
  2271. RY*(  21) C 110                  0.00000     3.67608   
  2272. RY*(  22) C 110                  0.00000     3.46806   
  2273. RY*(  23) C 110                  0.00000     3.31657   
  2274. RY*(  24) C 110                  0.00000     3.44687   
  2275. RY*(  25) C 110                  0.00000     3.42756   
  2276. RY*(  26) C 110                  0.00000     3.71982   
  2277. RY*(   1) H 111                  0.00050     1.00703   
  2278. RY*(   2) H 111                  0.00013     2.04230   
  2279. RY*(   3) H 111                  0.00010     1.62112   
  2280. RY*(   4) H 111                  0.00007     2.01554   
  2281. RY*(   5) H 111                  0.00001     2.77599   
  2282. RY*(   1) H 112                  0.00117     0.77770   
  2283. RY*(   2) H 112                  0.00015     1.97772   
  2284. RY*(   3) H 112                  0.00012     2.15571   
  2285. RY*(   4) H 112                  0.00008     1.92602   
  2286. RY*(   5) H 112                  0.00002     2.85977   
  2287. RY*(   1) H 113                  0.00116     0.77739   
  2288. RY*(   2) H 113                  0.00014     1.98816   
  2289. RY*(   3) H 113                  0.00011     2.13444   
  2290. RY*(   4) H 113                  0.00008     1.91831   
  2291. RY*(   5) H 113                  0.00001     2.82183   
  2304. BD*(   1) C  12 - C  13          0.02940     0.43751   
  2305. BD*(   1) C  12 - C  16          0.03489     0.42567   
  2306. BD*(   2) C  12 - C  16          0.44823     0.03937  2311(v),227(v),2305(g)
                                                    2297(r),221(r),224(r),458(g)
                                                    456(g),563(g),2307(g)
                                                    2314(v),2313(g),2315(g)
                                                    225(r),426(r),2294(r),217(r)
                                                    222(r),223(r),448(r),226(r)
  2307. BD*(   1) C  12 - H  17          0.01444     0.39917   
  2308. BD*(   1) C  13 - C  14          0.04281     0.43538   
  2309. BD*(   1) C  13 - H  69          0.01607     0.40155   
  2310. BD*(   1) C  14 - C  15          0.05064     0.43367   
  2311. BD*(   2) C  14 - C  15          0.47349     0.03864  2306(v),2391(v),227(v)
                                                    2297(r),2310(g),2294(r)
                                                    221(r),2316(v),224(r),222(r)
                                                    2390(v),2388(v),2318(v)
                                                    2320(r),512(g),538(g)
                                                    2314(g),225(r),217(r),223(r)
                                                    226(r),427(r),448(r),434(r)
                                                    429(r),439(r),445(r),438(r)
  2312. BD*(   1) C  14 - C  73          0.03163     0.44114   
  2313. BD*(   1) C  15 - C  16          0.02561     0.44653   
  2314. BD*(   1) C  15 - C  19          0.03114     0.38141   
  2315. BD*(   1) C  16 - H  18          0.01586     0.40870   
  2316. BD*(   1) C  19 - P  20          0.04781     0.16907   
  2317. BD*(   1) C  19 - H  21          0.02087     0.35434   
  2318. BD*(   1) C  19 - C  22          0.02139     0.33186   
  2319. BD*(   1) P  20 - C  29          0.04908     0.20725   
  2320. BD*(   1) P  20 - C  40          0.03491     0.21383   
  2321. BD*(   1) C  22 - H  23          0.00781     0.36978   
  2322. BD*(   1) C  22 - H  24          0.01005     0.36961   
  2323. BD*(   1) C  22 - H  25          0.00897     0.36690   
  2324. BD*(   1) C  26 - C  27          0.01959     0.49795   
  2325. BD*(   1) C  26 - C  31          0.01995     0.49731   
  2326. BD*(   2) C  26 - C  31          0.35077    -0.00957  2329(v),2334(v),2342(v)
                                                    2343(v),697(g)
  2327. BD*(   1) C  26 - H  32          0.01229     0.38008   
  2328. BD*(   1) C  27 - C  28          0.02402     0.49554   
  2329. BD*(   2) C  27 - C  28          0.33724    -0.00490  2334(v),2326(v),2340(v)
                                                    2351(r),2339(v),750(g)
                                                    2338(v)
  2330. BD*(   1) C  27 - C  33          0.06653     0.30151   
  2331. BD*(   1) C  28 - C  29          0.03020     0.50389   
  2332. BD*(   1) C  28 - H  34          0.01611     0.38748   
  2333. BD*(   1) C  29 - C  30          0.02271     0.50268   
  2334. BD*(   2) C  29 - C  30          0.33741    -0.00339  2329(v),2326(v),2351(r)
                                                    2316(v),801(g)
  2335. BD*(   1) C  30 - C  31          0.02291     0.49616   
  2336. BD*(   1) C  30 - H  35          0.01528     0.38624   
  2337. BD*(   1) C  31 - C  36          0.06590     0.30013   
  2338. BD*(   1) C  33 - F  54          0.08965     0.20335   
  2339. BD*(   1) C  33 - F  55          0.09115     0.20224   
  2340. BD*(   1) C  33 - F  56          0.10031     0.19818  2329(v),2339(g),862(g)
  2341. BD*(   1) C  36 - F  57          0.08730     0.20065   
  2342. BD*(   1) C  36 - F  58          0.10311     0.18555  2326(v),898(g)
  2343. BD*(   1) C  36 - F  59          0.09149     0.20460   
  2344. BD*(   1) C  37 - C  38          0.01987     0.50660   
  2345. BD*(   2) C  37 - C  38          0.33716    -0.00248  2351(v),2355(v),2358(v)
                                                    2360(v),920(g)
  2346. BD*(   1) C  37 - C  42          0.02005     0.50066   
  2347. BD*(   1) C  37 - H  43          0.01225     0.38544   
  2348. BD*(   1) C  38 - C  39          0.02395     0.49870   
  2349. BD*(   1) C  38 - C  44          0.06593     0.30480   
  2350. BD*(   1) C  39 - C  40          0.02932     0.51205   
  2351. BD*(   2) C  39 - C  40          0.34190    -0.00217  2345(v),2355(v),2334(r)
                                                    2319(v),971(g),2329(r)
                                                    999(g)
  2352. BD*(   1) C  39 - H  45          0.01559     0.38897   
  2353. BD*(   1) C  40 - C  41          0.02173     0.49286   
  2354. BD*(   1) C  41 - C  42          0.02258     0.50897   
  2355. BD*(   2) C  41 - C  42          0.31632     0.00325  2351(v),2345(v),2361(v)
                                                    2363(v),1024(g),2362(v)
  2356. BD*(   1) C  41 - H  46          0.01529     0.38505   
  2357. BD*(   1) C  42 - C  47          0.06730     0.30538   
  2358. BD*(   1) C  44 - F  51          0.09774     0.20135   
  2359. BD*(   1) C  44 - F  52          0.08817     0.20116   
  2360. BD*(   1) C  44 - F  53          0.09596     0.19196   
  2361. BD*(   1) C  47 - F  48          0.09884     0.20575   
  2362. BD*(   1) C  47 - F  49          0.08892     0.20747   
  2363. BD*(   1) C  47 - F  50          0.09204     0.20485   
  2364. BD*(   1) P  60 - C  64          0.04761     0.23385   
  2365. BD*(   1) P  60 - C  74          0.03974     0.21528   
  2366. BD*(   1) P  60 - C  83          0.03265     0.23406   
  2367. BD*(   1) C  61 - C  62          0.03863     0.51786   
  2368. BD*(   1) C  61 - C  66          0.03995     0.51480   
  2369. BD*(   2) C  61 - C  66          0.37400     0.03303  2377(v),2372(v),2413(v)
                                                    2414(v),2412(v)
  2370. BD*(   1) C  61 - O  96          0.02754     0.33769   
  2371. BD*(   1) C  62 - C  63          0.02184     0.54824   
  2372. BD*(   2) C  62 - C  63          0.34763     0.03847  2369(v),2377(v),2399(r)
                                                    2409(v),1535(g),2410(v)
                                                    2383(r)
  2373. BD*(   1) C  62 - C  88          0.01422     0.38933   
  2374. BD*(   1) C  63 - C  64          0.02739     0.54446   
  2375. BD*(   1) C  63 - H  67          0.01789     0.41357   
  2376. BD*(   1) C  64 - C  65          0.02065     0.53972   
  2377. BD*(   2) C  64 - C  65          0.38551     0.02998  2369(v),2372(v),2391(r)
                                                    2383(r),1587(g),2365(v)
                                                    1562(g),1535(v)
  2378. BD*(   1) C  65 - C  66          0.02069     0.54943   
  2379. BD*(   1) C  65 - H  68          0.01744     0.40962   
  2380. BD*(   1) C  66 - C  92          0.01378     0.38864   
  2381. BD*(   1) C  70 - C  71          0.01486     0.53435   
  2382. BD*(   1) C  70 - C  75          0.01865     0.54627   
  2383. BD*(   2) C  70 - C  75          0.30473     0.02805  2391(v),2386(v),2377(r)
                                                    2404(r),1654(g)
  2384. BD*(   1) C  70 - H  76          0.01447     0.39911   
  2385. BD*(   1) C  71 - C  72          0.01439     0.54910   
  2386. BD*(   2) C  71 - C  72          0.31416     0.02621  2391(v),2383(v),1680(g)
                                                    1706(g),2294(r)
  2387. BD*(   1) C  71 - H  77          0.01354     0.39994   
  2388. BD*(   1) C  72 - C  73          0.02728     0.52209   
  2389. BD*(   1) C  72 - H  78          0.01459     0.42603   
  2390. BD*(   1) C  73 - C  74          0.03528     0.52003   
  2391. BD*(   2) C  73 - C  74          0.37452     0.02800  2383(v),2386(v),2377(r)
                                                    2311(v),2308(v),2364(v)
                                                    2310(v),1731(g),2404(r)
                                                    1759(g),1706(v),2366(v)
  2392. BD*(   1) C  74 - C  75          0.02766     0.51645   
  2393. BD*(   1) C  75 - H  79          0.01688     0.41322   
  2394. BD*(   1) C  80 - C  81          0.04119     0.51414   
  2395. BD*(   1) C  80 - C  85          0.03997     0.51857   
  2396. BD*(   2) C  80 - C  85          0.37113     0.03258  2399(v),2404(v),2422(v)
                                                    2424(v),2421(v)
  2397. BD*(   1) C  80 - O 109          0.02815     0.33806   
  2398. BD*(   1) C  81 - C  82          0.02114     0.54283   
  2399. BD*(   2) C  81 - C  82          0.34446     0.03437  2396(v),2404(v),2372(r)
                                                    2419(v),1882(g)
  2400. BD*(   1) C  81 - C 101          0.01395     0.38913   
  2401. BD*(   1) C  82 - C  83          0.02113     0.52746   
  2402. BD*(   1) C  82 - H  86          0.01670     0.40368   
  2403. BD*(   1) C  83 - C  84          0.02522     0.53179   
  2404. BD*(   2) C  83 - C  84          0.39840     0.02434  2396(v),2399(v),2383(r)
                                                    1934(g),2364(v),2391(r)
                                                    1909(g),1882(v)
  2405. BD*(   1) C  84 - C  85          0.02237     0.54165   
  2406. BD*(   1) C  84 - H  87          0.01786     0.41502   
  2407. BD*(   1) C  85 - C 105          0.01444     0.38942   
  2408. BD*(   1) C  88 - H  89          0.00544     0.37274   
  2409. BD*(   1) C  88 - H  90          0.01090     0.36039   
  2410. BD*(   1) C  88 - H  91          0.00828     0.37285   
  2411. BD*(   1) C  92 - H  93          0.00658     0.36961   
  2412. BD*(   1) C  92 - H  94          0.00711     0.37419   
  2413. BD*(   1) C  92 - H  95          0.01122     0.35784   
  2414. BD*(   1) O  96 - C  97          0.01042     0.27279   
  2415. BD*(   1) C  97 - H  98          0.02167     0.34019   
  2416. BD*(   1) C  97 - H  99          0.02231     0.34176   
  2417. BD*(   1) C  97 - H 100          0.01097     0.35146   
  2418. BD*(   1) C 101 - H 102          0.00760     0.37893   
  2419. BD*(   1) C 101 - H 103          0.01193     0.36013   
  2420. BD*(   1) C 101 - H 104          0.00606     0.37449   
  2421. BD*(   1) C 105 - H 106          0.00816     0.37606   
  2422. BD*(   1) C 105 - H 107          0.01148     0.36172   
  2423. BD*(   1) C 105 - H 108          0.00625     0.37798   
  2424. BD*(   1) O 109 - C 110          0.01090     0.27461   
  2425. BD*(   1) C 110 - H 111          0.01087     0.35197   
  2426. BD*(   1) C 110 - H 112          0.02230     0.34130   
  2427. BD*(   1) C 110 - H 113          0.02175     0.33879   
       -------------------------------
              Total Lewis  464.51308  ( 97.8181%)
        Valence non-Lewis    9.47643  (  1.9956%)
        Rydberg non-Lewis    0.88497  (  0.1864%)
       -------------------------------
            Total unit  3  474.87448  (100.0000%)
           Charge unit  3    0.12552
 1\1\GINC-NOTCH212\SP\RPBE1PBE\Gen\C52H44F12Fe1O2P2\U6034117\04-Mar-202
 2\0\\# PBE1PBE gen pseudo=read int=(grid=ultrafine) empiricaldispersio
 n=GD3BJ pop=nbo guess=read geom=check\\W005_1_5 title\\0,1\C,0,1.77570
 26807,-1.9933476587,5.2407827907\C,0,2.5097138112,-0.912880821,5.83572
 57635\C,0,3.8675413437,-1.3450663048,6.0159890863\C,0,3.97248451,-2.69
 36761665,5.5329521515\C,0,2.6787700749,-3.0943489761,5.0494593384\H,0,
 2.1181960559,0.08044983,6.0580857881\H,0,4.6873497811,-0.7379092754,6.
 401384236\H,0,4.8859736695,-3.2895842751,5.5128128639\H,0,2.4282019065
 ,-4.0542581167,4.5961727217\H,0,0.7231318632,-1.9675228769,4.961282658
 2\Fe,0,3.3459376624,-1.4294256543,4.0387284727\C,0,4.2154707591,0.2198
 466204,3.2300877456\C,0,4.9417446446,-0.9567849755,2.8501679476\C,0,4.
 0454398626,-1.8257954185,2.1302962331\C,0,2.7474220001,-1.1899367681,2
 .0871239178\C,0,2.8614037512,0.075304677,2.7771301467\H,0,4.6036536846
 ,1.0507534217,3.8198853907\H,0,2.0572760409,0.7817746026,2.9787945507\
 C,0,1.5904490629,-1.7171288085,1.2801949422\P,0,1.5046625753,-0.592982
 8387,-0.240882987\H,0,1.8838792367,-2.7063320894,0.8800339756\C,0,0.27
 02428592,-1.8436552155,2.0526433134\H,0,-0.5821621649,-2.0854698051,1.
 3966197271\H,0,0.373998666,-2.6475042694,2.7992540307\H,0,0.0279628034
 ,-0.9096220998,2.5831414206\C,0,-1.5088587392,2.4877641814,1.491101924
 9\C,0,-1.9809076762,1.395684198,0.7524839586\C,0,-1.0835205882,0.48486
 85058,0.1731976853\C,0,0.2991493732,0.6818101527,0.3078253147\C,0,0.77
 56227999,1.8104976135,0.9941162375\C,0,-0.1271345378,2.6861979483,1.60
 9303114\H,0,-2.209001852,3.1848220958,1.9568622057\C,0,-3.46333338,1.1
 328270524,0.6519223497\H,0,-1.4724838964,-0.368271526,-0.3900228677\H,
 0,1.8490963371,2.008461708,1.0346430086\C,0,0.4330860505,3.7966938017,
 2.4614485535\C,0,-0.661692352,-2.763548489,-3.7328749993\C,0,-0.663880
 5806,-3.35939088,-2.4684381135\C,0,-0.0268930249,-2.7341513126,-1.3826
 750754\C,0,0.6048088469,-1.4952110137,-1.5630153988\C,0,0.6135636766,-
 0.8933750715,-2.8389931528\C,0,-0.0146478751,-1.5311636452,-3.91166679
 31\H,0,-1.1332667918,-3.266145763,-4.5806337987\C,0,-1.3704774931,-4.6
 715756999,-2.2378314127\H,0,-0.0199583686,-3.2369279741,-0.4119445505\
 H,0,1.1289579326,0.0637718441,-2.9819639995\C,0,-0.0265956195,-0.87781
 05891,-5.2750452408\F,0,-1.1949655135,-0.211981995,-5.4874585819\F,0,0
 .9851093765,0.0147287593,-5.4161707957\F,0,0.0929088481,-1.803717368,-
 6.2664544869\F,0,-2.5664222587,-4.491390508,-1.6150621317\F,0,-1.60977
 80558,-5.3376175418,-3.3973783998\F,0,-0.6301535173,-5.4943970183,-1.4
 338779152\F,0,-4.1910369057,2.2714989379,0.7891123528\F,0,-3.791000793
 ,0.5664314714,-0.5403172561\F,0,-3.8742848348,0.2712180742,1.627607916
 6\F,0,-0.5163052682,4.6904351507,2.8382742925\F,0,0.9776591245,3.27522
 38476,3.6096097782\F,0,1.4236275214,4.4710789727,1.8309434239\P,0,4.61
 01873927,-1.8578361994,-1.0889079715\C,0,9.2129637229,-1.7499379798,-1
 .4328460399\C,0,8.4881980369,-2.4360029422,-2.4296251951\C,0,7.0859544
 07,-2.4397152789,-2.3501466517\C,0,6.428695879,-1.7693437352,-1.308022
 3849\C,0,7.1721595121,-1.1045598231,-0.3193058483\C,0,8.5722952501,-1.
 0858363692,-0.3627330386\H,0,6.5091161145,-2.9604337321,-3.1217954337\
 H,0,6.6530516244,-0.5673014751,0.482230658\H,0,5.98428198,-1.181109320
 4,3.0790418664\C,0,5.2114263535,-5.623640077,0.4457063785\C,0,5.014967
 1354,-5.4824824534,1.825501472\C,0,4.6239272317,-4.2454736194,2.342638
 1787\C,0,4.404072401,-3.1256401379,1.512249119\C,0,4.5868917507,-3.275
 8894456,0.1146747943\C,0,5.0122494406,-4.5248981437,-0.3932216848\H,0,
 5.5351681886,-6.5795675821,0.0220628331\H,0,5.1768011388,-6.3302620602
 ,2.499121565\H,0,4.4819386534,-4.112821061,3.4161057167\H,0,5.21350568
 03,-4.6294485607,-1.4627182072\C,0,2.8108122623,-3.3936359494,-5.07484
 39361\C,0,3.5657882939,-2.1984682563,-5.049119984\C,0,4.1188488466,-1.
 7899904474,-3.8253097902\C,0,3.9216764707,-2.5437354736,-2.6488879201\
 C,0,3.1124772321,-3.6935263514,-2.69561258\C,0,2.5660173318,-4.1463852
 417,-3.9071597261\H,0,4.6868350681,-0.8525406614,-3.7762898888\H,0,2.9
 052586122,-4.2650433919,-1.7856802331\C,0,9.2144655729,-3.151201034,-3
 .5425578257\H,0,8.5261843091,-3.8011401009,-4.1070053339\H,0,9.6625672
 424,-2.4392536483,-4.2599315537\H,0,10.0409854339,-3.7646570784,-3.147
 3451263\C,0,9.3736215436,-0.3726122047,0.6981679455\H,0,8.8304700609,-
 0.3575168182,1.6576957036\H,0,10.3503461914,-0.8600633318,0.8476460887
 \H,0,9.5647051813,0.6802614759,0.4186212357\O,0,10.6007884804,-1.78452
 03135,-1.487365766\C,0,11.1670788701,-0.6324933012,-2.1272092197\H,0,1
 0.8014917495,-0.5283420538,-3.1665209802\H,0,10.9329141213,0.297186082
 9,-1.5752639974\H,0,12.256908244,-0.7879574649,-2.1353563884\C,0,3.735
 6579145,-1.3636513843,-6.2944380306\H,0,2.821888659,-1.3947388541,-6.9
 080382804\H,0,4.5715412329,-1.7265298761,-6.921312541\H,0,3.9512679831
 ,-0.3162233432,-6.0307141606\C,0,1.7405685004,-5.4076235431,-3.9677038
 217\H,0,0.8531563447,-5.2771607763,-4.6064574917\H,0,2.3201169742,-6.2
 466466101,-4.3960303522\H,0,1.4073349295,-5.7106294487,-2.9629246541\O
 ,0,2.2195552568,-3.8143039072,-6.2564427049\C,0,3.1036219605,-4.555684
 7747,-7.1055987074\H,0,2.5164253441,-4.834115619,-7.993857749\H,0,3.97
 44833373,-3.9498050961,-7.419051962\H,0,3.4682385148,-5.4728304796,-6.
 6037198799\\Version=ES64L-G16RevB.01\State=1-A\HF=-4160.7780321\RMSD=9
 .386e-10\Dipole=2.0498575,-0.5770578,-0.1135827\Quadrupole=-5.2578494,
 -1.0521374,6.3099868,4.3714889,-7.7435125,4.7286447\PG=C01 [X(C52H44F1
 2Fe1O2P2)]\\@


 THERE ARE TWO THINGS THAT EVERYBODY THINKS THEY CAN DO BETTER THAN
 ANYONE ELSE - PUNCH THE FIRE, AND EDIT A DAILY PAPER.
 -- UNCLE ESEK, "CENTURY MAGAZINE", 1885
 Job cpu time:       0 days  4 hours 16 minutes 47.3 seconds.
 Elapsed time:       0 days  0 hours  4 minutes 58.7 seconds.
 File lengths (MBytes):  RWF=   2999 Int=      0 D2E=      0 Chk=    451 Scr=      1
 Normal termination of Gaussian 16 at Fri Mar  4 06:39:08 2022.
