 Entering Gaussian System, Link 0=/uufs/chpc.utah.edu/sys/installdir/gaussian16/B01/E6B/g16/g16
 Input=W005_1_4_SPE.com
 Output=W005_1_4_SPE.log
 Initial command:
 /uufs/chpc.utah.edu/sys/installdir/gaussian16/B01/E6B/g16/l1.exe "/scratch/general/lustre/u6034117/4108806/notchpeak.peaks/Gau-140515.inp" -scrdir="/scratch/general/lustre/u6034117/4108806/notchpeak.peaks/"
 Entering Link 1 = /uufs/chpc.utah.edu/sys/installdir/gaussian16/B01/E6B/g16/l1.exe PID=    140517.
  
 Copyright (c) 1988-2017, Gaussian, Inc.  All Rights Reserved.
  
 This is part of the Gaussian(R) 16 program.  It is based on
 the Gaussian(R) 09 system (copyright 2009, Gaussian, Inc.),
 the Gaussian(R) 03 system (copyright 2003, Gaussian, Inc.),
 the Gaussian(R) 98 system (copyright 1998, Gaussian, Inc.),
 the Gaussian(R) 94 system (copyright 1995, Gaussian, Inc.),
 the Gaussian 92(TM) system (copyright 1992, Gaussian, Inc.),
 the Gaussian 90(TM) system (copyright 1990, Gaussian, Inc.),
 the Gaussian 88(TM) system (copyright 1988, Gaussian, Inc.),
 the Gaussian 86(TM) system (copyright 1986, Carnegie Mellon
 University), and the Gaussian 82(TM) system (copyright 1983,
 Carnegie Mellon University). Gaussian is a federally registered
 trademark of Gaussian, Inc.
  
 This software contains proprietary and confidential information,
 including trade secrets, belonging to Gaussian, Inc.
  
 This software is provided under written license and may be
 used, copied, transmitted, or stored only in accord with that
 written license.
  
 The following legend is applicable only to US Government
 contracts under FAR:
  
                    RESTRICTED RIGHTS LEGEND
  
 Use, reproduction and disclosure by the US Government is
 subject to restrictions as set forth in subparagraphs (a)
 and (c) of the Commercial Computer Software - Restricted
 Rights clause in FAR 52.227-19.
  
 Gaussian, Inc.
 340 Quinnipiac St., Bldg. 40, Wallingford CT 06492
  
  
 ---------------------------------------------------------------
 Warning -- This program may not be used in any manner that
 competes with the business of Gaussian, Inc. or will provide
 assistance to any competitor of Gaussian, Inc.  The licensee
 of this program is prohibited from giving any competitor of
 Gaussian, Inc. access to this program.  By using this program,
 the user acknowledges that Gaussian, Inc. is engaged in the
 business of creating and licensing software in the field of
 computational chemistry and represents and warrants to the
 licensee that it is not a competitor of Gaussian, Inc. and that
 it will not use this program in any manner prohibited above.
 ---------------------------------------------------------------
  

 Cite this work as:
 Gaussian 16, Revision B.01,
 M. J. Frisch, G. W. Trucks, H. B. Schlegel, G. E. Scuseria, 
 M. A. Robb, J. R. Cheeseman, G. Scalmani, V. Barone, 
 G. A. Petersson, H. Nakatsuji, X. Li, M. Caricato, A. V. Marenich, 
 J. Bloino, B. G. Janesko, R. Gomperts, B. Mennucci, H. P. Hratchian, 
 J. V. Ortiz, A. F. Izmaylov, J. L. Sonnenberg, D. Williams-Young, 
 F. Ding, F. Lipparini, F. Egidi, J. Goings, B. Peng, A. Petrone, 
 T. Henderson, D. Ranasinghe, V. G. Zakrzewski, J. Gao, N. Rega, 
 G. Zheng, W. Liang, M. Hada, M. Ehara, K. Toyota, R. Fukuda, 
 J. Hasegawa, M. Ishida, T. Nakajima, Y. Honda, O. Kitao, H. Nakai, 
 T. Vreven, K. Throssell, J. A. Montgomery, Jr., J. E. Peralta, 
 F. Ogliaro, M. J. Bearpark, J. J. Heyd, E. N. Brothers, K. N. Kudin, 
 V. N. Staroverov, T. A. Keith, R. Kobayashi, J. Normand, 
 K. Raghavachari, A. P. Rendell, J. C. Burant, S. S. Iyengar, 
 J. Tomasi, M. Cossi, J. M. Millam, M. Klene, C. Adamo, R. Cammi, 
 J. W. Ochterski, R. L. Martin, K. Morokuma, O. Farkas, 
 J. B. Foresman, and D. J. Fox, Gaussian, Inc., Wallingford CT, 2016.
 
 ******************************************
 Gaussian 16:  ES64L-G16RevB.01 20-Dec-2017
                 4-Mar-2022 
 ******************************************
 %NProcShared=52
 Will use up to   52 processors via shared memory.
 %mem=18GB
 %chk=W005_1_4_SPE.chk
 ----------------------------------------------------------------------
 # PBE1PBE gen pseudo=read int=(grid=ultrafine) empiricaldispersion=GD3
 BJ nmr=giao
 ----------------------------------------------------------------------
 1/38=1,172=1/1;
 2/12=2,17=6,18=5,40=1/2;
 3/5=7,11=2,16=1,17=8,25=1,30=1,74=-13,75=-5,124=41/1,2,3,8;
 4//1;
 5/5=2,38=5/2;
 8/6=1,10=90,11=11/1;
 10/13=100,45=16/2;
 6/7=2,8=2,9=2,10=2,28=1/1;
 99/9=1/99;
 --------------
 W005_1_4 title
 --------------
 Symbolic Z-matrix:
 Charge =  0 Multiplicity = 1
 C                     3.03978  -1.48523   5.90562 
 C                     4.39356  -1.09938   6.19054 
 C                     5.25569  -2.17877   5.79642 
 C                     4.43612  -3.23371   5.2715 
 C                     3.06448  -2.80458   5.3347 
 H                     4.71431  -0.13255   6.57997 
 H                     6.3454   -2.17671   5.83913 
 H                     4.80282  -4.17677   4.86495 
 H                     2.193    -3.37016   5.00111 
 H                     2.15341  -0.87171   6.06953 
 Fe                    4.16917  -1.49946   4.19504 
 C                     5.27229  -0.06874   3.2373 
 C                     5.43531  -1.3403    2.59732 
 C                     4.13874  -1.79708   2.15752 
 C                     3.16539  -0.80214   2.56452 
 C                     3.88258   0.26555   3.21244 
 H                     6.05968   0.51949   3.70874 
 H                     3.43906   1.16627   3.63072 
 C                     1.70449  -0.79857   2.20013 
 P                     1.66453  -0.31765   0.35313 
 H                     1.30147  -1.82517   2.2679 
 C                     0.88158   0.15443   3.07934 
 H                    -0.20048   0.03966   2.92126 
 H                     1.10151  -0.06908   4.13647 
 H                     1.1519    1.20409   2.87953 
 C                    -1.89845   2.5411   -0.59265 
 C                    -0.60783   2.85757  -1.03209 
 C                     0.48296   2.03484  -0.71075 
 C                     0.28138   0.87554   0.05534 
 C                    -1.02109   0.53545   0.46361 
 C                    -2.10017   1.37347   0.15554 
 H                    -2.74159   3.18977  -0.84151 
 C                    -0.36336   4.12528  -1.81815 
 H                     1.48799   2.29632  -1.04889 
 H                    -1.21183  -0.39427   1.00705 
 C                    -3.4939    0.96103   0.56005 
 C                    -0.44835  -3.68041  -2.12911 
 C                     0.21593  -4.03437  -0.94842 
 C                     0.8733   -3.06876  -0.16716 
 C                     0.88828  -1.72556  -0.58047 
 C                     0.27179  -1.38679  -1.80192 
 C                    -0.40517  -2.34888  -2.55605 
 H                    -0.97393  -4.43657  -2.7169 
 C                     0.2941   -5.49591  -0.58753 
 H                     1.37588  -3.38466   0.75002 
 H                     0.30078  -0.35727  -2.16667 
 C                    -1.15567  -1.90858  -3.78807 
 F                    -2.40092  -1.4639   -3.47698 
 F                    -0.51271  -0.89422  -4.42769 
 F                    -1.3104   -2.92912  -4.68495 
 F                     1.28329  -6.11395  -1.30886 
 F                     0.56822  -5.69475   0.72691 
 F                    -0.86262  -6.14924  -0.87436 
 F                    -1.49249   4.54026  -2.45841 
 F                     0.03803   5.13837  -1.00823 
 F                     0.60238   3.94563  -2.75673 
 F                    -4.31547   2.03246   0.70776 
 F                    -4.05788   0.14343  -0.37251 
 F                    -3.48641   0.27501   1.7378 
 P                     4.50406  -1.60244  -1.08006 
 C                     9.03464  -2.254    -1.7026 
 C                     8.14121  -2.7459   -2.67744 
 C                     6.76972  -2.49822  -2.50818 
 C                     6.30321  -1.77791  -1.39509 
 C                     7.21555  -1.27748  -0.45217 
 C                     8.59247  -1.50521  -0.58934 
 H                     6.06665  -2.86015  -3.26591 
 H                     6.85357  -0.65616   0.37196 
 Cl                    5.67036   1.47644  -1.15961 
 Cl                    3.14561   2.44243   0.88639 
 H                     6.36368  -1.9003    2.48179 
 C                     4.02547  -5.54359   0.04423 
 C                     3.62061  -5.4758    1.38228 
 C                     3.61112  -4.23912   2.03635 
 C                     3.93917  -3.04088   1.36915 
 C                     4.2096   -3.10039  -0.02645 
 C                     4.32386  -4.36374  -0.64515 
 H                     4.09712  -6.50672  -0.46955 
 H                     3.34887  -6.38546   1.92674 
 H                     3.37759  -4.17482   3.10017 
 H                     4.65596  -4.42514  -1.68476 
 C                     2.79329  -2.21515  -5.34151 
 C                     3.53661  -1.05879  -5.00518 
 C                     3.99795  -0.92587  -3.68653 
 C                     3.73097  -1.91496  -2.71639 
 C                     2.96022  -3.03528  -3.07107 
 C                     2.49592  -3.2087   -4.38501 
 H                     4.5943   -0.04619  -3.41076 
 H                     2.70658  -3.79975  -2.33347 
 Pd                    3.74502   0.41659  -0.27868 
 C                     8.66504  -3.49407  -3.87884 
 H                     7.85296  -3.70741  -4.59257 
 H                     9.44585  -2.91301  -4.39759 
 H                     9.12664  -4.45681  -3.59305 
 C                     9.57397  -0.91782   0.39517 
 H                     9.18      0.02012   0.81947 
 H                     9.77402  -1.60494   1.23939 
 H                     10.53842  -0.70743  -0.09428 
 O                     10.39336  -2.45528  -1.90866 
 C                     10.92777  -3.54285  -1.1458 
 H                     10.83984  -3.3638   -0.05721 
 H                     10.41865  -4.49503  -1.3915 
 H                     11.99228  -3.61718  -1.41632 
 C                     3.86845  -0.01757  -6.04564 
 H                     3.06702   0.73944  -6.13365 
 H                     3.99434  -0.48191  -7.03724 
 H                     4.79276   0.51984  -5.78006 
 C                     1.73632  -4.45231  -4.77945 
 H                     0.72213  -4.21473  -5.14085 
 H                     2.24883  -4.98378  -5.59939 
 H                     1.63962  -5.13716  -3.92087 
 O                     2.42127  -2.44419  -6.65606 
 C                     1.23559  -1.75026  -7.0736 
 H                     1.11826  -1.96926  -8.14572 
 H                     0.3475   -2.10576  -6.52317 
 H                     1.32841  -0.65788  -6.93123 
 
 Stoichiometry    C52H44Cl2F12FeO2P2Pd
 Framework group  C1[X(C52H44Cl2F12FeO2P2Pd)]
 Deg. of freedom   342
 Full point group                 C1      NOp   1
 Largest Abelian subgroup         C1      NOp   1
 Largest concise Abelian subgroup C1      NOp   1
                         Standard orientation:                         
 ---------------------------------------------------------------------
 Center     Atomic      Atomic             Coordinates (Angstroms)
 Number     Number       Type             X           Y           Z
 ---------------------------------------------------------------------
      1          6           0       -1.903266   -5.937434    1.501382
      2          6           0       -3.091275   -6.127076    0.716876
      3          6           0       -4.140266   -5.338381    1.301033
      4          6           0       -3.603293   -4.663961    2.448621
      5          6           0       -2.217661   -5.030548    2.571881
      6          1           0       -3.166446   -6.717315   -0.197050
      7          1           0       -5.152798   -5.229180    0.910978
      8          1           0       -4.149822   -3.969010    3.086946
      9          1           0       -1.520110   -4.678955    3.333748
     10          1           0       -0.928493   -6.383206    1.301297
     11         26           0       -2.563534   -4.148960    0.748226
     12          6           0       -2.908860   -3.475077   -1.151169
     13          6           0       -3.319919   -2.496378   -0.188779
     14          6           0       -2.172367   -2.132019    0.607182
     15          6           0       -1.050720   -2.925289    0.142887
     16          6           0       -1.516991   -3.734428   -0.953474
     17          1           0       -3.552745   -3.975702   -1.874385
     18          1           0       -0.915819   -4.439603   -1.522939
     19          6           0        0.377750   -2.780988    0.596394
     20         15           0        0.982687   -1.159127   -0.208523
     21          1           0        0.406927   -2.621118    1.689336
     22          6           0        1.241385   -3.991659    0.213247
     23          1           0        2.236934   -3.959213    0.678933
     24          1           0        0.730138   -4.906848    0.555164
     25          1           0        1.371433   -4.050432   -0.879654
     26          6           0        5.386552   -1.530281   -1.701842
     27          6           0        4.397402   -1.020046   -2.550495
     28          6           0        3.058732   -0.950997   -2.134362
     29          6           0        2.703226   -1.392008   -0.849593
     30          6           0        3.702778   -1.867758    0.018369
     31          6           0        5.032543   -1.951988   -0.413164
     32          1           0        6.425453   -1.586676   -2.035149
     33          6           0        4.752404   -0.583682   -3.953457
     34          1           0        2.292347   -0.561633   -2.808031
     35          1           0        3.460396   -2.157895    1.044596
     36          6           0        6.093956   -2.417024    0.552951
     37          6           0        2.416039    1.829893    3.099832
     38          6           0        1.426269    0.893983    3.423895
     39          6           0        0.952641   -0.022523    2.469649
     40          6           0        1.459254    0.006670    1.159026
     41          6           0        2.409334    0.992124    0.822886
     42          6           0        2.896036    1.879137    1.786710
     43          1           0        2.791499    2.523251    3.856005
     44          6           0        0.807977    0.959844    4.797152
     45          1           0        0.183116   -0.740244    2.763450
     46          1           0        2.792289    1.062578   -0.197980
     47          6           0        4.004231    2.828465    1.405028
     48          9           0        5.222699    2.239073    1.519500
     49          9           0        3.878682    3.249516    0.117244
     50          9           0        4.023445    3.939423    2.202040
     51          9           0       -0.137659    1.951780    4.848334
     52          9           0        0.196858   -0.199587    5.150264
     53          9           0        1.729789    1.251474    5.752307
     54          9           0        6.068260   -0.243143   -4.051526
     55          9           0        4.523185   -1.575765   -4.851604
     56          9           0        4.016716    0.492283   -4.336770
     57          9           0        7.158433   -2.963336   -0.089843
     58          9           0        6.562691   -1.383946    1.307426
     59          9           0        5.604040   -3.350222    1.417184
     60         15           0       -1.719326    0.947896   -0.373735
     61          6           0       -5.959355    2.343780   -1.561958
     62          6           0       -5.074035    3.282794   -0.991912
     63          6           0       -3.770135    2.864751   -0.681984
     64          6           0       -3.361349    1.544067   -0.935254
     65          6           0       -4.254203    0.635726   -1.526552
     66          6           0       -5.563964    1.018525   -1.849917
     67          1           0       -3.067550    3.587870   -0.254288
     68          1           0       -3.908260   -0.368396   -1.787930
     69         17           0       -1.795586    0.344775   -3.610484
     70         17           0        0.377334   -2.215293   -3.143493
     71          1           0       -4.327201   -2.105463   -0.042555
     72          6           0       -2.785646    0.886432    3.611849
     73          6           0       -2.691892   -0.461935    3.975179
     74          6           0       -2.436507   -1.423340    2.991425
     75          6           0       -2.207308   -1.069650    1.645727
     76          6           0       -2.161685    0.312688    1.311938
     77          6           0       -2.530010    1.262153    2.289056
     78          1           0       -3.042739    1.648226    4.353675
     79          1           0       -2.853513   -0.769701    5.012921
     80          1           0       -2.440021   -2.486009    3.238653
     81          1           0       -2.621780    2.314584    2.008298
     82          6           0        0.618852    4.936278   -0.077456
     83          6           0        0.226763    4.403234   -1.328432
     84          6           0       -0.452140    3.175147   -1.343863
     85          6           0       -0.739088    2.484409   -0.147505
     86          6           0       -0.306135    3.021309    1.076942
     87          6           0        0.361541    4.255551    1.131196
     88          1           0       -0.783337    2.754943   -2.302641
     89          1           0       -0.481624    2.492537    2.016312
     90         46           0       -0.557707   -0.470647   -1.764133
     91          6           0       -5.524631    4.703070   -0.752537
     92          1           0       -4.684249    5.328714   -0.410902
     93          1           0       -5.942213    5.146264   -1.672095
     94          1           0       -6.320412    4.757295    0.012585
     95          6           0       -6.502168    0.056411   -2.536746
     96          1           0       -5.936147   -0.657810   -3.156811
     97          1           0       -7.094829   -0.532339   -1.810811
     98          1           0       -7.213446    0.598181   -3.180614
     99          8           0       -7.228457    2.782440   -1.916989
    100          6           0       -8.238232    2.426547   -0.966171
    101          1           0       -8.344888    1.329092   -0.871046
    102          1           0       -8.017206    2.849930    0.032885
    103          1           0       -9.181485    2.851333   -1.342615
    104          6           0        0.486366    5.155667   -2.610333
    105          1           0        1.485188    4.922332   -3.023856
    106          1           0        0.445461    6.243827   -2.440164
    107          1           0       -0.253524    4.883797   -3.379972
    108          6           0        0.753912    4.865478    2.455277
    109          1           0        1.844786    5.004766    2.534183
    110          1           0        0.296990    5.861878    2.581099
    111          1           0        0.432048    4.221464    3.290247
    112          8           0        1.183979    6.199017   -0.006453
    113          6           0        2.590656    6.243601   -0.291007
    114          1           0        2.869928    7.307928   -0.271661
    115          1           0        3.171718    5.693895    0.469418
    116          1           0        2.820878    5.822882   -1.287087
 ---------------------------------------------------------------------
 Rotational constants (GHZ):           0.0307769           0.0239558           0.0209047
 General basis read from cards:  (5D, 7F)
 ======================================================================================================
                                       Pseudopotential Parameters
 ======================================================================================================
  Center     Atomic      Valence      Angular      Power
  Number     Number     Electrons     Momentum     of R      Exponent        Coefficient   SO-Coeffient
 ======================================================================================================
    1          6
                                   No pseudopotential on this center.
    2          6
                                   No pseudopotential on this center.
    3          6
                                   No pseudopotential on this center.
    4          6
                                   No pseudopotential on this center.
    5          6
                                   No pseudopotential on this center.
    6          1
                                   No pseudopotential on this center.
    7          1
                                   No pseudopotential on this center.
    8          1
                                   No pseudopotential on this center.
    9          1
                                   No pseudopotential on this center.
   10          1
                                   No pseudopotential on this center.
   11         26           16
                                      F and up 
                                                     2        1.0000000        0.00000000    0.00000000
                                      S - F
                                                     2       20.9300000      253.74958800    0.00000000
                                                     2        9.4450000       37.92284500    0.00000000
                                      P - F
                                                     2       21.7600000      161.03681200    0.00000000
                                                     2        9.1780000       27.65129800    0.00000000
                                      D - F
                                                     2       25.9000000      -24.43127600    0.00000000
                                                     2        8.8350000       -1.43425100    0.00000000
   12          6
                                   No pseudopotential on this center.
   13          6
                                   No pseudopotential on this center.
   14          6
                                   No pseudopotential on this center.
   15          6
                                   No pseudopotential on this center.
   16          6
                                   No pseudopotential on this center.
   17          1
                                   No pseudopotential on this center.
   18          1
                                   No pseudopotential on this center.
   19          6
                                   No pseudopotential on this center.
   20         15
                                   No pseudopotential on this center.
   21          1
                                   No pseudopotential on this center.
   22          6
                                   No pseudopotential on this center.
   23          1
                                   No pseudopotential on this center.
   24          1
                                   No pseudopotential on this center.
   25          1
                                   No pseudopotential on this center.
   26          6
                                   No pseudopotential on this center.
   27          6
                                   No pseudopotential on this center.
   28          6
                                   No pseudopotential on this center.
   29          6
                                   No pseudopotential on this center.
   30          6
                                   No pseudopotential on this center.
   31          6
                                   No pseudopotential on this center.
   32          1
                                   No pseudopotential on this center.
   33          6
                                   No pseudopotential on this center.
   34          1
                                   No pseudopotential on this center.
   35          1
                                   No pseudopotential on this center.
   36          6
                                   No pseudopotential on this center.
   37          6
                                   No pseudopotential on this center.
   38          6
                                   No pseudopotential on this center.
   39          6
                                   No pseudopotential on this center.
   40          6
                                   No pseudopotential on this center.
   41          6
                                   No pseudopotential on this center.
   42          6
                                   No pseudopotential on this center.
   43          1
                                   No pseudopotential on this center.
   44          6
                                   No pseudopotential on this center.
   45          1
                                   No pseudopotential on this center.
   46          1
                                   No pseudopotential on this center.
   47          6
                                   No pseudopotential on this center.
   48          9
                                   No pseudopotential on this center.
   49          9
                                   No pseudopotential on this center.
   50          9
                                   No pseudopotential on this center.
   51          9
                                   No pseudopotential on this center.
   52          9
                                   No pseudopotential on this center.
   53          9
                                   No pseudopotential on this center.
   54          9
                                   No pseudopotential on this center.
   55          9
                                   No pseudopotential on this center.
   56          9
                                   No pseudopotential on this center.
   57          9
                                   No pseudopotential on this center.
   58          9
                                   No pseudopotential on this center.
   59          9
                                   No pseudopotential on this center.
   60         15
                                   No pseudopotential on this center.
   61          6
                                   No pseudopotential on this center.
   62          6
                                   No pseudopotential on this center.
   63          6
                                   No pseudopotential on this center.
   64          6
                                   No pseudopotential on this center.
   65          6
                                   No pseudopotential on this center.
   66          6
                                   No pseudopotential on this center.
   67          1
                                   No pseudopotential on this center.
   68          1
                                   No pseudopotential on this center.
   69         17
                                   No pseudopotential on this center.
   70         17
                                   No pseudopotential on this center.
   71          1
                                   No pseudopotential on this center.
   72          6
                                   No pseudopotential on this center.
   73          6
                                   No pseudopotential on this center.
   74          6
                                   No pseudopotential on this center.
   75          6
                                   No pseudopotential on this center.
   76          6
                                   No pseudopotential on this center.
   77          6
                                   No pseudopotential on this center.
   78          1
                                   No pseudopotential on this center.
   79          1
                                   No pseudopotential on this center.
   80          1
                                   No pseudopotential on this center.
   81          1
                                   No pseudopotential on this center.
   82          6
                                   No pseudopotential on this center.
   83          6
                                   No pseudopotential on this center.
   84          6
                                   No pseudopotential on this center.
   85          6
                                   No pseudopotential on this center.
   86          6
                                   No pseudopotential on this center.
   87          6
                                   No pseudopotential on this center.
   88          1
                                   No pseudopotential on this center.
   89          1
                                   No pseudopotential on this center.
   90         46           18
                                      G and up 
                                                     2        1.0000000        0.00000000    0.00000000
                                      S - G
                                                     2       12.4300000      240.22904000    0.00000000
                                                     2        6.1707590       35.17194300    0.00000000
                                      P - G
                                                     2       11.0800000      170.41727600    0.00000000
                                                     2        5.8295540       28.47213300    0.00000000
                                      D - G
                                                     2        9.5100000       69.01384500    0.00000000
                                                     2        4.1397810       11.75086200    0.00000000
                                      F - G
                                                     2       13.2700000      -31.92955400    0.00000000
                                                     2        6.6300000       -5.39821700    0.00000000
   91          6
                                   No pseudopotential on this center.
   92          1
                                   No pseudopotential on this center.
   93          1
                                   No pseudopotential on this center.
   94          1
                                   No pseudopotential on this center.
   95          6
                                   No pseudopotential on this center.
   96          1
                                   No pseudopotential on this center.
   97          1
                                   No pseudopotential on this center.
   98          1
                                   No pseudopotential on this center.
   99          8
                                   No pseudopotential on this center.
  100          6
                                   No pseudopotential on this center.
  101          1
                                   No pseudopotential on this center.
  102          1
                                   No pseudopotential on this center.
  103          1
                                   No pseudopotential on this center.
  104          6
                                   No pseudopotential on this center.
  105          1
                                   No pseudopotential on this center.
  106          1
                                   No pseudopotential on this center.
  107          1
                                   No pseudopotential on this center.
  108          6
                                   No pseudopotential on this center.
  109          1
                                   No pseudopotential on this center.
  110          1
                                   No pseudopotential on this center.
  111          1
                                   No pseudopotential on this center.
  112          8
                                   No pseudopotential on this center.
  113          6
                                   No pseudopotential on this center.
  114          1
                                   No pseudopotential on this center.
  115          1
                                   No pseudopotential on this center.
  116          1
                                   No pseudopotential on this center.
 ======================================================================================================
 There are  2896 symmetry adapted cartesian basis functions of A   symmetry.
 There are  2537 symmetry adapted basis functions of A   symmetry.
  2537 basis functions,  4134 primitive gaussians,  2896 cartesian basis functions
   289 alpha electrons      289 beta electrons
       nuclear repulsion energy     15831.3707143240 Hartrees.
 NAtoms=  116 NActive=  116 NUniq=  116 SFac= 1.00D+00 NAtFMM=   60 NAOKFM=T Big=T
 Integral buffers will be    131072 words long.
 Raffenetti 2 integral format.
 Two-electron integral symmetry is turned on.
 Nuclear repulsion after empirical dispersion term =    15831.1585553973 Hartrees.
 One-electron integrals computed using PRISM.
   1 Symmetry operations used in ECPInt.
 ECPInt:  NShTT=  483636 NPrTT= 1507730 LenC2=  329709 LenP2D=  649589.
 LDataN:  DoStor=T MaxTD1= 7 Len=  274
 Number of processors reduced to  15 by ecpmxn.
 NBasis=  2537 RedAO= T EigKep=  2.56D-06  NBF=  2537
 NBsUse=  2537 1.00D-06 EigRej= -1.00D+00 NBFU=  2537
 Defaulting to unpruned grid for atomic number  46.
 ExpMin= 1.00D-02 ExpMax= 6.95D+04 ExpMxC= 2.37D+03 IAcc=3 IRadAn=         5 AccDes= 0.00D+00
 Harris functional with IExCor= 1009 and IRadAn=       5 diagonalized for initial guess.
 HarFok:  IExCor= 1009 AccDes= 0.00D+00 IRadAn=         5 IDoV= 1 UseB2=F ITyADJ=14
 ICtDFT=  3500011 ScaDFX=  1.000000  1.000000  1.000000  1.000000
 Defaulting to unpruned grid for atomic number  46.
 FoFCou: FMM=F IPFlag=           0 FMFlag=      100000 FMFlg1=        2001
         NFxFlg=           0 DoJE=T BraDBF=F KetDBF=T FulRan=T
         wScrn=  0.000000 ICntrl=       500 IOpCl=  0 I1Cent=   200000004 NGrid=           0
         NMat0=    1 NMatS0=      1 NMatT0=    0 NMatD0=    1 NMtDS0=    0 NMtDT0=    0
 Petite list used in FoFCou.
 Requested convergence on RMS density matrix=1.00D-08 within 128 cycles.
 Requested convergence on MAX density matrix=1.00D-06.
 Requested convergence on             energy=1.00D-06.
 No special actions if energy rises.
 Defaulting to unpruned grid for atomic number  46.
 Defaulting to unpruned grid for atomic number  46.
 Defaulting to unpruned grid for atomic number  46.
 Defaulting to unpruned grid for atomic number  46.
 Defaulting to unpruned grid for atomic number  46.
 Defaulting to unpruned grid for atomic number  46.
 Defaulting to unpruned grid for atomic number  46.
 Defaulting to unpruned grid for atomic number  46.
 Defaulting to unpruned grid for atomic number  46.
 Defaulting to unpruned grid for atomic number  46.
 Defaulting to unpruned grid for atomic number  46.
 Defaulting to unpruned grid for atomic number  46.
 Defaulting to unpruned grid for atomic number  46.
 Defaulting to unpruned grid for atomic number  46.
 Defaulting to unpruned grid for atomic number  46.
 Defaulting to unpruned grid for atomic number  46.
 Defaulting to unpruned grid for atomic number  46.
 Defaulting to unpruned grid for atomic number  46.
 Defaulting to unpruned grid for atomic number  46.
 Defaulting to unpruned grid for atomic number  46.
 Defaulting to unpruned grid for atomic number  46.
 Defaulting to unpruned grid for atomic number  46.
 Defaulting to unpruned grid for atomic number  46.
 Defaulting to unpruned grid for atomic number  46.
 Defaulting to unpruned grid for atomic number  46.
 Defaulting to unpruned grid for atomic number  46.
 Defaulting to unpruned grid for atomic number  46.
 Defaulting to unpruned grid for atomic number  46.
 Defaulting to unpruned grid for atomic number  46.
 Defaulting to unpruned grid for atomic number  46.
 Defaulting to unpruned grid for atomic number  46.
 Defaulting to unpruned grid for atomic number  46.
 Defaulting to unpruned grid for atomic number  46.
 Defaulting to unpruned grid for atomic number  46.
 Defaulting to unpruned grid for atomic number  46.
 Defaulting to unpruned grid for atomic number  46.
 Defaulting to unpruned grid for atomic number  46.
 Defaulting to unpruned grid for atomic number  46.
 Defaulting to unpruned grid for atomic number  46.
 Defaulting to unpruned grid for atomic number  46.
 Defaulting to unpruned grid for atomic number  46.
 Defaulting to unpruned grid for atomic number  46.
 Defaulting to unpruned grid for atomic number  46.
 Defaulting to unpruned grid for atomic number  46.
 Defaulting to unpruned grid for atomic number  46.
 Defaulting to unpruned grid for atomic number  46.
 Defaulting to unpruned grid for atomic number  46.
 Defaulting to unpruned grid for atomic number  46.
 Defaulting to unpruned grid for atomic number  46.
 Defaulting to unpruned grid for atomic number  46.
 Defaulting to unpruned grid for atomic number  46.
 Defaulting to unpruned grid for atomic number  46.
 Rare condition: small coef for last iteration:  0.000D+00
 EnCoef did   100 forward-backward iterations
 EnCoef did   100 forward-backward iterations
 EnCoef did   100 forward-backward iterations
 EnCoef did     3 forward-backward iterations
 EnCoef did     2 forward-backward iterations
 EnCoef did   100 forward-backward iterations
 EnCoef did     4 forward-backward iterations
 Restarting incremental Fock formation.
 SCF Done:  E(RPBE1PBE) =  -5208.95978547     A.U. after   27 cycles
            NFock= 27  Conv=0.24D-08     -V/T= 2.0301
 DoSCS=F DFT=T ScalE2(SS,OS)=  1.000000  1.000000
 Range of M.O.s used for correlation:     1  2537
 NBasis=  2537 NAE=   289 NBE=   289 NFC=     0 NFV=     0
 NROrb=   2537 NOA=   289 NOB=   289 NVA=  2248 NVB=  2248

 **** Warning!!: The largest alpha MO coefficient is  0.43401934D+02

          Differentiating once with respect to magnetic field using GIAOs.
          Electric field/nuclear overlap derivatives assumed to be zero.
 Defaulting to unpruned grid for atomic number  46.
 FoFCou: FMM=F IPFlag=           0 FMFlag=      100000 FMFlg1=        2001
         NFxFlg=           0 DoJE=F BraDBF=F KetDBF=T FulRan=T
         wScrn=  0.000000 ICntrl=      6100 IOpCl=  0 I1Cent=           7 NGrid=         116
         NMat0=    1 NMatS0=      1 NMatT0=    0 NMatD0=    1 NMtDS0=    0 NMtDT0=    0
 Symmetry not used in FoFCou.
   1 Symmetry operations used in ECPInt.
 ECPInt:  NShTT=  483636 NPrTT= 1507730 LenC2=  483637 LenP2D= 1507730.
 LDataN:  DoStor=T MaxTD1= 8 Len=  415
 Number of processors reduced to   9 by ecpmxn.
 FoFJK:  IHMeth= 1 ICntrl=    6127 DoSepK=F KAlg= 0 I1Cent=           0 FoldK=F
 IRaf=         1 NMat=       1 IRICut=       1 DoRegI=T DoRafI=F ISym2E= 0 IDoP0=0 IntGTp=1.
 Defaulting to unpruned grid for atomic number  46.
 Defaulting to unpruned grid for atomic number  46.
 Defaulting to unpruned grid for atomic number  46.
 Defaulting to unpruned grid for atomic number  46.
 Defaulting to unpruned grid for atomic number  46.
 Defaulting to unpruned grid for atomic number  46.
 Defaulting to unpruned grid for atomic number  46.
 Defaulting to unpruned grid for atomic number  46.
 Defaulting to unpruned grid for atomic number  46.
 Defaulting to unpruned grid for atomic number  46.
 Defaulting to unpruned grid for atomic number  46.
 Defaulting to unpruned grid for atomic number  46.
 Defaulting to unpruned grid for atomic number  46.
 Defaulting to unpruned grid for atomic number  46.
 Defaulting to unpruned grid for atomic number  46.
 Defaulting to unpruned grid for atomic number  46.
 Defaulting to unpruned grid for atomic number  46.
 Defaulting to unpruned grid for atomic number  46.
 Defaulting to unpruned grid for atomic number  46.
 Defaulting to unpruned grid for atomic number  46.
 Defaulting to unpruned grid for atomic number  46.
 Defaulting to unpruned grid for atomic number  46.
 Defaulting to unpruned grid for atomic number  46.
 Defaulting to unpruned grid for atomic number  46.
 Defaulting to unpruned grid for atomic number  46.
 Defaulting to unpruned grid for atomic number  46.
 Defaulting to unpruned grid for atomic number  46.
 Defaulting to unpruned grid for atomic number  46.
 Defaulting to unpruned grid for atomic number  46.
 Defaulting to unpruned grid for atomic number  46.
 Defaulting to unpruned grid for atomic number  46.
 Defaulting to unpruned grid for atomic number  46.
 Defaulting to unpruned grid for atomic number  46.
 Defaulting to unpruned grid for atomic number  46.
 Defaulting to unpruned grid for atomic number  46.
 Defaulting to unpruned grid for atomic number  46.
 Defaulting to unpruned grid for atomic number  46.
 Defaulting to unpruned grid for atomic number  46.
 Defaulting to unpruned grid for atomic number  46.
 Defaulting to unpruned grid for atomic number  46.
 Defaulting to unpruned grid for atomic number  46.
 Defaulting to unpruned grid for atomic number  46.
 Defaulting to unpruned grid for atomic number  46.
 Defaulting to unpruned grid for atomic number  46.
 Defaulting to unpruned grid for atomic number  46.
 Defaulting to unpruned grid for atomic number  46.
 Defaulting to unpruned grid for atomic number  46.
 Defaulting to unpruned grid for atomic number  46.
 Defaulting to unpruned grid for atomic number  46.
 Defaulting to unpruned grid for atomic number  46.
 Defaulting to unpruned grid for atomic number  46.
 Defaulting to unpruned grid for atomic number  46.
          There are     3 degrees of freedom in the 1st order CPHF.  IDoFFX=0 NUNeed=     3.
      3 vectors produced by pass  0 Test12= 2.17D-11 3.33D-08 XBig12= 4.45D+02 1.93D+00.
 AX will form     3 AO Fock derivatives at one time.
      3 vectors produced by pass  1 Test12= 2.17D-11 3.33D-08 XBig12= 2.21D+00 4.14D-01.
      3 vectors produced by pass  2 Test12= 2.17D-11 3.33D-08 XBig12= 1.25D-01 9.28D-02.
      3 vectors produced by pass  3 Test12= 2.17D-11 3.33D-08 XBig12= 1.98D-03 8.80D-03.
      3 vectors produced by pass  4 Test12= 2.17D-11 3.33D-08 XBig12= 3.84D-05 1.87D-03.
      3 vectors produced by pass  5 Test12= 2.17D-11 3.33D-08 XBig12= 1.18D-06 2.68D-04.
      3 vectors produced by pass  6 Test12= 2.17D-11 3.33D-08 XBig12= 2.03D-08 4.19D-05.
      3 vectors produced by pass  7 Test12= 2.17D-11 3.33D-08 XBig12= 5.01D-10 7.85D-06.
      3 vectors produced by pass  8 Test12= 2.17D-11 3.33D-08 XBig12= 4.29D-12 5.64D-07.
      3 vectors produced by pass  9 Test12= 2.17D-11 3.33D-08 XBig12= 3.27D-14 5.27D-08.
 InvSVY:  IOpt=1 It=  1 EMax= 7.11D-15
 Solved reduced A of dimension    30 with     3 vectors.
 Calculating GIAO nuclear magnetic shielding tensors.
 SCF GIAO Magnetic shielding tensor (ppm):
      1  C    Isotropic =   110.8399   Anisotropy =    91.5201
   XX=    85.1684   YX=    41.9489   ZX=    -9.1009
   XY=    53.1848   YY=   118.1417   ZY=   -29.5263
   XZ=   -13.0101   YZ=   -25.8230   ZZ=   129.2095
   Eigenvalues:    50.6072   110.0592   171.8533
      2  C    Isotropic =   112.0291   Anisotropy =    90.0686
   XX=   113.1941   YX=     3.9778   ZX=   -17.9539
   XY=     5.2619   YY=   106.2909   ZY=   -64.6482
   XZ=   -14.3298   YZ=   -48.3971   ZZ=   116.6024
   Eigenvalues:    53.7186   110.2940   172.0749
      3  C    Isotropic =   111.8708   Anisotropy =    90.2359
   XX=    57.2849   YX=     6.0177   ZX=   -18.8323
   XY=    -7.8812   YY=   147.6307   ZY=   -32.6746
   XZ=   -12.9397   YZ=   -29.3708   ZZ=   130.6967
   Eigenvalues:    53.3691   110.2152   172.0281
      4  C    Isotropic =   110.2713   Anisotropy =    92.9430
   XX=    91.3815   YX=    30.0730   ZX=    16.4552
   XY=    24.3822   YY=   147.3519   ZY=   -32.8567
   XZ=    14.3341   YZ=   -47.1774   ZZ=    92.0803
   Eigenvalues:    52.2423   106.3382   172.2333
      5  C    Isotropic =   112.9926   Anisotropy =    90.2546
   XX=   100.8748   YX=    12.6623   ZX=   -33.2765
   XY=    15.7628   YY=   153.6152   ZY=   -21.1567
   XZ=   -39.3997   YZ=   -33.2428   ZZ=    84.4878
   Eigenvalues:    53.7227   112.0927   173.1623
      6  H    Isotropic =    27.3892   Anisotropy =     6.5582
   XX=    25.7336   YX=     1.3252   ZX=     0.9498
   XY=     1.1885   YY=    28.8089   ZY=     3.4824
   XZ=     0.7086   YZ=     2.7509   ZZ=    27.6251
   Eigenvalues:    24.9791    25.4271    31.7613
      7  H    Isotropic =    27.4532   Anisotropy =     6.5825
   XX=    31.3316   YX=     1.1511   ZX=     1.8261
   XY=     1.1619   YY=    25.8377   ZY=     0.3867
   XZ=     0.8473   YZ=     0.0728   ZZ=    25.1902
   Eigenvalues:    24.9117    25.6063    31.8415
      8  H    Isotropic =    27.3264   Anisotropy =     4.3721
   XX=    27.2405   YX=     1.3811   ZX=    -2.5867
   XY=    -0.3191   YY=    27.3331   ZY=     1.6130
   XZ=    -1.7655   YZ=     2.9194   ZZ=    27.4056
   Eigenvalues:    23.9227    27.8153    30.2411
      9  H    Isotropic =    27.0915   Anisotropy =     3.6335
   XX=    26.2008   YX=     0.4954   ZX=     1.1174
   XY=     0.8976   YY=    26.5381   ZY=     0.2239
   XZ=     1.8183   YZ=     1.0852   ZZ=    28.5357
   Eigenvalues:    25.3705    26.3902    29.5139
     10  H    Isotropic =    27.2333   Anisotropy =     4.0602
   XX=    29.0681   YX=    -0.9113   ZX=    -1.0615
   XY=    -1.4229   YY=    28.2772   ZY=     0.1751
   XZ=    -0.1426   YZ=    -0.3422   ZZ=    24.3547
   Eigenvalues:    24.2650    27.4948    29.9401
     11  Fe   Isotropic = -6293.0022   Anisotropy =  8474.6326
   XX= -8610.7555   YX=  1672.7641   ZX= -1387.9816
   XY=  1660.8565   YY= -4213.9739   ZY= -3795.2894
   XZ= -1341.2383   YZ= -3802.3396   ZZ= -6054.2771
   Eigenvalues: -9203.1652 -9032.5942  -643.2471
     12  C    Isotropic =   112.4075   Anisotropy =    91.6342
   XX=   106.8686   YX=     8.2145   ZX=   -29.6201
   XY=    13.2039   YY=   148.0108   ZY=   -29.0697
   XZ=   -40.9990   YZ=   -42.5632   ZZ=    82.3432
   Eigenvalues:    51.0992   112.6263   173.4970
     13  C    Isotropic =   104.4518   Anisotropy =    84.4435
   XX=    65.3350   YX=    41.7863   ZX=    -7.6937
   XY=    43.2869   YY=   114.2749   ZY=   -21.1366
   XZ=   -37.6043   YZ=    -7.4499   ZZ=   133.7455
   Eigenvalues:    38.9931   113.6148   160.7475
     14  C    Isotropic =    89.3880   Anisotropy =    96.7365
   XX=    66.7698   YX=    10.0417   ZX=   -15.2790
   XY=     9.8555   YY=    72.2289   ZY=   -53.2558
   XZ=    -5.5492   YZ=   -31.3038   ZZ=   129.1651
   Eigenvalues:    48.7875    65.4974   153.8790
     15  C    Isotropic =    87.0027   Anisotropy =    99.7726
   XX=    45.0545   YX=    -2.9668   ZX=   -10.3961
   XY=    -5.7465   YY=   113.9035   ZY=   -44.8661
   XZ=    17.0498   YZ=   -44.8850   ZZ=   102.0500
   Eigenvalues:    44.7711    62.7191   153.5178
     16  C    Isotropic =   110.1710   Anisotropy =    97.3739
   XX=    97.2919   YX=    20.7692   ZX=    10.2786
   XY=     8.2317   YY=   140.3986   ZY=   -45.1389
   XZ=    28.3424   YZ=   -61.6179   ZZ=    92.8226
   Eigenvalues:    46.6949   108.7312   175.0869
     17  H    Isotropic =    26.9791   Anisotropy =     7.2881
   XX=    27.6703   YX=     2.5365   ZX=     2.7738
   XY=     2.1545   YY=    26.9660   ZY=     2.0243
   XZ=     2.7082   YZ=     2.1740   ZZ=    26.3011
   Eigenvalues:    24.1206    24.9790    31.8379
     18  H    Isotropic =    26.7293   Anisotropy =     3.0183
   XX=    27.5286   YX=     0.0902   ZX=    -1.1823
   XY=     1.8058   YY=    27.9088   ZY=     0.8631
   XZ=    -0.0600   YZ=     1.2690   ZZ=    24.7505
   Eigenvalues:    24.1879    27.2585    28.7415
     19  C    Isotropic =   145.2904   Anisotropy =    29.5677
   XX=   145.1926   YX=     4.3952   ZX=    -3.0807
   XY=     9.4902   YY=   152.9018   ZY=   -16.6132
   XZ=    -1.7952   YZ=   -13.9451   ZZ=   137.7768
   Eigenvalues:   128.1284   142.7406   165.0022
     20  P    Isotropic =   202.1627   Anisotropy =   175.1101
   XX=   209.7703   YX=   -79.6904   ZX=    25.9949
   XY=   -56.4683   YY=   174.9388   ZY=   -86.3643
   XZ=    49.7222   YZ=   -51.0588   ZZ=   221.7789
   Eigenvalues:   109.7328   177.8524   318.9027
     21  H    Isotropic =    27.3582   Anisotropy =     5.0731
   XX=    26.0086   YX=    -2.9056   ZX=    -1.2130
   XY=     2.2560   YY=    25.6470   ZY=     1.0948
   XZ=    -0.5607   YZ=     0.5566   ZZ=    30.4191
   Eigenvalues:    25.4343    25.9001    30.7403
     22  C    Isotropic =   166.3560   Anisotropy =    15.8530
   XX=   168.8198   YX=    -3.9264   ZX=    -2.5948
   XY=    -5.0942   YY=   174.2164   ZY=     0.7496
   XZ=    -3.4121   YZ=    -0.1313   ZZ=   156.0319
   Eigenvalues:   155.3351   166.8084   176.9247
     23  H    Isotropic =    29.7145   Anisotropy =    10.6854
   XX=    35.9674   YX=    -2.5420   ZX=     2.1171
   XY=     0.3293   YY=    29.6303   ZY=    -3.2805
   XZ=     3.1722   YZ=    -1.0486   ZZ=    23.5459
   Eigenvalues:    22.4891    29.8164    36.8382
     24  H    Isotropic =    29.0751   Anisotropy =    10.1984
   XX=    29.2092   YX=     0.1031   ZX=    -1.5288
   XY=     3.1395   YY=    34.4523   ZY=    -3.5634
   XZ=    -0.9732   YZ=    -2.8722   ZZ=    23.5638
   Eigenvalues:    22.5882    28.7630    35.8740
     25  H    Isotropic =    29.4305   Anisotropy =     3.9916
   XX=    27.8983   YX=    -2.9233   ZX=    -2.5118
   XY=     1.3807   YY=    29.4218   ZY=    -0.0019
   XZ=    -0.9689   YZ=     1.3672   ZZ=    30.9714
   Eigenvalues:    27.0323    29.1677    32.0916
     26  C    Isotropic =    54.0242   Anisotropy =   191.8433
   XX=   -30.6800   YX=    25.6596   ZX=    27.1595
   XY=    20.4451   YY=   160.8342   ZY=    48.2770
   XZ=    25.0745   YZ=    50.5251   ZZ=    31.9182
   Eigenvalues:   -40.2872    20.4399   181.9197
     27  C    Isotropic =    47.6534   Anisotropy =   160.5323
   XX=    28.2042   YX=    11.5902   ZX=    27.3383
   XY=    10.7599   YY=   126.2878   ZY=    67.8441
   XZ=    21.6925   YZ=    60.8467   ZZ=   -11.5319
   Eigenvalues:   -42.0276    30.3129   154.6749
     28  C    Isotropic =    33.5483   Anisotropy =   207.9147
   XX=   -23.9383   YX=    48.9978   ZX=   -16.2067
   XY=    52.4682   YY=   135.1841   ZY=    62.7305
   XZ=   -13.1243   YZ=    76.4997   ZZ=   -10.6010
   Eigenvalues:   -67.6552    -3.8580   172.1581
     29  C    Isotropic =    37.1015   Anisotropy =   187.0647
   XX=   -31.5174   YX=    32.5636   ZX=    28.5822
   XY=    34.0718   YY=   129.0193   ZY=    67.1098
   XZ=    24.6005   YZ=    48.7003   ZZ=    13.8027
   Eigenvalues:   -44.1187    -6.3879   161.8113
     30  C    Isotropic =    42.1802   Anisotropy =   194.4047
   XX=    13.4365   YX=    19.1832   ZX=    18.4641
   XY=    16.2282   YY=   150.3670   ZY=    57.9113
   XZ=    22.5513   YZ=    64.1753   ZZ=   -37.2630
   Eigenvalues:   -58.4477    13.2049   171.7833
     31  C    Isotropic =    48.5794   Anisotropy =   159.3729
   XX=     1.7269   YX=    34.7876   ZX=   -29.0963
   XY=    37.8260   YY=   129.4560   ZY=    54.3937
   XZ=   -23.6065   YZ=    53.5034   ZZ=    14.5552
   Eigenvalues:   -42.0064    32.9165   154.8280
     32  H    Isotropic =    23.2656   Anisotropy =     9.3297
   XX=    22.5175   YX=    -2.1218   ZX=     0.9632
   XY=    -2.0490   YY=    20.0551   ZY=    -3.6245
   XZ=     1.4363   YZ=    -4.1648   ZZ=    27.2241
   Eigenvalues:    17.8731    22.4382    29.4854
     33  C    Isotropic =    49.0380   Anisotropy =    14.9025
   XX=    58.4563   YX=    -2.6938   ZX=     1.2319
   XY=    -1.9503   YY=    46.8630   ZY=     0.9322
   XZ=     1.1159   YZ=    -0.2376   ZZ=    41.7947
   Eigenvalues:    41.6595    46.4816    58.9730
     34  H    Isotropic =    21.3651   Anisotropy =    17.4981
   XX=    28.8156   YX=     4.4995   ZX=    -6.5515
   XY=     5.0446   YY=    15.9453   ZY=     0.8773
   XZ=    -6.1110   YZ=    -0.5265   ZZ=    19.3343
   Eigenvalues:    13.2234    17.8413    33.0305
     35  H    Isotropic =    24.0882   Anisotropy =    15.3560
   XX=    32.9769   YX=    -5.5640   ZX=     1.3969
   XY=    -1.8346   YY=    22.1710   ZY=     1.3799
   XZ=     2.5955   YZ=    -1.1242   ZZ=    17.1165
   Eigenvalues:    16.7949    21.1441    34.3255
     36  C    Isotropic =    48.7693   Anisotropy =    13.7198
   XX=    51.7679   YX=    -1.1394   ZX=    -8.0715
   XY=     0.0597   YY=    46.7077   ZY=    -0.2694
   XZ=    -7.6725   YZ=    -1.5425   ZZ=    47.8322
   Eigenvalues:    41.4765    46.9155    57.9158
     37  C    Isotropic =    54.7348   Anisotropy =   193.8141
   XX=    94.6460   YX=   -86.1341   ZX=    19.9623
   XY=   -87.8180   YY=    67.0272   ZY=   -62.9017
   XZ=    16.3987   YZ=   -52.9814   ZZ=     2.5313
   Eigenvalues:   -40.9487    21.2089   183.9442
     38  C    Isotropic =    48.9511   Anisotropy =   161.6263
   XX=    84.7766   YX=   -56.8710   ZX=    48.5145
   XY=   -54.7337   YY=    86.4646   ZY=   -22.2725
   XZ=    51.8966   YZ=   -25.2844   ZZ=   -24.3880
   Eigenvalues:   -43.9999    34.1512   156.7019
     39  C    Isotropic =    48.9588   Anisotropy =   201.5361
   XX=    71.1145   YX=  -112.0097   ZX=    46.9372
   XY=  -103.0701   YY=    52.2649   ZY=   -18.3122
   XZ=    45.5590   YZ=   -18.5462   ZZ=    23.4968
   Eigenvalues:   -51.0753    14.6354   183.3162
     40  C    Isotropic =    34.6159   Anisotropy =   197.1203
   XX=    86.0782   YX=   -91.7606   ZX=    25.6347
   XY=   -86.6971   YY=    35.7556   ZY=   -39.4857
   XZ=    30.3637   YZ=   -44.2597   ZZ=   -17.9860
   Eigenvalues:   -47.0669   -15.1147   166.0295
     41  C    Isotropic =    39.9220   Anisotropy =   209.5122
   XX=    77.8882   YX=   -91.1201   ZX=    58.8042
   XY=   -79.7370   YY=    89.1480   ZY=   -13.7034
   XZ=    40.1244   YZ=   -26.3520   ZZ=   -47.2703
   Eigenvalues:   -65.2374     5.4066   179.5968
     42  C    Isotropic =    48.5957   Anisotropy =   166.4138
   XX=    64.8854   YX=   -87.6977   ZX=    35.6147
   XY=  -102.8147   YY=    49.7226   ZY=    -3.6173
   XZ=    34.2621   YZ=    -6.3335   ZZ=    31.1790
   Eigenvalues:   -43.9296    30.1783   159.5382
     43  H    Isotropic =    23.5523   Anisotropy =     8.5647
   XX=    24.0177   YX=     3.8314   ZX=    -1.6653
   XY=     2.8051   YY=    21.5510   ZY=    -2.8778
   XZ=    -3.0354   YZ=    -2.5173   ZZ=    25.0881
   Eigenvalues:    19.0693    22.3255    29.2621
     44  C    Isotropic =    48.0689   Anisotropy =    15.4446
   XX=    49.0072   YX=     8.1054   ZX=     5.6827
   XY=     6.9003   YY=    50.2841   ZY=     1.0138
   XZ=     5.1069   YZ=    -0.4205   ZZ=    44.9155
   Eigenvalues:    39.2008    46.6406    58.3653
     45  H    Isotropic =    24.4333   Anisotropy =     8.1864
   XX=    26.4481   YX=    -1.7183   ZX=     1.3030
   XY=     1.7829   YY=    19.8348   ZY=     5.3306
   XZ=     2.4600   YZ=     3.2502   ZZ=    27.0171
   Eigenvalues:    17.7612    25.6479    29.8909
     46  H    Isotropic =    25.0266   Anisotropy =    14.5891
   XX=    24.8042   YX=     4.1025   ZX=     1.7379
   XY=     0.4929   YY=    31.6039   ZY=     5.9681
   XZ=     0.3762   YZ=     6.4755   ZZ=    18.6718
   Eigenvalues:    16.1627    24.1644    34.7527
     47  C    Isotropic =    48.9289   Anisotropy =    12.3011
   XX=    44.3488   YX=    -0.4126   ZX=     1.5497
   XY=    -3.1466   YY=    48.2690   ZY=     5.2979
   XZ=     1.1592   YZ=     4.9310   ZZ=    54.1688
   Eigenvalues:    42.5580    47.0990    57.1296
     48  F    Isotropic =   217.9651   Anisotropy =   146.4264
   XX=   303.2249   YX=   -45.1455   ZX=     8.3473
   XY=   -44.7156   YY=   152.1543   ZY=    27.6191
   XZ=     8.8381   YZ=    29.3503   ZZ=   198.5160
   Eigenvalues:   127.3668   210.9458   315.5826
     49  F    Isotropic =   241.5338   Anisotropy =   130.3426
   XX=   188.8318   YX=   -29.6436   ZX=    -7.6197
   XY=   -43.3401   YY=   228.2192   ZY=   -50.4315
   XZ=     1.1374   YZ=   -38.1246   ZZ=   307.5504
   Eigenvalues:   162.0845   234.0881   328.4288
     50  F    Isotropic =   245.1274   Anisotropy =   135.8152
   XX=   198.8663   YX=   -10.2958   ZX=    37.0536
   XY=   -25.6376   YY=   303.0168   ZY=    64.7873
   XZ=    34.3706   YZ=    50.6650   ZZ=   233.4992
   Eigenvalues:   159.9167   239.7947   335.6709
     51  F    Isotropic =   211.2273   Anisotropy =   139.4469
   XX=   255.1990   YX=   -45.3910   ZX=   -14.0865
   XY=   -47.5792   YY=   240.7310   ZY=    46.3144
   XZ=   -14.2795   YZ=    38.8790   ZZ=   137.7520
   Eigenvalues:   122.3659   207.1242   304.1919
     52  F    Isotropic =   248.5648   Anisotropy =   118.3271
   XX=   263.4064   YX=    33.7463   ZX=     8.4801
   XY=    32.5791   YY=   290.1727   ZY=   -45.7204
   XZ=     1.1130   YZ=   -63.4321   ZZ=   192.1154
   Eigenvalues:   164.3649   253.8801   327.4496
     53  F    Isotropic =   240.5336   Anisotropy =   145.1945
   XX=   231.8238   YX=     8.1777   ZX=    78.0177
   XY=     2.4703   YY=   229.7398   ZY=    17.7283
   XZ=    96.9455   YZ=    18.6296   ZZ=   260.0371
   Eigenvalues:   156.4832   227.7876   337.3299
     54  F    Isotropic =   249.0786   Anisotropy =   140.3393
   XX=   327.1876   YX=    30.1755   ZX=   -20.1527
   XY=    38.9002   YY=   245.5987   ZY=    23.6369
   XZ=   -37.7318   YZ=    10.6664   ZZ=   174.4495
   Eigenvalues:   162.2867   242.3109   342.6381
     55  F    Isotropic =   222.5607   Anisotropy =   144.9692
   XX=   208.6101   YX=   -10.9430   ZX=    23.2600
   XY=   -13.9053   YY=   209.9755   ZY=    86.5268
   XZ=    23.5226   YZ=    86.3820   ZZ=   249.0964
   Eigenvalues:   133.0176   215.4576   319.2068
     56  F    Isotropic =   242.8512   Anisotropy =   139.8628
   XX=   234.4649   YX=   -35.3301   ZX=    42.5283
   XY=   -42.2170   YY=   300.5266   ZY=   -25.3477
   XZ=    50.0796   YZ=   -39.7713   ZZ=   193.5621
   Eigenvalues:   163.0621   229.3984   336.0931
     57  F    Isotropic =   248.0232   Anisotropy =   137.4829
   XX=   293.6936   YX=   -32.3018   ZX=   -63.6908
   XY=   -29.0953   YY=   257.6751   ZY=    41.0885
   XZ=   -47.6580   YZ=    24.4980   ZZ=   192.7009
   Eigenvalues:   164.2921   240.0990   339.6784
     58  F    Isotropic =   219.7789   Anisotropy =   148.3692
   XX=   210.7162   YX=    61.8240   ZX=    15.3843
   XY=    62.2935   YY=   206.5701   ZY=    66.7318
   XZ=    16.1273   YZ=    65.9377   ZZ=   242.0503
   Eigenvalues:   131.1008   209.5442   318.6916
     59  F    Isotropic =   244.3210   Anisotropy =   140.6314
   XX=   180.2186   YX=    14.8106   ZX=   -35.9469
   XY=    34.7126   YY=   286.6651   ZY=   -43.5834
   XZ=   -45.9286   YZ=   -51.5942   ZZ=   266.0791
   Eigenvalues:   163.5453   231.3424   338.0752
     60  P    Isotropic =   246.9565   Anisotropy =   116.6395
   XX=   207.9585   YX=   -35.1954   ZX=    -7.5854
   XY=   -59.9587   YY=   264.8858   ZY=    45.5917
   XZ=    11.3429   YZ=    51.6797   ZZ=   268.0252
   Eigenvalues:   172.8529   243.3004   324.7162
     61  C    Isotropic =    18.2009   Anisotropy =   129.6459
   XX=   -44.4836   YX=    28.0961   ZX=   -41.2141
   XY=    25.1234   YY=    12.7981   ZY=   -19.6781
   XZ=   -38.8006   YZ=   -17.5276   ZZ=    86.2883
   Eigenvalues:   -61.7466    11.7178   104.6315
     62  C    Isotropic =    47.8827   Anisotropy =   169.7740
   XX=    24.9844   YX=    36.0189   ZX=   -33.2116
   XY=    20.6311   YY=   -16.9902   ZY=   -43.0958
   XZ=   -37.2089   YZ=   -48.1969   ZZ=   135.6539
   Eigenvalues:   -35.8420    18.4247   161.0654
     63  C    Isotropic =    49.0006   Anisotropy =   154.6891
   XX=    24.1635   YX=   -32.0507   ZX=   -50.1435
   XY=   -25.0372   YY=     2.7668   ZY=   -49.0096
   XZ=   -57.6162   YZ=   -48.2302   ZZ=   120.0715
   Eigenvalues:   -47.3755    42.2506   152.1267
     64  C    Isotropic =    47.2342   Anisotropy =   167.5169
   XX=   -18.7499   YX=    35.8266   ZX=   -53.9031
   XY=    21.6003   YY=    29.0780   ZY=   -31.8368
   XZ=   -42.9176   YZ=   -37.2761   ZZ=   131.3743
   Eigenvalues:   -38.4336    21.2240   158.9121
     65  C    Isotropic =    39.4474   Anisotropy =   173.0984
   XX=    32.1957   YX=    30.4738   ZX=   -32.4658
   XY=    31.5917   YY=   -37.4810   ZY=   -51.6496
   XZ=   -37.3811   YZ=   -55.9722   ZZ=   123.6277
   Eigenvalues:   -58.4893    21.9852   154.8464
     66  C    Isotropic =    48.2475   Anisotropy =   171.4816
   XX=     8.9859   YX=   -13.5344   ZX=   -57.7534
   XY=    -1.7211   YY=    10.6020   ZY=   -51.8483
   XZ=   -54.1680   YZ=   -55.3090   ZZ=   125.1546
   Eigenvalues:   -35.2788    17.4528   162.5686
     67  H    Isotropic =    25.2148   Anisotropy =    15.5052
   XX=    31.7554   YX=    -3.9820   ZX=     2.2498
   XY=    -8.3240   YY=    25.0379   ZY=    -0.4160
   XZ=     0.2829   YZ=    -1.4120   ZZ=    18.8510
   Eigenvalues:    18.6989    21.3938    35.5516
     68  H    Isotropic =    23.1161   Anisotropy =    11.6002
   XX=    29.6519   YX=     1.1469   ZX=     3.7297
   XY=    -1.5166   YY=    19.6667   ZY=    -2.6236
   XZ=     3.2460   YZ=    -1.7391   ZZ=    20.0297
   Eigenvalues:    17.2067    21.2920    30.8496
     69  Cl   Isotropic =   807.2003   Anisotropy =   328.4692
   XX=   874.6149   YX=   123.1151   ZX=    13.7449
   XY=   205.7573   YY=   712.2668   ZY=  -165.4892
   XZ=   -16.1642   YZ=  -154.0286   ZZ=   834.7192
   Eigenvalues:   543.5780   851.8431  1026.1797
     70  Cl   Isotropic =   897.2643   Anisotropy =   598.6200
   XX=   984.9707   YX=   237.4381   ZX=  -187.6188
   XY=   313.1687   YY=   980.1014   ZY=   -82.4583
   XZ=  -181.8460   YZ=    43.0403   ZZ=   726.7209
   Eigenvalues:   585.1296   810.3190  1296.3443
     71  H    Isotropic =    27.3485   Anisotropy =     4.0255
   XX=    29.7262   YX=     2.0887   ZX=     2.3171
   XY=    -1.6141   YY=    27.3736   ZY=    -0.0409
   XZ=     0.1668   YZ=    -1.2241   ZZ=    24.9455
   Eigenvalues:    24.4862    27.5270    30.0321
     72  C    Isotropic =    52.4053   Anisotropy =   189.2961
   XX=   164.2644   YX=    35.6730   ZX=    44.7929
   XY=    31.3832   YY=    -4.5153   ZY=   -35.0239
   XZ=    44.2465   YZ=   -39.1263   ZZ=    -2.5332
   Eigenvalues:   -54.5305    33.1438   178.6027
     73  C    Isotropic =    48.6738   Anisotropy =   191.7203
   XX=   166.8049   YX=    10.8305   ZX=    43.0482
   XY=    12.0481   YY=    24.1503   ZY=    25.4748
   XZ=    40.5246   YZ=    26.8302   ZZ=   -44.9339
   Eigenvalues:   -59.5958    29.1298   176.4873
     74  C    Isotropic =    41.8539   Anisotropy =   167.5532
   XX=   145.7818   YX=     2.4963   ZX=    35.2839
   XY=    10.3327   YY=   -51.7106   ZY=    27.0309
   XZ=    23.3003   YZ=    21.3648   ZZ=    31.4906
   Eigenvalues:   -58.2469    30.2526   153.5561
     75  C    Isotropic =    36.6726   Anisotropy =   194.1184
   XX=   161.3252   YX=    13.8611   ZX=    29.7111
   XY=    -0.3720   YY=   -30.9239   ZY=   -27.6574
   XZ=    29.8165   YZ=   -40.5897   ZZ=   -20.3833
   Eigenvalues:   -62.9134     6.8465   166.0849
     76  C    Isotropic =    39.9301   Anisotropy =   176.8186
   XX=   148.5450   YX=    -8.7586   ZX=    22.1354
   XY=    -3.1042   YY=     5.1856   ZY=    19.2802
   XZ=    62.1098   YZ=    23.0762   ZZ=   -33.9403
   Eigenvalues:   -51.6745    13.6556   157.8092
     77  C    Isotropic =    42.1322   Anisotropy =   200.6295
   XX=   164.5116   YX=    27.1299   ZX=    31.2031
   XY=    27.2916   YY=   -57.9067   ZY=    26.9359
   XZ=    34.4631   YZ=    19.3589   ZZ=    19.7917
   Eigenvalues:   -65.7155    16.2270   175.8852
     78  H    Isotropic =    23.8082   Anisotropy =     3.7640
   XX=    22.7070   YX=     0.2386   ZX=    -2.6805
   XY=    -1.0000   YY=    23.5589   ZY=    -0.8318
   XZ=    -0.4869   YZ=    -1.7487   ZZ=    25.1588
   Eigenvalues:    21.4837    23.6234    26.3176
     79  H    Isotropic =    23.4401   Anisotropy =     4.3849
   XX=    21.2259   YX=     0.4987   ZX=    -0.9387
   XY=     0.0849   YY=    25.2439   ZY=     1.7317
   XZ=    -1.2181   YZ=     1.5668   ZZ=    23.8505
   Eigenvalues:    20.6664    23.2905    26.3634
     80  H    Isotropic =    22.2992   Anisotropy =     8.2322
   XX=    18.8217   YX=     2.1328   ZX=    -2.4908
   XY=     1.3370   YY=    23.1040   ZY=     3.9168
   XZ=    -1.2085   YZ=     3.3047   ZZ=    24.9721
   Eigenvalues:    16.9434    22.1670    27.7874
     81  H    Isotropic =    23.6240   Anisotropy =     8.7814
   XX=    22.9995   YX=     0.5718   ZX=    -4.3915
   XY=    -2.3187   YY=    19.4058   ZY=     1.5257
   XZ=     0.3096   YZ=     1.7558   ZZ=    28.4666
   Eigenvalues:    19.0437    22.3499    29.4782
     82  C    Isotropic =    17.8338   Anisotropy =   134.6701
   XX=    69.9911   YX=   -71.7404   ZX=    -5.4877
   XY=   -70.0831   YY=   -27.4501   ZY=    -2.2858
   XZ=    -7.4133   YZ=     1.1720   ZZ=    10.9602
   Eigenvalues:   -64.9268    10.8143   107.6138
     83  C    Isotropic =    43.9879   Anisotropy =   180.1401
   XX=   126.1753   YX=   -68.8646   ZX=    -2.5509
   XY=   -69.3470   YY=    30.8800   ZY=    36.0979
   XZ=    -7.0461   YZ=    20.1799   ZZ=   -25.0916
   Eigenvalues:   -41.0167     8.8990   164.0813
     84  C    Isotropic =    40.4456   Anisotropy =   178.2086
   XX=   112.0119   YX=   -76.2230   ZX=   -23.3628
   XY=   -62.4297   YY=    55.8661   ZY=   -23.4972
   XZ=   -32.2878   YZ=   -22.8674   ZZ=   -46.5412
   Eigenvalues:   -63.6207    25.7061   159.2513
     85  C    Isotropic =    55.3859   Anisotropy =   165.8142
   XX=   107.3301   YX=   -84.6301   ZX=   -19.6903
   XY=   -97.1174   YY=    20.2297   ZY=     1.6908
   XZ=    -7.2284   YZ=     5.2695   ZZ=    38.5978
   Eigenvalues:   -37.2288    37.4577   165.9287
     86  C    Isotropic =    49.2387   Anisotropy =   166.2751
   XX=   130.8754   YX=   -54.7678   ZX=    17.2405
   XY=   -57.9757   YY=    48.9613   ZY=    37.9891
   XZ=     1.1116   YZ=    39.6032   ZZ=   -32.1206
   Eigenvalues:   -53.0190    40.6464   160.0888
     87  C    Isotropic =    48.6066   Anisotropy =   174.8080
   XX=   123.9645   YX=   -72.7773   ZX=   -26.6148
   XY=   -68.1172   YY=    42.1645   ZY=   -23.0924
   XZ=   -17.8723   YZ=   -11.6335   ZZ=   -20.3092
   Eigenvalues:   -38.0875    18.7620   165.1453
     88  H    Isotropic =    22.9031   Anisotropy =    14.5154
   XX=    19.6940   YX=     5.2351   ZX=    -0.6236
   XY=     4.4059   YY=    29.6411   ZY=    -3.1781
   XZ=    -3.3079   YZ=    -3.0078   ZZ=    19.3741
   Eigenvalues:    17.3491    18.7802    32.5800
     89  H    Isotropic =    25.6055   Anisotropy =     7.8989
   XX=    26.9947   YX=     4.7681   ZX=     0.3941
   XY=    -0.4659   YY=    27.9877   ZY=     2.4983
   XZ=     3.7479   YZ=     2.5260   ZZ=    21.8340
   Eigenvalues:    20.6608    25.2842    30.8714
     90  Pd   Isotropic =  -174.3856   Anisotropy =   256.3806
   XX=  -217.7155   YX=  -192.8104   ZX=    70.8835
   XY=  -231.7422   YY=  -244.6124   ZY=   106.5101
   XZ=    70.1135   YZ=    98.0950   ZZ=   -60.8288
   Eigenvalues:  -479.9343   -39.7572    -3.4652
     91  C    Isotropic =   167.4672   Anisotropy =    29.5865
   XX=   163.8041   YX=    -6.3581   ZX=     2.1482
   XY=    -5.7221   YY=   185.0465   ZY=     4.9543
   XZ=    -1.1671   YZ=     4.1708   ZZ=   153.5510
   Eigenvalues:   152.7256   162.4844   187.1915
     92  H    Isotropic =    30.0115   Anisotropy =     6.2390
   XX=    33.1080   YX=    -0.4298   ZX=     2.5842
   XY=     1.1194   YY=    32.6447   ZY=     2.3849
   XZ=     2.1523   YZ=     1.1861   ZZ=    24.2817
   Eigenvalues:    23.3912    32.4724    34.1708
     93  H    Isotropic =    28.9286   Anisotropy =     9.3978
   XX=    27.9711   YX=    -0.8828   ZX=     3.8463
   XY=    -3.1637   YY=    31.2952   ZY=    -2.8965
   XZ=     3.8103   YZ=    -3.6327   ZZ=    27.5194
   Eigenvalues:    23.7420    27.8499    35.1938
     94  H    Isotropic =    29.3587   Anisotropy =     8.9850
   XX=    31.9905   YX=    -1.9533   ZX=    -2.2605
   XY=    -2.3940   YY=    28.6923   ZY=     2.8157
   XZ=    -3.9147   YZ=     3.5524   ZZ=    27.3931
   Eigenvalues:    24.6021    28.1253    35.3487
     95  C    Isotropic =   169.4590   Anisotropy =    28.3152
   XX=   173.3250   YX=     7.2123   ZX=    11.7037
   XY=    10.0051   YY=   167.3642   ZY=    10.5586
   XZ=     5.1228   YZ=    11.7582   ZZ=   167.6879
   Eigenvalues:   156.3616   163.6796   188.3359
     96  H    Isotropic =    29.1715   Anisotropy =     6.1544
   XX=    30.7579   YX=    -1.4922   ZX=     1.4951
   XY=    -3.1566   YY=    28.6405   ZY=     3.1929
   XZ=     0.6627   YZ=     5.6350   ZZ=    28.1160
   Eigenvalues:    23.1982    31.0418    33.2744
     97  H    Isotropic =    29.2834   Anisotropy =     7.3431
   XX=    31.8926   YX=     2.7244   ZX=    -0.2710
   XY=     2.4153   YY=    30.1639   ZY=    -1.5099
   XZ=    -1.6154   YZ=    -2.3713   ZZ=    25.7937
   Eigenvalues:    25.0562    28.6152    34.1788
     98  H    Isotropic =    28.6860   Anisotropy =     9.0997
   XX=    29.9278   YX=    -3.3779   ZX=     4.7014
   XY=    -2.1115   YY=    28.2561   ZY=     0.7037
   XZ=     5.8924   YZ=     0.7424   ZZ=    27.8741
   Eigenvalues:    22.5374    28.7681    34.7524
     99  O    Isotropic =   255.9816   Anisotropy =   111.7988
   XX=   242.5551   YX=   -22.0449   ZX=    20.2972
   XY=   -32.3895   YY=   224.9340   ZY=   -30.5993
   XZ=    29.2520   YZ=   -48.7779   ZZ=   300.4556
   Eigenvalues:   200.7015   236.7290   330.5141
    100  C    Isotropic =   126.5128   Anisotropy =    83.4537
   XX=   150.7564   YX=     9.1680   ZX=   -35.9519
   XY=    11.8467   YY=    98.9475   ZY=   -10.5735
   XZ=   -39.5705   YZ=   -11.0165   ZZ=   129.8346
   Eigenvalues:    95.4307   101.9591   182.1487
    101  H    Isotropic =    27.8538   Anisotropy =     7.4053
   XX=    30.3801   YX=     2.4118   ZX=    -2.2101
   XY=     0.7069   YY=    28.3944   ZY=     0.6086
   XZ=    -5.0207   YZ=    -1.8457   ZZ=    24.7870
   Eigenvalues:    23.0094    27.7614    32.7907
    102  H    Isotropic =    28.2712   Anisotropy =     8.3479
   XX=    29.7019   YX=    -0.5922   ZX=    -3.8996
   XY=     0.8707   YY=    25.4146   ZY=     0.5507
   XZ=    -4.0461   YZ=     3.0089   ZZ=    29.6970
   Eigenvalues:    24.1241    26.8530    33.8364
    103  H    Isotropic =    27.6779   Anisotropy =    10.6810
   XX=    34.4481   YX=    -2.4402   ZX=     0.7208
   XY=    -0.7987   YY=    24.6911   ZY=    -0.1842
   XZ=    -2.6787   YZ=     0.3962   ZZ=    23.8945
   Eigenvalues:    23.8016    24.4335    34.7985
    104  C    Isotropic =   169.0330   Anisotropy =    28.8385
   XX=   161.7580   YX=     6.5839   ZX=     0.8092
   XY=    -0.7299   YY=   167.5478   ZY=   -13.7351
   XZ=    -1.4670   YZ=   -15.4006   ZZ=   177.7932
   Eigenvalues:   156.3194   162.5209   188.2587
    105  H    Isotropic =    29.1823   Anisotropy =     7.4279
   XX=    30.5403   YX=     1.6119   ZX=    -3.7047
   XY=     0.3829   YY=    27.2941   ZY=    -0.3105
   XZ=    -3.8861   YZ=    -0.8777   ZZ=    29.7124
   Eigenvalues:    26.2512    27.1614    34.1342
    106  H    Isotropic =    28.8243   Anisotropy =     8.9403
   XX=    23.7147   YX=     0.1456   ZX=     2.9278
   XY=     0.9937   YY=    34.4207   ZY=    -0.8047
   XZ=     0.6229   YZ=    -2.2493   ZZ=    28.3375
   Eigenvalues:    23.0162    28.6722    34.7845
    107  H    Isotropic =    29.3348   Anisotropy =     6.7730
   XX=    27.8044   YX=     3.1280   ZX=     4.6839
   XY=     2.1384   YY=    28.8767   ZY=    -3.1834
   XZ=     3.0574   YZ=    -1.0524   ZZ=    31.3232
   Eigenvalues:    23.2873    30.8670    33.8502
    108  C    Isotropic =   167.4254   Anisotropy =    23.5961
   XX=   157.0509   YX=     2.4222   ZX=     2.4601
   XY=     3.0743   YY=   165.1293   ZY=     8.0349
   XZ=     3.0738   YZ=     5.3933   ZZ=   180.0961
   Eigenvalues:   156.1805   162.9396   183.1561
    109  H    Isotropic =    29.0460   Anisotropy =     5.1401
   XX=    31.7202   YX=     1.2978   ZX=     1.1572
   XY=     1.1408   YY=    28.4313   ZY=     0.4952
   XZ=     1.4373   YZ=     0.4833   ZZ=    26.9865
   Eigenvalues:    26.6345    28.0308    32.4727
    110  H    Isotropic =    28.9717   Anisotropy =    10.8046
   XX=    24.4643   YX=    -3.2502   ZX=    -2.7227
   XY=    -1.9303   YY=    34.3629   ZY=     2.6693
   XZ=    -0.6742   YZ=     2.8129   ZZ=    28.0880
   Eigenvalues:    23.5603    27.1800    36.1748
    111  H    Isotropic =    29.9867   Anisotropy =     6.6746
   XX=    25.5007   YX=     1.4552   ZX=    -2.1118
   XY=     1.5558   YY=    32.7141   ZY=     0.1430
   XZ=    -1.3000   YZ=    -3.2959   ZZ=    31.7452
   Eigenvalues:    24.9088    30.6148    34.4364
    112  O    Isotropic =   254.1545   Anisotropy =   124.7789
   XX=   249.0958   YX=   -49.1622   ZX=   -10.3099
   XY=   -40.3517   YY=   312.7306   ZY=    19.1137
   XZ=     9.4164   YZ=    12.7462   ZZ=   200.6372
   Eigenvalues:   197.4736   227.6495   337.3405
    113  C    Isotropic =   125.9990   Anisotropy =    79.8063
   XX=   175.5424   YX=    10.4554   ZX=   -13.9108
   XY=     7.9450   YY=   104.0047   ZY=    -2.6758
   XZ=   -13.9763   YZ=    -3.1252   ZZ=    98.4500
   Eigenvalues:    95.7794   103.0145   179.2032
    114  H    Isotropic =    27.6439   Anisotropy =    10.0983
   XX=    28.5347   YX=     6.3796   ZX=    -0.2763
   XY=     3.1195   YY=    30.3404   ZY=    -0.5514
   XZ=    -0.8240   YZ=    -1.2266   ZZ=    24.0566
   Eigenvalues:    23.9228    24.6327    34.3761
    115  H    Isotropic =    27.7500   Anisotropy =     5.8687
   XX=    30.7493   YX=    -0.3541   ZX=     3.6843
   XY=    -0.4366   YY=    27.4721   ZY=    -2.6379
   XZ=     0.1386   YZ=    -2.2137   ZZ=    25.0287
   Eigenvalues:    23.2535    28.3340    31.6625
    116  H    Isotropic =    27.8188   Anisotropy =     5.8965
   XX=    30.3028   YX=     2.0881   ZX=    -3.3870
   XY=     0.9070   YY=    25.2419   ZY=    -0.2706
   XZ=    -0.6154   YZ=    -0.1945   ZZ=    27.9116
   Eigenvalues:    24.7942    26.9123    31.7498
 End of Minotr F.D. properties file   721 does not exist.
 End of Minotr F.D. properties file   722 does not exist.
 End of Minotr F.D. properties file   788 does not exist.
 Hyperfine terms turned off by default for NAtoms > 100.

 **********************************************************************

            Population analysis using the SCF Density.

 **********************************************************************

 Orbital symmetries:
       Occupied  (A) (A) (A) (A) (A) (A) (A) (A) (A) (A) (A) (A)
                 (A) (A) (A) (A) (A) (A) (A) (A) (A) (A) (A) (A)
                 (A) (A) (A) (A) (A) (A) (A) (A) (A) (A) (A) (A)
                 (A) (A) (A) (A) (A) (A) (A) (A) (A) (A) (A) (A)
                 (A) (A) (A) (A) (A) (A) (A) (A) (A) (A) (A) (A)
                 (A) (A) (A) (A) (A) (A) (A) (A) (A) (A) (A) (A)
                 (A) (A) (A) (A) (A) (A) (A) (A) (A) (A) (A) (A)
                 (A) (A) (A) (A) (A) (A) (A) (A) (A) (A) (A) (A)
                 (A) (A) (A) (A) (A) (A) (A) (A) (A) (A) (A) (A)
                 (A) (A) (A) (A) (A) (A) (A) (A) (A) (A) (A) (A)
                 (A) (A) (A) (A) (A) (A) (A) (A) (A) (A) (A) (A)
                 (A) (A) (A) (A) (A) (A) (A) (A) (A) (A) (A) (A)
                 (A) (A) (A) (A) (A) (A) (A) (A) (A) (A) (A) (A)
                 (A) (A) (A) (A) (A) (A) (A) (A) (A) (A) (A) (A)
                 (A) (A) (A) (A) (A) (A) (A) (A) (A) (A) (A) (A)
                 (A) (A) (A) (A) (A) (A) (A) (A) (A) (A) (A) (A)
                 (A) (A) (A) (A) (A) (A) (A) (A) (A) (A) (A) (A)
                 (A) (A) (A) (A) (A) (A) (A) (A) (A) (A) (A) (A)
                 (A) (A) (A) (A) (A) (A) (A) (A) (A) (A) (A) (A)
                 (A) (A) (A) (A) (A) (A) (A) (A) (A) (A) (A) (A)
                 (A) (A) (A) (A) (A) (A) (A) (A) (A) (A) (A) (A)
                 (A) (A) (A) (A) (A) (A) (A) (A) (A) (A) (A) (A)
                 (A) (A) (A) (A) (A) (A) (A) (A) (A) (A) (A) (A)
                 (A) (A) (A) (A) (A) (A) (A) (A) (A) (A) (A) (A)
                 (A)
       Virtual   (A) (A) (A) (A) (A) (A) (A) (A) (A) (A) (A) (A)
                 (A) (A) (A) (A) (A) (A) (A) (A) (A) (A) (A) (A)
                 (A) (A) (A) (A) (A) (A) (A) (A) (A) (A) (A) (A)
                 (A) (A) (A) (A) (A) (A) (A) (A) (A) (A) (A) (A)
                 (A) (A) (A) (A) (A) (A) (A) (A) (A) (A) (A) (A)
                 (A) (A) (A) (A) (A) (A) (A) (A) (A) (A) (A) (A)
                 (A) (A) (A) (A) (A) (A) (A) (A) (A) (A) (A) (A)
                 (A) (A) (A) (A) (A) (A) (A) (A) (A) (A) (A) (A)
                 (A) (A) (A) (A) (A) (A) (A) (A) (A) (A) (A) (A)
                 (A) (A) (A) (A) (A) (A) (A) (A) (A) (A) (A) (A)
                 (A) (A) (A) (A) (A) (A) (A) (A) (A) (A) (A) (A)
                 (A) (A) (A) (A) (A) (A) (A) (A) (A) (A) (A) (A)
                 (A) (A) (A) (A) (A) (A) (A) (A) (A) (A) (A) (A)
                 (A) (A) (A) (A) (A) (A) (A) (A) (A) (A) (A) (A)
                 (A) (A) (A) (A) (A) (A) (A) (A) (A) (A) (A) (A)
                 (A) (A) (A) (A) (A) (A) (A) (A) (A) (A) (A) (A)
                 (A) (A) (A) (A) (A) (A) (A) (A) (A) (A) (A) (A)
                 (A) (A) (A) (A) (A) (A) (A) (A) (A) (A) (A) (A)
                 (A) (A) (A) (A) (A) (A) (A) (A) (A) (A) (A) (A)
                 (A) (A) (A) (A) (A) (A) (A) (A) (A) (A) (A) (A)
                 (A) (A) (A) (A) (A) (A) (A) (A) (A) (A) (A) (A)
                 (A) (A) (A) (A) (A) (A) (A) (A) (A) (A) (A) (A)
                 (A) (A) (A) (A) (A) (A) (A) (A) (A) (A) (A) (A)
                 (A) (A) (A) (A) (A) (A) (A) (A) (A) (A) (A) (A)
                 (A) (A) (A) (A) (A) (A) (A) (A) (A) (A) (A) (A)
                 (A) (A) (A) (A) (A) (A) (A) (A) (A) (A) (A) (A)
                 (A) (A) (A) (A) (A) (A) (A) (A) (A) (A) (A) (A)
                 (A) (A) (A) (A) (A) (A) (A) (A) (A) (A) (A) (A)
                 (A) (A) (A) (A) (A) (A) (A) (A) (A) (A) (A) (A)
                 (A) (A) (A) (A) (A) (A) (A) (A) (A) (A) (A) (A)
                 (A) (A) (A) (A) (A) (A) (A) (A) (A) (A) (A) (A)
                 (A) (A) (A) (A) (A) (A) (A) (A) (A) (A) (A) (A)
                 (A) (A) (A) (A) (A) (A) (A) (A) (A) (A) (A) (A)
                 (A) (A) (A) (A) (A) (A) (A) (A) (A) (A) (A) (A)
                 (A) (A) (A) (A) (A) (A) (A) (A) (A) (A) (A) (A)
                 (A) (A) (A) (A) (A) (A) (A) (A) (A) (A) (A) (A)
                 (A) (A) (A) (A) (A) (A) (A) (A) (A) (A) (A) (A)
                 (A) (A) (A) (A) (A) (A) (A) (A) (A) (A) (A) (A)
                 (A) (A) (A) (A) (A) (A) (A) (A) (A) (A) (A) (A)
                 (A) (A) (A) (A) (A) (A) (A) (A) (A) (A) (A) (A)
                 (A) (A) (A) (A) (A) (A) (A) (A) (A) (A) (A) (A)
                 (A) (A) (A) (A) (A) (A) (A) (A) (A) (A) (A) (A)
                 (A) (A) (A) (A) (A) (A) (A) (A) (A) (A) (A) (A)
                 (A) (A) (A) (A) (A) (A) (A) (A) (A) (A) (A) (A)
                 (A) (A) (A) (A) (A) (A) (A) (A) (A) (A) (A) (A)
                 (A) (A) (A) (A) (A) (A) (A) (A) (A) (A) (A) (A)
                 (A) (A) (A) (A) (A) (A) (A) (A) (A) (A) (A) (A)
                 (A) (A) (A) (A) (A) (A) (A) (A) (A) (A) (A) (A)
                 (A) (A) (A) (A) (A) (A) (A) (A) (A) (A) (A) (A)
                 (A) (A) (A) (A) (A) (A) (A) (A) (A) (A) (A) (A)
                 (A) (A) (A) (A) (A) (A) (A) (A) (A) (A) (A) (A)
                 (A) (A) (A) (A) (A) (A) (A) (A) (A) (A) (A) (A)
                 (A) (A) (A) (A) (A) (A) (A) (A) (A) (A) (A) (A)
                 (A) (A) (A) (A) (A) (A) (A) (A) (A) (A) (A) (A)
                 (A) (A) (A) (A) (A) (A) (A) (A) (A) (A) (A) (A)
                 (A) (A) (A) (A) (A) (A) (A) (A) (A) (A) (A) (A)
                 (A) (A) (A) (A) (A) (A) (A) (A) (A) (A) (A) (A)
                 (A) (A) (A) (A) (A) (A) (A) (A) (A) (A) (A) (A)
                 (A) (A) (A) (A) (A) (A) (A) (A) (A) (A) (A) (A)
                 (A) (A) (A) (A) (A) (A) (A) (A) (A) (A) (A) (A)
                 (A) (A) (A) (A) (A) (A) (A) (A) (A) (A) (A) (A)
                 (A) (A) (A) (A) (A) (A) (A) (A) (A) (A) (A) (A)
                 (A) (A) (A) (A) (A) (A) (A) (A) (A) (A) (A) (A)
[...]
                                                    1052(r),1029(r),1823(r)
                                                    1976(r),829(r),1650(r)
                                                    1571(r),791(r),2099(r)
                                                    1011(r),1591(r),2473(r)
                                                    2428(r),1671(r),1965(r)
                                                    679(r),2100(r),1726(r)
                                                    812(r),2512(r),814(r)
                                                    2079(r),544(r),2029(r)
                                                    625(r),1708(r),1624(r)
                                                    1870(r),697(r),1729(r)
                                                    2018(r),1855(r),671(r)
                                                    1751(r),1957(r),626(r)
                                                    1060(r),1494(r)
  1676. RY*(   1)Cl  69                  0.00118     0.85248   
  1677. RY*(   2)Cl  69                  0.00108     0.85932   
  1678. RY*(   3)Cl  69                  0.00095     0.95216   
  1679. RY*(   4)Cl  69                  0.00027     0.88518   
  1680. RY*(   5)Cl  69                  0.00017     1.02298   
  1681. RY*(   6)Cl  69                  0.00011     1.66557   
  1682. RY*(   7)Cl  69                  0.00009     2.37806   
  1683. RY*(   8)Cl  69                  0.00006     1.76203   
  1684. RY*(   9)Cl  69                  0.00003     1.16022   
  1685. RY*(  10)Cl  69                  0.00003     1.93750   
  1686. RY*(  11)Cl  69                  0.00000    10.63788   
  1687. RY*(  12)Cl  69                  0.00000    10.59742   
  1688. RY*(  13)Cl  69                  0.00001     2.10725   
  1689. RY*(  14)Cl  69                  0.00000    25.16472   
  1690. RY*(  15)Cl  69                  0.00001     2.08767   
  1691. RY*(  16)Cl  69                  0.00000     2.55311   
  1692. RY*(  17)Cl  69                  0.00000    10.49919   
  1693. RY*(  18)Cl  69                  0.00000     2.81427   
  1694. RY*(  19)Cl  69                  0.00001     2.02147   
  1695. RY*(  20)Cl  69                  0.00001     2.70974   
  1696. RY*(  21)Cl  69                  0.00001     2.02575   
  1697. RY*(  22)Cl  69                  0.00000     2.17936   
  1698. RY*(  23)Cl  69                  0.00000     2.21023   
  1699. RY*(  24)Cl  69                  0.00000     2.19904   
  1700. RY*(  25)Cl  69                  0.00000     2.16637   
  1701. RY*(  26)Cl  69                  0.00000     2.15203   
  1702. RY*(  27)Cl  69                  0.00000     2.22517   
  1703. RY*(  28)Cl  69                  0.00000     2.20397   
       -------------------------------
              Total Lewis   17.39817  ( 99.9768%)
        Valence non-Lewis    0.00000  (  0.0000%)
        Rydberg non-Lewis    0.00403  (  0.0232%)
       -------------------------------
            Total unit  4   17.40221  (100.0000%)
           Charge unit  4   -0.40221
 
 Molecular unit  5  (Cl)
   204. CR (   1)Cl  70                  2.00000   -99.97918  293(r),292(r)
   205. CR (   2)Cl  70                  1.99973   -10.70247  293(r),292(r),2079(r),294(r)
                                                    2428(r),2476(r),2082(r)
                                                    2080(r)
   206. CR (   3)Cl  70                  1.99998    -7.17646  292(r),293(r),294(r)
   207. CR (   4)Cl  70                  1.99995    -7.17859  293(r),292(r),2476(r)
   208. CR (   5)Cl  70                  1.99997    -7.17777  293(r),2476(r)
   284. LP (   1)Cl  70                  1.95678    -0.59214  293(r),2082(r),2438(r)
                                                    2084(r),292(r),2079(r)
                                                    2098(r),2428(r),2080(r)
                                                    1482(r),2093(r),2085(r)
                                                    2099(r),2090(r),2086(r)
                                                    650(r),2094(r),2476(r)
                                                    2088(r),1483(r),1484(r)
                                                    2101(r),2437(r),2442(r)
                                                    2096(r),2443(r),1842(r)
                                                    1491(r),1490(r),1841(r)
                                                    1994(r),1618(r),660(r)
                                                    2100(r),1492(r),1999(r)
                                                    1496(r),1991(r),1566(r)
                                                    2429(r),1818(r),657(r)
                                                    2427(r),661(r),778(r)
                                                    1992(r),294(r),1851(r)
                                                    2081(r),1495(r),624(r)
                                                    1487(r),1852(r),2440(r)
                                                    1968(r),1493(r),1498(r)
                                                    1679(r)
   285. LP (   2)Cl  70                  1.95433    -0.38155  293(r),292(r),2080(r)
                                                    2428(r),2100(r),2083(r)
                                                    2086(r),2432(r),2082(r)
                                                    2101(r),2427(r),2094(r)
                                                    2424(r),2443(r),2089(r)
                                                    2084(r),2090(r),592(r)
                                                    2442(r)
   286. LP (   3)Cl  70                  1.94353    -0.47851  293(r),294(r),292(r),243(r)
                                                    2081(r),2441(r),2101(r)
                                                    2079(r),2428(r),2080(r)
                                                    592(r),2082(r),2091(r)
                                                    2085(r),2086(r),2095(r)
                                                    2083(r),2432(r),1967(r)
                                                    2084(r)
   287. LP (   4)Cl  70                  1.57006    -0.38643  293(r),2476(r),292(r)
                                                    2094(r),2093(r),1482(r)
                                                    2098(r),2090(r),2096(r)
                                                    650(r),2097(r),2084(r)
                                                    2085(r),2091(r),2429(r)
                                                    2088(r),624(r),2428(r)
                                                    2080(r),1483(r),2083(r)
                                                    1491(r),660(r),2089(r)
                                                    1490(r),661(r),2087(r)
                                                    1706(g),658(r),1025(r)
                                                    1992(r),1484(r),1842(r)
                                                    1841(r),803(r),294(r)
                                                    1710(g),1026(r),832(r)
                                                    1994(r),1035(r),1139(r)
                                                    1617(r),657(r),665(r)
                                                    1681(r),1589(r),652(r)
                                                    678(r),1566(r),1704(g)
                                                    1991(r),1999(r),663(r)
                                                    1496(r),1054(r),563(r)
                                                    1492(r),1852(r),1851(r)
                                                    655(r),1588(r),1712(g)
                                                    1036(r),1682(r),1489(r)
                                                    2000(r),1818(r),1487(r)
                                                    462(r),1590(r),565(r)
                                                    1678(r),664(r),1671(r)
                                                    1817(r),2095(r),1619(r)
                                                    1563(r),1618(r),1486(r)
                                                    630(r),1853(r),780(r)
                                                    1968(r),1038(r),1565(r)
                                                    1493(r),1819(r),1134(r)
                                                    1972(r),1996(r),1498(r)
                                                    1495(r),638(r),831(r),628(r)
                                                    469(r),804(r),2007(r)
                                                    1615(r),2101(r),1849(r)
                                                    631(r),1030(r),591(r)
                                                    1995(r),1677(r),636(r)
                                                    830(r),1815(r),1623(r)
                                                    637(r),1690(r),1843(r)
                                                    632(r),1845(r),513(r)
                                                    2002(r),1966(r),1059(r)
                                                    1569(r),1965(r),833(r)
                                                    1598(r),641(r),634(r),802(r)
                                                    2099(r),242(r),1696(r)
                                                    806(r),1562(r),807(r),656(r)
                                                    1028(r),1063(r),1603(r)
                                                    1591(r),1649(r),785(r)
                                                    835(r),811(r),2427(r),457(r)
                                                    1592(r),1515(r),2475(r)
                                                    829(r),812(r),779(r),1572(r)
                                                    1040(r),568(r),2438(r)
                                                    2432(r),1967(r),691(r)
                                                    2006(r),1008(r),1998(r)
                                                    1034(r),1869(r),1871(r)
                                                    1051(r),1011(r),1027(r)
                                                    693(r),597(r),687(r),1691(r)
                                                    593(r),1505(r),1616(r)
                                                    2424(r),239(r),1626(r)
                                                    2001(r),571(r),662(r)
                                                    2004(r),673(r),1976(r)
                                                    1698(r),1650(r),2474(r)
                                                    1514(r),1513(r),544(r)
                                                    572(r),1666(r),828(r)
                                                    2419(r),602(r),683(r),566(r)
                                                    518(r),1058(r),1571(r)
                                                    1594(r),1060(r),1624(r)
                                                    1850(r),791(r),1823(r)
                                                    1029(r),1053(r),588(r)
                                                    470(r),2018(r),2100(r)
                                                    1508(r),2029(r),625(r)
                                                    1679(r),1135(r),1993(r)
  1704. RY*(   1)Cl  70                  0.00123     0.81414   
  1705. RY*(   2)Cl  70                  0.00101     0.81127   
  1706. RY*(   3)Cl  70                  0.00085     0.85938   
  1707. RY*(   4)Cl  70                  0.00037     0.95130   
  1708. RY*(   5)Cl  70                  0.00023     1.04828   
  1709. RY*(   6)Cl  70                  0.00011     1.61444   
  1710. RY*(   7)Cl  70                  0.00007     1.54824   
  1711. RY*(   8)Cl  70                  0.00006     1.53722   
  1712. RY*(   9)Cl  70                  0.00007     2.70166   
  1713. RY*(  10)Cl  70                  0.00004     2.01036   
  1714. RY*(  11)Cl  70                  0.00000    10.53815   
  1715. RY*(  12)Cl  70                  0.00000    10.51895   
  1716. RY*(  13)Cl  70                  0.00001     2.06600   
  1717. RY*(  14)Cl  70                  0.00000    25.22195   
  1718. RY*(  15)Cl  70                  0.00001     2.01979   
  1719. RY*(  16)Cl  70                  0.00000     2.69425   
  1720. RY*(  17)Cl  70                  0.00001     1.89448   
  1721. RY*(  18)Cl  70                  0.00000    10.54663   
  1722. RY*(  19)Cl  70                  0.00000     1.96335   
  1723. RY*(  20)Cl  70                  0.00001     2.68635   
  1724. RY*(  21)Cl  70                  0.00000     2.39039   
  1725. RY*(  22)Cl  70                  0.00000     2.22524   
  1726. RY*(  23)Cl  70                  0.00000     2.24157   
  1727. RY*(  24)Cl  70                  0.00000     2.21401   
  1728. RY*(  25)Cl  70                  0.00000     2.19257   
  1729. RY*(  26)Cl  70                  0.00000     2.21675   
  1730. RY*(  27)Cl  70                  0.00000     2.18067   
  1731. RY*(  28)Cl  70                  0.00000     2.14228   
       -------------------------------
              Total Lewis   17.42432  ( 99.9764%)
        Valence non-Lewis    0.00000  (  0.0000%)
        Rydberg non-Lewis    0.00411  (  0.0236%)
       -------------------------------
            Total unit  5   17.42843  (100.0000%)
           Charge unit  5   -0.42843
 1\1\GINC-NOTCH210\SP\RPBE1PBE\Gen\C52H44Cl2F12Fe1O2P2Pd1\U6034117\04-M
 ar-2022\0\\# PBE1PBE gen pseudo=read int=(grid=ultrafine) empiricaldis
 persion=GD3BJ pop=nbo guess=read geom=check\\W005_1_4 title\\0,1\C,0,3
 .0397806235,-1.4852290716,5.9056229138\C,0,4.3935632884,-1.0993840297,
 6.1905367149\C,0,5.255689803,-2.1787664681,5.796417567\C,0,4.436124723
 8,-3.2337120717,5.2714959132\C,0,3.0644799613,-2.8045828773,5.33470433
 64\H,0,4.7143063664,-0.1325527473,6.5799663908\H,0,6.3453963822,-2.176
 7076667,5.8391272125\H,0,4.8028207058,-4.1767727902,4.8649472925\H,0,2
 .1930008892,-3.3701623553,5.0011148345\H,0,2.1534074185,-0.8717099255,
 6.069528269\Fe,0,4.1691729349,-1.499458217,4.1950356979\C,0,5.27228562
 68,-0.0687368792,3.2373046069\C,0,5.4353134944,-1.3402958087,2.5973246
 863\C,0,4.1387357033,-1.7970778977,2.1575238539\C,0,3.1653908155,-0.80
 21432969,2.5645183817\C,0,3.882580043,0.2655467795,3.2124388741\H,0,6.
 059684345,0.5194851805,3.708742607\H,0,3.4390584164,1.1662697758,3.630
 7162099\C,0,1.7044930494,-0.7985693404,2.2001274431\P,0,1.6645253403,-
 0.3176483361,0.3531320051\H,0,1.3014731982,-1.8251725803,2.2679042869\
 C,0,0.8815833162,0.1544255169,3.0793391261\H,0,-0.2004848266,0.0396573
 815,2.9212569958\H,0,1.1015128995,-0.0690834508,4.1364706796\H,0,1.151
 9024714,1.2040944541,2.8795333799\C,0,-1.8984523367,2.541103679,-0.592
 6528716\C,0,-0.6078279948,2.8575717241,-1.0320910165\C,0,0.4829629467,
 2.0348380909,-0.7107524247\C,0,0.2813846996,0.8755418148,0.0553440753\
 C,0,-1.0210948884,0.5354472689,0.4636121823\C,0,-2.1001684687,1.373467
 9327,0.1555374525\H,0,-2.7415947227,3.1897719779,-0.8415076957\C,0,-0.
 3633631461,4.1252838289,-1.8181481639\H,0,1.4879856728,2.2963154256,-1
 .0488939049\H,0,-1.2118286013,-0.3942685408,1.0070453095\C,0,-3.493903
 7732,0.9610279808,0.5600490213\C,0,-0.44834629,-3.6804141961,-2.129110
 813\C,0,0.215933694,-4.0343724273,-0.9484181644\C,0,0.8732968428,-3.06
 87628775,-0.1671595412\C,0,0.8882808947,-1.7255606204,-0.5804705443\C,
 0,0.271793266,-1.3867856643,-1.8019194013\C,0,-0.4051718397,-2.3488846
 784,-2.5560489423\H,0,-0.9739348162,-4.4365694431,-2.7169018751\C,0,0.
 2941044179,-5.4959142479,-0.5875309167\H,0,1.3758832255,-3.384660141,0
 .7500241861\H,0,0.3007844287,-0.3572690011,-2.1666658914\C,0,-1.155672
 9975,-1.9085806904,-3.7880730025\F,0,-2.4009187864,-1.4639038437,-3.47
 69838394\F,0,-0.5127129437,-0.8942188854,-4.4276880932\F,0,-1.31040057
 72,-2.9291170058,-4.6849500263\F,0,1.2832919267,-6.1139533145,-1.30886
 36217\F,0,0.5682180367,-5.6947519234,0.7269121992\F,0,-0.8626151933,-6
 .1492411103,-0.8743580582\F,0,-1.4924888096,4.5402578062,-2.458407717\
 F,0,0.0380333696,5.1383705921,-1.0082262481\F,0,0.6023780048,3.9456260
 544,-2.7567299145\F,0,-4.3154687312,2.0324599945,0.7077559391\F,0,-4.0
 578807887,0.1434343514,-0.3725101547\F,0,-3.4864138761,0.2750117206,1.
 7378004581\P,0,4.5040622653,-1.6024410904,-1.0800633062\C,0,9.03463905
 5,-2.2540018034,-1.7026010313\C,0,8.14121138,-2.7458963015,-2.67744289
 97\C,0,6.7697234826,-2.4982220355,-2.5081823642\C,0,6.3032102604,-1.77
 79083909,-1.3950911969\C,0,7.2155547513,-1.2774842538,-0.452166647\C,0
 ,8.5924707176,-1.5052108276,-0.5893386382\H,0,6.0666516935,-2.86014953
 08,-3.2659094438\H,0,6.8535708536,-0.6561644372,0.3719605181\Cl,0,5.67
 03597541,1.4764446337,-1.1596066138\Cl,0,3.1456078661,2.442427225,0.88
 63938145\H,0,6.3636789282,-1.9002989071,2.4817903625\C,0,4.0254675652,
 -5.5435855988,0.0442259101\C,0,3.6206072714,-5.4758042161,1.382278235\
 C,0,3.6111226722,-4.2391164273,2.0363468836\C,0,3.939172243,-3.0408848
 13,1.3691454443\C,0,4.2095951292,-3.1003900011,-0.0264497986\C,0,4.323
 8639947,-4.3637443242,-0.645146209\H,0,4.0971174541,-6.5067209965,-0.4
 695533956\H,0,3.3488658283,-6.3854593248,1.9267355584\H,0,3.3775853546
 ,-4.1748187054,3.1001730032\H,0,4.6559587322,-4.4251359296,-1.68476214
 11\C,0,2.7932877734,-2.2151509262,-5.3415051805\C,0,3.5366055942,-1.05
 87880212,-5.0051795326\C,0,3.9979482865,-0.9258731605,-3.6865282724\C,
 0,3.7309692736,-1.9149589251,-2.7163940722\C,0,2.9602162112,-3.0352815
 275,-3.071072594\C,0,2.4959173482,-3.2086973237,-4.3850139746\H,0,4.59
 42994515,-0.0461947631,-3.4107557981\H,0,2.7065791961,-3.7997538468,-2
 .3334656973\Pd,0,3.7450185233,0.416585864,-0.2786815642\C,0,8.66504195
 3,-3.4940692141,-3.8788422579\H,0,7.8529635143,-3.7074124145,-4.592565
 7412\H,0,9.4458480188,-2.913012522,-4.3975880799\H,0,9.1266441815,-4.4
 568063206,-3.593048005\C,0,9.5739654877,-0.9178201719,0.3951743694\H,0
 ,9.1800036961,0.020121419,0.8194747103\H,0,9.7740189038,-1.6049384743,
 1.2393916497\H,0,10.5384159411,-0.7074330478,-0.0942824325\O,0,10.3933
 593535,-2.4552750335,-1.9086608064\C,0,10.9277705757,-3.5428475399,-1.
 1458039376\H,0,10.8398420907,-3.3637965538,-0.0572077878\H,0,10.418648
 0242,-4.4950280334,-1.3914960027\H,0,11.9922787252,-3.6171790562,-1.41
 63158198\C,0,3.8684523169,-0.0175696533,-6.0456409972\H,0,3.0670224857
 ,0.7394359672,-6.1336485845\H,0,3.9943371196,-0.4819132128,-7.03723661
 25\H,0,4.7927615114,0.5198421991,-5.7800552133\C,0,1.7363171702,-4.452
 3139398,-4.7794518186\H,0,0.7221311415,-4.2147287418,-5.1408537851\H,0
 ,2.248833075,-4.9837814069,-5.5993859742\H,0,1.6396185287,-5.137155815
 9,-3.9208672359\O,0,2.4212652989,-2.444187204,-6.6560619018\C,0,1.2355
 87507,-1.750264873,-7.0736008262\H,0,1.1182610075,-1.9692642442,-8.145
 7169671\H,0,0.3474983154,-2.1057556795,-6.5231662568\H,0,1.3284063109,
 -0.6578826551,-6.931231304\\Version=ES64L-G16RevB.01\State=1-A\HF=-520
 8.9597855\RMSD=1.392e-09\Dipole=0.2248366,-3.74493,0.7046268\Quadrupol
 e=1.8110116,-17.5548275,15.7438159,-16.5996786,8.6631861,2.8587\PG=C01
  [X(C52H44Cl2F12Fe1O2P2Pd1)]\\@


 THE TEST OF A FIRST RATE INTELLIGENCE IS THE ABILITY TO HOLD TWO OPPOSED
 IDEAS IN THE MIND AT THE SAME TIME, AND STILL RETAIN THE ABILITY TO FUNCTION.
 ONE SHOULD, FOR EXAMPLE, BE ABLE TO SEE THAT THINGS ARE HOPELESS AND YET BE
 DETERMINED TO MAKE THEM OTHERWISE.

                                                       -- F. SCOTT FITZGERALD
 Job cpu time:       0 days  5 hours 26 minutes  2.4 seconds.
 Elapsed time:       0 days  0 hours  6 minutes 19.3 seconds.
 File lengths (MBytes):  RWF=   3276 Int=      0 D2E=      0 Chk=    493 Scr=      1
 Normal termination of Gaussian 16 at Fri Mar  4 04:47:13 2022.
