 Entering Gaussian System, Link 0=/uufs/chpc.utah.edu/sys/installdir/gaussian16/B01/E6B/g16/g16
 Input=W005_1_2_SPE_NoPd.com
 Output=W005_1_2_SPE_NoPd.log
 Initial command:
 /uufs/chpc.utah.edu/sys/installdir/gaussian16/B01/E6B/g16/l1.exe "/scratch/general/lustre/u6034117/4108805/notchpeak.peaks/Gau-35845.inp" -scrdir="/scratch/general/lustre/u6034117/4108805/notchpeak.peaks/"
 Entering Link 1 = /uufs/chpc.utah.edu/sys/installdir/gaussian16/B01/E6B/g16/l1.exe PID=     35847.
  
 Copyright (c) 1988-2017, Gaussian, Inc.  All Rights Reserved.
  
 This is part of the Gaussian(R) 16 program.  It is based on
 the Gaussian(R) 09 system (copyright 2009, Gaussian, Inc.),
 the Gaussian(R) 03 system (copyright 2003, Gaussian, Inc.),
 the Gaussian(R) 98 system (copyright 1998, Gaussian, Inc.),
 the Gaussian(R) 94 system (copyright 1995, Gaussian, Inc.),
 the Gaussian 92(TM) system (copyright 1992, Gaussian, Inc.),
 the Gaussian 90(TM) system (copyright 1990, Gaussian, Inc.),
 the Gaussian 88(TM) system (copyright 1988, Gaussian, Inc.),
 the Gaussian 86(TM) system (copyright 1986, Carnegie Mellon
 University), and the Gaussian 82(TM) system (copyright 1983,
 Carnegie Mellon University). Gaussian is a federally registered
 trademark of Gaussian, Inc.
  
 This software contains proprietary and confidential information,
 including trade secrets, belonging to Gaussian, Inc.
  
 This software is provided under written license and may be
 used, copied, transmitted, or stored only in accord with that
 written license.
  
 The following legend is applicable only to US Government
 contracts under FAR:
  
                    RESTRICTED RIGHTS LEGEND
  
 Use, reproduction and disclosure by the US Government is
 subject to restrictions as set forth in subparagraphs (a)
 and (c) of the Commercial Computer Software - Restricted
 Rights clause in FAR 52.227-19.
  
 Gaussian, Inc.
 340 Quinnipiac St., Bldg. 40, Wallingford CT 06492
  
  
 ---------------------------------------------------------------
 Warning -- This program may not be used in any manner that
 competes with the business of Gaussian, Inc. or will provide
 assistance to any competitor of Gaussian, Inc.  The licensee
 of this program is prohibited from giving any competitor of
 Gaussian, Inc. access to this program.  By using this program,
 the user acknowledges that Gaussian, Inc. is engaged in the
 business of creating and licensing software in the field of
 computational chemistry and represents and warrants to the
 licensee that it is not a competitor of Gaussian, Inc. and that
 it will not use this program in any manner prohibited above.
 ---------------------------------------------------------------
  

 Cite this work as:
 Gaussian 16, Revision B.01,
 M. J. Frisch, G. W. Trucks, H. B. Schlegel, G. E. Scuseria, 
 M. A. Robb, J. R. Cheeseman, G. Scalmani, V. Barone, 
 G. A. Petersson, H. Nakatsuji, X. Li, M. Caricato, A. V. Marenich, 
 J. Bloino, B. G. Janesko, R. Gomperts, B. Mennucci, H. P. Hratchian, 
 J. V. Ortiz, A. F. Izmaylov, J. L. Sonnenberg, D. Williams-Young, 
 F. Ding, F. Lipparini, F. Egidi, J. Goings, B. Peng, A. Petrone, 
 T. Henderson, D. Ranasinghe, V. G. Zakrzewski, J. Gao, N. Rega, 
 G. Zheng, W. Liang, M. Hada, M. Ehara, K. Toyota, R. Fukuda, 
 J. Hasegawa, M. Ishida, T. Nakajima, Y. Honda, O. Kitao, H. Nakai, 
 T. Vreven, K. Throssell, J. A. Montgomery, Jr., J. E. Peralta, 
 F. Ogliaro, M. J. Bearpark, J. J. Heyd, E. N. Brothers, K. N. Kudin, 
 V. N. Staroverov, T. A. Keith, R. Kobayashi, J. Normand, 
 K. Raghavachari, A. P. Rendell, J. C. Burant, S. S. Iyengar, 
 J. Tomasi, M. Cossi, J. M. Millam, M. Klene, C. Adamo, R. Cammi, 
 J. W. Ochterski, R. L. Martin, K. Morokuma, O. Farkas, 
 J. B. Foresman, and D. J. Fox, Gaussian, Inc., Wallingford CT, 2016.
 
 ******************************************
 Gaussian 16:  ES64L-G16RevB.01 20-Dec-2017
                 4-Mar-2022 
 ******************************************
 %NProcShared=52
 Will use up to   52 processors via shared memory.
 %mem=18GB
 %chk=W005_1_2_SPE_NoPd.chk
 ----------------------------------------------------------------------
 # PBE1PBE gen pseudo=read int=(grid=ultrafine) empiricaldispersion=GD3
 BJ nmr=giao
 ----------------------------------------------------------------------
 1/38=1,172=1/1;
 2/12=2,17=6,18=5,40=1/2;
 3/5=7,11=2,16=1,17=8,25=1,30=1,74=-13,75=-5,124=41/1,2,3,8;
 4//1;
 5/5=2,38=5/2;
 8/6=1,10=90,11=11/1;
 10/13=100,45=16/2;
 6/7=2,8=2,9=2,10=2,28=1/1;
 99/9=1/99;
 --------------
 W005_1_2 title
 --------------
 Symbolic Z-matrix:
 Charge =  0 Multiplicity = 1
 C                     2.32062  -2.24711   5.80118 
 C                     3.42453  -1.57625   6.42803 
 C                     4.59462  -2.39325   6.2587 
 C                     4.21444  -3.56998   5.52753 
 C                     2.8064   -3.4791    5.24529 
 H                     3.39308  -0.5925    6.89765 
 H                     5.60504  -2.13771   6.57976 
 H                     4.88645  -4.37007   5.21453 
 H                     2.20261  -4.20868   4.70381 
 H                     1.29657  -1.87806   5.73933 
 Fe                    3.81463  -1.87384   4.43974 
 C                     5.03025  -0.36185   3.77349 
 C                     5.28995  -1.56682   3.05037 
 C                     4.07398  -1.987     2.39466 
 C                     3.03713  -1.02969   2.75774 
 C                     3.65423  -0.02829   3.59245 
 H                     5.74334   0.18392   4.39086 
 H                     3.14774   0.82999   4.02741 
 C                     1.61552  -0.97613   2.2548 
 P                     1.72758  -0.4066    0.43727 
 H                     1.18888  -1.9943    2.23018 
 C                     0.71703  -0.0531    3.09057 
 H                    -0.3427   -0.15413   2.81209 
 H                     0.81959  -0.32202   4.15473 
 H                     1.01328   1.00081   2.96457 
 C                    -1.47942   2.53723  -1.17211 
 C                    -0.11475   2.76882  -1.38972 
 C                     0.85279   1.93607  -0.81079 
 C                     0.45799   0.85666  -0.0022 
 C                    -0.90997   0.6236    0.21825 
 C                    -1.87085   1.46189  -0.36439 
 H                    -2.23142   3.17486  -1.64292 
 C                     0.32888   3.94058  -2.23274 
 H                     1.91532   2.11202  -0.9939 
 H                    -1.2449   -0.24133   0.79713 
 C                    -3.32934   1.09869  -0.23376 
 C                    -0.33737  -3.86057  -1.98082 
 C                     0.47454  -4.17082  -0.88383 
 C                     1.10835  -3.15923  -0.14515 
 C                     0.96808  -1.81165  -0.52302 
 C                     0.20499  -1.51346  -1.66976 
 C                    -0.46078  -2.52257  -2.37161 
 H                    -0.84934  -4.65103  -2.53447 
 C                     0.74433  -5.61817  -0.5631 
 H                     1.72318  -3.44407   0.71117 
 H                     0.11168  -0.48666  -2.0252 
 C                    -1.38716  -2.14012  -3.50126 
 F                    -2.64485  -1.90261  -3.03589 
 F                    -0.97455  -1.01054  -4.13311 
 F                    -1.48365  -3.13145  -4.43117 
 F                     1.06561  -5.80886   0.74287 
 F                    -0.32146  -6.41077  -0.84934 
 F                     1.79649  -6.08929  -1.30849 
 F                    -0.6073    4.26801  -3.16504 
 F                     0.55179   5.04368  -1.47592 
 F                     1.49075   3.66531  -2.89475 
 F                    -3.67091   0.14693  -1.14879 
 F                    -3.60858   0.58611   0.99648 
 F                    -4.14236   2.16745  -0.43547 
 P                     4.61166  -1.54403  -0.86483 
 C                     8.96596  -1.90555  -2.35736 
 C                     7.93163  -1.88047  -3.31596 
 C                     6.60842  -1.75171  -2.86426 
 C                     6.3265   -1.65579  -1.49135 
 C                     7.37794  -1.66138  -0.55744 
 C                     8.71065  -1.78458  -0.97253 
 H                     5.79497  -1.72798  -3.59629 
 H                     7.16023  -1.53135   0.50747 
 H                     6.23536  -2.10872   3.00351 
 C                     4.64891  -5.5493    0.02446 
 C                     4.16761  -5.62942   1.33545 
 C                     3.92688  -4.45545   2.05737 
 C                     4.09064  -3.17394   1.48962 
 C                     4.48321  -3.10348   0.12093 
 C                     4.81794  -4.29219  -0.56399 
 H                     4.89443  -6.45471  -0.53885 
 H                     4.01315  -6.60281   1.8116 
 H                     3.63434  -4.50297   3.10646 
 H                     5.23613  -4.22372  -1.57311 
 C                     2.06031  -1.81073  -4.73236 
 C                     2.4695   -0.55972  -4.21774 
 C                     3.23406  -0.55202  -3.03984 
 C                     3.5705   -1.74792  -2.37271 
 C                     3.10637  -2.97065  -2.88528 
 C                     2.35315  -3.02151  -4.06899 
 H                     3.5529    0.40711  -2.61158 
 H                     3.27751  -3.90475  -2.34549 
 C                     8.25817  -1.9705   -4.7866 
 H                     7.35053  -1.83955  -5.39776 
 H                     8.99121  -1.19908  -5.07651 
 H                     8.70649  -2.94584  -5.04964 
 C                     9.84058  -1.73745   0.02654 
 H                     9.56449  -1.11311   0.89195 
 H                     10.09457  -2.7432    0.41163 
 H                     10.74975  -1.31942  -0.43439 
 O                     10.27389  -1.97834  -2.81811 
 C                     10.83255  -3.29442  -2.73872 
 H                     10.89206  -3.6539   -1.69376 
 H                     10.24034  -4.01914  -3.33069 
 H                     11.84856  -3.22507  -3.15676 
 C                     2.04006   0.72365  -4.88495 
 H                     1.05155   0.59649  -5.35487 
 H                     2.74636   1.03192  -5.67817 
 H                     1.98514   1.55163  -4.16027 
 C                     1.82556  -4.33179  -4.60071 
 H                     0.78141  -4.22418  -4.93411 
 H                     2.40804  -4.68175  -5.47299 
 H                     1.87631  -5.11374  -3.82578 
 O                     1.26217  -1.86134  -5.86391 
 C                     2.00692  -1.82208  -7.08778 
 H                     1.26726  -1.88225  -7.90037 
 H                     2.58248  -0.88217  -7.18519 
 H                     2.70485  -2.67832  -7.16071 
 
 Stoichiometry    C52H44F12FeO2P2
 Framework group  C1[X(C52H44F12FeO2P2)]
 Deg. of freedom   333
 Full point group                 C1      NOp   1
 Largest Abelian subgroup         C1      NOp   1
 Largest concise Abelian subgroup C1      NOp   1
                         Standard orientation:                         
 ---------------------------------------------------------------------
 Center     Atomic      Atomic             Coordinates (Angstroms)
 Number     Number       Type             X           Y           Z
 ---------------------------------------------------------------------
      1          6           0        2.262454    5.991971    0.289431
      2          6           0        3.184657    6.255081   -0.779178
      3          6           0        4.446258    5.660026   -0.433447
      4          6           0        4.304723    5.029206    0.849476
      5          6           0        2.952734    5.235760    1.296631
      6          1           0        2.952263    6.764928   -1.714773
      7          1           0        5.338220    5.642054   -1.060672
      8          1           0        5.079211    4.465053    1.370627
      9          1           0        2.515507    4.883726    2.232022
     10          1           0        1.215633    6.294856    0.323080
     11         26           0        2.978411    4.236222   -0.504085
     12          6           0        3.264612    3.293634   -2.303351
     13          6           0        3.693126    2.456510   -1.227285
     14          6           0        2.572215    2.217973   -0.348788
     15          6           0        1.439106    2.959443   -0.886963
     16          6           0        1.885104    3.598966   -2.100406
     17          1           0        3.889181    3.670175   -3.113058
     18          1           0        1.273600    4.226446   -2.744382
     19          6           0        0.016278    2.960511   -0.384613
     20         15           0       -0.692804    1.245097   -0.826066
     21          1           0        0.008962    3.019608    0.717990
     22          6           0       -0.828201    4.099177   -0.974599
     23          1           0       -1.805561    4.182572   -0.475993
     24          1           0       -0.290218    5.051523   -0.837193
     25          1           0       -0.997064    3.943577   -2.052396
     26          6           0       -5.090911    0.964651   -2.281766
     27          6           0       -4.059145    0.320579   -2.977431
     28          6           0       -2.721756    0.496345   -2.596306
     29          6           0       -2.404625    1.325871   -1.507215
     30          6           0       -3.437779    1.973620   -0.809181
     31          6           0       -4.772626    1.792470   -1.197617
     32          1           0       -6.133725    0.807855   -2.567589
     33          6           0       -4.378871   -0.552182   -4.167631
     34          1           0       -1.921335   -0.018253   -3.132923
     35          1           0       -3.222572    2.579465    0.075128
     36          6           0       -5.866595    2.378105   -0.339450
     37          6           0       -2.024021   -0.547785    3.303650
     38          6           0       -0.842563    0.197801    3.219362
     39          6           0       -0.417369    0.741955    1.997164
     40          6           0       -1.156551    0.511065    0.822970
     41          6           0       -2.307478   -0.298252    0.904223
     42          6           0       -2.749275   -0.796989    2.133137
     43          1           0       -2.363063   -0.945263    4.263088
     44          6           0        0.027036    0.326119    4.443216
     45          1           0        0.503985    1.327763    1.977882
     46          1           0       -2.881125   -0.542247    0.009376
     47          6           0       -4.067541   -1.531152    2.194256
     48          9           0       -5.096090   -0.661990    2.397777
     49          9           0       -4.329314   -2.197244    1.039605
     50          9           0       -4.095319   -2.432414    3.215885
     51          9           0        0.806456    1.438164    4.411394
     52          9           0       -0.705324    0.363996    5.587009
     53          9           0        0.869852   -0.752123    4.551169
     54          9           0       -5.620567   -1.100471   -4.065777
     55          9           0       -4.338880    0.150669   -5.326809
     56          9           0       -3.484679   -1.576917   -4.287366
     57          9           0       -6.117302    1.574439    0.733431
     58          9           0       -5.517245    3.599288    0.151309
     59          9           0       -7.031541    2.520011   -1.022613
     60         15           0        1.805164   -1.003717   -0.725510
     61          6           0        5.236753   -3.874353   -1.866543
     62          6           0        4.011471   -4.432438   -1.446292
     63          6           0        2.961139   -3.560744   -1.116983
     64          6           0        3.132679   -2.168936   -1.200584
     65          6           0        4.357594   -1.638634   -1.643415
     66          6           0        5.426220   -2.478688   -1.983936
     67          1           0        2.003250   -3.978836   -0.791739
     68          1           0        4.471149   -0.556144   -1.760292
     69          1           0        4.698874    2.067290   -1.064117
     70          6           0        3.594638   -0.411707    2.918896
     71          6           0        3.636569    0.977689    3.075650
     72          6           0        3.235501    1.805590    2.021571
     73          6           0        2.722643    1.291222    0.811681
     74          6           0        2.588007   -0.123644    0.700225
     75          6           0        3.088477   -0.948724    1.731219
     76          1           0        3.953920   -1.076215    3.710549
     77          1           0        4.014722    1.420642    4.002396
     78          1           0        3.343611    2.887668    2.097938
     79          1           0        3.095264   -2.033636    1.586915
     80          6           0       -1.591946   -3.814653    0.722460
     81          6           0       -1.523609   -3.393034   -0.624712
     82          6           0       -0.472963   -2.537077   -0.992870
     83          6           0        0.476787   -2.090064   -0.051290
     84          6           0        0.350958   -2.489880    1.289430
     85          6           0       -0.675944   -3.357579    1.693970
     86          1           0       -0.405012   -2.183784   -2.029969
     87          1           0        1.019170   -2.092715    2.056870
     88          6           0        3.844453   -5.930739   -1.377470
     89          1           0        2.805159   -6.197533   -1.126141
     90          1           0        4.105164   -6.401976   -2.339992
     91          1           0        4.504719   -6.383845   -0.615758
     92          6           0        6.721661   -1.909997   -2.508855
     93          1           0        6.537991   -0.967242   -3.049629
     94          1           0        7.437252   -1.690148   -1.694041
     95          1           0        7.208592   -2.621249   -3.195018
     96          8           0        6.250341   -4.746246   -2.241669
     97          6           0        7.243984   -4.933348   -1.227689
     98          1           0        7.771269   -3.990060   -0.989161
     99          1           0        6.798434   -5.336477   -0.297460
    100          1           0        7.965515   -5.659928   -1.631794
    101          6           0       -2.586331   -3.804190   -1.613751
    102          1           0       -3.555165   -3.926190   -1.103235
    103          1           0       -2.345294   -4.767421   -2.100765
    104          1           0       -2.698232   -3.055458   -2.414124
    105          6           0       -0.831332   -3.759470    3.140426
    106          1           0       -1.889473   -3.720814    3.443429
    107          1           0       -0.483488   -4.794369    3.315460
    108          1           0       -0.246127   -3.092117    3.793669
    109          8           0       -2.640877   -4.618326    1.139400
    110          6           0       -2.409816   -6.015454    0.918722
    111          1           0       -3.299319   -6.538755    1.300784
    112          1           0       -2.284419   -6.243402   -0.156678
    113          1           0       -1.513189   -6.365420    1.465680
 ---------------------------------------------------------------------
 Rotational constants (GHZ):           0.0342124           0.0264339           0.0220858
 General basis read from cards:  (5D, 7F)
 ======================================================================================================
                                       Pseudopotential Parameters
 ======================================================================================================
  Center     Atomic      Valence      Angular      Power
  Number     Number     Electrons     Momentum     of R      Exponent        Coefficient   SO-Coeffient
 ======================================================================================================
    1          6
                                   No pseudopotential on this center.
    2          6
                                   No pseudopotential on this center.
    3          6
                                   No pseudopotential on this center.
    4          6
                                   No pseudopotential on this center.
    5          6
                                   No pseudopotential on this center.
    6          1
                                   No pseudopotential on this center.
    7          1
                                   No pseudopotential on this center.
    8          1
                                   No pseudopotential on this center.
    9          1
                                   No pseudopotential on this center.
   10          1
                                   No pseudopotential on this center.
   11         26           16
                                      F and up 
                                                     2        1.0000000        0.00000000    0.00000000
                                      S - F
                                                     2       20.9300000      253.74958800    0.00000000
                                                     2        9.4450000       37.92284500    0.00000000
                                      P - F
                                                     2       21.7600000      161.03681200    0.00000000
                                                     2        9.1780000       27.65129800    0.00000000
                                      D - F
                                                     2       25.9000000      -24.43127600    0.00000000
                                                     2        8.8350000       -1.43425100    0.00000000
   12          6
                                   No pseudopotential on this center.
   13          6
                                   No pseudopotential on this center.
   14          6
                                   No pseudopotential on this center.
   15          6
                                   No pseudopotential on this center.
   16          6
                                   No pseudopotential on this center.
   17          1
                                   No pseudopotential on this center.
   18          1
                                   No pseudopotential on this center.
   19          6
                                   No pseudopotential on this center.
   20         15
                                   No pseudopotential on this center.
   21          1
                                   No pseudopotential on this center.
   22          6
                                   No pseudopotential on this center.
   23          1
                                   No pseudopotential on this center.
   24          1
                                   No pseudopotential on this center.
   25          1
                                   No pseudopotential on this center.
   26          6
                                   No pseudopotential on this center.
   27          6
                                   No pseudopotential on this center.
   28          6
                                   No pseudopotential on this center.
   29          6
                                   No pseudopotential on this center.
   30          6
                                   No pseudopotential on this center.
   31          6
                                   No pseudopotential on this center.
   32          1
                                   No pseudopotential on this center.
   33          6
                                   No pseudopotential on this center.
   34          1
                                   No pseudopotential on this center.
   35          1
                                   No pseudopotential on this center.
   36          6
                                   No pseudopotential on this center.
   37          6
                                   No pseudopotential on this center.
   38          6
                                   No pseudopotential on this center.
   39          6
                                   No pseudopotential on this center.
   40          6
                                   No pseudopotential on this center.
   41          6
                                   No pseudopotential on this center.
   42          6
                                   No pseudopotential on this center.
   43          1
                                   No pseudopotential on this center.
   44          6
                                   No pseudopotential on this center.
   45          1
                                   No pseudopotential on this center.
   46          1
                                   No pseudopotential on this center.
   47          6
                                   No pseudopotential on this center.
   48          9
                                   No pseudopotential on this center.
   49          9
                                   No pseudopotential on this center.
   50          9
                                   No pseudopotential on this center.
   51          9
                                   No pseudopotential on this center.
   52          9
                                   No pseudopotential on this center.
   53          9
                                   No pseudopotential on this center.
   54          9
                                   No pseudopotential on this center.
   55          9
                                   No pseudopotential on this center.
   56          9
                                   No pseudopotential on this center.
   57          9
                                   No pseudopotential on this center.
   58          9
                                   No pseudopotential on this center.
   59          9
                                   No pseudopotential on this center.
   60         15
                                   No pseudopotential on this center.
   61          6
                                   No pseudopotential on this center.
   62          6
                                   No pseudopotential on this center.
   63          6
                                   No pseudopotential on this center.
   64          6
                                   No pseudopotential on this center.
   65          6
                                   No pseudopotential on this center.
   66          6
                                   No pseudopotential on this center.
   67          1
                                   No pseudopotential on this center.
   68          1
                                   No pseudopotential on this center.
   69          1
                                   No pseudopotential on this center.
   70          6
                                   No pseudopotential on this center.
   71          6
                                   No pseudopotential on this center.
   72          6
                                   No pseudopotential on this center.
   73          6
                                   No pseudopotential on this center.
   74          6
                                   No pseudopotential on this center.
   75          6
                                   No pseudopotential on this center.
   76          1
                                   No pseudopotential on this center.
   77          1
                                   No pseudopotential on this center.
   78          1
                                   No pseudopotential on this center.
   79          1
                                   No pseudopotential on this center.
   80          6
                                   No pseudopotential on this center.
   81          6
                                   No pseudopotential on this center.
   82          6
                                   No pseudopotential on this center.
   83          6
                                   No pseudopotential on this center.
   84          6
                                   No pseudopotential on this center.
   85          6
                                   No pseudopotential on this center.
   86          1
                                   No pseudopotential on this center.
   87          1
                                   No pseudopotential on this center.
   88          6
                                   No pseudopotential on this center.
   89          1
                                   No pseudopotential on this center.
   90          1
                                   No pseudopotential on this center.
   91          1
                                   No pseudopotential on this center.
   92          6
                                   No pseudopotential on this center.
   93          1
                                   No pseudopotential on this center.
   94          1
                                   No pseudopotential on this center.
   95          1
                                   No pseudopotential on this center.
   96          8
                                   No pseudopotential on this center.
   97          6
                                   No pseudopotential on this center.
   98          1
                                   No pseudopotential on this center.
   99          1
                                   No pseudopotential on this center.
  100          1
                                   No pseudopotential on this center.
  101          6
                                   No pseudopotential on this center.
  102          1
                                   No pseudopotential on this center.
  103          1
                                   No pseudopotential on this center.
  104          1
                                   No pseudopotential on this center.
  105          6
                                   No pseudopotential on this center.
  106          1
                                   No pseudopotential on this center.
  107          1
                                   No pseudopotential on this center.
  108          1
                                   No pseudopotential on this center.
  109          8
                                   No pseudopotential on this center.
  110          6
                                   No pseudopotential on this center.
  111          1
                                   No pseudopotential on this center.
  112          1
                                   No pseudopotential on this center.
  113          1
                                   No pseudopotential on this center.
 ======================================================================================================
 There are  2773 symmetry adapted cartesian basis functions of A   symmetry.
 There are  2427 symmetry adapted basis functions of A   symmetry.
  2427 basis functions,  3931 primitive gaussians,  2773 cartesian basis functions
   263 alpha electrons      263 beta electrons
       nuclear repulsion energy     13239.7822707555 Hartrees.
 NAtoms=  113 NActive=  113 NUniq=  113 SFac= 1.00D+00 NAtFMM=   60 NAOKFM=T Big=T
 Integral buffers will be    131072 words long.
 Raffenetti 2 integral format.
 Two-electron integral symmetry is turned on.
 Nuclear repulsion after empirical dispersion term =    13239.5959259578 Hartrees.
 One-electron integrals computed using PRISM.
   1 Symmetry operations used in ECPInt.
 ECPInt:  NShTT=  445096 NPrTT= 1380297 LenC2=  301650 LenP2D=  592418.
 LDataN:  DoStor=T MaxTD1= 6 Len=  172
 Number of processors reduced to  16 by ecpmxn.
 NBasis=  2427 RedAO= T EigKep=  2.41D-06  NBF=  2427
 NBsUse=  2427 1.00D-06 EigRej= -1.00D+00 NBFU=  2427
 ExpMin= 1.00D-02 ExpMax= 5.24D+04 ExpMxC= 1.79D+03 IAcc=3 IRadAn=         5 AccDes= 0.00D+00
 Harris functional with IExCor= 1009 and IRadAn=       5 diagonalized for initial guess.
 HarFok:  IExCor= 1009 AccDes= 0.00D+00 IRadAn=         5 IDoV= 1 UseB2=F ITyADJ=14
 ICtDFT=  3500011 ScaDFX=  1.000000  1.000000  1.000000  1.000000
 FoFCou: FMM=F IPFlag=           0 FMFlag=      100000 FMFlg1=        2001
         NFxFlg=           0 DoJE=T BraDBF=F KetDBF=T FulRan=T
         wScrn=  0.000000 ICntrl=       500 IOpCl=  0 I1Cent=   200000004 NGrid=           0
         NMat0=    1 NMatS0=      1 NMatT0=    0 NMatD0=    1 NMtDS0=    0 NMtDT0=    0
 Petite list used in FoFCou.
 Requested convergence on RMS density matrix=1.00D-08 within 128 cycles.
 Requested convergence on MAX density matrix=1.00D-06.
 Requested convergence on             energy=1.00D-06.
 No special actions if energy rises.
 EnCoef did     4 forward-backward iterations
 EnCoef did    13 forward-backward iterations
 Restarting incremental Fock formation.
 SCF Done:  E(RPBE1PBE) =  -4160.76702392     A.U. after   22 cycles
            NFock= 22  Conv=0.47D-08     -V/T= 2.0173
 DoSCS=F DFT=T ScalE2(SS,OS)=  1.000000  1.000000
 Range of M.O.s used for correlation:     1  2427
 NBasis=  2427 NAE=   263 NBE=   263 NFC=     0 NFV=     0
 NROrb=   2427 NOA=   263 NOB=   263 NVA=  2164 NVB=  2164

 **** Warning!!: The largest alpha MO coefficient is  0.44187900D+02

          Differentiating once with respect to magnetic field using GIAOs.
          Electric field/nuclear overlap derivatives assumed to be zero.
 FoFCou: FMM=F IPFlag=           0 FMFlag=      100000 FMFlg1=        2001
         NFxFlg=           0 DoJE=F BraDBF=F KetDBF=T FulRan=T
         wScrn=  0.000000 ICntrl=      6100 IOpCl=  0 I1Cent=           7 NGrid=         113
         NMat0=    1 NMatS0=      1 NMatT0=    0 NMatD0=    1 NMtDS0=    0 NMtDT0=    0
 Symmetry not used in FoFCou.
   1 Symmetry operations used in ECPInt.
 ECPInt:  NShTT=  445096 NPrTT= 1380297 LenC2=  445097 LenP2D= 1380297.
 LDataN:  DoStor=T MaxTD1= 7 Len=  274
 Number of processors reduced to  10 by ecpmxn.
 FoFJK:  IHMeth= 1 ICntrl=    6127 DoSepK=F KAlg= 0 I1Cent=           0 FoldK=F
 IRaf=         1 NMat=       1 IRICut=       1 DoRegI=T DoRafI=F ISym2E= 0 IDoP0=0 IntGTp=1.
          There are     3 degrees of freedom in the 1st order CPHF.  IDoFFX=0 NUNeed=     3.
      3 vectors produced by pass  0 Test12= 1.90D-11 3.33D-08 XBig12= 4.48D+02 2.40D+00.
 AX will form     3 AO Fock derivatives at one time.
      3 vectors produced by pass  1 Test12= 1.90D-11 3.33D-08 XBig12= 2.17D+00 3.92D-01.
      3 vectors produced by pass  2 Test12= 1.90D-11 3.33D-08 XBig12= 1.09D-01 7.74D-02.
      3 vectors produced by pass  3 Test12= 1.90D-11 3.33D-08 XBig12= 1.52D-03 6.59D-03.
      3 vectors produced by pass  4 Test12= 1.90D-11 3.33D-08 XBig12= 3.13D-05 1.89D-03.
      3 vectors produced by pass  5 Test12= 1.90D-11 3.33D-08 XBig12= 9.87D-07 2.05D-04.
      3 vectors produced by pass  6 Test12= 1.90D-11 3.33D-08 XBig12= 6.34D-09 1.86D-05.
      3 vectors produced by pass  7 Test12= 1.90D-11 3.33D-08 XBig12= 4.82D-11 1.69D-06.
      3 vectors produced by pass  8 Test12= 1.90D-11 3.33D-08 XBig12= 1.33D-12 5.55D-07.
      1 vectors produced by pass  9 Test12= 1.90D-11 3.33D-08 XBig12= 3.12D-14 4.74D-08.
 InvSVY:  IOpt=1 It=  1 EMax= 3.55D-15
 Solved reduced A of dimension    28 with     3 vectors.
 Calculating GIAO nuclear magnetic shielding tensors.
 SCF GIAO Magnetic shielding tensor (ppm):
      1  C    Isotropic =   110.4398   Anisotropy =    92.3394
   XX=    78.7737   YX=    41.4097   ZX=    14.4338
   XY=    54.7315   YY=   133.8356   ZY=    17.9009
   XZ=    17.8520   YZ=    17.4303   ZZ=   118.7102
   Eigenvalues:    50.4965   108.8235   171.9995
      2  C    Isotropic =   112.7407   Anisotropy =    88.4342
   XX=   118.1567   YX=    17.3063   ZX=     7.3611
   XY=    23.4854   YY=   117.0057   ZY=    62.4609
   XZ=     5.3037   YZ=    45.5934   ZZ=   103.0597
   Eigenvalues:    54.3010   112.2242   171.6968
      3  C    Isotropic =   112.6746   Anisotropy =    86.6264
   XX=    70.8677   YX=     1.3458   ZX=    29.9442
   XY=   -10.9843   YY=   151.4304   ZY=    34.1150
   XZ=    25.3336   YZ=    27.9681   ZZ=   115.7258
   Eigenvalues:    54.1528   113.4456   170.4255
      4  C    Isotropic =   111.7710   Anisotropy =    90.4625
   XX=    77.6491   YX=    29.3964   ZX=   -21.4465
   XY=    19.9038   YY=   159.8983   ZY=    18.4157
   XZ=   -20.0048   YZ=    32.4497   ZZ=    97.7657
   Eigenvalues:    53.4296   109.8041   172.0794
      5  C    Isotropic =   110.2081   Anisotropy =    92.8171
   XX=   106.9440   YX=    17.3983   ZX=    21.0542
   XY=    15.9267   YY=   160.8095   ZY=    13.7300
   XZ=    26.3329   YZ=    27.2776   ZZ=    62.8709
   Eigenvalues:    51.0957   107.4424   172.0862
      6  H    Isotropic =    27.3953   Anisotropy =     6.3040
   XX=    26.0815   YX=     0.1188   ZX=     0.3746
   XY=     0.0326   YY=    27.8726   ZY=    -3.7447
   XZ=     0.4338   YZ=    -3.3166   ZZ=    28.2318
   Eigenvalues:    24.4486    26.1393    31.5980
      7  H    Isotropic =    27.3263   Anisotropy =     6.9051
   XX=    30.1640   YX=     1.1474   ZX=    -2.9739
   XY=     1.4649   YY=    25.4123   ZY=    -1.2748
   XZ=    -2.2306   YZ=    -1.0052   ZZ=    26.4026
   Eigenvalues:    24.6147    25.4345    31.9298
      8  H    Isotropic =    27.1352   Anisotropy =     4.8652
   XX=    28.6945   YX=     0.2986   ZX=     2.1050
   XY=    -0.4293   YY=    26.1591   ZY=    -1.6271
   XZ=     2.0412   YZ=    -2.8491   ZZ=    26.5520
   Eigenvalues:    23.7015    27.3254    30.3786
      9  H    Isotropic =    26.9820   Anisotropy =     4.4997
   XX=    25.3388   YX=    -0.1253   ZX=    -0.7388
   XY=     1.1098   YY=    26.5599   ZY=    -1.0992
   XZ=    -0.9932   YZ=    -1.9451   ZZ=    29.0472
   Eigenvalues:    25.1191    25.8451    29.9818
     10  H    Isotropic =    27.2718   Anisotropy =     4.0456
   XX=    29.7593   YX=    -0.6135   ZX=     0.4417
   XY=    -0.8469   YY=    27.4243   ZY=    -0.3038
   XZ=    -0.4298   YZ=     0.5141   ZZ=    24.6319
   Eigenvalues:    24.6277    27.2189    29.9689
     11  Fe   Isotropic = -6309.9384   Anisotropy =  8502.6852
   XX= -8599.6781   YX=  1923.6701   ZX=  1131.0277
   XY=  1901.1353   YY= -3229.5220   ZY=  3394.0299
   XZ=  1120.2860   YZ=  3388.6890   ZZ= -7100.6150
   Eigenvalues: -9219.5060 -9068.8275  -641.4816
     12  C    Isotropic =   114.2453   Anisotropy =    89.0519
   XX=   110.5418   YX=    12.8048   ZX=    27.9774
   XY=    19.5627   YY=   157.0082   ZY=    16.3446
   XZ=    38.7305   YZ=    29.9740   ZZ=    75.1859
   Eigenvalues:    53.7175   115.4052   173.6133
     13  C    Isotropic =   103.3313   Anisotropy =    78.8656
   XX=    66.8927   YX=    43.3784   ZX=     1.7423
   XY=    51.9980   YY=   113.4179   ZY=    18.8261
   XZ=    30.9467   YZ=     3.3339   ZZ=   129.6833
   Eigenvalues:    36.3884   117.6972   155.9084
     14  C    Isotropic =    87.3886   Anisotropy =    96.3984
   XX=    66.1181   YX=    14.1116   ZX=    18.4864
   XY=    16.4639   YY=    83.2389   ZY=    57.1974
   XZ=    11.1681   YZ=    35.1275   ZZ=   112.8087
   Eigenvalues:    48.5547    61.9568   151.6541
     15  C    Isotropic =    86.9563   Anisotropy =    92.7277
   XX=    46.9763   YX=     4.2430   ZX=     8.4118
   XY=    -5.5169   YY=   119.5554   ZY=    39.8558
   XZ=    -8.9618   YZ=    39.9003   ZZ=    94.3373
   Eigenvalues:    46.9705    65.1236   148.7748
     16  C    Isotropic =   117.3134   Anisotropy =    85.5573
   XX=   105.9220   YX=    17.6911   ZX=   -19.7638
   XY=     1.1600   YY=   156.8698   ZY=    31.1488
   XZ=   -33.7921   YZ=    45.7780   ZZ=    89.1483
   Eigenvalues:    55.7914   121.7971   174.3516
     17  H    Isotropic =    27.4133   Anisotropy =     7.6725
   XX=    27.8585   YX=     1.1802   ZX=    -3.5285
   XY=     0.9092   YY=    25.6678   ZY=    -1.9779
   XZ=    -3.2724   YZ=    -2.4572   ZZ=    28.7136
   Eigenvalues:    24.2096    25.5020    32.5283
     18  H    Isotropic =    27.5843   Anisotropy =     3.2972
   XX=    29.5830   YX=    -1.3431   ZX=    -0.2573
   XY=    -0.1092   YY=    26.0390   ZY=    -3.0598
   XZ=    -0.9815   YZ=    -3.2399   ZZ=    27.1308
   Eigenvalues:    23.2444    29.7260    29.7824
     19  C    Isotropic =   145.7056   Anisotropy =    31.1203
   XX=   140.9139   YX=    11.3967   ZX=    -0.4230
   XY=    21.3863   YY=   154.5610   ZY=     7.1513
   XZ=    -0.6785   YZ=     5.2170   ZZ=   141.6420
   Eigenvalues:   128.7482   141.9163   166.4525
     20  P    Isotropic =   269.1799   Anisotropy =    90.9912
   XX=   232.6109   YX=   -52.2107   ZX=    -7.5650
   XY=   -28.7285   YY=   310.0093   ZY=    21.9081
   XZ=    18.0062   YZ=    10.2276   ZZ=   264.9193
   Eigenvalues:   212.8751   264.8238   329.8407
     21  H    Isotropic =    27.9261   Anisotropy =     3.0539
   XX=    27.8333   YX=    -1.7815   ZX=     1.1932
   XY=     2.6401   YY=    26.5032   ZY=    -2.0420
   XZ=     0.2592   YZ=    -0.1677   ZZ=    29.4420
   Eigenvalues:    25.9136    27.9028    29.9621
     22  C    Isotropic =   167.8840   Anisotropy =    11.3973
   XX=   173.0131   YX=    -0.3343   ZX=     1.9441
   XY=    -0.7785   YY=   173.2294   ZY=    -7.0149
   XZ=     3.3698   YZ=    -3.1659   ZZ=   157.4095
   Eigenvalues:   155.5832   172.5866   175.4822
     23  H    Isotropic =    29.6550   Anisotropy =    10.0416
   XX=    35.6721   YX=    -2.6609   ZX=    -1.7318
   XY=     0.0286   YY=    30.3010   ZY=     0.4073
   XZ=    -2.8821   YZ=    -0.6113   ZZ=    22.9918
   Eigenvalues:    22.5709    30.0447    36.3494
     24  H    Isotropic =    29.0544   Anisotropy =     9.6592
   XX=    29.8735   YX=     1.0481   ZX=     1.4471
   XY=     3.9229   YY=    34.3544   ZY=     0.3093
   XZ=     0.6299   YZ=     0.1841   ZZ=    22.9353
   Eigenvalues:    22.7819    28.8874    35.4938
     25  H    Isotropic =    30.1519   Anisotropy =     5.8066
   XX=    30.1698   YX=    -0.7881   ZX=     3.7930
   XY=     3.4313   YY=    28.6805   ZY=    -2.0602
   XZ=     1.6196   YZ=    -2.9753   ZZ=    31.6055
   Eigenvalues:    25.7044    30.7283    34.0230
     26  C    Isotropic =    54.3028   Anisotropy =   193.6805
   XX=   -34.9353   YX=    -3.9094   ZX=   -21.8433
   XY=    -9.1433   YY=   123.1951   ZY=   -79.2302
   XZ=   -16.5702   YZ=   -82.2754   ZZ=    74.6488
   Eigenvalues:   -41.7254    21.2108   183.4232
     27  C    Isotropic =    47.4317   Anisotropy =   162.1811
   XX=    27.1546   YX=    -6.3168   ZX=   -19.5268
   XY=    -6.1479   YY=    77.1803   ZY=   -98.2217
   XZ=   -13.9500   YZ=   -93.2455   ZZ=    37.9603
   Eigenvalues:   -44.1692    30.9119   155.5524
     28  C    Isotropic =    39.3457   Anisotropy =   191.0849
   XX=   -25.5876   YX=    39.3638   ZX=    25.9711
   XY=    52.9284   YY=    87.1384   ZY=   -91.7969
   XZ=    19.7840   YZ=   -90.8598   ZZ=    56.4863
   Eigenvalues:   -71.4630    22.7644   166.7357
     29  C    Isotropic =    31.6840   Anisotropy =   213.1478
   XX=   -38.8865   YX=    19.8812   ZX=   -32.0566
   XY=    20.6979   YY=    93.3122   ZY=  -102.3774
   XZ=   -25.2503   YZ=   -93.6912   ZZ=    40.6264
   Eigenvalues:   -50.7018   -28.0287   173.7825
     30  C    Isotropic =    35.3329   Anisotropy =   198.4855
   XX=     7.1065   YX=     0.6055   ZX=   -13.2293
   XY=    -3.9056   YY=    94.9956   ZY=  -101.1417
   XZ=   -18.3809   YZ=  -116.2836   ZZ=     3.8966
   Eigenvalues:   -70.9675     9.3097   167.6566
     31  C    Isotropic =    44.8349   Anisotropy =   166.8397
   XX=    -8.1306   YX=    27.9892   ZX=    31.1937
   XY=    30.1830   YY=    93.5834   ZY=   -83.6440
   XZ=    22.0844   YZ=   -79.2425   ZZ=    49.0518
   Eigenvalues:   -49.6361    28.0794   156.0613
     32  H    Isotropic =    23.1433   Anisotropy =     9.4662
   XX=    22.2514   YX=    -2.4102   ZX=    -0.8131
   XY=    -2.6228   YY=    22.7049   ZY=     4.6600
   XZ=    -1.3770   YZ=     5.2066   ZZ=    24.4736
   Eigenvalues:    18.1500    21.8258    29.4541
     33  C    Isotropic =    48.3230   Anisotropy =    14.0631
   XX=    57.3076   YX=    -2.2600   ZX=    -0.4678
   XY=    -2.1505   YY=    45.1753   ZY=    -1.8187
   XZ=    -0.4011   YZ=    -0.9613   ZZ=    42.4859
   Eigenvalues:    41.7881    45.4824    57.6984
     34  H    Isotropic =    22.7996   Anisotropy =    12.1640
   XX=    24.0369   YX=     2.9976   ZX=     5.9289
   XY=     4.1882   YY=    21.2599   ZY=     1.3705
   XZ=     5.6232   YZ=     2.1685   ZZ=    23.1021
   Eigenvalues:    17.3031    20.1868    30.9090
     35  H    Isotropic =    23.5340   Anisotropy =    14.7183
   XX=    32.7494   YX=    -3.5593   ZX=     0.0710
   XY=    -1.6274   YY=    21.9561   ZY=    -3.5401
   XZ=    -1.5898   YZ=    -0.2397   ZZ=    15.8964
   Eigenvalues:    15.2312    22.0245    33.3461
     36  C    Isotropic =    48.8528   Anisotropy =    13.5135
   XX=    51.2564   YX=     1.6311   ZX=     8.3651
   XY=     3.1512   YY=    48.9626   ZY=     0.3419
   XZ=     7.2898   YZ=     2.4879   ZZ=    46.3394
   Eigenvalues:    40.5839    48.1127    57.8618
     37  C    Isotropic =    59.9367   Anisotropy =   186.0552
   XX=    63.9332   YX=   -71.2576   ZX=    -0.4927
   XY=   -70.9201   YY=   131.7801   ZY=    49.2794
   XZ=     3.1882   YZ=    42.1477   ZZ=   -15.9031
   Eigenvalues:   -34.8062    30.6429   183.9735
     38  C    Isotropic =    50.5372   Anisotropy =   158.7474
   XX=    46.3167   YX=   -56.1432   ZX=   -45.5360
   XY=   -53.7324   YY=   120.9485   ZY=     9.5444
   XZ=   -50.5034   YZ=    12.0216   ZZ=   -15.6537
   Eigenvalues:   -43.8332    39.0759   156.3687
     39  C    Isotropic =    51.4704   Anisotropy =   195.8535
   XX=    22.2162   YX=  -105.0421   ZX=   -17.8318
   XY=  -100.5056   YY=   104.5879   ZY=    32.8740
   XZ=   -21.3310   YZ=    25.0706   ZZ=    27.6071
   Eigenvalues:   -47.3172    19.6889   182.0394
     40  C    Isotropic =    25.5847   Anisotropy =   212.7660
   XX=    24.6201   YX=   -97.9938   ZX=   -20.5052
   XY=   -95.5304   YY=    88.1519   ZY=    31.1648
   XZ=   -20.9708   YZ=    45.5913   ZZ=   -36.0177
   Eigenvalues:   -50.9285   -39.7460   167.4288
     41  C    Isotropic =    46.9654   Anisotropy =   202.4340
   XX=    34.3803   YX=   -88.0719   ZX=   -51.0049
   XY=   -76.8254   YY=   131.6051   ZY=     1.9790
   XZ=   -33.4546   YZ=     8.3387   ZZ=   -25.0890
   Eigenvalues:   -55.2248    14.1996   181.9215
     42  C    Isotropic =    49.3657   Anisotropy =   166.3600
   XX=    18.4982   YX=   -84.5608   ZX=   -10.2049
   XY=  -102.3109   YY=    95.2035   ZY=    15.2259
   XZ=    -5.8446   YZ=    16.0419   ZZ=    34.3953
   Eigenvalues:   -44.2041    32.0288   160.2724
     43  H    Isotropic =    24.0447   Anisotropy =     8.8897
   XX=    26.7975   YX=     3.8921   ZX=     1.3460
   XY=     3.1777   YY=    21.6276   ZY=     3.1653
   XZ=     2.5127   YZ=     2.0077   ZZ=    23.7090
   Eigenvalues:    19.2560    22.9069    29.9712
     44  C    Isotropic =    47.8378   Anisotropy =    15.2168
   XX=    48.7910   YX=     6.5169   ZX=    -7.5349
   XY=     6.1156   YY=    46.6682   ZY=    -1.6194
   XZ=    -6.3943   YZ=    -0.1986   ZZ=    48.0541
   Eigenvalues:    39.1317    46.3993    57.9823
     45  H    Isotropic =    24.3826   Anisotropy =     6.0085
   XX=    26.7205   YX=    -2.7535   ZX=    -0.1023
   XY=     0.8871   YY=    19.4391   ZY=    -3.7515
   XZ=    -2.7085   YZ=    -0.5185   ZZ=    26.9881
   Eigenvalues:    18.6762    26.0833    28.3883
     46  H    Isotropic =    26.8039   Anisotropy =    14.0068
   XX=    25.0912   YX=     1.0138   ZX=    -3.0709
   XY=    -2.4903   YY=    29.6419   ZY=    -9.3879
   XZ=    -1.4187   YZ=    -6.9808   ZZ=    25.6786
   Eigenvalues:    18.4883    25.7817    36.1418
     47  C    Isotropic =    49.4536   Anisotropy =    12.5544
   XX=    43.5623   YX=    -0.4456   ZX=     0.7148
   XY=    -3.7914   YY=    47.4643   ZY=    -1.9248
   XZ=     0.7609   YZ=    -2.1123   ZZ=    57.3340
   Eigenvalues:    42.6320    47.9056    57.8231
     48  F    Isotropic =   217.7641   Anisotropy =   151.0078
   XX=   270.6735   YX=   -80.8679   ZX=   -16.2179
   XY=   -81.4262   YY=   172.8417   ZY=     0.9966
   XZ=   -16.6702   YZ=    -0.4487   ZZ=   209.7771
   Eigenvalues:   126.2599   208.5964   318.4359
     49  F    Isotropic =   248.9975   Anisotropy =   126.4062
   XX=   196.3243   YX=    -8.2649   ZX=    49.2403
   XY=   -21.2050   YY=   266.1357   ZY=    59.8638
   XZ=    37.2589   YZ=    45.3428   ZZ=   284.5326
   Eigenvalues:   165.7034   248.0209   333.2684
     50  F    Isotropic =   247.7053   Anisotropy =   133.7914
   XX=   181.2731   YX=    -5.7202   ZX=   -33.7191
   XY=   -24.7211   YY=   284.9932   ZY=   -59.9728
   XZ=   -24.0631   YZ=   -50.6960   ZZ=   276.8495
   Eigenvalues:   164.5329   241.6834   336.8995
     51  F    Isotropic =   246.5904   Anisotropy =   121.6774
   XX=   266.5134   YX=    45.8821   ZX=   -26.8723
   XY=    42.2522   YY=   295.6057   ZY=    13.7771
   XZ=   -17.5440   YZ=    32.7028   ZZ=   177.6521
   Eigenvalues:   163.4163   248.6463   327.7087
     52  F    Isotropic =   246.0830   Anisotropy =   140.3121
   XX=   203.6164   YX=   -10.0100   ZX=   -65.3100
   XY=   -19.7269   YY=   237.1585   ZY=     2.9517
   XZ=   -83.7252   YZ=     3.8541   ZZ=   297.4742
   Eigenvalues:   160.7756   237.8491   339.6244
     53  F    Isotropic =   213.7137   Anisotropy =   141.1965
   XX=   249.7586   YX=   -56.5686   ZX=    -3.1094
   XY=   -59.0592   YY=   233.1532   ZY=   -56.0209
   XZ=    -1.4114   YZ=   -49.7537   ZZ=   158.2292
   Eigenvalues:   123.3242   209.9722   307.8447
     54  F    Isotropic =   245.9298   Anisotropy =   138.9207
   XX=   312.3139   YX=    44.9767   ZX=     6.2495
   XY=    55.5148   YY=   241.6514   ZY=   -41.6130
   XZ=    18.7782   YZ=   -25.8647   ZZ=   183.8242
   Eigenvalues:   160.5373   238.7085   338.5436
     55  F    Isotropic =   222.8796   Anisotropy =   142.4048
   XX=   212.7197   YX=   -17.9470   ZX=    -4.1704
   XY=   -18.9255   YY=   159.9258   ZY=   -58.6168
   XZ=    -4.4580   YZ=   -58.6148   ZZ=   295.9932
   Eigenvalues:   133.6907   217.1319   317.8161
     56  F    Isotropic =   241.1673   Anisotropy =   139.6831
   XX=   243.0912   YX=   -56.3366   ZX=   -31.9122
   XY=   -69.2894   YY=   289.1972   ZY=   -17.0340
   XZ=   -38.7598   YZ=    -0.8713   ZZ=   191.2134
   Eigenvalues:   160.3505   228.8619   334.2893
     57  F    Isotropic =   214.7406   Anisotropy =   148.6107
   XX=   184.5147   YX=    50.5205   ZX=   -18.4518
   XY=    51.1337   YY=   180.8870   ZY=   -53.4210
   XZ=   -19.7669   YZ=   -52.1132   ZZ=   278.8200
   Eigenvalues:   127.0706   203.3367   313.8144
     58  F    Isotropic =   244.5483   Anisotropy =   142.2025
   XX=   177.9625   YX=     7.6667   ZX=    30.6921
   XY=    27.0727   YY=   323.2656   ZY=    30.3037
   XZ=    33.2950   YZ=    38.4373   ZZ=   232.4168
   Eigenvalues:   163.1660   231.1289   339.3500
     59  F    Isotropic =   252.1293   Anisotropy =   135.0961
   XX=   307.8464   YX=    -1.0569   ZX=    69.9281
   XY=    -7.1070   YY=   236.1444   ZY=   -43.7406
   XZ=    53.6183   YZ=   -30.4297   ZZ=   212.3971
   Eigenvalues:   167.1782   247.0163   342.1934
     60  P    Isotropic =   308.6572   Anisotropy =    47.9555
   XX=   340.4651   YX=     0.2959   ZX=   -20.8690
   XY=     1.9314   YY=   303.3850   ZY=    -8.9279
   XZ=    26.9580   YZ=   -45.9207   ZZ=   282.1217
   Eigenvalues:   263.2126   322.1316   340.6275
     61  C    Isotropic =    22.0071   Anisotropy =   123.9349
   XX=   -14.9557   YX=    35.4177   ZX=    39.1361
   XY=    33.7650   YY=   -11.3805   ZY=    -7.6017
   XZ=    37.3202   YZ=    -9.7984   ZZ=    92.3575
   Eigenvalues:   -55.7569    17.1478   104.6304
     62  C    Isotropic =    47.6114   Anisotropy =   170.5551
   XX=    32.8947   YX=     6.7915   ZX=    39.4001
   XY=   -10.2059   YY=   -37.0140   ZY=     8.4708
   XZ=    44.8893   YZ=    13.1589   ZZ=   146.9536
   Eigenvalues:   -37.9310    19.4505   161.3148
     63  C    Isotropic =    49.2529   Anisotropy =   152.0862
   XX=    -9.5138   YX=   -34.0099   ZX=    53.0637
   XY=   -37.4093   YY=    28.1632   ZY=    12.5938
   XZ=    64.1582   YZ=    19.7910   ZZ=   129.1094
   Eigenvalues:   -50.4345    47.5495   150.6438
     64  C    Isotropic =    37.0483   Anisotropy =   191.6099
   XX=    -5.3519   YX=    20.8234   ZX=    69.1571
   XY=     9.4134   YY=   -24.4992   ZY=    -1.8718
   XZ=    57.7260   YZ=     0.7159   ZZ=   140.9961
   Eigenvalues:   -41.3516   -12.2917   164.7882
     65  C    Isotropic =    48.8878   Anisotropy =   153.9656
   XX=    53.9869   YX=   -16.6406   ZX=    29.6561
   XY=   -11.0469   YY=   -47.4748   ZY=    13.6566
   XZ=    35.7175   YZ=    13.9658   ZZ=   140.1514
   Eigenvalues:   -51.1107    46.2426   151.5315
     66  C    Isotropic =    48.0986   Anisotropy =   172.1756
   XX=    -8.7682   YX=   -23.0790   ZX=    61.5561
   XY=    -8.9739   YY=    13.3800   ZY=    11.0301
   XZ=    63.1483   YZ=    18.6397   ZZ=   139.6840
   Eigenvalues:   -39.2395    20.6531   162.8824
     67  H    Isotropic =    25.2707   Anisotropy =    16.8041
   XX=    27.0942   YX=    -5.0292   ZX=    -3.4667
   XY=    -9.2417   YY=    29.1196   ZY=     4.1732
   XZ=    -2.4002   YZ=     2.4495   ZZ=    19.5985
   Eigenvalues:    18.4381    20.9007    36.4735
     68  H    Isotropic =    24.3697   Anisotropy =    13.3237
   XX=    28.2432   YX=    -3.0544   ZX=    -6.9095
   XY=    -4.3572   YY=    23.4685   ZY=     1.5140
   XZ=    -5.0965   YZ=     1.0611   ZZ=    21.3975
   Eigenvalues:    17.7889    22.0682    33.2522
     69  H    Isotropic =    27.4377   Anisotropy =     3.9376
   XX=    29.2839   YX=     0.9515   ZX=    -3.0962
   XY=    -1.8369   YY=    26.9977   ZY=    -1.0132
   XZ=    -0.4209   YZ=    -1.8124   ZZ=    26.0314
   Eigenvalues:    24.4203    27.8299    30.0628
     70  C    Isotropic =    50.8642   Anisotropy =   189.6267
   XX=   143.3509   YX=    22.9034   ZX=   -77.8697
   XY=    20.6637   YY=     0.5203   ZY=    37.4539
   XZ=   -73.1883   YZ=    42.6540   ZZ=     8.7215
   Eigenvalues:   -59.5625    34.8731   177.2821
     71  C    Isotropic =    50.0051   Anisotropy =   189.0390
   XX=   143.6295   YX=   -13.7111   ZX=   -78.2065
   XY=   -11.7657   YY=    19.0501   ZY=   -29.2025
   XZ=   -78.1765   YZ=   -30.8267   ZZ=   -12.6644
   Eigenvalues:   -58.7326    32.7168   176.0311
     72  C    Isotropic =    42.6129   Anisotropy =   165.0856
   XX=   131.7422   YX=   -18.4256   ZX=   -46.8128
   XY=   -11.0321   YY=   -54.9617   ZY=   -11.4066
   XZ=   -44.1587   YZ=    -6.0370   ZZ=    51.0583
   Eigenvalues:   -57.6443    32.8130   152.6700
     73  C    Isotropic =    35.9739   Anisotropy =   191.2949
   XX=   139.3517   YX=     3.3439   ZX=   -68.0882
   XY=    -6.2496   YY=   -16.4981   ZY=    36.0341
   XZ=   -58.9113   YZ=    47.2392   ZZ=   -14.9320
   Eigenvalues:   -67.6141    12.0319   163.5038
     74  C    Isotropic =    36.0934   Anisotropy =   204.7304
   XX=   141.8123   YX=   -19.1688   ZX=   -55.4020
   XY=   -17.9286   YY=   -20.3101   ZY=   -13.3005
   XZ=   -93.7656   YZ=   -16.3037   ZZ=   -13.2218
   Eigenvalues:   -55.5873    -8.7128   172.5804
     75  C    Isotropic =    36.6497   Anisotropy =   197.8842
   XX=   139.5797   YX=     5.3716   ZX=   -65.5005
   XY=     8.1114   YY=   -72.6940   ZY=   -14.1123
   XZ=   -53.9418   YZ=    -6.9962   ZZ=    43.0634
   Eigenvalues:   -73.6582    15.0348   168.5725
     76  H    Isotropic =    23.7776   Anisotropy =     4.0739
   XX=    23.1624   YX=     0.8310   ZX=     2.3722
   XY=    -0.1670   YY=    24.0917   ZY=     1.1238
   XZ=     1.2173   YZ=     2.2223   ZZ=    24.0785
   Eigenvalues:    21.4804    23.3588    26.4935
     77  H    Isotropic =    23.4874   Anisotropy =     4.3174
   XX=    22.0497   YX=     0.1727   ZX=     1.2892
   XY=     0.1481   YY=    24.8549   ZY=    -2.1124
   XZ=     1.5623   YZ=    -1.7443   ZZ=    23.5576
   Eigenvalues:    20.8095    23.2870    26.3657
     78  H    Isotropic =    22.1815   Anisotropy =     8.4059
   XX=    19.3051   YX=     0.7905   ZX=     2.1766
   XY=     0.7042   YY=    22.5589   ZY=    -4.1799
   XZ=     1.8057   YZ=    -3.5496   ZZ=    24.6805
   Eigenvalues:    17.5804    21.1788    27.7854
     79  H    Isotropic =    23.7193   Anisotropy =     8.6009
   XX=    23.5315   YX=    -0.3491   ZX=     4.9029
   XY=    -2.0575   YY=    19.3114   ZY=    -0.5313
   XZ=     0.2854   YZ=     1.3152   ZZ=    28.3151
   Eigenvalues:    18.8611    22.8436    29.4533
     80  C    Isotropic =    19.7494   Anisotropy =   135.8093
   XX=     3.9385   YX=   -78.5045   ZX=     5.3227
   XY=   -80.0426   YY=    45.2682   ZY=    27.2754
   XZ=     2.1040   YZ=    26.9934   ZZ=    10.0415
   Eigenvalues:   -62.7228    11.6822   110.2889
     81  C    Isotropic =    45.8756   Anisotropy =   180.2956
   XX=    32.9475   YX=   -76.6412   ZX=   -50.4340
   XY=   -82.9385   YY=   104.7563   ZY=    15.4178
   XZ=   -38.2811   YZ=    21.7984   ZZ=    -0.0770
   Eigenvalues:   -41.0115    12.5656   166.0726
     82  C    Isotropic =    44.2813   Anisotropy =   158.6798
   XX=    73.3422   YX=   -53.0550   ZX=   -15.5790
   XY=   -41.6333   YY=   103.9765   ZY=    53.9567
   XZ=    -3.5230   YZ=    48.5064   ZZ=   -44.4749
   Eigenvalues:   -60.6420    43.4181   150.0678
     83  C    Isotropic =    50.5752   Anisotropy =   193.3412
   XX=    40.0791   YX=   -94.7948   ZX=    -5.7475
   XY=  -114.5646   YY=    91.8435   ZY=    33.8906
   XZ=    -5.8287   YZ=    33.2294   ZZ=    19.8029
   Eigenvalues:   -46.0811    18.3373   179.4693
     84  C    Isotropic =    45.6763   Anisotropy =   178.1161
   XX=    42.7018   YX=   -83.4257   ZX=   -55.0580
   XY=   -76.8001   YY=   104.6371   ZY=    -0.5026
   XZ=   -50.9483   YZ=    -3.8535   ZZ=   -10.3100
   Eigenvalues:   -58.0454    30.6540   164.4203
     85  C    Isotropic =    45.0430   Anisotropy =   184.0230
   XX=    67.4716   YX=   -75.6154   ZX=    -6.2445
   XY=   -71.9453   YY=   103.3548   ZY=    43.7905
   XZ=   -15.8800   YZ=    30.1863   ZZ=   -35.6973
   Eigenvalues:   -45.5733    12.9773   167.7250
     86  H    Isotropic =    24.0303   Anisotropy =     9.4406
   XX=    27.6153   YX=     3.3322   ZX=     2.1097
   XY=     1.9666   YY=    24.5199   ZY=     1.8720
   XZ=     4.2015   YZ=     1.2283   ZZ=    19.9556
   Eigenvalues:    18.7574    23.0094    30.3240
     87  H    Isotropic =    24.8919   Anisotropy =     9.7024
   XX=    26.4615   YX=     5.5367   ZX=    -2.8419
   XY=     0.3979   YY=    25.1604   ZY=    -2.3109
   XZ=    -4.3900   YZ=    -3.2718   ZZ=    23.0537
   Eigenvalues:    20.5396    22.7758    31.3601
     88  C    Isotropic =   167.3553   Anisotropy =    28.8758
   XX=   163.6427   YX=     3.8831   ZX=    -3.2442
   XY=     4.3140   YY=   185.8697   ZY=     0.1616
   XZ=    -0.2079   YZ=    -0.3340   ZZ=   152.5534
   Eigenvalues:   152.2822   163.1778   186.6058
     89  H    Isotropic =    30.0543   Anisotropy =     6.9457
   XX=    34.0111   YX=    -0.3828   ZX=    -3.0774
   XY=     1.0615   YY=    31.9070   ZY=     0.1810
   XZ=    -2.1806   YZ=     1.0980   ZZ=    24.2447
   Eigenvalues:    23.5230    31.9551    34.6847
     90  H    Isotropic =    29.0158   Anisotropy =     9.1821
   XX=    27.5329   YX=     1.0451   ZX=    -2.3092
   XY=    -1.1187   YY=    30.8414   ZY=     4.5008
   XZ=    -2.3342   YZ=     5.4211   ZZ=    28.6729
   Eigenvalues:    23.7817    28.1285    35.1372
     91  H    Isotropic =    29.3521   Anisotropy =     8.3864
   XX=    30.0607   YX=    -2.0436   ZX=     0.8971
   XY=    -2.8274   YY=    31.2223   ZY=    -3.1521
   XZ=     1.8395   YZ=    -4.3171   ZZ=    26.7734
   Eigenvalues:    24.6510    28.4624    34.9431
     92  C    Isotropic =   169.5581   Anisotropy =    28.8922
   XX=   180.5210   YX=     4.1757   ZX=   -14.0937
   XY=     7.2846   YY=   164.0893   ZY=    -5.5604
   XZ=    -7.3901   YZ=    -9.6326   ZZ=   164.0638
   Eigenvalues:   155.7064   164.1482   188.8195
     93  H    Isotropic =    29.5447   Anisotropy =     7.3502
   XX=    28.9278   YX=    -0.5395   ZX=    -3.0453
   XY=    -2.2859   YY=    32.1844   ZY=    -2.8054
   XZ=    -3.0247   YZ=    -5.0654   ZZ=    27.5218
   Eigenvalues:    23.2991    30.8901    34.4448
     94  H    Isotropic =    29.3705   Anisotropy =     7.3006
   XX=    33.1268   YX=     1.1684   ZX=     1.5051
   XY=     1.0839   YY=    28.1488   ZY=     1.0599
   XZ=     3.0697   YZ=     1.6000   ZZ=    26.8358
   Eigenvalues:    25.7057    28.1682    34.2375
     95  H    Isotropic =    28.7786   Anisotropy =     8.4429
   XX=    28.3275   YX=    -2.4801   ZX=    -4.9058
   XY=    -0.8825   YY=    30.3665   ZY=     1.0923
   XZ=    -5.7067   YZ=     1.4981   ZZ=    27.6417
   Eigenvalues:    22.6616    29.2670    34.4072
     96  O    Isotropic =   260.6642   Anisotropy =   106.0649
   XX=   229.1353   YX=   -23.8332   ZX=   -14.7383
   XY=   -30.9309   YY=   243.9612   ZY=    25.7096
   XZ=   -17.9668   YZ=    45.2952   ZZ=   308.8961
   Eigenvalues:   207.2157   243.4027   331.3741
     97  C    Isotropic =   126.3967   Anisotropy =    84.0423
   XX=   144.4286   YX=   -17.0934   ZX=    36.6514
   XY=   -14.4496   YY=   100.6093   ZY=    -9.2173
   XZ=    40.6368   YZ=   -10.6690   ZZ=   134.1524
   Eigenvalues:    94.9551   101.8102   182.4249
     98  H    Isotropic =    27.9010   Anisotropy =     7.4349
   XX=    30.6791   YX=     1.1002   ZX=     2.4516
   XY=    -0.6698   YY=    27.5426   ZY=    -1.4194
   XZ=     5.5569   YZ=     0.0396   ZZ=    25.4814
   Eigenvalues:    23.1911    27.6544    32.8576
     99  H    Isotropic =    28.2287   Anisotropy =     8.2148
   XX=    28.7509   YX=    -1.9676   ZX=     3.2121
   XY=    -0.5513   YY=    26.4520   ZY=    -2.5358
   XZ=     2.2348   YZ=    -4.7724   ZZ=    29.4831
   Eigenvalues:    23.9530    27.0278    33.7052
    100  H    Isotropic =    27.7456   Anisotropy =    10.4579
   XX=    31.6613   YX=    -5.2254   ZX=    -0.5023
   XY=    -3.9631   YY=    27.4382   ZY=     0.4503
   XZ=     2.4392   YZ=    -1.4550   ZZ=    24.1374
   Eigenvalues:    24.0057    24.5136    34.7175
    101  C    Isotropic =   169.6797   Anisotropy =    27.8685
   XX=   173.6027   YX=     1.2078   ZX=    14.4918
   XY=     8.2532   YY=   165.5902   ZY=     0.9378
   XZ=    16.3068   YZ=     2.8608   ZZ=   169.8461
   Eigenvalues:   155.8835   164.8968   188.2587
    102  H    Isotropic =    28.8990   Anisotropy =     4.4335
   XX=    31.0699   YX=     2.2845   ZX=    -1.0836
   XY=     1.2050   YY=    26.5399   ZY=    -1.4881
   XZ=     0.5334   YZ=    -1.2049   ZZ=    29.0871
   Eigenvalues:    25.5403    29.3020    31.8546
    103  H    Isotropic =    29.2658   Anisotropy =    10.0941
   XX=    24.9570   YX=     0.2301   ZX=     0.0501
   XY=     1.3598   YY=    33.2859   ZY=     4.4560
   XZ=     1.7296   YZ=     3.6355   ZZ=    29.5545
   Eigenvalues:    24.7904    27.0117    35.9952
    104  H    Isotropic =    29.3797   Anisotropy =    10.9044
   XX=    26.4733   YX=    -0.2336   ZX=     5.0437
   XY=     0.0597   YY=    31.1138   ZY=    -3.9277
   XZ=     3.7624   YZ=    -5.6308   ZZ=    30.5520
   Eigenvalues:    22.7424    28.7474    36.6493
    105  C    Isotropic =   168.0010   Anisotropy =    23.5419
   XX=   156.1010   YX=    -0.4755   ZX=    -1.2315
   XY=     5.0002   YY=   165.4922   ZY=    -6.8589
   XZ=    -1.7748   YZ=    -2.2099   ZZ=   182.4097
   Eigenvalues:   155.5760   164.7314   183.6956
    106  H    Isotropic =    28.9295   Anisotropy =     4.4770
   XX=    31.2729   YX=     0.0413   ZX=    -0.8027
   XY=     0.7113   YY=    27.1500   ZY=    -0.4179
   XZ=    -1.9662   YZ=    -1.1448   ZZ=    28.3654
   Eigenvalues:    26.7472    28.1270    31.9141
    107  H    Isotropic =    29.4431   Anisotropy =    10.9981
   XX=    25.8170   YX=    -1.9615   ZX=     2.8735
   XY=    -0.8180   YY=    34.4212   ZY=    -4.5386
   XZ=     1.4309   YZ=    -3.3986   ZZ=    28.0910
   Eigenvalues:    24.4085    27.1456    36.7752
    108  H    Isotropic =    30.0353   Anisotropy =     6.7065
   XX=    27.5981   YX=     3.1259   ZX=     2.1424
   XY=     3.1678   YY=    31.8855   ZY=    -0.2925
   XZ=     2.8842   YZ=     1.7582   ZZ=    30.6223
   Eigenvalues:    25.2272    30.3723    34.5063
    109  O    Isotropic =   255.3608   Anisotropy =   114.3123
   XX=   309.4338   YX=   -19.1409   ZX=   -43.6620
   XY=   -32.4289   YY=   237.7308   ZY=     7.0817
   XZ=   -39.1808   YZ=    -8.8852   ZZ=   218.9176
   Eigenvalues:   199.7339   234.7794   331.5690
    110  C    Isotropic =   126.1800   Anisotropy =    87.4048
   XX=    99.6042   YX=    -7.8807   ZX=    -2.1544
   XY=    -3.1915   YY=   183.2567   ZY=     7.4106
   XZ=    -1.3661   YZ=     9.5437   ZZ=    95.6792
   Eigenvalues:    94.5474    99.5428   184.4499
    111  H    Isotropic =    27.6516   Anisotropy =    11.4375
   XX=    25.4763   YX=     2.2111   ZX=    -0.8135
   XY=     5.9738   YY=    33.3415   ZY=    -2.0660
   XZ=    -0.4421   YZ=    -0.5788   ZZ=    24.1371
   Eigenvalues:    23.7180    23.9603    35.2767
    112  H    Isotropic =    27.8727   Anisotropy =     9.9903
   XX=    22.2528   YX=    -1.2912   ZX=    -0.3086
   XY=     1.3317   YY=    33.7665   ZY=     3.7006
   XZ=     1.0298   YZ=     0.9053   ZZ=    27.5988
   Eigenvalues:    22.2269    26.8583    34.5329
    113  H    Isotropic =    28.1558   Anisotropy =    10.7793
   XX=    24.8515   YX=    -2.4214   ZX=     2.6232
   XY=    -2.1865   YY=    34.5734   ZY=    -2.6207
   XZ=     1.5096   YZ=     0.3042   ZZ=    25.0426
   Eigenvalues:    22.8061    26.3194    35.3421
 End of Minotr F.D. properties file   721 does not exist.
 End of Minotr F.D. properties file   722 does not exist.
 End of Minotr F.D. properties file   788 does not exist.
 Hyperfine terms turned off by default for NAtoms > 100.

 **********************************************************************

            Population analysis using the SCF Density.

 **********************************************************************

 Orbital symmetries:
       Occupied  (A) (A) (A) (A) (A) (A) (A) (A) (A) (A) (A) (A)
                 (A) (A) (A) (A) (A) (A) (A) (A) (A) (A) (A) (A)
                 (A) (A) (A) (A) (A) (A) (A) (A) (A) (A) (A) (A)
                 (A) (A) (A) (A) (A) (A) (A) (A) (A) (A) (A) (A)
                 (A) (A) (A) (A) (A) (A) (A) (A) (A) (A) (A) (A)
                 (A) (A) (A) (A) (A) (A) (A) (A) (A) (A) (A) (A)
                 (A) (A) (A) (A) (A) (A) (A) (A) (A) (A) (A) (A)
                 (A) (A) (A) (A) (A) (A) (A) (A) (A) (A) (A) (A)
                 (A) (A) (A) (A) (A) (A) (A) (A) (A) (A) (A) (A)
                 (A) (A) (A) (A) (A) (A) (A) (A) (A) (A) (A) (A)
                 (A) (A) (A) (A) (A) (A) (A) (A) (A) (A) (A) (A)
                 (A) (A) (A) (A) (A) (A) (A) (A) (A) (A) (A) (A)
                 (A) (A) (A) (A) (A) (A) (A) (A) (A) (A) (A) (A)
                 (A) (A) (A) (A) (A) (A) (A) (A) (A) (A) (A) (A)
                 (A) (A) (A) (A) (A) (A) (A) (A) (A) (A) (A) (A)
                 (A) (A) (A) (A) (A) (A) (A) (A) (A) (A) (A) (A)
                 (A) (A) (A) (A) (A) (A) (A) (A) (A) (A) (A) (A)
                 (A) (A) (A) (A) (A) (A) (A) (A) (A) (A) (A) (A)
                 (A) (A) (A) (A) (A) (A) (A) (A) (A) (A) (A) (A)
                 (A) (A) (A) (A) (A) (A) (A) (A) (A) (A) (A) (A)
                 (A) (A) (A) (A) (A) (A) (A) (A) (A) (A) (A) (A)
                 (A) (A) (A) (A) (A) (A) (A) (A) (A) (A) (A)
       Virtual   (A) (A) (A) (A) (A) (A) (A) (A) (A) (A) (A) (A)
                 (A) (A) (A) (A) (A) (A) (A) (A) (A) (A) (A) (A)
                 (A) (A) (A) (A) (A) (A) (A) (A) (A) (A) (A) (A)
                 (A) (A) (A) (A) (A) (A) (A) (A) (A) (A) (A) (A)
                 (A) (A) (A) (A) (A) (A) (A) (A) (A) (A) (A) (A)
                 (A) (A) (A) (A) (A) (A) (A) (A) (A) (A) (A) (A)
                 (A) (A) (A) (A) (A) (A) (A) (A) (A) (A) (A) (A)
                 (A) (A) (A) (A) (A) (A) (A) (A) (A) (A) (A) (A)
                 (A) (A) (A) (A) (A) (A) (A) (A) (A) (A) (A) (A)
                 (A) (A) (A) (A) (A) (A) (A) (A) (A) (A) (A) (A)
                 (A) (A) (A) (A) (A) (A) (A) (A) (A) (A) (A) (A)
                 (A) (A) (A) (A) (A) (A) (A) (A) (A) (A) (A) (A)
                 (A) (A) (A) (A) (A) (A) (A) (A) (A) (A) (A) (A)
                 (A) (A) (A) (A) (A) (A) (A) (A) (A) (A) (A) (A)
                 (A) (A) (A) (A) (A) (A) (A) (A) (A) (A) (A) (A)
                 (A) (A) (A) (A) (A) (A) (A) (A) (A) (A) (A) (A)
                 (A) (A) (A) (A) (A) (A) (A) (A) (A) (A) (A) (A)
                 (A) (A) (A) (A) (A) (A) (A) (A) (A) (A) (A) (A)
                 (A) (A) (A) (A) (A) (A) (A) (A) (A) (A) (A) (A)
                 (A) (A) (A) (A) (A) (A) (A) (A) (A) (A) (A) (A)
                 (A) (A) (A) (A) (A) (A) (A) (A) (A) (A) (A) (A)
                 (A) (A) (A) (A) (A) (A) (A) (A) (A) (A) (A) (A)
                 (A) (A) (A) (A) (A) (A) (A) (A) (A) (A) (A) (A)
                 (A) (A) (A) (A) (A) (A) (A) (A) (A) (A) (A) (A)
                 (A) (A) (A) (A) (A) (A) (A) (A) (A) (A) (A) (A)
                 (A) (A) (A) (A) (A) (A) (A) (A) (A) (A) (A) (A)
                 (A) (A) (A) (A) (A) (A) (A) (A) (A) (A) (A) (A)
                 (A) (A) (A) (A) (A) (A) (A) (A) (A) (A) (A) (A)
                 (A) (A) (A) (A) (A) (A) (A) (A) (A) (A) (A) (A)
                 (A) (A) (A) (A) (A) (A) (A) (A) (A) (A) (A) (A)
                 (A) (A) (A) (A) (A) (A) (A) (A) (A) (A) (A) (A)
                 (A) (A) (A) (A) (A) (A) (A) (A) (A) (A) (A) (A)
                 (A) (A) (A) (A) (A) (A) (A) (A) (A) (A) (A) (A)
                 (A) (A) (A) (A) (A) (A) (A) (A) (A) (A) (A) (A)
                 (A) (A) (A) (A) (A) (A) (A) (A) (A) (A) (A) (A)
                 (A) (A) (A) (A) (A) (A) (A) (A) (A) (A) (A) (A)
                 (A) (A) (A) (A) (A) (A) (A) (A) (A) (A) (A) (A)
                 (A) (A) (A) (A) (A) (A) (A) (A) (A) (A) (A) (A)
                 (A) (A) (A) (A) (A) (A) (A) (A) (A) (A) (A) (A)
                 (A) (A) (A) (A) (A) (A) (A) (A) (A) (A) (A) (A)
                 (A) (A) (A) (A) (A) (A) (A) (A) (A) (A) (A) (A)
                 (A) (A) (A) (A) (A) (A) (A) (A) (A) (A) (A) (A)
                 (A) (A) (A) (A) (A) (A) (A) (A) (A) (A) (A) (A)
                 (A) (A) (A) (A) (A) (A) (A) (A) (A) (A) (A) (A)
                 (A) (A) (A) (A) (A) (A) (A) (A) (A) (A) (A) (A)
                 (A) (A) (A) (A) (A) (A) (A) (A) (A) (A) (A) (A)
                 (A) (A) (A) (A) (A) (A) (A) (A) (A) (A) (A) (A)
                 (A) (A) (A) (A) (A) (A) (A) (A) (A) (A) (A) (A)
                 (A) (A) (A) (A) (A) (A) (A) (A) (A) (A) (A) (A)
                 (A) (A) (A) (A) (A) (A) (A) (A) (A) (A) (A) (A)
                 (A) (A) (A) (A) (A) (A) (A) (A) (A) (A) (A) (A)
                 (A) (A) (A) (A) (A) (A) (A) (A) (A) (A) (A) (A)
                 (A) (A) (A) (A) (A) (A) (A) (A) (A) (A) (A) (A)
                 (A) (A) (A) (A) (A) (A) (A) (A) (A) (A) (A) (A)
                 (A) (A) (A) (A) (A) (A) (A) (A) (A) (A) (A) (A)
                 (A) (A) (A) (A) (A) (A) (A) (A) (A) (A) (A) (A)
                 (A) (A) (A) (A) (A) (A) (A) (A) (A) (A) (A) (A)
                 (A) (A) (A) (A) (A) (A) (A) (A) (A) (A) (A) (A)
                 (A) (A) (A) (A) (A) (A) (A) (A) (A) (A) (A) (A)
                 (A) (A) (A) (A) (A) (A) (A) (A) (A) (A) (A) (A)
                 (A) (A) (A) (A) (A) (A) (A) (A) (A) (A) (A) (A)
                 (A) (A) (A) (A) (A) (A) (A) (A) (A) (A) (A) (A)
                 (A) (A) (A) (A) (A) (A) (A) (A) (A) (A) (A) (A)
                 (A) (A) (A) (A) (A) (A) (A) (A) (A) (A) (A) (A)
                 (A) (A) (A) (A) (A) (A) (A) (A) (A) (A) (A) (A)
                 (A) (A) (A) (A) (A) (A) (A) (A) (A) (A) (A) (A)
                 (A) (A) (A) (A) (A) (A) (A) (A) (A) (A) (A) (A)
                 (A) (A) (A) (A) (A) (A) (A) (A) (A) (A) (A) (A)
                 (A) (A) (A) (A) (A) (A) (A) (A) (A) (A) (A) (A)
                 (A) (A) (A) (A) (A) (A) (A) (A) (A) (A) (A) (A)
                 (A) (A) (A) (A) (A) (A) (A) (A) (A) (A) (A) (A)
                 (A) (A) (A) (A) (A) (A) (A) (A) (A) (A) (A) (A)
                 (A) (A) (A) (A) (A) (A) (A) (A) (A) (A) (A) (A)
                 (A) (A) (A) (A) (A) (A) (A) (A) (A) (A) (A) (A)
                 (A) (A) (A) (A) (A) (A) (A) (A) (A) (A) (A) (A)
                 (A) (A) (A) (A) (A) (A) (A) (A) (A) (A) (A) (A)
                 (A) (A) (A) (A) (A) (A) (A) (A) (A) (A) (A) (A)
                 (A) (A) (A) (A) (A) (A) (A) (A) (A) (A) (A) (A)
                 (A) (A) (A) (A) (A) (A) (A) (A) (A) (A) (A) (A)
                 (A) (A) (A) (A) (A) (A) (A) (A) (A) (A) (A) (A)
                 (A) (A) (A) (A) (A) (A) (A) (A) (A) (A) (A) (A)
                 (A) (A) (A) (A) (A) (A) (A) (A) (A) (A) (A) (A)
                 (A) (A) (A) (A) (A) (A) (A) (A) (A) (A) (A) (A)
                 (A) (A) (A) (A) (A) (A) (A) (A) (A) (A) (A) (A)
                 (A) (A) (A) (A) (A) (A) (A) (A) (A) (A) (A) (A)
                 (A) (A) (A) (A) (A) (A) (A) (A) (A) (A) (A) (A)
                 (A) (A) (A) (A) (A) (A) (A) (A) (A) (A) (A) (A)
                 (A) (A) (A) (A) (A) (A) (A) (A) (A) (A) (A) (A)
                 (A) (A) (A) (A) (A) (A) (A) (A) (A) (A) (A) (A)
                 (A) (A) (A) (A) (A) (A) (A) (A) (A) (A) (A) (A)
                 (A) (A) (A) (A) (A) (A) (A) (A) (A) (A) (A) (A)
                 (A) (A) (A) (A) (A) (A) (A) (A) (A) (A) (A) (A)
                 (A) (A) (A) (A) (A) (A) (A) (A) (A) (A) (A) (A)
                 (A) (A) (A) (A) (A) (A) (A) (A) (A) (A) (A) (A)
                 (A) (A) (A) (A) (A) (A) (A) (A) (A) (A) (A) (A)
                 (A) (A) (A) (A) (A) (A) (A) (A) (A) (A) (A) (A)
                 (A) (A) (A) (A) (A) (A) (A) (A) (A) (A) (A) (A)
                 (A) (A) (A) (A) (A) (A) (A) (A) (A) (A) (A) (A)
                 (A) (A) (A) (A) (A) (A) (A) (A) (A) (A) (A) (A)
                 (A) (A) (A) (A) (A) (A) (A) (A) (A) (A) (A) (A)
                 (A) (A) (A) (A) (A) (A) (A) (A) (A) (A) (A) (A)
                 (A) (A) (A) (A) (A) (A) (A) (A) (A) (A) (A) (A)
                 (A) (A) (A) (A) (A) (A) (A) (A) (A) (A) (A) (A)
                 (A) (A) (A) (A) (A) (A) (A) (A) (A) (A) (A) (A)
                 (A) (A) (A) (A) (A) (A) (A) (A) (A) (A) (A) (A)
                 (A) (A) (A) (A) (A) (A) (A) (A) (A) (A) (A) (A)
                 (A) (A) (A) (A) (A) (A) (A) (A) (A) (A) (A) (A)
                 (A) (A) (A) (A) (A) (A) (A) (A) (A) (A) (A) (A)
                 (A) (A) (A) (A) (A) (A) (A) (A) (A) (A) (A) (A)
                 (A) (A) (A) (A) (A) (A) (A) (A) (A) (A) (A) (A)
                 (A) (A) (A) (A) (A) (A) (A) (A) (A) (A) (A) (A)
                 (A) (A) (A) (A) (A) (A) (A) (A) (A) (A) (A) (A)
                 (A) (A) (A) (A) (A) (A) (A) (A) (A) (A) (A) (A)
                 (A) (A) (A) (A) (A) (A) (A) (A) (A) (A) (A) (A)
                 (A) (A) (A) (A) (A) (A) (A) (A) (A) (A) (A) (A)
                 (A) (A) (A) (A) (A) (A) (A) (A) (A) (A) (A) (A)
                 (A) (A) (A) (A) (A) (A) (A) (A) (A) (A) (A) (A)
                 (A) (A) (A) (A) (A) (A) (A) (A) (A) (A) (A) (A)
                 (A) (A) (A) (A) (A) (A) (A) (A) (A) (A) (A) (A)
                 (A) (A) (A) (A) (A) (A) (A) (A) (A) (A) (A) (A)
                 (A) (A) (A) (A) (A) (A) (A) (A) (A) (A) (A) (A)
                 (A) (A) (A) (A) (A) (A) (A) (A) (A) (A) (A) (A)
                 (A) (A) (A) (A) (A) (A) (A) (A) (A) (A) (A) (A)
                 (A) (A) (A) (A) (A) (A) (A) (A) (A) (A) (A) (A)
                 (A) (A) (A) (A) (A) (A) (A) (A) (A) (A) (A) (A)
                 (A) (A) (A) (A) (A) (A) (A) (A) (A) (A) (A) (A)
                 (A) (A) (A) (A) (A) (A) (A) (A) (A) (A) (A) (A)
                 (A) (A) (A) (A) (A) (A) (A) (A) (A) (A) (A) (A)
                 (A) (A) (A) (A) (A) (A) (A) (A) (A) (A) (A) (A)
                 (A) (A) (A) (A) (A) (A) (A) (A) (A) (A) (A) (A)
                 (A) (A) (A) (A) (A) (A) (A) (A) (A) (A) (A) (A)
                 (A) (A) (A) (A) (A) (A) (A) (A) (A) (A) (A) (A)
                 (A) (A) (A) (A) (A) (A) (A) (A) (A) (A) (A) (A)
                 (A) (A) (A) (A) (A) (A) (A) (A) (A) (A) (A) (A)
                 (A) (A) (A) (A) (A) (A) (A) (A) (A) (A) (A) (A)
                 (A) (A) (A) (A) (A) (A) (A) (A) (A) (A) (A) (A)
                 (A) (A) (A) (A) (A) (A) (A) (A) (A) (A) (A) (A)
                 (A) (A) (A) (A) (A) (A) (A) (A) (A) (A) (A) (A)
                 (A) (A) (A) (A) (A) (A) (A) (A) (A) (A) (A) (A)
                 (A) (A) (A) (A) (A) (A) (A) (A) (A) (A) (A) (A)
                 (A) (A) (A) (A) (A) (A) (A) (A) (A) (A) (A) (A)
                 (A) (A) (A) (A) (A) (A) (A) (A) (A) (A) (A) (A)
                 (A) (A) (A) (A) (A) (A) (A) (A) (A) (A) (A) (A)
                 (A) (A) (A) (A) (A) (A) (A) (A) (A) (A) (A) (A)
                 (A) (A) (A) (A) (A) (A) (A) (A) (A) (A) (A) (A)
                 (A) (A) (A) (A) (A) (A) (A) (A) (A) (A) (A) (A)
                 (A) (A) (A) (A) (A) (A) (A) (A) (A) (A) (A) (A)
                 (A) (A) (A) (A) (A) (A) (A) (A) (A) (A) (A) (A)
                 (A) (A) (A) (A) (A) (A) (A) (A) (A) (A) (A) (A)
                 (A) (A) (A) (A) (A) (A) (A) (A) (A) (A) (A) (A)
                 (A) (A) (A) (A) (A) (A) (A) (A) (A) (A) (A) (A)
                 (A) (A) (A) (A) (A) (A) (A) (A) (A) (A) (A) (A)
                 (A) (A) (A) (A) (A) (A) (A) (A) (A) (A) (A) (A)
                 (A) (A) (A) (A) (A) (A) (A) (A) (A) (A) (A) (A)
                 (A) (A) (A) (A) (A) (A) (A) (A) (A) (A) (A) (A)
                 (A) (A) (A) (A) (A) (A) (A) (A) (A) (A) (A) (A)
                 (A) (A) (A) (A) (A) (A) (A) (A) (A) (A) (A) (A)
                 (A) (A) (A) (A) (A) (A) (A) (A) (A) (A) (A) (A)
                 (A) (A) (A) (A) (A) (A) (A) (A) (A) (A) (A) (A)
                 (A) (A) (A) (A) (A) (A) (A) (A) (A) (A) (A) (A)
                 (A) (A) (A) (A) (A) (A) (A) (A) (A) (A) (A) (A)
                 (A) (A) (A) (A) (A) (A) (A) (A) (A) (A) (A) (A)
                 (A) (A) (A) (A) (A) (A) (A) (A) (A) (A) (A) (A)
                 (A) (A) (A) (A) (A) (A) (A) (A) (A) (A) (A) (A)
                 (A) (A) (A) (A) (A) (A) (A) (A) (A) (A) (A) (A)
                 (A) (A) (A) (A) (A) (A) (A) (A) (A) (A) (A) (A)
                 (A) (A) (A) (A) (A) (A) (A) (A) (A) (A) (A) (A)
                 (A) (A) (A) (A) (A) (A) (A) (A) (A) (A) (A) (A)
                 (A) (A) (A) (A) (A) (A) (A) (A) (A) (A) (A) (A)
                 (A) (A) (A) (A) (A) (A) (A) (A) (A) (A) (A) (A)
                 (A) (A) (A) (A) (A) (A) (A) (A) (A) (A) (A) (A)
                 (A) (A) (A) (A) (A) (A) (A) (A) (A) (A) (A) (A)
                 (A) (A) (A) (A) (A) (A) (A) (A) (A) (A) (A) (A)
                 (A) (A) (A) (A) (A) (A) (A) (A) (A) (A) (A) (A)
                 (A) (A) (A) (A) (A) (A) (A) (A) (A) (A) (A) (A)
                 (A) (A) (A) (A) (A) (A) (A) (A) (A) (A) (A) (A)
                 (A) (A) (A) (A) (A) (A) (A) (A) (A) (A) (A) (A)
                 (A) (A) (A) (A) (A) (A) (A) (A) (A) (A) (A) (A)
                 (A) (A) (A) (A) (A) (A) (A) (A) (A) (A) (A) (A)
                 (A) (A) (A) (A) (A) (A) (A) (A) (A) (A) (A) (A)
                 (A) (A) (A) (A)
 The electronic state is 1-A.
 Alpha  occ. eigenvalues --  -77.22165 -77.19671 -24.81619 -24.81549 -24.81498
 Alpha  occ. eigenvalues --  -24.81438 -24.81374 -24.80940 -24.80896 -24.80759
 Alpha  occ. eigenvalues --  -24.80395 -24.80284 -24.80229 -24.79893 -19.22575
 Alpha  occ. eigenvalues --  -19.22332 -10.49270 -10.48977 -10.48376 -10.47857
 Alpha  occ. eigenvalues --  -10.28737 -10.28585 -10.28218 -10.28043 -10.27772
 Alpha  occ. eigenvalues --  -10.27760 -10.27566 -10.27425 -10.27319 -10.27263
 Alpha  occ. eigenvalues --  -10.27255 -10.27094 -10.26917 -10.26701 -10.26335
 Alpha  occ. eigenvalues --  -10.26083 -10.26045 -10.25899 -10.25772 -10.25584
 Alpha  occ. eigenvalues --  -10.24855 -10.24679 -10.24635 -10.24622 -10.24584
 Alpha  occ. eigenvalues --  -10.24540 -10.24487 -10.24382 -10.24335 -10.24225
 Alpha  occ. eigenvalues --  -10.24040 -10.24029 -10.23923 -10.23885 -10.23747
[...]
  2244. RY*(  20) O 109                  0.00000     5.32468   
  2245. RY*(  21) O 109                  0.00000     5.33904   
  2246. RY*(  22) O 109                  0.00000     5.37400   
  2247. RY*(  23) O 109                  0.00000     5.49815   
  2248. RY*(  24) O 109                  0.00000     5.49833   
  2249. RY*(  25) O 109                  0.00000     5.49649   
  2250. RY*(  26) O 109                  0.00000     5.82330   
  2251. RY*(   1) C 110                  0.00206     1.45775   
  2252. RY*(   2) C 110                  0.00207     1.62503   
  2253. RY*(   3) C 110                  0.00150     1.12174   
  2254. RY*(   4) C 110                  0.00019     1.05713   
  2255. RY*(   5) C 110                  0.00012     1.66036   
  2256. RY*(   6) C 110                  0.00007     1.28495   
  2257. RY*(   7) C 110                  0.00005     1.51173   
  2258. RY*(   8) C 110                  0.00004     1.64326   
  2259. RY*(   9) C 110                  0.00000    21.27212   
  2260. RY*(  10) C 110                  0.00001     1.59644   
  2261. RY*(  11) C 110                  0.00000     2.90304   
  2262. RY*(  12) C 110                  0.00000     2.40804   
  2263. RY*(  13) C 110                  0.00000     2.60753   
  2264. RY*(  14) C 110                  0.00001     2.16508   
  2265. RY*(  15) C 110                  0.00000     2.87074   
  2266. RY*(  16) C 110                  0.00000     3.31519   
  2267. RY*(  17) C 110                  0.00000     2.53886   
  2268. RY*(  18) C 110                  0.00000     2.73668   
  2269. RY*(  19) C 110                  0.00000     2.58043   
  2270. RY*(  20) C 110                  0.00000     3.74170   
  2271. RY*(  21) C 110                  0.00000     3.17624   
  2272. RY*(  22) C 110                  0.00000     3.36964   
  2273. RY*(  23) C 110                  0.00000     3.51042   
  2274. RY*(  24) C 110                  0.00000     3.44749   
  2275. RY*(  25) C 110                  0.00000     3.49565   
  2276. RY*(  26) C 110                  0.00000     3.66401   
  2277. RY*(   1) H 111                  0.00050     1.02128   
  2278. RY*(   2) H 111                  0.00013     2.04526   
  2279. RY*(   3) H 111                  0.00011     1.63312   
  2280. RY*(   4) H 111                  0.00007     2.01635   
  2281. RY*(   5) H 111                  0.00001     2.78014   
  2282. RY*(   1) H 112                  0.00116     0.78012   
  2283. RY*(   2) H 112                  0.00015     1.98330   
  2284. RY*(   3) H 112                  0.00011     2.18037   
  2285. RY*(   4) H 112                  0.00008     1.91437   
  2286. RY*(   5) H 112                  0.00002     2.86642   
  2287. RY*(   1) H 113                  0.00114     0.77925   
  2288. RY*(   2) H 113                  0.00014     2.01224   
  2289. RY*(   3) H 113                  0.00009     2.07480   
  2290. RY*(   4) H 113                  0.00009     1.98915   
  2291. RY*(   5) H 113                  0.00001     2.82514   
  2304. BD*(   1) C  12 - C  13          0.03176     0.43524   
  2305. BD*(   2) C  12 - C  13          0.43686     0.03708  2311(v),227(v),2304(g)
                                                    222(r),2294(r),225(r),458(g)
                                                    224(r),2307(g),2309(g)
                                                    483(g),2297(r),485(g),456(g)
                                                    223(r),427(r),426(r),217(r)
                                                    440(r)
  2306. BD*(   1) C  12 - C  16          0.02863     0.44857   
  2307. BD*(   1) C  12 - H  17          0.01457     0.39788   
  2308. BD*(   1) C  13 - C  14          0.02355     0.44336   
  2309. BD*(   1) C  13 - H  69          0.01447     0.39941   
  2310. BD*(   1) C  14 - C  15          0.05598     0.42072   
  2311. BD*(   2) C  14 - C  15          0.48458     0.03536  2305(v),2297(r),227(v)
                                                    2310(g),222(r),2294(r)
                                                    2316(v),2391(v),221(r)
                                                    2390(v),2317(v),2388(v)
                                                    224(r),512(g),2312(g),539(g)
                                                    223(r),2314(g),562(v),217(r)
                                                    429(r),447(r),226(r),446(r)
                                                    427(r)
  2312. BD*(   1) C  14 - C  73          0.03234     0.42570   
  2313. BD*(   1) C  15 - C  16          0.04330     0.43059   
  2314. BD*(   1) C  15 - C  19          0.03072     0.37365   
  2315. BD*(   1) C  16 - H  18          0.01678     0.40420   
  2316. BD*(   1) C  19 - P  20          0.04918     0.16020   
  2317. BD*(   1) C  19 - H  21          0.02588     0.35454   
  2318. BD*(   1) C  19 - C  22          0.01132     0.32841   
  2319. BD*(   1) P  20 - C  29          0.04025     0.20403   
  2320. BD*(   1) P  20 - C  40          0.03869     0.19558   
  2321. BD*(   1) C  22 - H  23          0.00629     0.36597   
  2322. BD*(   1) C  22 - H  24          0.01106     0.36608   
  2323. BD*(   1) C  22 - H  25          0.01006     0.35498   
  2324. BD*(   1) C  26 - C  27          0.01963     0.49220   
  2325. BD*(   1) C  26 - C  31          0.01977     0.49287   
  2326. BD*(   2) C  26 - C  31          0.34581    -0.01225  2334(v),2329(v),2341(v)
                                                    697(g),2342(v),2343(v)
  2327. BD*(   1) C  26 - H  32          0.01215     0.37664   
  2328. BD*(   1) C  27 - C  28          0.02303     0.49068   
  2329. BD*(   2) C  27 - C  28          0.34578    -0.00997  2334(v),2326(v),2339(v)
                                                    749(g),2340(v),2338(v)
  2330. BD*(   1) C  27 - C  33          0.06666     0.29590   
  2331. BD*(   1) C  28 - C  29          0.02343     0.49474   
  2332. BD*(   1) C  28 - H  34          0.01526     0.38142   
  2333. BD*(   1) C  29 - C  30          0.03357     0.49566   
  2334. BD*(   2) C  29 - C  30          0.33837    -0.01017  2329(v),2326(v),2320(v)
                                                    2316(v),802(g),2354(r)
  2335. BD*(   1) C  30 - C  31          0.02498     0.49203   
  2336. BD*(   1) C  30 - H  35          0.01528     0.38328   
  2337. BD*(   1) C  31 - C  36          0.06689     0.29815   
  2338. BD*(   1) C  33 - F  54          0.09062     0.19662   
  2339. BD*(   1) C  33 - F  55          0.09694     0.20249   
  2340. BD*(   1) C  33 - F  56          0.09324     0.19153   
  2341. BD*(   1) C  36 - F  57          0.09858     0.19893   
  2342. BD*(   1) C  36 - F  58          0.09255     0.19789   
  2343. BD*(   1) C  36 - F  59          0.08959     0.20162   
  2344. BD*(   1) C  37 - C  38          0.01998     0.51219   
  2345. BD*(   1) C  37 - C  42          0.02078     0.51369   
  2346. BD*(   2) C  37 - C  42          0.36397     0.00540  2349(v),2354(v),2361(v)
                                                    919(g),2363(v),2362(v)
  2347. BD*(   1) C  37 - H  43          0.01261     0.39221   
  2348. BD*(   1) C  38 - C  39          0.02368     0.50799   
  2349. BD*(   2) C  38 - C  39          0.36313     0.00566  2346(v),2354(v),2360(v)
                                                    2358(v),2359(v),971(g)
                                                    946(g)
  2350. BD*(   1) C  38 - C  44          0.06502     0.31287   
  2351. BD*(   1) C  39 - C  40          0.02427     0.51180   
  2352. BD*(   1) C  39 - H  45          0.01873     0.40915   
  2353. BD*(   1) C  40 - C  41          0.02361     0.50485   
  2354. BD*(   2) C  40 - C  41          0.35565     0.00678  2349(v),2346(v),1023(g)
                                                    2334(r),2316(v),2319(v)
                                                    998(g),2404(r)
  2355. BD*(   1) C  41 - C  42          0.02406     0.51610   
  2356. BD*(   1) C  41 - H  46          0.01629     0.40729   
  2357. BD*(   1) C  42 - C  47          0.06686     0.31355   
  2358. BD*(   1) C  44 - F  51          0.08899     0.20608   
  2359. BD*(   1) C  44 - F  52          0.08986     0.20727   
  2360. BD*(   1) C  44 - F  53          0.10369     0.19310  2349(v),1085(g)
  2361. BD*(   1) C  47 - F  48          0.09854     0.21144   
  2362. BD*(   1) C  47 - F  49          0.08964     0.21216   
  2363. BD*(   1) C  47 - F  50          0.09186     0.20808   
  2364. BD*(   1) P  60 - C  64          0.05414     0.24452   
  2365. BD*(   1) P  60 - C  74          0.04009     0.22705   
  2366. BD*(   1) P  60 - C  83          0.03668     0.23474   
  2367. BD*(   1) C  61 - C  62          0.03815     0.52306   
  2368. BD*(   1) C  61 - C  66          0.04017     0.51858   
  2369. BD*(   2) C  61 - C  66          0.38265     0.03733  2377(v),2372(v),2412(v)
                                                    2414(v),2413(v)
  2370. BD*(   1) C  61 - O  96          0.02759     0.34309   
  2371. BD*(   1) C  62 - C  63          0.02102     0.55391   
  2372. BD*(   2) C  62 - C  63          0.35379     0.04286  2369(v),2377(v),1535(g)
                                                    2410(v),2409(v),2399(r)
  2373. BD*(   1) C  62 - C  88          0.01400     0.39434   
  2374. BD*(   1) C  63 - C  64          0.02494     0.54761   
  2375. BD*(   1) C  63 - H  67          0.01716     0.42190   
  2376. BD*(   1) C  64 - C  65          0.02068     0.54138   
  2377. BD*(   2) C  64 - C  65          0.39572     0.03335  2369(v),2372(v),1587(g)
                                                    2365(v),1562(g),2399(r)
                                                    2391(r),1535(v)
  2378. BD*(   1) C  65 - C  66          0.02027     0.55299   
  2379. BD*(   1) C  65 - H  68          0.01749     0.41031   
  2380. BD*(   1) C  66 - C  92          0.01384     0.39185   
  2381. BD*(   1) C  70 - C  71          0.01484     0.53683   
  2382. BD*(   1) C  70 - C  75          0.01915     0.54246   
  2383. BD*(   2) C  70 - C  75          0.31180     0.02775  2386(v),2391(v),1654(g)
  2384. BD*(   1) C  70 - H  76          0.01455     0.40162   
  2385. BD*(   1) C  71 - C  72          0.01517     0.54451   
  2386. BD*(   2) C  71 - C  72          0.32215     0.02492  2391(v),2383(v),1680(g)
                                                    1706(g),2294(r)
  2387. BD*(   1) C  71 - H  77          0.01361     0.40254   
  2388. BD*(   1) C  72 - C  73          0.02736     0.51871   
  2389. BD*(   1) C  72 - H  78          0.01541     0.42990   
  2390. BD*(   1) C  73 - C  74          0.03719     0.50655   
  2391. BD*(   2) C  73 - C  74          0.38894     0.02291  2386(v),2383(v),2311(v)
                                                    2308(v),2310(v),2366(v)
                                                    1759(g),1731(g),2364(v)
                                                    2377(r),1706(v)
  2392. BD*(   1) C  74 - C  75          0.02847     0.51647   
  2393. BD*(   1) C  75 - H  79          0.01675     0.41099   
  2394. BD*(   1) C  80 - C  81          0.04151     0.51694   
  2395. BD*(   1) C  80 - C  85          0.04050     0.51945   
  2396. BD*(   2) C  80 - C  85          0.37039     0.03441  2399(v),2404(v),2422(v)
                                                    2424(v),2421(v)
  2397. BD*(   1) C  80 - O 109          0.02850     0.34039   
  2398. BD*(   1) C  81 - C  82          0.02283     0.54300   
  2399. BD*(   2) C  81 - C  82          0.34855     0.03580  2396(v),2404(v),2419(v)
                                                    1882(g),2377(r),2372(r)
  2400. BD*(   1) C  81 - C 101          0.01419     0.39101   
  2401. BD*(   1) C  82 - C  83          0.02125     0.52554   
  2402. BD*(   1) C  82 - H  86          0.01765     0.40885   
  2403. BD*(   1) C  83 - C  84          0.03145     0.53974   
  2404. BD*(   2) C  83 - C  84          0.38596     0.03033  2396(v),2399(v),1933(g)
                                                    2364(v),2354(r),1882(v)
                                                    1908(g)
  2405. BD*(   1) C  84 - C  85          0.02334     0.54596   
  2406. BD*(   1) C  84 - H  87          0.02009     0.42820   
  2407. BD*(   1) C  85 - C 105          0.01467     0.39212   
  2408. BD*(   1) C  88 - H  89          0.00522     0.37783   
  2409. BD*(   1) C  88 - H  90          0.00901     0.37543   
  2410. BD*(   1) C  88 - H  91          0.01027     0.36604   
  2411. BD*(   1) C  92 - H  93          0.00684     0.37309   
  2412. BD*(   1) C  92 - H  94          0.01140     0.35974   
  2413. BD*(   1) C  92 - H  95          0.00720     0.37696   
  2414. BD*(   1) O  96 - C  97          0.01051     0.27851   
  2415. BD*(   1) C  97 - H  98          0.02280     0.34442   
  2416. BD*(   1) C  97 - H  99          0.02197     0.34207   
  2417. BD*(   1) C  97 - H 100          0.01115     0.35444   
  2418. BD*(   1) C 101 - H 102          0.00724     0.37798   
  2419. BD*(   1) C 101 - H 103          0.01138     0.36112   
  2420. BD*(   1) C 101 - H 104          0.00717     0.38040   
  2421. BD*(   1) C 105 - H 106          0.00844     0.38165   
  2422. BD*(   1) C 105 - H 107          0.01145     0.36497   
  2423. BD*(   1) C 105 - H 108          0.00603     0.37974   
  2424. BD*(   1) O 109 - C 110          0.01074     0.27585   
  2425. BD*(   1) C 110 - H 111          0.01077     0.35448   
  2426. BD*(   1) C 110 - H 112          0.02207     0.34300   
  2427. BD*(   1) C 110 - H 113          0.02156     0.34111   
       -------------------------------
              Total Lewis  464.32603  ( 97.7811%)
        Valence non-Lewis    9.63744  (  2.0295%)
        Rydberg non-Lewis    0.89951  (  0.1894%)
       -------------------------------
            Total unit  3  474.86299  (100.0000%)
           Charge unit  3    0.13701
 1\1\GINC-NOTCH207\SP\RPBE1PBE\Gen\C52H44F12Fe1O2P2\U6034117\04-Mar-202
 2\0\\# PBE1PBE gen pseudo=read int=(grid=ultrafine) empiricaldispersio
 n=GD3BJ pop=nbo guess=read geom=check\\W005_1_2 title\\0,1\C,0,2.32062
 04861,-2.2471112849,5.801183945\C,0,3.4245318985,-1.5762482694,6.42802
 72114\C,0,4.5946169397,-2.3932475096,6.2587037698\C,0,4.2144393804,-3.
 5699841899,5.5275323961\C,0,2.8064020378,-3.479101266,5.2452949532\H,0
 ,3.3930792409,-0.5925013646,6.8976458479\H,0,5.6050394993,-2.137707317
 7,6.5797563677\H,0,4.8864519564,-4.370065754,5.214532492\H,0,2.2026141
 641,-4.2086789251,4.7038098078\H,0,1.2965700614,-1.8780567584,5.739329
 6644\Fe,0,3.8146290238,-1.8738351093,4.4397439827\C,0,5.0302519747,-0.
 361845622,3.7734929187\C,0,5.2899541077,-1.5668191337,3.0503665454\C,0
 ,4.0739810446,-1.9870029274,2.3946590555\C,0,3.0371269437,-1.029688030
 7,2.7577428549\C,0,3.6542349281,-0.0282936494,3.5924494492\H,0,5.74334
 12346,0.1839152616,4.3908630994\H,0,3.1477448726,0.8299878808,4.027413
 5505\C,0,1.6155171268,-0.9761345776,2.2547998752\P,0,1.7275781441,-0.4
 066006675,0.4372748321\H,0,1.1888819207,-1.9942972175,2.2301775891\C,0
 ,0.7170289314,-0.0531016035,3.090574039\H,0,-0.3427038709,-0.154134945
 9,2.8120876348\H,0,0.8195893166,-0.3220242223,4.1547317892\H,0,1.01327
 58583,1.0008109858,2.9645696717\C,0,-1.4794171751,2.5372287439,-1.1721
 071614\C,0,-0.1147457377,2.7688173989,-1.3897225483\C,0,0.8527920171,1
 .9360705784,-0.8107903935\C,0,0.4579928284,0.8566638182,-0.0021986285\
 C,0,-0.9099676887,0.6235951393,0.218254545\C,0,-1.8708497852,1.4618918
 57,-0.3643944496\H,0,-2.2314211476,3.1748562318,-1.6429162147\C,0,0.32
 88752861,3.9405844606,-2.2327389371\H,0,1.9153160336,2.112016032,-0.99
 38971419\H,0,-1.2448971002,-0.2413270131,0.7971301312\C,0,-3.329342928
 4,1.0986853386,-0.2337581272\C,0,-0.3373684819,-3.8605720835,-1.980824
 0055\C,0,0.4745394013,-4.1708168566,-0.8838278778\C,0,1.1083490961,-3.
 1592316474,-0.1451522732\C,0,0.9680781841,-1.8116529814,-0.5230241256\
 C,0,0.2049932833,-1.5134565581,-1.66976147\C,0,-0.4607754962,-2.522569
 2083,-2.3716138125\H,0,-0.8493416138,-4.6510268477,-2.5344690192\C,0,0
 .7443259717,-5.6181722312,-0.5631038419\H,0,1.7231832881,-3.4440709376
 ,0.7111660045\H,0,0.1116752028,-0.4866582144,-2.0251953376\C,0,-1.3871
 573762,-2.1401221285,-3.5012633745\F,0,-2.644850808,-1.9026116004,-3.0
 358918503\F,0,-0.9745485577,-1.0105437797,-4.1331088352\F,0,-1.4836483
 5,-3.1314461848,-4.4311748952\F,0,1.0656064331,-5.8088639067,0.7428706
 202\F,0,-0.3214599321,-6.4107734851,-0.8493404311\F,0,1.7964859841,-6.
 0892924188,-1.3084920501\F,0,-0.607297868,4.2680102846,-3.1650353016\F
 ,0,0.5517901441,5.04368005,-1.4759154338\F,0,1.4907526886,3.6653077975
 ,-2.8947519563\F,0,-3.6709104941,0.1469250205,-1.1487935704\F,0,-3.608
 5753382,0.5861094645,0.9964750789\F,0,-4.1423628595,2.1674510962,-0.43
 54656004\P,0,4.6116564455,-1.5440281046,-0.8648272582\C,0,8.9659598252
 ,-1.9055506148,-2.3573596542\C,0,7.931626226,-1.8804731571,-3.31595857
 52\C,0,6.6084196042,-1.7517050903,-2.864257934\C,0,6.3265032865,-1.655
 7933908,-1.4913530085\C,0,7.3779366429,-1.6613764884,-0.5574402615\C,0
 ,8.7106509881,-1.7845772976,-0.9725334122\H,0,5.7949687188,-1.72797959
 39,-3.5962906841\H,0,7.160226573,-1.5313484225,0.5074696017\H,0,6.2353
 614741,-2.1087163814,3.0035063212\C,0,4.6489068844,-5.5492965752,0.024
 4583652\C,0,4.1676126645,-5.6294235405,1.3354457217\C,0,3.9268754326,-
 4.4554452381,2.0573725217\C,0,4.0906383999,-3.1739353721,1.4896183989\
 C,0,4.483210331,-3.1034776025,0.1209262571\C,0,4.8179409039,-4.2921865
 604,-0.563985494\H,0,4.8944313706,-6.4547107547,-0.5388457007\H,0,4.01
 31522305,-6.6028134171,1.8115965207\H,0,3.6343397726,-4.5029668704,3.1
 064561982\H,0,5.2361321628,-4.223723058,-1.5731102212\C,0,2.0603096145
 ,-1.8107345981,-4.7323626587\C,0,2.469495743,-0.5597221845,-4.21773878
 14\C,0,3.2340625931,-0.5520211773,-3.0398425707\C,0,3.5704967416,-1.74
 79181434,-2.3727143961\C,0,3.1063702375,-2.9706505733,-2.8852825399\C,
 0,2.3531497124,-3.0215129911,-4.0689859685\H,0,3.5529010113,0.40711285
 67,-2.6115762197\H,0,3.2775100196,-3.904754657,-2.3454918142\C,0,8.258
 1716914,-1.9705028079,-4.7866048434\H,0,7.3505260298,-1.8395531614,-5.
 3977597301\H,0,8.991208018,-1.1990798108,-5.076511705\H,0,8.7064943885
 ,-2.9458397525,-5.0496386309\C,0,9.8405808151,-1.7374529781,0.02654269
 18\H,0,9.5644897912,-1.1131102645,0.8919493369\H,0,10.0945664851,-2.74
 32001463,0.4116277249\H,0,10.749749664,-1.3194188025,-0.4343908095\O,0
 ,10.2738926302,-1.9783368232,-2.8181110337\C,0,10.83255485,-3.29442239
 02,-2.7387226921\H,0,10.8920603401,-3.6538990397,-1.693757109\H,0,10.2
 403440451,-4.0191352555,-3.3306948712\H,0,11.8485565017,-3.2250650764,
 -3.156762929\C,0,2.0400607258,0.7236490969,-4.8849500504\H,0,1.0515491
 586,0.5964880935,-5.3548701514\H,0,2.7463647354,1.0319175331,-5.678172
 4546\H,0,1.9851388546,1.5516256626,-4.1602735528\C,0,1.8255553481,-4.3
 317857244,-4.6007075919\H,0,0.7814130823,-4.2241808202,-4.9341057853\H
 ,0,2.4080417308,-4.6817480929,-5.4729942884\H,0,1.8763098729,-5.113742
 0801,-3.8257758761\O,0,1.2621674308,-1.8613381008,-5.8639075756\C,0,2.
 0069207221,-1.8220776509,-7.0877773927\H,0,1.2672563419,-1.8822547439,
 -7.9003696869\H,0,2.5824769221,-0.8821742722,-7.1851858547\H,0,2.70484
 74206,-2.6783244232,-7.1607057153\\Version=ES64L-G16RevB.01\State=1-A\
 HF=-4160.7670239\RMSD=1.163e-09\Dipole=1.4894484,-0.5454214,0.8267424\
 Quadrupole=-9.4867135,-5.301239,14.7879525,-10.4530063,-2.1713804,9.00
 65753\PG=C01 [X(C52H44F12Fe1O2P2)]\\@


 Everything starts as somebody's daydream.
                           -- Larry Niven
 Job cpu time:       0 days  4 hours 36 minutes 14.5 seconds.
 Elapsed time:       0 days  0 hours  5 minutes 21.3 seconds.
 File lengths (MBytes):  RWF=   2999 Int=      0 D2E=      0 Chk=    451 Scr=      1
 Normal termination of Gaussian 16 at Fri Mar  4 03:31:26 2022.
