 Entering Gaussian System, Link 0=/uufs/chpc.utah.edu/sys/installdir/gaussian16/B01/E6B/g16/g16
 Input=W005_1_4_SPE_NoPd.com
 Output=W005_1_4_SPE_NoPd.log
 Initial command:
 /uufs/chpc.utah.edu/sys/installdir/gaussian16/B01/E6B/g16/l1.exe "/scratch/general/lustre/u6034117/4108807/notchpeak.peaks/Gau-244033.inp" -scrdir="/scratch/general/lustre/u6034117/4108807/notchpeak.peaks/"
 Entering Link 1 = /uufs/chpc.utah.edu/sys/installdir/gaussian16/B01/E6B/g16/l1.exe PID=    244035.
  
 Copyright (c) 1988-2017, Gaussian, Inc.  All Rights Reserved.
  
 This is part of the Gaussian(R) 16 program.  It is based on
 the Gaussian(R) 09 system (copyright 2009, Gaussian, Inc.),
 the Gaussian(R) 03 system (copyright 2003, Gaussian, Inc.),
 the Gaussian(R) 98 system (copyright 1998, Gaussian, Inc.),
 the Gaussian(R) 94 system (copyright 1995, Gaussian, Inc.),
 the Gaussian 92(TM) system (copyright 1992, Gaussian, Inc.),
 the Gaussian 90(TM) system (copyright 1990, Gaussian, Inc.),
 the Gaussian 88(TM) system (copyright 1988, Gaussian, Inc.),
 the Gaussian 86(TM) system (copyright 1986, Carnegie Mellon
 University), and the Gaussian 82(TM) system (copyright 1983,
 Carnegie Mellon University). Gaussian is a federally registered
 trademark of Gaussian, Inc.
  
 This software contains proprietary and confidential information,
 including trade secrets, belonging to Gaussian, Inc.
  
 This software is provided under written license and may be
 used, copied, transmitted, or stored only in accord with that
 written license.
  
 The following legend is applicable only to US Government
 contracts under FAR:
  
                    RESTRICTED RIGHTS LEGEND
  
 Use, reproduction and disclosure by the US Government is
 subject to restrictions as set forth in subparagraphs (a)
 and (c) of the Commercial Computer Software - Restricted
 Rights clause in FAR 52.227-19.
  
 Gaussian, Inc.
 340 Quinnipiac St., Bldg. 40, Wallingford CT 06492
  
  
 ---------------------------------------------------------------
 Warning -- This program may not be used in any manner that
 competes with the business of Gaussian, Inc. or will provide
 assistance to any competitor of Gaussian, Inc.  The licensee
 of this program is prohibited from giving any competitor of
 Gaussian, Inc. access to this program.  By using this program,
 the user acknowledges that Gaussian, Inc. is engaged in the
 business of creating and licensing software in the field of
 computational chemistry and represents and warrants to the
 licensee that it is not a competitor of Gaussian, Inc. and that
 it will not use this program in any manner prohibited above.
 ---------------------------------------------------------------
  

 Cite this work as:
 Gaussian 16, Revision B.01,
 M. J. Frisch, G. W. Trucks, H. B. Schlegel, G. E. Scuseria, 
 M. A. Robb, J. R. Cheeseman, G. Scalmani, V. Barone, 
 G. A. Petersson, H. Nakatsuji, X. Li, M. Caricato, A. V. Marenich, 
 J. Bloino, B. G. Janesko, R. Gomperts, B. Mennucci, H. P. Hratchian, 
 J. V. Ortiz, A. F. Izmaylov, J. L. Sonnenberg, D. Williams-Young, 
 F. Ding, F. Lipparini, F. Egidi, J. Goings, B. Peng, A. Petrone, 
 T. Henderson, D. Ranasinghe, V. G. Zakrzewski, J. Gao, N. Rega, 
 G. Zheng, W. Liang, M. Hada, M. Ehara, K. Toyota, R. Fukuda, 
 J. Hasegawa, M. Ishida, T. Nakajima, Y. Honda, O. Kitao, H. Nakai, 
 T. Vreven, K. Throssell, J. A. Montgomery, Jr., J. E. Peralta, 
 F. Ogliaro, M. J. Bearpark, J. J. Heyd, E. N. Brothers, K. N. Kudin, 
 V. N. Staroverov, T. A. Keith, R. Kobayashi, J. Normand, 
 K. Raghavachari, A. P. Rendell, J. C. Burant, S. S. Iyengar, 
 J. Tomasi, M. Cossi, J. M. Millam, M. Klene, C. Adamo, R. Cammi, 
 J. W. Ochterski, R. L. Martin, K. Morokuma, O. Farkas, 
 J. B. Foresman, and D. J. Fox, Gaussian, Inc., Wallingford CT, 2016.
 
 ******************************************
 Gaussian 16:  ES64L-G16RevB.01 20-Dec-2017
                 4-Mar-2022 
 ******************************************
 %NProcShared=32
 Will use up to   32 processors via shared memory.
 %mem=18GB
 %chk=W005_1_4_SPE_NoPd.chk
 ----------------------------------------------------------------------
 # PBE1PBE gen pseudo=read int=(grid=ultrafine) empiricaldispersion=GD3
 BJ nmr=giao
 ----------------------------------------------------------------------
 1/38=1,172=1/1;
 2/12=2,17=6,18=5,40=1/2;
 3/5=7,11=2,16=1,17=8,25=1,30=1,74=-13,75=-5,124=41/1,2,3,8;
 4//1;
 5/5=2,38=5/2;
 8/6=1,10=90,11=11/1;
 10/13=100,45=16/2;
 6/7=2,8=2,9=2,10=2,28=1/1;
 99/9=1/99;
 --------------
 W005_1_4 title
 --------------
 Symbolic Z-matrix:
 Charge =  0 Multiplicity = 1
 C                     3.03978  -1.48523   5.90562 
 C                     4.39356  -1.09938   6.19054 
 C                     5.25569  -2.17877   5.79642 
 C                     4.43612  -3.23371   5.2715 
 C                     3.06448  -2.80458   5.3347 
 H                     4.71431  -0.13255   6.57997 
 H                     6.3454   -2.17671   5.83913 
 H                     4.80282  -4.17677   4.86495 
 H                     2.193    -3.37016   5.00111 
 H                     2.15341  -0.87171   6.06953 
 Fe                    4.16917  -1.49946   4.19504 
 C                     5.27229  -0.06874   3.2373 
 C                     5.43531  -1.3403    2.59732 
 C                     4.13874  -1.79708   2.15752 
 C                     3.16539  -0.80214   2.56452 
 C                     3.88258   0.26555   3.21244 
 H                     6.05968   0.51949   3.70874 
 H                     3.43906   1.16627   3.63072 
 C                     1.70449  -0.79857   2.20013 
 P                     1.66453  -0.31765   0.35313 
 H                     1.30147  -1.82517   2.2679 
 C                     0.88158   0.15443   3.07934 
 H                    -0.20048   0.03966   2.92126 
 H                     1.10151  -0.06908   4.13647 
 H                     1.1519    1.20409   2.87953 
 C                    -1.89845   2.5411   -0.59265 
 C                    -0.60783   2.85757  -1.03209 
 C                     0.48296   2.03484  -0.71075 
 C                     0.28138   0.87554   0.05534 
 C                    -1.02109   0.53545   0.46361 
 C                    -2.10017   1.37347   0.15554 
 H                    -2.74159   3.18977  -0.84151 
 C                    -0.36336   4.12528  -1.81815 
 H                     1.48799   2.29632  -1.04889 
 H                    -1.21183  -0.39427   1.00705 
 C                    -3.4939    0.96103   0.56005 
 C                    -0.44835  -3.68041  -2.12911 
 C                     0.21593  -4.03437  -0.94842 
 C                     0.8733   -3.06876  -0.16716 
 C                     0.88828  -1.72556  -0.58047 
 C                     0.27179  -1.38679  -1.80192 
 C                    -0.40517  -2.34888  -2.55605 
 H                    -0.97393  -4.43657  -2.7169 
 C                     0.2941   -5.49591  -0.58753 
 H                     1.37588  -3.38466   0.75002 
 H                     0.30078  -0.35727  -2.16667 
 C                    -1.15567  -1.90858  -3.78807 
 F                    -2.40092  -1.4639   -3.47698 
 F                    -0.51271  -0.89422  -4.42769 
 F                    -1.3104   -2.92912  -4.68495 
 F                     1.28329  -6.11395  -1.30886 
 F                     0.56822  -5.69475   0.72691 
 F                    -0.86262  -6.14924  -0.87436 
 F                    -1.49249   4.54026  -2.45841 
 F                     0.03803   5.13837  -1.00823 
 F                     0.60238   3.94563  -2.75673 
 F                    -4.31547   2.03246   0.70776 
 F                    -4.05788   0.14343  -0.37251 
 F                    -3.48641   0.27501   1.7378 
 P                     4.50406  -1.60244  -1.08006 
 C                     9.03464  -2.254    -1.7026 
 C                     8.14121  -2.7459   -2.67744 
 C                     6.76972  -2.49822  -2.50818 
 C                     6.30321  -1.77791  -1.39509 
 C                     7.21555  -1.27748  -0.45217 
 C                     8.59247  -1.50521  -0.58934 
 H                     6.06665  -2.86015  -3.26591 
 H                     6.85357  -0.65616   0.37196 
 H                     6.36368  -1.9003    2.48179 
 C                     4.02547  -5.54359   0.04423 
 C                     3.62061  -5.4758    1.38228 
 C                     3.61112  -4.23912   2.03635 
 C                     3.93917  -3.04088   1.36915 
 C                     4.2096   -3.10039  -0.02645 
 C                     4.32386  -4.36374  -0.64515 
 H                     4.09712  -6.50672  -0.46955 
 H                     3.34887  -6.38546   1.92674 
 H                     3.37759  -4.17482   3.10017 
 H                     4.65596  -4.42514  -1.68476 
 C                     2.79329  -2.21515  -5.34151 
 C                     3.53661  -1.05879  -5.00518 
 C                     3.99795  -0.92587  -3.68653 
 C                     3.73097  -1.91496  -2.71639 
 C                     2.96022  -3.03528  -3.07107 
 C                     2.49592  -3.2087   -4.38501 
 H                     4.5943   -0.04619  -3.41076 
 H                     2.70658  -3.79975  -2.33347 
 C                     8.66504  -3.49407  -3.87884 
 H                     7.85296  -3.70741  -4.59257 
 H                     9.44585  -2.91301  -4.39759 
 H                     9.12664  -4.45681  -3.59305 
 C                     9.57397  -0.91782   0.39517 
 H                     9.18      0.02012   0.81947 
 H                     9.77402  -1.60494   1.23939 
 H                     10.53842  -0.70743  -0.09428 
 O                     10.39336  -2.45528  -1.90866 
 C                     10.92777  -3.54285  -1.1458 
 H                     10.83984  -3.3638   -0.05721 
 H                     10.41865  -4.49503  -1.3915 
 H                     11.99228  -3.61718  -1.41632 
 C                     3.86845  -0.01757  -6.04564 
 H                     3.06702   0.73944  -6.13365 
 H                     3.99434  -0.48191  -7.03724 
 H                     4.79276   0.51984  -5.78006 
 C                     1.73632  -4.45231  -4.77945 
 H                     0.72213  -4.21473  -5.14085 
 H                     2.24883  -4.98378  -5.59939 
 H                     1.63962  -5.13716  -3.92087 
 O                     2.42127  -2.44419  -6.65606 
 C                     1.23559  -1.75026  -7.0736 
 H                     1.11826  -1.96926  -8.14572 
 H                     0.3475   -2.10576  -6.52317 
 H                     1.32841  -0.65788  -6.93123 
 
 Stoichiometry    C52H44F12FeO2P2
 Framework group  C1[X(C52H44F12FeO2P2)]
 Deg. of freedom   333
 Full point group                 C1      NOp   1
 Largest Abelian subgroup         C1      NOp   1
 Largest concise Abelian subgroup C1      NOp   1
                         Standard orientation:                         
 ---------------------------------------------------------------------
 Center     Atomic      Atomic             Coordinates (Angstroms)
 Number     Number       Type             X           Y           Z
 ---------------------------------------------------------------------
      1          6           0       -2.066659   -6.083200    0.667259
      2          6           0       -3.228837   -6.211420   -0.166816
      3          6           0       -4.292333   -5.454836    0.433364
      4          6           0       -3.790237   -4.861790    1.640152
      5          6           0       -2.411567   -5.246487    1.784489
      6          1           0       -3.276731   -6.739481   -1.119786
      7          1           0       -5.290642   -5.312261    0.018226
      8          1           0       -4.353894   -4.206227    2.304712
      9          1           0       -1.737904   -4.951360    2.590538
     10          1           0       -1.088253   -6.522378    0.470351
     11         26           0       -2.691388   -4.243851    0.012777
     12          6           0       -2.969292   -3.443469   -1.848198
     13          6           0       -3.406797   -2.527217   -0.837214
     14          6           0       -2.284458   -2.225105    0.018516
     15          6           0       -1.152378   -2.994729   -0.460038
     16          6           0       -1.586276   -3.726126   -1.622326
     17          1           0       -3.591445   -3.890266   -2.623797
     18          1           0       -0.970366   -4.396858   -2.217089
     19          6           0        0.260928   -2.891785    0.048869
     20         15           0        0.901476   -1.225118   -0.626551
     21          1           0        0.254468   -2.804595    1.150363
     22          6           0        1.130100   -4.081232   -0.384892
     23          1           0        2.109701   -4.087329    0.114486
     24          1           0        0.602607   -5.012975   -0.121341
     25          1           0        1.296257   -4.068792   -1.474404
     26          6           0        5.350628   -1.531232   -1.995170
     27          6           0        4.393251   -0.958437   -2.840335
     28          6           0        3.041832   -0.906569   -2.464902
     29          6           0        2.641143   -1.428592   -1.224561
     30          6           0        3.608464   -1.968331   -0.357513
     31          6           0        4.951412   -2.034262   -0.749602
     32          1           0        6.399753   -1.573603   -2.297048
     33          6           0        4.797360   -0.433252   -4.198871
     34          1           0        2.300570   -0.467658   -3.136220
     35          1           0        3.330314   -2.323638    0.638710
     36          6           0        5.977340   -2.570267    0.218078
     37          6           0        2.240186    1.527896    2.917842
     38          6           0        1.234926    0.580381    3.146442
     39          6           0        0.788326   -0.267464    2.118531
     40          6           0        1.338598   -0.155821    0.830129
     41          6           0        2.304871    0.842234    0.591456
     42          6           0        2.764052    1.659916    1.627398
     43          1           0        2.594043    2.166916    3.730216
     44          6           0        0.571478    0.560320    4.499915
     45          1           0        0.005415   -0.996989    2.338653
     46          1           0        2.722106    0.976895   -0.409327
     47          6           0        3.889671    2.623698    1.346130
     48          9           0        5.100320    2.018569    1.461445
     49          9           0        3.809570    3.129749    0.085602
     50          9           0        3.888456    3.679476    2.215127
     51          9           0       -0.369781    1.554052    4.585439
     52          9           0       -0.057569   -0.615085    4.755172
     53          9           0        1.462480    0.781120    5.502146
     54          9           0        6.117640   -0.097241   -4.230752
     55          9           0        4.592732   -1.362110   -5.167781
     56          9           0        4.080914    0.671352   -4.534169
     57          9           0        7.059627   -3.081257   -0.424025
     58          9           0        6.426374   -1.592891    1.054319
     59          9           0        5.453615   -3.554601    1.002026
     60         15           0       -1.781688    0.909188   -0.740922
     61          6           0       -5.971784    2.413387   -1.973276
     62          6           0       -5.100767    3.305829   -1.313452
     63          6           0       -3.810307    2.858112   -0.989058
     64          6           0       -3.400677    1.553869   -1.315575
     65          6           0       -4.278342    0.693494   -1.994811
     66          6           0       -5.574408    1.106977   -2.335131
     67          1           0       -3.118371    3.545949   -0.491508
     68          1           0       -3.929478   -0.293862   -2.310531
     69          1           0       -4.416201   -2.138969   -0.698721
     70          6           0       -2.980894    0.593242    3.194530
     71          6           0       -2.906869   -0.776844    3.470708
     72          6           0       -2.624139   -1.673218    2.434431
     73          6           0       -2.348137   -1.233322    1.123383
     74          6           0       -2.283661    0.167627    0.883509
     75          6           0       -2.679111    1.053405    1.908654
     76          1           0       -3.258364    1.306420    3.976273
     77          1           0       -3.104788   -1.151130    4.479910
     78          1           0       -2.641851   -2.749822    2.610529
     79          1           0       -2.755565    2.122747    1.695300
     80          6           0        0.567545    4.851011   -0.104383
     81          6           0        0.214494    4.404721   -1.400142
     82          6           0       -0.470369    3.185651   -1.519198
     83          6           0       -0.800981    2.419751   -0.381295
     84          6           0       -0.406183    2.871320    0.889610
     85          6           0        0.266196    4.094059    1.047421
     86          1           0       -0.771693    2.832202   -2.514083
     87          1           0       -0.615910    2.283114    1.785624
     88          6           0       -5.551163    4.710685   -0.995579
     89          1           0       -4.719179    5.305868   -0.585764
     90          1           0       -5.935307    5.216813   -1.897050
     91          1           0       -6.371745    4.720514   -0.255196
     92          6           0       -6.494507    0.199601   -3.114691
     93          1           0       -5.912087   -0.476546   -3.761672
     94          1           0       -7.114371   -0.431122   -2.449249
     95          1           0       -7.180836    0.788187   -3.744384
     96          8           0       -7.225845    2.884380   -2.340138
     97          6           0       -8.268795    2.474413   -1.448767
     98          1           0       -8.384704    1.373937   -1.430059
     99          1           0       -8.078907    2.829234   -0.417136
    100          1           0       -9.196556    2.930437   -1.827160
    101          6           0        0.520981    5.238034   -2.620172
    102          1           0        1.531742    5.024718   -3.015080
    103          1           0        0.480498    6.312884   -2.379792
    104          1           0       -0.194291    5.023298   -3.430090
    105          6           0        0.617517    4.612238    2.421182
    106          1           0        1.705906    4.737519    2.545054
    107          1           0        0.162223    5.601694    2.597549
    108          1           0        0.264342    3.917070    3.200629
    109          8           0        1.137034    6.101877    0.068637
    110          6           0        2.552660    6.154181   -0.165814
    111          1           0        2.837075    7.212707   -0.066867
    112          1           0        3.104910    5.551002    0.575299
    113          1           0        2.813676    5.798307   -1.179425
 ---------------------------------------------------------------------
 Rotational constants (GHZ):           0.0338723           0.0257547           0.0212173
 General basis read from cards:  (5D, 7F)
 ======================================================================================================
                                       Pseudopotential Parameters
 ======================================================================================================
  Center     Atomic      Valence      Angular      Power
  Number     Number     Electrons     Momentum     of R      Exponent        Coefficient   SO-Coeffient
 ======================================================================================================
    1          6
                                   No pseudopotential on this center.
    2          6
                                   No pseudopotential on this center.
    3          6
                                   No pseudopotential on this center.
    4          6
                                   No pseudopotential on this center.
    5          6
                                   No pseudopotential on this center.
    6          1
                                   No pseudopotential on this center.
    7          1
                                   No pseudopotential on this center.
    8          1
                                   No pseudopotential on this center.
    9          1
                                   No pseudopotential on this center.
   10          1
                                   No pseudopotential on this center.
   11         26           16
                                      F and up 
                                                     2        1.0000000        0.00000000    0.00000000
                                      S - F
                                                     2       20.9300000      253.74958800    0.00000000
                                                     2        9.4450000       37.92284500    0.00000000
                                      P - F
                                                     2       21.7600000      161.03681200    0.00000000
                                                     2        9.1780000       27.65129800    0.00000000
                                      D - F
                                                     2       25.9000000      -24.43127600    0.00000000
                                                     2        8.8350000       -1.43425100    0.00000000
   12          6
                                   No pseudopotential on this center.
   13          6
                                   No pseudopotential on this center.
   14          6
                                   No pseudopotential on this center.
   15          6
                                   No pseudopotential on this center.
   16          6
                                   No pseudopotential on this center.
   17          1
                                   No pseudopotential on this center.
   18          1
                                   No pseudopotential on this center.
   19          6
                                   No pseudopotential on this center.
   20         15
                                   No pseudopotential on this center.
   21          1
                                   No pseudopotential on this center.
   22          6
                                   No pseudopotential on this center.
   23          1
                                   No pseudopotential on this center.
   24          1
                                   No pseudopotential on this center.
   25          1
                                   No pseudopotential on this center.
   26          6
                                   No pseudopotential on this center.
   27          6
                                   No pseudopotential on this center.
   28          6
                                   No pseudopotential on this center.
   29          6
                                   No pseudopotential on this center.
   30          6
                                   No pseudopotential on this center.
   31          6
                                   No pseudopotential on this center.
   32          1
                                   No pseudopotential on this center.
   33          6
                                   No pseudopotential on this center.
   34          1
                                   No pseudopotential on this center.
   35          1
                                   No pseudopotential on this center.
   36          6
                                   No pseudopotential on this center.
   37          6
                                   No pseudopotential on this center.
   38          6
                                   No pseudopotential on this center.
   39          6
                                   No pseudopotential on this center.
   40          6
                                   No pseudopotential on this center.
   41          6
                                   No pseudopotential on this center.
   42          6
                                   No pseudopotential on this center.
   43          1
                                   No pseudopotential on this center.
   44          6
                                   No pseudopotential on this center.
   45          1
                                   No pseudopotential on this center.
   46          1
                                   No pseudopotential on this center.
   47          6
                                   No pseudopotential on this center.
   48          9
                                   No pseudopotential on this center.
   49          9
                                   No pseudopotential on this center.
   50          9
                                   No pseudopotential on this center.
   51          9
                                   No pseudopotential on this center.
   52          9
                                   No pseudopotential on this center.
   53          9
                                   No pseudopotential on this center.
   54          9
                                   No pseudopotential on this center.
   55          9
                                   No pseudopotential on this center.
   56          9
                                   No pseudopotential on this center.
   57          9
                                   No pseudopotential on this center.
   58          9
                                   No pseudopotential on this center.
   59          9
                                   No pseudopotential on this center.
   60         15
                                   No pseudopotential on this center.
   61          6
                                   No pseudopotential on this center.
   62          6
                                   No pseudopotential on this center.
   63          6
                                   No pseudopotential on this center.
   64          6
                                   No pseudopotential on this center.
   65          6
                                   No pseudopotential on this center.
   66          6
                                   No pseudopotential on this center.
   67          1
                                   No pseudopotential on this center.
   68          1
                                   No pseudopotential on this center.
   69          1
                                   No pseudopotential on this center.
   70          6
                                   No pseudopotential on this center.
   71          6
                                   No pseudopotential on this center.
   72          6
                                   No pseudopotential on this center.
   73          6
                                   No pseudopotential on this center.
   74          6
                                   No pseudopotential on this center.
   75          6
                                   No pseudopotential on this center.
   76          1
                                   No pseudopotential on this center.
   77          1
                                   No pseudopotential on this center.
   78          1
                                   No pseudopotential on this center.
   79          1
                                   No pseudopotential on this center.
   80          6
                                   No pseudopotential on this center.
   81          6
                                   No pseudopotential on this center.
   82          6
                                   No pseudopotential on this center.
   83          6
                                   No pseudopotential on this center.
   84          6
                                   No pseudopotential on this center.
   85          6
                                   No pseudopotential on this center.
   86          1
                                   No pseudopotential on this center.
   87          1
                                   No pseudopotential on this center.
   88          6
                                   No pseudopotential on this center.
   89          1
                                   No pseudopotential on this center.
   90          1
                                   No pseudopotential on this center.
   91          1
                                   No pseudopotential on this center.
   92          6
                                   No pseudopotential on this center.
   93          1
                                   No pseudopotential on this center.
   94          1
                                   No pseudopotential on this center.
   95          1
                                   No pseudopotential on this center.
   96          8
                                   No pseudopotential on this center.
   97          6
                                   No pseudopotential on this center.
   98          1
                                   No pseudopotential on this center.
   99          1
                                   No pseudopotential on this center.
  100          1
                                   No pseudopotential on this center.
  101          6
                                   No pseudopotential on this center.
  102          1
                                   No pseudopotential on this center.
  103          1
                                   No pseudopotential on this center.
  104          1
                                   No pseudopotential on this center.
  105          6
                                   No pseudopotential on this center.
  106          1
                                   No pseudopotential on this center.
  107          1
                                   No pseudopotential on this center.
  108          1
                                   No pseudopotential on this center.
  109          8
                                   No pseudopotential on this center.
  110          6
                                   No pseudopotential on this center.
  111          1
                                   No pseudopotential on this center.
  112          1
                                   No pseudopotential on this center.
  113          1
                                   No pseudopotential on this center.
 ======================================================================================================
 There are  2773 symmetry adapted cartesian basis functions of A   symmetry.
 There are  2427 symmetry adapted basis functions of A   symmetry.
  2427 basis functions,  3931 primitive gaussians,  2773 cartesian basis functions
   263 alpha electrons      263 beta electrons
       nuclear repulsion energy     13079.7549276358 Hartrees.
 NAtoms=  113 NActive=  113 NUniq=  113 SFac= 1.00D+00 NAtFMM=   60 NAOKFM=T Big=T
 Integral buffers will be    131072 words long.
 Raffenetti 2 integral format.
 Two-electron integral symmetry is turned on.
 Nuclear repulsion after empirical dispersion term =    13079.5726049478 Hartrees.
 One-electron integrals computed using PRISM.
   1 Symmetry operations used in ECPInt.
 ECPInt:  NShTT=  445096 NPrTT= 1380297 LenC2=  298020 LenP2D=  583958.
 LDataN:  DoStor=T MaxTD1= 6 Len=  172
 Number of processors reduced to  16 by ecpmxn.
 NBasis=  2427 RedAO= T EigKep=  2.85D-06  NBF=  2427
 NBsUse=  2427 1.00D-06 EigRej= -1.00D+00 NBFU=  2427
 ExpMin= 1.00D-02 ExpMax= 5.24D+04 ExpMxC= 1.79D+03 IAcc=3 IRadAn=         5 AccDes= 0.00D+00
 Harris functional with IExCor= 1009 and IRadAn=       5 diagonalized for initial guess.
 HarFok:  IExCor= 1009 AccDes= 0.00D+00 IRadAn=         5 IDoV= 1 UseB2=F ITyADJ=14
 ICtDFT=  3500011 ScaDFX=  1.000000  1.000000  1.000000  1.000000
 FoFCou: FMM=F IPFlag=           0 FMFlag=      100000 FMFlg1=        2001
         NFxFlg=           0 DoJE=T BraDBF=F KetDBF=T FulRan=T
         wScrn=  0.000000 ICntrl=       500 IOpCl=  0 I1Cent=   200000004 NGrid=           0
         NMat0=    1 NMatS0=      1 NMatT0=    0 NMatD0=    1 NMtDS0=    0 NMtDT0=    0
 Petite list used in FoFCou.
 Requested convergence on RMS density matrix=1.00D-08 within 128 cycles.
 Requested convergence on MAX density matrix=1.00D-06.
 Requested convergence on             energy=1.00D-06.
 No special actions if energy rises.
 EnCoef did     4 forward-backward iterations
 Restarting incremental Fock formation.
 SCF Done:  E(RPBE1PBE) =  -4160.76867905     A.U. after   22 cycles
            NFock= 22  Conv=0.36D-08     -V/T= 2.0173
 DoSCS=F DFT=T ScalE2(SS,OS)=  1.000000  1.000000
 Range of M.O.s used for correlation:     1  2427
 NBasis=  2427 NAE=   263 NBE=   263 NFC=     0 NFV=     0
 NROrb=   2427 NOA=   263 NOB=   263 NVA=  2164 NVB=  2164

 **** Warning!!: The largest alpha MO coefficient is  0.43821401D+02

          Differentiating once with respect to magnetic field using GIAOs.
          Electric field/nuclear overlap derivatives assumed to be zero.
 FoFCou: FMM=F IPFlag=           0 FMFlag=      100000 FMFlg1=        2001
         NFxFlg=           0 DoJE=F BraDBF=F KetDBF=T FulRan=T
         wScrn=  0.000000 ICntrl=      6100 IOpCl=  0 I1Cent=           7 NGrid=         113
         NMat0=    1 NMatS0=      1 NMatT0=    0 NMatD0=    1 NMtDS0=    0 NMtDT0=    0
 Symmetry not used in FoFCou.
   1 Symmetry operations used in ECPInt.
 ECPInt:  NShTT=  445096 NPrTT= 1380297 LenC2=  445097 LenP2D= 1380297.
 LDataN:  DoStor=T MaxTD1= 7 Len=  274
 Number of processors reduced to  10 by ecpmxn.
 FoFJK:  IHMeth= 1 ICntrl=    6127 DoSepK=F KAlg= 0 I1Cent=           0 FoldK=F
 IRaf=         1 NMat=       1 IRICut=       1 DoRegI=T DoRafI=F ISym2E= 0 IDoP0=0 IntGTp=1.
          There are     3 degrees of freedom in the 1st order CPHF.  IDoFFX=0 NUNeed=     3.
      3 vectors produced by pass  0 Test12= 1.90D-11 3.33D-08 XBig12= 4.28D+02 2.55D+00.
 AX will form     3 AO Fock derivatives at one time.
      3 vectors produced by pass  1 Test12= 1.90D-11 3.33D-08 XBig12= 1.98D+00 3.60D-01.
      3 vectors produced by pass  2 Test12= 1.90D-11 3.33D-08 XBig12= 1.10D-01 8.08D-02.
      3 vectors produced by pass  3 Test12= 1.90D-11 3.33D-08 XBig12= 1.63D-03 5.59D-03.
      3 vectors produced by pass  4 Test12= 1.90D-11 3.33D-08 XBig12= 2.96D-05 1.60D-03.
      3 vectors produced by pass  5 Test12= 1.90D-11 3.33D-08 XBig12= 1.00D-06 1.76D-04.
      3 vectors produced by pass  6 Test12= 1.90D-11 3.33D-08 XBig12= 6.44D-09 1.34D-05.
      3 vectors produced by pass  7 Test12= 1.90D-11 3.33D-08 XBig12= 4.67D-11 1.46D-06.
      3 vectors produced by pass  8 Test12= 1.90D-11 3.33D-08 XBig12= 2.02D-12 5.04D-07.
      1 vectors produced by pass  9 Test12= 1.90D-11 3.33D-08 XBig12= 3.19D-14 3.55D-08.
 InvSVY:  IOpt=1 It=  1 EMax= 3.55D-15
 Solved reduced A of dimension    28 with     3 vectors.
 Calculating GIAO nuclear magnetic shielding tensors.
 SCF GIAO Magnetic shielding tensor (ppm):
      1  C    Isotropic =   111.2819   Anisotropy =    90.2353
   XX=    87.5366   YX=    43.6096   ZX=    -7.3897
   XY=    54.4906   YY=   121.1799   ZY=   -27.1641
   XZ=   -11.4944   YZ=   -24.2971   ZZ=   125.1291
   Eigenvalues:    51.7116   110.6953   171.4387
      2  C    Isotropic =   112.7406   Anisotropy =    88.2902
   XX=   115.5548   YX=     6.0145   ZX=   -17.6507
   XY=     7.5771   YY=   113.4257   ZY=   -64.3535
   XZ=   -13.8041   YZ=   -47.1281   ZZ=   109.2413
   Eigenvalues:    54.8062   111.8149   171.6007
      3  C    Isotropic =   111.6976   Anisotropy =    89.2065
   XX=    58.1600   YX=     8.7513   ZX=   -20.8132
   XY=    -5.1540   YY=   151.6511   ZY=   -29.9603
   XZ=   -15.8734   YZ=   -27.2920   ZZ=   125.2818
   Eigenvalues:    53.1505   110.7738   171.1686
      4  C    Isotropic =   109.8979   Anisotropy =    93.3095
   XX=    90.0596   YX=    30.7562   ZX=    18.2987
   XY=    25.1140   YY=   152.0735   ZY=   -27.6120
   XZ=    15.6257   YZ=   -42.3323   ZZ=    87.5606
   Eigenvalues:    51.8772   105.7123   172.1043
      5  C    Isotropic =   112.0792   Anisotropy =    90.6672
   XX=   101.9126   YX=    16.6630   ZX=   -31.5574
   XY=    19.2144   YY=   156.0380   ZY=   -15.7453
   XZ=   -37.0898   YZ=   -27.6461   ZZ=    78.2871
   Eigenvalues:    53.2343   110.4794   172.5241
      6  H    Isotropic =    27.4523   Anisotropy =     6.7290
   XX=    25.8867   YX=     0.9077   ZX=     1.0892
   XY=     0.7526   YY=    28.1516   ZY=     3.7052
   XZ=     0.8661   YZ=     3.1581   ZZ=    28.3187
   Eigenvalues:    24.7933    25.6254    31.9384
      7  H    Isotropic =    27.4348   Anisotropy =     6.4599
   XX=    31.1326   YX=     0.7002   ZX=     2.2362
   XY=     0.7756   YY=    25.7514   ZY=     0.6849
   XZ=     1.2414   YZ=     0.3532   ZZ=    25.4204
   Eigenvalues:    24.8229    25.7402    31.7414
      8  H    Isotropic =    27.2805   Anisotropy =     4.4729
   XX=    27.3905   YX=     1.3455   ZX=    -2.2139
   XY=    -0.4418   YY=    27.0359   ZY=     1.9069
   XZ=    -1.5100   YZ=     3.2290   ZZ=    27.4149
   Eigenvalues:    23.8812    27.6978    30.2624
      9  H    Isotropic =    27.0015   Anisotropy =     3.8859
   XX=    26.2506   YX=     0.3965   ZX=     1.2277
   XY=     0.6680   YY=    26.3193   ZY=     0.4232
   XZ=     1.9446   YZ=     1.3432   ZZ=    28.4344
   Eigenvalues:    25.4112    26.0012    29.5920
     10  H    Isotropic =    27.2603   Anisotropy =     4.4224
   XX=    29.4053   YX=    -0.9350   ZX=    -0.8372
   XY=    -1.5620   YY=    28.0019   ZY=     0.7465
   XZ=    -0.0833   YZ=     0.2582   ZZ=    24.3738
   Eigenvalues:    24.2878    27.2846    30.2086
     11  Fe   Isotropic = -6289.9540   Anisotropy =  8489.8152
   XX= -8532.8001   YX=  1887.2982   ZX= -1392.7288
   XY=  1878.3692   YY= -3772.8061   ZY= -3588.7711
   XZ= -1357.5226   YZ= -3589.9705   ZZ= -6564.2557
   Eigenvalues: -9241.4617 -8998.3231  -630.0772
     12  C    Isotropic =   114.2782   Anisotropy =    86.6851
   XX=   110.7959   YX=     9.3663   ZX=   -28.0578
   XY=    15.0569   YY=   153.2234   ZY=   -21.8440
   XZ=   -37.6057   YZ=   -35.5441   ZZ=    78.8154
   Eigenvalues:    54.7424   116.0240   172.0683
     13  C    Isotropic =   103.9872   Anisotropy =    81.5933
   XX=    67.7192   YX=    41.5750   ZX=    -4.7576
   XY=    47.5846   YY=   114.3608   ZY=   -20.6182
   XZ=   -34.0288   YZ=    -6.7103   ZZ=   129.8817
   Eigenvalues:    39.6712   113.9077   158.3827
     14  C    Isotropic =    88.7431   Anisotropy =    96.1451
   XX=    66.2014   YX=    11.6595   ZX=   -16.5607
   XY=     9.8264   YY=    79.0242   ZY=   -56.5171
   XZ=   -10.0378   YZ=   -33.1283   ZZ=   121.0036
   Eigenvalues:    50.2352    63.1542   152.8398
     15  C    Isotropic =    85.6150   Anisotropy =    95.0638
   XX=    44.5459   YX=     1.5433   ZX=   -10.6481
   XY=    -4.7062   YY=   112.6962   ZY=   -42.7238
   XZ=     9.5620   YZ=   -41.9387   ZZ=    99.6028
   Eigenvalues:    44.4290    63.4251   148.9909
     16  C    Isotropic =   117.8852   Anisotropy =    87.5847
   XX=   104.2542   YX=    18.8376   ZX=    18.1504
   XY=     2.2934   YY=   152.5730   ZY=   -35.3776
   XZ=    33.1326   YZ=   -51.0804   ZZ=    96.8284
   Eigenvalues:    57.1141   120.2665   176.2750
     17  H    Isotropic =    27.2687   Anisotropy =     7.2613
   XX=    27.4639   YX=     1.1770   ZX=     3.3273
   XY=     0.7857   YY=    26.4058   ZY=     2.4068
   XZ=     3.3612   YZ=     2.4109   ZZ=    27.9365
   Eigenvalues:    23.8540    25.8426    32.1096
     18  H    Isotropic =    27.6450   Anisotropy =     3.4128
   XX=    29.6180   YX=    -1.4786   ZX=     0.3154
   XY=    -0.3042   YY=    26.5367   ZY=     3.0889
   XZ=     1.0458   YZ=     3.1282   ZZ=    26.7803
   Eigenvalues:    23.3494    29.6654    29.9202
     19  C    Isotropic =   150.0418   Anisotropy =    23.5606
   XX=   149.4798   YX=     6.1313   ZX=    -1.0349
   XY=    12.2111   YY=   157.6159   ZY=    -8.0622
   XZ=    -1.3234   YZ=    -6.9868   ZZ=   143.0297
   Eigenvalues:   138.9461   145.4304   165.7489
     20  P    Isotropic =   265.5228   Anisotropy =    88.0276
   XX=   234.4834   YX=   -34.9028   ZX=    22.0633
   XY=   -27.0280   YY=   289.8510   ZY=   -41.4785
   XZ=     0.6277   YZ=   -19.8650   ZZ=   272.2341
   Eigenvalues:   220.5103   251.8503   324.2079
     21  H    Isotropic =    27.7044   Anisotropy =     4.1867
   XX=    27.7362   YX=    -2.5652   ZX=    -1.3382
   XY=     2.1332   YY=    25.7910   ZY=     1.9256
   XZ=    -0.7683   YZ=     0.9942   ZZ=    29.5860
   Eigenvalues:    25.2862    27.3315    30.4955
     22  C    Isotropic =   167.3244   Anisotropy =     9.8105
   XX=   173.3960   YX=     0.8289   ZX=    -1.2044
   XY=    -0.8020   YY=   173.1420   ZY=     3.6491
   XZ=    -3.3589   YZ=     1.0821   ZZ=   155.4353
   Eigenvalues:   154.8482   173.2603   173.8648
     23  H    Isotropic =    29.7274   Anisotropy =    10.5517
   XX=    36.1980   YX=    -2.3048   ZX=     1.9721
   XY=     0.9703   YY=    29.7730   ZY=    -2.0791
   XZ=     3.0329   YZ=     0.2166   ZZ=    23.2113
   Eigenvalues:    22.6567    29.7638    36.7619
     24  H    Isotropic =    29.0985   Anisotropy =     9.6055
   XX=    29.9769   YX=     0.8337   ZX=    -1.5631
   XY=     3.8130   YY=    34.1751   ZY=    -1.8722
   XZ=    -0.6790   YZ=    -1.3069   ZZ=    23.1436
   Eigenvalues:    22.8261    28.9673    35.5022
     25  H    Isotropic =    30.4042   Anisotropy =     5.7885
   XX=    30.5644   YX=    -1.3873   ZX=    -3.6633
   XY=     3.4490   YY=    29.3256   ZY=     2.1990
   XZ=    -1.8176   YZ=     3.4434   ZZ=    31.3226
   Eigenvalues:    25.9490    31.0003    34.2632
     26  C    Isotropic =    55.0431   Anisotropy =   191.8150
   XX=   -31.7767   YX=    22.8355   ZX=    27.7306
   XY=    20.0344   YY=   155.5513   ZY=    53.6940
   XZ=    25.5982   YZ=    59.0989   ZZ=    41.3547
   Eigenvalues:   -40.5204    22.7300   182.9198
     27  C    Isotropic =    46.8761   Anisotropy =   161.8751
   XX=    25.9526   YX=     7.1208   ZX=    29.4999
   XY=     5.7232   YY=   119.5610   ZY=    72.6195
   XZ=    23.5878   YZ=    71.4821   ZZ=    -4.8851
   Eigenvalues:   -44.5345    30.3701   154.7929
     28  C    Isotropic =    41.1551   Anisotropy =   189.5433
   XX=   -15.1627   YX=    43.7478   ZX=   -30.1117
   XY=    49.6860   YY=   123.6255   ZY=    74.5010
   XZ=   -25.8197   YZ=    77.4294   ZZ=    15.0024
   Eigenvalues:   -67.7231    23.6710   167.5173
     29  C    Isotropic =    31.1011   Anisotropy =   215.5423
   XX=   -39.4893   YX=    32.5165   ZX=    24.0667
   XY=    36.3500   YY=   130.3480   ZY=    82.1523
   XZ=    22.1300   YZ=    73.0299   ZZ=     2.4445
   Eigenvalues:   -49.7178   -31.7749   174.7959
     30  C    Isotropic =    35.3886   Anisotropy =   194.5096
   XX=     7.0073   YX=    15.9022   ZX=    21.5148
   XY=     9.6936   YY=   134.3720   ZY=    71.6169
   XZ=    25.1034   YZ=    77.4077   ZZ=   -35.2133
   Eigenvalues:   -67.4186     8.5229   165.0617
     31  C    Isotropic =    45.8803   Anisotropy =   164.2273
   XX=     1.8279   YX=    36.1319   ZX=   -28.7805
   XY=    39.2514   YY=   119.9689   ZY=    67.2541
   XZ=   -21.6530   YZ=    64.1104   ZZ=    15.8441
   Eigenvalues:   -48.1871    30.4629   155.3651
     32  H    Isotropic =    23.2583   Anisotropy =     9.6776
   XX=    21.9265   YX=    -1.9687   ZX=     0.6538
   XY=    -1.8716   YY=    20.8681   ZY=    -4.2485
   XZ=     1.1432   YZ=    -4.6838   ZZ=    26.9802
   Eigenvalues:    18.0597    22.0052    29.7100
     33  C    Isotropic =    48.8579   Anisotropy =    13.9975
   XX=    57.4691   YX=    -2.8046   ZX=     1.3954
   XY=    -2.3240   YY=    46.5835   ZY=     0.4159
   XZ=     1.7375   YZ=    -0.2937   ZZ=    42.5212
   Eigenvalues:    42.3312    46.0530    58.1896
     34  H    Isotropic =    23.0083   Anisotropy =    12.3602
   XX=    24.8592   YX=     0.9949   ZX=    -6.4865
   XY=     2.4198   YY=    19.9048   ZY=    -1.0147
   XZ=    -6.1612   YZ=    -1.2372   ZZ=    24.2610
   Eigenvalues:    18.1379    19.6386    31.2484
     35  H    Isotropic =    23.6534   Anisotropy =    15.2400
   XX=    32.6499   YX=    -5.3018   ZX=     0.9401
   XY=    -1.8157   YY=    21.9784   ZY=     2.0774
   XZ=     2.0369   YZ=    -0.6656   ZZ=    16.3320
   Eigenvalues:    15.9981    21.1489    33.8134
     36  C    Isotropic =    48.7916   Anisotropy =    14.2014
   XX=    51.9756   YX=    -0.2014   ZX=    -8.3420
   XY=     1.3435   YY=    47.0715   ZY=    -0.5207
   XZ=    -8.0123   YZ=    -1.5883   ZZ=    47.3278
   Eigenvalues:    41.1088    47.0069    58.2593
     37  C    Isotropic =    58.6924   Anisotropy =   187.2889
   XX=    94.3014   YX=   -84.3409   ZX=    13.8959
   XY=   -82.5771   YY=    80.7852   ZY=   -58.5232
   XZ=    11.8695   YZ=   -51.0616   ZZ=     0.9906
   Eigenvalues:   -35.1058    27.6314   183.5517
     38  C    Isotropic =    49.4479   Anisotropy =   160.5746
   XX=    82.8184   YX=   -57.1997   ZX=    46.3361
   XY=   -58.2242   YY=    90.0704   ZY=   -16.2539
   XZ=    51.6693   YZ=   -19.2382   ZZ=   -24.5450
   Eigenvalues:   -43.7189    35.5651   156.4977
     39  C    Isotropic =    51.1619   Anisotropy =   199.4594
   XX=    72.1508   YX=  -107.1597   ZX=    43.7470
   XY=  -108.5859   YY=    52.2961   ZY=   -24.8523
   XZ=    43.2345   YZ=   -15.6099   ZZ=    29.0387
   Eigenvalues:   -49.1117    18.4626   184.1348
     40  C    Isotropic =    26.3327   Anisotropy =   212.3881
   XX=    71.8656   YX=  -103.0214   ZX=    36.4933
   XY=   -94.1020   YY=    35.6764   ZY=   -32.3858
   XZ=    37.5872   YZ=   -42.1950   ZZ=   -28.5440
   Eigenvalues:   -49.6330   -39.2937   167.9248
     41  C    Isotropic =    43.1792   Anisotropy =   203.3514
   XX=    78.0499   YX=   -85.7901   ZX=    62.2683
   XY=   -82.4150   YY=    91.8639   ZY=   -10.2412
   XZ=    38.5046   YZ=   -19.2004   ZZ=   -40.3763
   Eigenvalues:   -61.0552    11.8460   178.7468
     42  C    Isotropic =    49.5686   Anisotropy =   164.3414
   XX=    60.6386   YX=   -89.5641   ZX=    30.8094
   XY=  -103.8161   YY=    53.2568   ZY=    -5.8451
   XZ=    27.9045   YZ=    -7.6637   ZZ=    34.8105
   Eigenvalues:   -43.0365    32.6128   159.1295
     43  H    Isotropic =    23.8138   Anisotropy =     8.5634
   XX=    24.5088   YX=     3.8491   ZX=    -1.5649
   XY=     2.9955   YY=    22.3234   ZY=    -2.9257
   XZ=    -3.0374   YZ=    -2.5956   ZZ=    24.6091
   Eigenvalues:    19.5981    22.3205    29.5227
     44  C    Isotropic =    47.8882   Anisotropy =    15.0536
   XX=    48.5644   YX=     7.6641   ZX=     5.6999
   XY=     6.7064   YY=    49.9306   ZY=     1.5767
   XZ=     4.9656   YZ=     0.0476   ZZ=    45.1697
   Eigenvalues:    39.5240    46.2166    57.9239
     45  H    Isotropic =    24.5010   Anisotropy =     7.2551
   XX=    27.1931   YX=    -1.9837   ZX=     0.9567
   XY=     1.1232   YY=    19.9490   ZY=     5.4528
   XZ=     2.4376   YZ=     3.0252   ZZ=    26.3610
   Eigenvalues:    17.7005    26.4647    29.3378
     46  H    Isotropic =    25.4359   Anisotropy =    14.3459
   XX=    23.9102   YX=     2.4363   ZX=     1.4003
   XY=    -0.2218   YY=    31.9861   ZY=     6.0680
   XZ=    -0.3142   YZ=     6.8275   ZZ=    20.4116
   Eigenvalues:    17.5345    23.7735    34.9999
     47  C    Isotropic =    48.7473   Anisotropy =    11.5195
   XX=    44.2946   YX=    -0.2999   ZX=     0.5547
   XY=    -2.6809   YY=    47.6732   ZY=     4.3954
   XZ=    -0.0499   YZ=     4.2469   ZZ=    54.2743
   Eigenvalues:    43.3300    46.4850    56.4270
     48  F    Isotropic =   219.8862   Anisotropy =   146.3486
   XX=   303.2242   YX=   -49.3349   ZX=     8.7453
   XY=   -47.6029   YY=   151.9579   ZY=    22.6646
   XZ=     8.9446   YZ=    24.8511   ZZ=   204.4766
   Eigenvalues:   129.2577   212.9491   317.4520
     49  F    Isotropic =   242.2135   Anisotropy =   129.4302
   XX=   190.3925   YX=   -27.6733   ZX=   -13.6152
   XY=   -42.0946   YY=   235.4865   ZY=   -56.6901
   XZ=    -6.0164   YZ=   -43.7029   ZZ=   300.7616
   Eigenvalues:   162.6264   235.5139   328.5003
     50  F    Isotropic =   246.0017   Anisotropy =   135.5866
   XX=   197.2508   YX=   -14.4649   ZX=    34.5439
   XY=   -30.1443   YY=   296.0635   ZY=    67.5524
   XZ=    31.3734   YZ=    54.0720   ZZ=   244.6907
   Eigenvalues:   160.8529   240.7594   336.3927
     51  F    Isotropic =   212.0492   Anisotropy =   139.8235
   XX=   256.4864   YX=   -46.2056   ZX=   -11.9206
   XY=   -48.6255   YY=   237.2159   ZY=    50.5849
   XZ=   -13.2031   YZ=    43.3860   ZZ=   142.4454
   Eigenvalues:   122.7429   208.1398   305.2649
     52  F    Isotropic =   249.2085   Anisotropy =   118.7320
   XX=   264.5240   YX=    35.4551   ZX=    13.7986
   XY=    34.0916   YY=   297.1205   ZY=   -38.4519
   XZ=     5.6164   YZ=   -55.3905   ZZ=   185.9810
   Eigenvalues:   164.1355   255.1269   328.3631
     53  F    Isotropic =   242.1100   Anisotropy =   143.7339
   XX=   227.3661   YX=     2.0999   ZX=    77.2002
   XY=    -4.3572   YY=   230.3433   ZY=    14.6671
   XZ=    95.4909   YZ=    15.5494   ZZ=   268.6206
   Eigenvalues:   157.7579   230.6396   337.9326
     54  F    Isotropic =   248.3342   Anisotropy =   139.8367
   XX=   328.3217   YX=    30.1906   ZX=   -12.4773
   XY=    39.4854   YY=   242.0773   ZY=    29.7888
   XZ=   -29.5602   YZ=    16.3196   ZZ=   174.6037
   Eigenvalues:   161.6529   241.7910   341.5587
     55  F    Isotropic =   223.2563   Anisotropy =   143.6308
   XX=   207.8750   YX=   -15.2909   ZX=    21.2273
   XY=   -16.4666   YY=   198.6133   ZY=    80.9586
   XZ=    22.3012   YZ=    81.2062   ZZ=   263.2806
   Eigenvalues:   134.8027   215.9560   319.0102
     56  F    Isotropic =   243.0368   Anisotropy =   139.0305
   XX=   231.0110   YX=   -36.7655   ZX=    41.1499
   XY=   -47.8812   YY=   303.5819   ZY=   -16.5598
   XZ=    48.1995   YZ=   -33.0360   ZZ=   194.5177
   Eigenvalues:   164.4275   228.9592   335.7238
     57  F    Isotropic =   249.2770   Anisotropy =   136.7432
   XX=   297.5723   YX=   -28.3016   ZX=   -62.4457
   XY=   -27.3532   YY=   255.0454   ZY=    43.9761
   XZ=   -46.7178   YZ=    27.9692   ZZ=   195.2133
   Eigenvalues:   165.4995   241.8924   340.4391
     58  F    Isotropic =   219.0952   Anisotropy =   147.6595
   XX=   210.2738   YX=    58.6193   ZX=    18.0300
   XY=    58.6416   YY=   195.6426   ZY=    65.3910
   XZ=    18.8452   YZ=    64.9163   ZZ=   251.3693
   Eigenvalues:   130.0077   209.7430   317.5349
     59  F    Isotropic =   244.1562   Anisotropy =   141.0002
   XX=   183.3582   YX=    19.8456   ZX=   -38.1485
   XY=    39.6825   YY=   292.4005   ZY=   -40.6024
   XZ=   -47.1192   YZ=   -48.6525   ZZ=   256.7099
   Eigenvalues:   163.1138   231.1985   338.1564
     60  P    Isotropic =   314.4188   Anisotropy =    50.6211
   XX=   312.5780   YX=    23.0325   ZX=     5.9291
   XY=     1.7646   YY=   339.1804   ZY=     4.1320
   XZ=   -13.5415   YZ=    30.9257   ZZ=   291.4979
   Eigenvalues:   283.6796   311.4105   348.1662
     61  C    Isotropic =    20.3249   Anisotropy =   126.8146
   XX=   -39.9118   YX=    31.9381   ZX=   -42.8181
   XY=    29.0559   YY=    18.9623   ZY=   -22.0853
   XZ=   -38.8269   YZ=   -21.0073   ZZ=    81.9243
   Eigenvalues:   -59.5303    15.6371   104.8680
     62  C    Isotropic =    45.7363   Anisotropy =   173.3663
   XX=    26.6376   YX=    40.1307   ZX=   -33.1554
   XY=    23.7351   YY=   -13.9010   ZY=   -54.3657
   XZ=   -40.4934   YZ=   -62.1604   ZZ=   124.4724
   Eigenvalues:   -40.5493    16.4445   161.3139
     63  C    Isotropic =    46.1319   Anisotropy =   155.6328
   XX=    27.0788   YX=   -26.3670   ZX=   -55.5617
   XY=   -19.8427   YY=    10.0545   ZY=   -53.4354
   XZ=   -71.9234   YZ=   -62.3183   ZZ=   101.2626
   Eigenvalues:   -52.9137    41.4223   149.8871
     64  C    Isotropic =    39.3709   Anisotropy =   192.1552
   XX=   -17.7754   YX=    36.3053   ZX=   -65.8199
   XY=    24.9157   YY=    14.6597   ZY=   -49.9454
   XZ=   -54.5895   YZ=   -55.7308   ZZ=   121.2286
   Eigenvalues:   -42.9596    -6.4020   167.4744
     65  C    Isotropic =    46.8323   Anisotropy =   153.1839
   XX=    50.1205   YX=    35.7689   ZX=   -17.9343
   XY=    38.1905   YY=   -24.1211   ZY=   -59.1316
   XZ=   -29.2682   YZ=   -58.6990   ZZ=   114.4977
   Eigenvalues:   -53.0722    44.6143   148.9550
     66  C    Isotropic =    48.8754   Anisotropy =   170.9231
   XX=    12.6160   YX=    -9.4140   ZX=   -62.1356
   XY=     2.3112   YY=    21.3974   ZY=   -58.6794
   XZ=   -58.4538   YZ=   -65.4340   ZZ=   112.6128
   Eigenvalues:   -36.8561    20.6582   162.8241
     67  H    Isotropic =    24.8962   Anisotropy =    15.3656
   XX=    31.7841   YX=    -3.7578   ZX=     2.5349
   XY=    -7.6622   YY=    24.2628   ZY=    -0.9914
   XZ=     0.5933   YZ=    -2.2444   ZZ=    18.6416
   Eigenvalues:    18.2090    21.3396    35.1399
     68  H    Isotropic =    23.7350   Anisotropy =    10.6144
   XX=    25.8131   YX=    -0.1213   ZX=     6.4063
   XY=    -2.1107   YY=    23.2839   ZY=    -2.1105
   XZ=     5.8445   YZ=    -1.0556   ZZ=    22.1080
   Eigenvalues:    17.4947    22.8990    30.8113
     69  H    Isotropic =    27.4083   Anisotropy =     4.0940
   XX=    28.9399   YX=     1.1825   ZX=     3.3652
   XY=    -2.2726   YY=    28.0490   ZY=     0.5757
   XZ=     1.2157   YZ=    -0.4506   ZZ=    25.2360
   Eigenvalues:    24.1207    27.9666    30.1377
     70  C    Isotropic =    50.5338   Anisotropy =   190.8525
   XX=   160.3163   YX=    33.3630   ZX=    52.5023
   XY=    29.2801   YY=    -5.0334   ZY=   -36.4631
   XZ=    52.0901   YZ=   -39.3069   ZZ=    -3.6814
   Eigenvalues:   -58.3522    32.1849   177.7688
     71  C    Isotropic =    50.7977   Anisotropy =   188.2800
   XX=   163.6275   YX=     4.3643   ZX=    51.3542
   XY=     6.6894   YY=    24.4000   ZY=    30.1082
   XZ=    47.8663   YZ=    30.4561   ZZ=   -35.6345
   Eigenvalues:   -57.1425    33.2178   176.3177
     72  C    Isotropic =    43.7012   Anisotropy =   165.9269
   XX=   144.4125   YX=    -1.7352   ZX=    39.2162
   XY=     6.5537   YY=   -51.7474   ZY=    21.5963
   XZ=    27.4745   YZ=    16.8883   ZZ=    38.4383
   Eigenvalues:   -55.7800    32.5644   154.3191
     73  C    Isotropic =    38.1799   Anisotropy =   188.3106
   XX=   156.8102   YX=    13.9961   ZX=    37.0188
   XY=    -2.3828   YY=   -19.5143   ZY=   -31.8202
   XZ=    34.7241   YZ=   -42.1297   ZZ=   -22.7563
   Eigenvalues:   -62.3371    13.1564   163.7203
     74  C    Isotropic =    35.3039   Anisotropy =   203.4970
   XX=   158.1783   YX=    -2.9961   ZX=    33.2555
   XY=    -2.7076   YY=   -20.0839   ZY=    16.9992
   XZ=    68.5460   YZ=    26.7973   ZZ=   -32.1827
   Eigenvalues:   -57.7288    -7.3281   170.9686
     75  C    Isotropic =    41.0234   Anisotropy =   203.4024
   XX=   164.5386   YX=    27.1845   ZX=    34.4038
   XY=    21.2879   YY=   -64.9335   ZY=    24.7349
   XZ=    37.9616   YZ=    16.1937   ZZ=    23.4652
   Eigenvalues:   -70.5963    17.0415   176.6250
     76  H    Isotropic =    23.8160   Anisotropy =     3.6937
   XX=    23.0668   YX=     0.5037   ZX=    -2.4650
   XY=    -0.7210   YY=    23.7760   ZY=    -1.3893
   XZ=    -0.3787   YZ=    -1.9369   ZZ=    24.6052
   Eigenvalues:    21.6658    23.5037    26.2784
     77  H    Isotropic =    23.5478   Anisotropy =     4.4335
   XX=    21.5296   YX=     0.5452   ZX=    -0.8479
   XY=     0.1019   YY=    25.2776   ZY=     1.8724
   XZ=    -1.1053   YZ=     1.7087   ZZ=    23.8361
   Eigenvalues:    20.9356    23.2042    26.5034
     78  H    Isotropic =    22.4642   Anisotropy =     8.3130
   XX=    19.4152   YX=     2.1860   ZX=    -2.3018
   XY=     1.1528   YY=    22.9571   ZY=     4.1599
   XZ=    -0.9720   YZ=     3.5850   ZZ=    25.0203
   Eigenvalues:    17.3558    22.0307    28.0062
     79  H    Isotropic =    23.4009   Anisotropy =     7.8589
   XX=    23.2266   YX=     1.2809   ZX=    -3.9060
   XY=    -1.9219   YY=    19.0004   ZY=    -0.0246
   XZ=     0.1808   YZ=     0.7569   ZZ=    27.9757
   Eigenvalues:    18.9700    22.5925    28.6402
     80  C    Isotropic =    20.6915   Anisotropy =   129.7936
   XX=    71.4994   YX=   -67.4448   ZX=    -8.7532
   XY=   -68.4532   YY=   -23.5526   ZY=    -7.6934
   XZ=    -9.7994   YZ=    -4.1113   ZZ=    14.1278
   Eigenvalues:   -60.1698    15.0238   107.2206
     81  C    Isotropic =    46.4710   Anisotropy =   177.0710
   XX=   127.2397   YX=   -68.2675   ZX=    -1.2189
   XY=   -69.2158   YY=    30.5526   ZY=    37.8688
   XZ=    -5.2968   YZ=    22.6679   ZZ=   -18.3794
   Eigenvalues:   -38.8605    13.7552   164.5183
     82  C    Isotropic =    46.3151   Anisotropy =   161.4301
   XX=   109.7130   YX=   -72.1301   ZX=   -23.7016
   XY=   -48.6600   YY=    70.4538   ZY=   -25.1773
   XZ=   -34.6288   YZ=   -27.9756   ZZ=   -41.2214
   Eigenvalues:   -58.9753    43.9855   153.9352
     83  C    Isotropic =    48.4658   Anisotropy =   186.0137
   XX=   110.2876   YX=   -88.8525   ZX=   -20.2614
   XY=  -102.9799   YY=    19.8537   ZY=     4.4593
   XZ=   -10.7418   YZ=     1.3143   ZZ=    15.2559
   Eigenvalues:   -41.5851    14.5075   172.4749
     84  C    Isotropic =    47.5764   Anisotropy =   167.6802
   XX=   127.4163   YX=   -61.9754   ZX=    22.7432
   XY=   -59.4119   YY=    42.4825   ZY=    36.8116
   XZ=     4.4434   YZ=    48.5616   ZZ=   -27.1696
   Eigenvalues:   -56.4012    39.7673   159.3632
     85  C    Isotropic =    46.7825   Anisotropy =   178.0455
   XX=   125.4268   YX=   -71.8353   ZX=   -24.6638
   XY=   -66.2301   YY=    44.2814   ZY=   -22.3455
   XZ=   -17.2059   YZ=    -9.4358   ZZ=   -29.3608
   Eigenvalues:   -42.2990    17.1669   165.4795
     86  H    Isotropic =    24.1768   Anisotropy =    11.6080
   XX=    23.9794   YX=     4.4340   ZX=    -1.7541
   XY=     3.4096   YY=    26.9624   ZY=    -3.7562
   XZ=    -3.9217   YZ=    -4.0364   ZZ=    21.5887
   Eigenvalues:    19.3337    21.2813    31.9155
     87  H    Isotropic =    25.4350   Anisotropy =     7.9992
   XX=    27.3307   YX=     4.7688   ZX=     1.2601
   XY=    -0.5997   YY=    27.6628   ZY=     2.1744
   XZ=     3.7005   YZ=     2.3303   ZZ=    21.3113
   Eigenvalues:    20.1187    25.4184    30.7678
     88  C    Isotropic =   167.6936   Anisotropy =    28.5148
   XX=   164.1163   YX=    -6.1518   ZX=     2.0359
   XY=    -5.0571   YY=   184.1760   ZY=     6.5316
   XZ=    -1.1649   YZ=     5.7301   ZZ=   154.7886
   Eigenvalues:   153.3246   163.0527   186.7035
     89  H    Isotropic =    29.9641   Anisotropy =     6.6494
   XX=    33.0112   YX=    -0.3703   ZX=     2.9445
   XY=     1.2267   YY=    32.0437   ZY=     2.7727
   XZ=     2.7264   YZ=     1.2538   ZZ=    24.8375
   Eigenvalues:    23.5663    31.9291    34.3971
     90  H    Isotropic =    29.0278   Anisotropy =     9.1249
   XX=    27.7297   YX=    -0.6770   ZX=     3.8313
   XY=    -2.9136   YY=    31.7166   ZY=    -2.7308
   XZ=     3.7162   YZ=    -3.5328   ZZ=    27.6372
   Eigenvalues:    23.7631    28.2094    35.1111
     91  H    Isotropic =    29.3725   Anisotropy =     8.3965
   XX=    32.1231   YX=    -1.6847   ZX=    -2.1225
   XY=    -1.9171   YY=    28.2369   ZY=     2.7464
   XZ=    -3.6522   YZ=     3.3920   ZZ=    27.7574
   Eigenvalues:    24.7759    28.3714    34.9701
     92  C    Isotropic =   169.4679   Anisotropy =    28.5712
   XX=   172.0769   YX=     5.8263   ZX=    12.6188
   XY=     9.5390   YY=   166.6950   ZY=    11.4063
   XZ=     5.3224   YZ=    12.1465   ZZ=   169.6318
   Eigenvalues:   156.2926   163.5957   188.5154
     93  H    Isotropic =    29.3981   Anisotropy =     6.9280
   XX=    29.4689   YX=    -1.8037   ZX=     1.5079
   XY=    -3.5586   YY=    28.9456   ZY=     3.0942
   XZ=     0.5840   YZ=     5.6089   ZZ=    29.7797
   Eigenvalues:    23.7128    30.4647    34.0167
     94  H    Isotropic =    29.2313   Anisotropy =     6.8298
   XX=    31.2444   YX=     2.7632   ZX=     0.2207
   XY=     2.4653   YY=    30.6499   ZY=    -1.0078
   XZ=    -1.0414   YZ=    -1.8979   ZZ=    25.7997
   Eigenvalues:    25.3783    28.5312    33.7845
     95  H    Isotropic =    28.6864   Anisotropy =     8.5288
   XX=    28.8614   YX=    -3.5624   ZX=     4.4899
   XY=    -2.3961   YY=    28.5722   ZY=     0.6796
   XZ=     5.7023   YZ=     0.6676   ZZ=    28.6256
   Eigenvalues:    22.5152    29.1717    34.3723
     96  O    Isotropic =   259.2881   Anisotropy =   108.3332
   XX=   245.2774   YX=   -22.1313   ZX=    16.2893
   XY=   -32.4319   YY=   235.1141   ZY=   -35.0132
   XZ=    25.4322   YZ=   -52.6714   ZZ=   297.4728
   Eigenvalues:   205.6001   240.7540   331.5103
     97  C    Isotropic =   126.3673   Anisotropy =    83.4049
   XX=   153.2744   YX=    11.5805   ZX=   -34.2883
   XY=    14.6251   YY=   100.1940   ZY=   -11.7780
   XZ=   -38.0501   YZ=   -12.2778   ZZ=   125.6334
   Eigenvalues:    95.3170   101.8143   181.9706
     98  H    Isotropic =    27.9024   Anisotropy =     7.1221
   XX=    30.3501   YX=     2.7078   ZX=    -1.7664
   XY=     1.1306   YY=    28.6251   ZY=     0.9335
   XZ=    -4.5957   YZ=    -1.4672   ZZ=    24.7319
   Eigenvalues:    23.2374    27.8193    32.6505
     99  H    Isotropic =    28.2503   Anisotropy =     7.9705
   XX=    29.7240   YX=    -0.2855   ZX=    -3.8072
   XY=     1.2952   YY=    25.3000   ZY=     0.3212
   XZ=    -3.7458   YZ=     2.6792   ZZ=    29.7270
   Eigenvalues:    24.1375    27.0494    33.5639
    100  H    Isotropic =    27.7293   Anisotropy =    10.3468
   XX=    34.3523   YX=    -2.4401   ZX=     0.9246
   XY=    -0.5418   YY=    24.8189   ZY=    -0.1503
   XZ=    -2.3215   YZ=     0.3667   ZZ=    24.0165
   Eigenvalues:    23.9695    24.5912    34.6272
    101  C    Isotropic =   168.8125   Anisotropy =    29.9360
   XX=   161.2892   YX=     7.9917   ZX=     0.7033
   XY=     0.4990   YY=   168.5461   ZY=   -14.4289
   XZ=    -1.8721   YZ=   -16.2355   ZZ=   176.6021
   Eigenvalues:   155.1740   162.4936   188.7698
    102  H    Isotropic =    29.2405   Anisotropy =     7.7531
   XX=    31.0397   YX=     1.3942   ZX=    -3.5970
   XY=     0.2031   YY=    26.7724   ZY=    -0.4997
   XZ=    -3.8752   YZ=    -0.9922   ZZ=    29.9093
   Eigenvalues:    26.5966    26.7157    34.4093
    103  H    Isotropic =    28.7999   Anisotropy =     8.2263
   XX=    23.8212   YX=     0.0052   ZX=     2.6932
   XY=     0.8553   YY=    34.0292   ZY=    -0.4530
   XZ=     0.4194   YZ=    -1.9601   ZZ=    28.5492
   Eigenvalues:    23.3004    28.8152    34.2840
    104  H    Isotropic =    29.6037   Anisotropy =     7.4491
   XX=    28.3808   YX=     2.4924   ZX=     4.5286
   XY=     1.6865   YY=    28.2741   ZY=    -3.3341
   XZ=     2.9055   YZ=    -1.1884   ZZ=    32.1561
   Eigenvalues:    24.0080    30.2333    34.5697
    105  C    Isotropic =   166.8942   Anisotropy =    23.0376
   XX=   156.0888   YX=     2.0572   ZX=     2.5911
   XY=     1.8609   YY=   164.4641   ZY=     6.7873
   XZ=     3.2651   YZ=     4.0293   ZZ=   180.1299
   Eigenvalues:   155.5173   162.9128   182.2527
    106  H    Isotropic =    29.0664   Anisotropy =     5.0515
   XX=    31.8014   YX=     1.1769   ZX=     1.2804
   XY=     0.7877   YY=    28.2631   ZY=     0.3440
   XZ=     1.4838   YZ=     0.2766   ZZ=    27.1348
   Eigenvalues:    26.7550    28.0102    32.4341
    107  H    Isotropic =    29.0111   Anisotropy =    10.3743
   XX=    24.7903   YX=    -3.0333   ZX=    -3.0402
   XY=    -1.9891   YY=    33.9104   ZY=     2.7788
   XZ=    -0.9932   YZ=     2.7887   ZZ=    28.3327
   Eigenvalues:    23.7128    27.3932    35.9273
    108  H    Isotropic =    29.8966   Anisotropy =     7.0155
   XX=    25.8136   YX=     1.7295   ZX=    -2.2074
   XY=     1.5975   YY=    32.7826   ZY=    -0.1275
   XZ=    -1.5543   YZ=    -3.4186   ZZ=    31.0937
   Eigenvalues:    25.0563    30.0599    34.5737
    109  O    Isotropic =   258.6620   Anisotropy =   120.7199
   XX=   252.3292   YX=   -45.6826   ZX=   -13.1668
   XY=   -36.6263   YY=   315.2913   ZY=    26.7470
   XZ=     6.7980   YZ=    17.8650   ZZ=   208.3654
   Eigenvalues:   203.1909   233.6531   339.1419
    110  C    Isotropic =   125.9838   Anisotropy =    79.8938
   XX=   176.4820   YX=    11.0612   ZX=   -10.7441
   XY=     8.2862   YY=   104.2589   ZY=    -1.9795
   XZ=   -11.0315   YZ=    -2.0802   ZZ=    97.2104
   Eigenvalues:    95.6724   103.0326   179.2463
    111  H    Isotropic =    27.7244   Anisotropy =     9.8707
   XX=    28.8127   YX=     6.3217   ZX=     0.2214
   XY=     3.0688   YY=    30.2613   ZY=    -0.1203
   XZ=    -0.5615   YZ=    -0.6864   ZZ=    24.0991
   Eigenvalues:    24.0577    24.8107    34.3049
    112  H    Isotropic =    27.7420   Anisotropy =     5.9819
   XX=    30.6312   YX=    -0.7339   ZX=     3.6594
   XY=    -0.5769   YY=    27.6255   ZY=    -2.6602
   XZ=     0.1590   YZ=    -2.2138   ZZ=    24.9693
   Eigenvalues:    23.2761    28.2199    31.7299
    113  H    Isotropic =    27.9109   Anisotropy =     6.0305
   XX=    30.6380   YX=     1.9650   ZX=    -3.2518
   XY=     0.6816   YY=    25.0857   ZY=    -0.5406
   XZ=    -0.5778   YZ=    -0.4281   ZZ=    28.0090
   Eigenvalues:    24.7854    27.0159    31.9312
 End of Minotr F.D. properties file   721 does not exist.
 End of Minotr F.D. properties file   722 does not exist.
 End of Minotr F.D. properties file   788 does not exist.
 Hyperfine terms turned off by default for NAtoms > 100.

 **********************************************************************

            Population analysis using the SCF Density.

 **********************************************************************

 Orbital symmetries:
       Occupied  (A) (A) (A) (A) (A) (A) (A) (A) (A) (A) (A) (A)
                 (A) (A) (A) (A) (A) (A) (A) (A) (A) (A) (A) (A)
                 (A) (A) (A) (A) (A) (A) (A) (A) (A) (A) (A) (A)
                 (A) (A) (A) (A) (A) (A) (A) (A) (A) (A) (A) (A)
                 (A) (A) (A) (A) (A) (A) (A) (A) (A) (A) (A) (A)
                 (A) (A) (A) (A) (A) (A) (A) (A) (A) (A) (A) (A)
                 (A) (A) (A) (A) (A) (A) (A) (A) (A) (A) (A) (A)
                 (A) (A) (A) (A) (A) (A) (A) (A) (A) (A) (A) (A)
                 (A) (A) (A) (A) (A) (A) (A) (A) (A) (A) (A) (A)
                 (A) (A) (A) (A) (A) (A) (A) (A) (A) (A) (A) (A)
                 (A) (A) (A) (A) (A) (A) (A) (A) (A) (A) (A) (A)
                 (A) (A) (A) (A) (A) (A) (A) (A) (A) (A) (A) (A)
                 (A) (A) (A) (A) (A) (A) (A) (A) (A) (A) (A) (A)
                 (A) (A) (A) (A) (A) (A) (A) (A) (A) (A) (A) (A)
                 (A) (A) (A) (A) (A) (A) (A) (A) (A) (A) (A) (A)
                 (A) (A) (A) (A) (A) (A) (A) (A) (A) (A) (A) (A)
                 (A) (A) (A) (A) (A) (A) (A) (A) (A) (A) (A) (A)
                 (A) (A) (A) (A) (A) (A) (A) (A) (A) (A) (A) (A)
                 (A) (A) (A) (A) (A) (A) (A) (A) (A) (A) (A) (A)
                 (A) (A) (A) (A) (A) (A) (A) (A) (A) (A) (A) (A)
                 (A) (A) (A) (A) (A) (A) (A) (A) (A) (A) (A) (A)
                 (A) (A) (A) (A) (A) (A) (A) (A) (A) (A) (A)
       Virtual   (A) (A) (A) (A) (A) (A) (A) (A) (A) (A) (A) (A)
                 (A) (A) (A) (A) (A) (A) (A) (A) (A) (A) (A) (A)
                 (A) (A) (A) (A) (A) (A) (A) (A) (A) (A) (A) (A)
                 (A) (A) (A) (A) (A) (A) (A) (A) (A) (A) (A) (A)
                 (A) (A) (A) (A) (A) (A) (A) (A) (A) (A) (A) (A)
                 (A) (A) (A) (A) (A) (A) (A) (A) (A) (A) (A) (A)
                 (A) (A) (A) (A) (A) (A) (A) (A) (A) (A) (A) (A)
                 (A) (A) (A) (A) (A) (A) (A) (A) (A) (A) (A) (A)
                 (A) (A) (A) (A) (A) (A) (A) (A) (A) (A) (A) (A)
                 (A) (A) (A) (A) (A) (A) (A) (A) (A) (A) (A) (A)
                 (A) (A) (A) (A) (A) (A) (A) (A) (A) (A) (A) (A)
                 (A) (A) (A) (A) (A) (A) (A) (A) (A) (A) (A) (A)
                 (A) (A) (A) (A) (A) (A) (A) (A) (A) (A) (A) (A)
                 (A) (A) (A) (A) (A) (A) (A) (A) (A) (A) (A) (A)
                 (A) (A) (A) (A) (A) (A) (A) (A) (A) (A) (A) (A)
                 (A) (A) (A) (A) (A) (A) (A) (A) (A) (A) (A) (A)
                 (A) (A) (A) (A) (A) (A) (A) (A) (A) (A) (A) (A)
                 (A) (A) (A) (A) (A) (A) (A) (A) (A) (A) (A) (A)
                 (A) (A) (A) (A) (A) (A) (A) (A) (A) (A) (A) (A)
                 (A) (A) (A) (A) (A) (A) (A) (A) (A) (A) (A) (A)
                 (A) (A) (A) (A) (A) (A) (A) (A) (A) (A) (A) (A)
                 (A) (A) (A) (A) (A) (A) (A) (A) (A) (A) (A) (A)
                 (A) (A) (A) (A) (A) (A) (A) (A) (A) (A) (A) (A)
                 (A) (A) (A) (A) (A) (A) (A) (A) (A) (A) (A) (A)
                 (A) (A) (A) (A) (A) (A) (A) (A) (A) (A) (A) (A)
                 (A) (A) (A) (A) (A) (A) (A) (A) (A) (A) (A) (A)
                 (A) (A) (A) (A) (A) (A) (A) (A) (A) (A) (A) (A)
                 (A) (A) (A) (A) (A) (A) (A) (A) (A) (A) (A) (A)
                 (A) (A) (A) (A) (A) (A) (A) (A) (A) (A) (A) (A)
                 (A) (A) (A) (A) (A) (A) (A) (A) (A) (A) (A) (A)
                 (A) (A) (A) (A) (A) (A) (A) (A) (A) (A) (A) (A)
                 (A) (A) (A) (A) (A) (A) (A) (A) (A) (A) (A) (A)
                 (A) (A) (A) (A) (A) (A) (A) (A) (A) (A) (A) (A)
                 (A) (A) (A) (A) (A) (A) (A) (A) (A) (A) (A) (A)
                 (A) (A) (A) (A) (A) (A) (A) (A) (A) (A) (A) (A)
                 (A) (A) (A) (A) (A) (A) (A) (A) (A) (A) (A) (A)
                 (A) (A) (A) (A) (A) (A) (A) (A) (A) (A) (A) (A)
                 (A) (A) (A) (A) (A) (A) (A) (A) (A) (A) (A) (A)
                 (A) (A) (A) (A) (A) (A) (A) (A) (A) (A) (A) (A)
                 (A) (A) (A) (A) (A) (A) (A) (A) (A) (A) (A) (A)
                 (A) (A) (A) (A) (A) (A) (A) (A) (A) (A) (A) (A)
                 (A) (A) (A) (A) (A) (A) (A) (A) (A) (A) (A) (A)
                 (A) (A) (A) (A) (A) (A) (A) (A) (A) (A) (A) (A)
                 (A) (A) (A) (A) (A) (A) (A) (A) (A) (A) (A) (A)
                 (A) (A) (A) (A) (A) (A) (A) (A) (A) (A) (A) (A)
                 (A) (A) (A) (A) (A) (A) (A) (A) (A) (A) (A) (A)
                 (A) (A) (A) (A) (A) (A) (A) (A) (A) (A) (A) (A)
                 (A) (A) (A) (A) (A) (A) (A) (A) (A) (A) (A) (A)
                 (A) (A) (A) (A) (A) (A) (A) (A) (A) (A) (A) (A)
                 (A) (A) (A) (A) (A) (A) (A) (A) (A) (A) (A) (A)
                 (A) (A) (A) (A) (A) (A) (A) (A) (A) (A) (A) (A)
                 (A) (A) (A) (A) (A) (A) (A) (A) (A) (A) (A) (A)
                 (A) (A) (A) (A) (A) (A) (A) (A) (A) (A) (A) (A)
                 (A) (A) (A) (A) (A) (A) (A) (A) (A) (A) (A) (A)
                 (A) (A) (A) (A) (A) (A) (A) (A) (A) (A) (A) (A)
                 (A) (A) (A) (A) (A) (A) (A) (A) (A) (A) (A) (A)
                 (A) (A) (A) (A) (A) (A) (A) (A) (A) (A) (A) (A)
                 (A) (A) (A) (A) (A) (A) (A) (A) (A) (A) (A) (A)
                 (A) (A) (A) (A) (A) (A) (A) (A) (A) (A) (A) (A)
                 (A) (A) (A) (A) (A) (A) (A) (A) (A) (A) (A) (A)
                 (A) (A) (A) (A) (A) (A) (A) (A) (A) (A) (A) (A)
                 (A) (A) (A) (A) (A) (A) (A) (A) (A) (A) (A) (A)
                 (A) (A) (A) (A) (A) (A) (A) (A) (A) (A) (A) (A)
                 (A) (A) (A) (A) (A) (A) (A) (A) (A) (A) (A) (A)
                 (A) (A) (A) (A) (A) (A) (A) (A) (A) (A) (A) (A)
                 (A) (A) (A) (A) (A) (A) (A) (A) (A) (A) (A) (A)
                 (A) (A) (A) (A) (A) (A) (A) (A) (A) (A) (A) (A)
                 (A) (A) (A) (A) (A) (A) (A) (A) (A) (A) (A) (A)
                 (A) (A) (A) (A) (A) (A) (A) (A) (A) (A) (A) (A)
                 (A) (A) (A) (A) (A) (A) (A) (A) (A) (A) (A) (A)
                 (A) (A) (A) (A) (A) (A) (A) (A) (A) (A) (A) (A)
                 (A) (A) (A) (A) (A) (A) (A) (A) (A) (A) (A) (A)
                 (A) (A) (A) (A) (A) (A) (A) (A) (A) (A) (A) (A)
                 (A) (A) (A) (A) (A) (A) (A) (A) (A) (A) (A) (A)
                 (A) (A) (A) (A) (A) (A) (A) (A) (A) (A) (A) (A)
                 (A) (A) (A) (A) (A) (A) (A) (A) (A) (A) (A) (A)
                 (A) (A) (A) (A) (A) (A) (A) (A) (A) (A) (A) (A)
                 (A) (A) (A) (A) (A) (A) (A) (A) (A) (A) (A) (A)
                 (A) (A) (A) (A) (A) (A) (A) (A) (A) (A) (A) (A)
                 (A) (A) (A) (A) (A) (A) (A) (A) (A) (A) (A) (A)
                 (A) (A) (A) (A) (A) (A) (A) (A) (A) (A) (A) (A)
                 (A) (A) (A) (A) (A) (A) (A) (A) (A) (A) (A) (A)
                 (A) (A) (A) (A) (A) (A) (A) (A) (A) (A) (A) (A)
                 (A) (A) (A) (A) (A) (A) (A) (A) (A) (A) (A) (A)
                 (A) (A) (A) (A) (A) (A) (A) (A) (A) (A) (A) (A)
                 (A) (A) (A) (A) (A) (A) (A) (A) (A) (A) (A) (A)
                 (A) (A) (A) (A) (A) (A) (A) (A) (A) (A) (A) (A)
                 (A) (A) (A) (A) (A) (A) (A) (A) (A) (A) (A) (A)
                 (A) (A) (A) (A) (A) (A) (A) (A) (A) (A) (A) (A)
                 (A) (A) (A) (A) (A) (A) (A) (A) (A) (A) (A) (A)
                 (A) (A) (A) (A) (A) (A) (A) (A) (A) (A) (A) (A)
                 (A) (A) (A) (A) (A) (A) (A) (A) (A) (A) (A) (A)
                 (A) (A) (A) (A) (A) (A) (A) (A) (A) (A) (A) (A)
                 (A) (A) (A) (A) (A) (A) (A) (A) (A) (A) (A) (A)
                 (A) (A) (A) (A) (A) (A) (A) (A) (A) (A) (A) (A)
                 (A) (A) (A) (A) (A) (A) (A) (A) (A) (A) (A) (A)
                 (A) (A) (A) (A) (A) (A) (A) (A) (A) (A) (A) (A)
                 (A) (A) (A) (A) (A) (A) (A) (A) (A) (A) (A) (A)
                 (A) (A) (A) (A) (A) (A) (A) (A) (A) (A) (A) (A)
                 (A) (A) (A) (A) (A) (A) (A) (A) (A) (A) (A) (A)
                 (A) (A) (A) (A) (A) (A) (A) (A) (A) (A) (A) (A)
                 (A) (A) (A) (A) (A) (A) (A) (A) (A) (A) (A) (A)
                 (A) (A) (A) (A) (A) (A) (A) (A) (A) (A) (A) (A)
                 (A) (A) (A) (A) (A) (A) (A) (A) (A) (A) (A) (A)
                 (A) (A) (A) (A) (A) (A) (A) (A) (A) (A) (A) (A)
                 (A) (A) (A) (A) (A) (A) (A) (A) (A) (A) (A) (A)
                 (A) (A) (A) (A) (A) (A) (A) (A) (A) (A) (A) (A)
                 (A) (A) (A) (A) (A) (A) (A) (A) (A) (A) (A) (A)
                 (A) (A) (A) (A) (A) (A) (A) (A) (A) (A) (A) (A)
                 (A) (A) (A) (A) (A) (A) (A) (A) (A) (A) (A) (A)
                 (A) (A) (A) (A) (A) (A) (A) (A) (A) (A) (A) (A)
                 (A) (A) (A) (A) (A) (A) (A) (A) (A) (A) (A) (A)
                 (A) (A) (A) (A) (A) (A) (A) (A) (A) (A) (A) (A)
                 (A) (A) (A) (A) (A) (A) (A) (A) (A) (A) (A) (A)
                 (A) (A) (A) (A) (A) (A) (A) (A) (A) (A) (A) (A)
                 (A) (A) (A) (A) (A) (A) (A) (A) (A) (A) (A) (A)
                 (A) (A) (A) (A) (A) (A) (A) (A) (A) (A) (A) (A)
                 (A) (A) (A) (A) (A) (A) (A) (A) (A) (A) (A) (A)
                 (A) (A) (A) (A) (A) (A) (A) (A) (A) (A) (A) (A)
                 (A) (A) (A) (A) (A) (A) (A) (A) (A) (A) (A) (A)
                 (A) (A) (A) (A) (A) (A) (A) (A) (A) (A) (A) (A)
                 (A) (A) (A) (A) (A) (A) (A) (A) (A) (A) (A) (A)
                 (A) (A) (A) (A) (A) (A) (A) (A) (A) (A) (A) (A)
                 (A) (A) (A) (A) (A) (A) (A) (A) (A) (A) (A) (A)
                 (A) (A) (A) (A) (A) (A) (A) (A) (A) (A) (A) (A)
                 (A) (A) (A) (A) (A) (A) (A) (A) (A) (A) (A) (A)
                 (A) (A) (A) (A) (A) (A) (A) (A) (A) (A) (A) (A)
                 (A) (A) (A) (A) (A) (A) (A) (A) (A) (A) (A) (A)
                 (A) (A) (A) (A) (A) (A) (A) (A) (A) (A) (A) (A)
                 (A) (A) (A) (A) (A) (A) (A) (A) (A) (A) (A) (A)
                 (A) (A) (A) (A) (A) (A) (A) (A) (A) (A) (A) (A)
                 (A) (A) (A) (A) (A) (A) (A) (A) (A) (A) (A) (A)
                 (A) (A) (A) (A) (A) (A) (A) (A) (A) (A) (A) (A)
                 (A) (A) (A) (A) (A) (A) (A) (A) (A) (A) (A) (A)
                 (A) (A) (A) (A) (A) (A) (A) (A) (A) (A) (A) (A)
                 (A) (A) (A) (A) (A) (A) (A) (A) (A) (A) (A) (A)
                 (A) (A) (A) (A) (A) (A) (A) (A) (A) (A) (A) (A)
                 (A) (A) (A) (A) (A) (A) (A) (A) (A) (A) (A) (A)
                 (A) (A) (A) (A) (A) (A) (A) (A) (A) (A) (A) (A)
                 (A) (A) (A) (A) (A) (A) (A) (A) (A) (A) (A) (A)
                 (A) (A) (A) (A) (A) (A) (A) (A) (A) (A) (A) (A)
                 (A) (A) (A) (A) (A) (A) (A) (A) (A) (A) (A) (A)
                 (A) (A) (A) (A) (A) (A) (A) (A) (A) (A) (A) (A)
                 (A) (A) (A) (A) (A) (A) (A) (A) (A) (A) (A) (A)
                 (A) (A) (A) (A) (A) (A) (A) (A) (A) (A) (A) (A)
                 (A) (A) (A) (A) (A) (A) (A) (A) (A) (A) (A) (A)
                 (A) (A) (A) (A) (A) (A) (A) (A) (A) (A) (A) (A)
                 (A) (A) (A) (A) (A) (A) (A) (A) (A) (A) (A) (A)
                 (A) (A) (A) (A) (A) (A) (A) (A) (A) (A) (A) (A)
                 (A) (A) (A) (A) (A) (A) (A) (A) (A) (A) (A) (A)
                 (A) (A) (A) (A) (A) (A) (A) (A) (A) (A) (A) (A)
                 (A) (A) (A) (A) (A) (A) (A) (A) (A) (A) (A) (A)
                 (A) (A) (A) (A) (A) (A) (A) (A) (A) (A) (A) (A)
                 (A) (A) (A) (A) (A) (A) (A) (A) (A) (A) (A) (A)
                 (A) (A) (A) (A) (A) (A) (A) (A) (A) (A) (A) (A)
                 (A) (A) (A) (A) (A) (A) (A) (A) (A) (A) (A) (A)
                 (A) (A) (A) (A) (A) (A) (A) (A) (A) (A) (A) (A)
                 (A) (A) (A) (A) (A) (A) (A) (A) (A) (A) (A) (A)
                 (A) (A) (A) (A) (A) (A) (A) (A) (A) (A) (A) (A)
                 (A) (A) (A) (A) (A) (A) (A) (A) (A) (A) (A) (A)
                 (A) (A) (A) (A) (A) (A) (A) (A) (A) (A) (A) (A)
                 (A) (A) (A) (A) (A) (A) (A) (A) (A) (A) (A) (A)
                 (A) (A) (A) (A) (A) (A) (A) (A) (A) (A) (A) (A)
                 (A) (A) (A) (A) (A) (A) (A) (A) (A) (A) (A) (A)
                 (A) (A) (A) (A) (A) (A) (A) (A) (A) (A) (A) (A)
                 (A) (A) (A) (A) (A) (A) (A) (A) (A) (A) (A) (A)
                 (A) (A) (A) (A) (A) (A) (A) (A) (A) (A) (A) (A)
                 (A) (A) (A) (A) (A) (A) (A) (A) (A) (A) (A) (A)
                 (A) (A) (A) (A) (A) (A) (A) (A) (A) (A) (A) (A)
                 (A) (A) (A) (A) (A) (A) (A) (A) (A) (A) (A) (A)
                 (A) (A) (A) (A) (A) (A) (A) (A) (A) (A) (A) (A)
                 (A) (A) (A) (A) (A) (A) (A) (A) (A) (A) (A) (A)
                 (A) (A) (A) (A) (A) (A) (A) (A) (A) (A) (A) (A)
                 (A) (A) (A) (A) (A) (A) (A) (A) (A) (A) (A) (A)
                 (A) (A) (A) (A) (A) (A) (A) (A) (A) (A) (A) (A)
                 (A) (A) (A) (A) (A) (A) (A) (A) (A) (A) (A) (A)
                 (A) (A) (A) (A) (A) (A) (A) (A) (A) (A) (A) (A)
                 (A) (A) (A) (A) (A) (A) (A) (A) (A) (A) (A) (A)
                 (A) (A) (A) (A) (A) (A) (A) (A) (A) (A) (A) (A)
                 (A) (A) (A) (A) (A) (A) (A) (A) (A) (A) (A) (A)
                 (A) (A) (A) (A)
 The electronic state is 1-A.
 Alpha  occ. eigenvalues --  -77.22352 -77.19798 -24.81580 -24.81511 -24.81461
 Alpha  occ. eigenvalues --  -24.81423 -24.81371 -24.81333 -24.81324 -24.81270
 Alpha  occ. eigenvalues --  -24.81159 -24.81035 -24.80976 -24.80746 -19.22560
 Alpha  occ. eigenvalues --  -19.22280 -10.49109 -10.49084 -10.48875 -10.48741
 Alpha  occ. eigenvalues --  -10.28621 -10.28538 -10.28089 -10.27845 -10.27766
 Alpha  occ. eigenvalues --  -10.27719 -10.27696 -10.27684 -10.27671 -10.27532
 Alpha  occ. eigenvalues --  -10.27427 -10.27399 -10.26991 -10.26890 -10.26779
 Alpha  occ. eigenvalues --  -10.26750 -10.26715 -10.25720 -10.25690 -10.25403
 Alpha  occ. eigenvalues --  -10.24884 -10.24737 -10.24695 -10.24659 -10.24620
 Alpha  occ. eigenvalues --  -10.24607 -10.24583 -10.24445 -10.24433 -10.24042
 Alpha  occ. eigenvalues --  -10.24006 -10.23908 -10.23827 -10.23827 -10.23772
 Alpha  occ. eigenvalues --  -10.23770 -10.23751 -10.23712 -10.23671 -10.23300
[...]
  2245. RY*(  21) O 109                  0.00000     5.39877   
  2246. RY*(  22) O 109                  0.00000     5.06693   
  2247. RY*(  23) O 109                  0.00000     5.44917   
  2248. RY*(  24) O 109                  0.00000     5.34752   
  2249. RY*(  25) O 109                  0.00000     5.67064   
  2250. RY*(  26) O 109                  0.00000     5.63838   
  2251. RY*(   1) C 110                  0.00265     1.49071   
  2252. RY*(   2) C 110                  0.00222     1.54479   
  2253. RY*(   3) C 110                  0.00153     1.09870   
  2254. RY*(   4) C 110                  0.00024     1.11741   
  2255. RY*(   5) C 110                  0.00016     1.60170   
  2256. RY*(   6) C 110                  0.00012     1.02106   
  2257. RY*(   7) C 110                  0.00007     1.37358   
  2258. RY*(   8) C 110                  0.00005     1.82399   
  2259. RY*(   9) C 110                  0.00001     3.03913   
  2260. RY*(  10) C 110                  0.00001     1.59107   
  2261. RY*(  11) C 110                  0.00000     2.94817   
  2262. RY*(  12) C 110                  0.00001     2.66930   
  2263. RY*(  13) C 110                  0.00001     2.82103   
  2264. RY*(  14) C 110                  0.00001     2.37858   
  2265. RY*(  15) C 110                  0.00000     2.73354   
  2266. RY*(  16) C 110                  0.00000    20.39014   
  2267. RY*(  17) C 110                  0.00000     2.58179   
  2268. RY*(  18) C 110                  0.00001     2.44438   
  2269. RY*(  19) C 110                  0.00000     2.69676   
  2270. RY*(  20) C 110                  0.00000     3.36960   
  2271. RY*(  21) C 110                  0.00000     3.37062   
  2272. RY*(  22) C 110                  0.00000     3.44347   
  2273. RY*(  23) C 110                  0.00000     3.23532   
  2274. RY*(  24) C 110                  0.00000     3.34692   
  2275. RY*(  25) C 110                  0.00000     3.37892   
  2276. RY*(  26) C 110                  0.00000     3.45383   
  2277. RY*(   1) H 111                  0.00048     1.17629   
  2278. RY*(   2) H 111                  0.00015     1.98332   
  2279. RY*(   3) H 111                  0.00011     1.66020   
  2280. RY*(   4) H 111                  0.00007     1.90349   
  2281. RY*(   5) H 111                  0.00002     2.69885   
  2282. RY*(   1) H 112                  0.00090     1.10348   
  2283. RY*(   2) H 112                  0.00020     1.95390   
  2284. RY*(   3) H 112                  0.00011     2.18389   
  2285. RY*(   4) H 112                  0.00004     1.81702   
  2286. RY*(   5) H 112                  0.00002     2.86194   
  2287. RY*(   1) H 113                  0.00120     0.75233   
  2288. RY*(   2) H 113                  0.00020     2.03583   
  2289. RY*(   3) H 113                  0.00011     2.19931   
  2290. RY*(   4) H 113                  0.00009     1.88479   
  2291. RY*(   5) H 113                  0.00001     2.83726   
  2304. BD*(   1) C  12 - C  13          0.03277     0.42863   
  2305. BD*(   2) C  12 - C  13          0.44005     0.03705  2311(v),227(v),2304(g)
                                                    222(r),2377(r),225(r),224(r)
                                                    2299(r),458(g),2307(g)
                                                    2309(g),456(g),485(g)
                                                    2308(g),426(r),223(r),217(r)
                                                    442(r),226(r)
  2306. BD*(   1) C  12 - C  16          0.02869     0.44507   
  2307. BD*(   1) C  12 - H  17          0.01454     0.39716   
  2308. BD*(   1) C  13 - C  14          0.02457     0.44562   
  2309. BD*(   1) C  13 - H  69          0.01432     0.40389   
  2310. BD*(   1) C  14 - C  15          0.05548     0.42810   
  2311. BD*(   2) C  14 - C  15          0.48297     0.03467  2305(v),227(v),2310(g)
                                                    222(r),224(r),2316(v),221(r)
                                                    2390(v),2388(v),2317(v)
                                                    512(g),225(r),2293(r),539(g)
                                                    2312(g),2314(g),538(g)
                                                    223(r),2299(r),447(r),427(r)
                                                    435(r),429(r)
  2312. BD*(   1) C  14 - C  73          0.03253     0.43480   
  2313. BD*(   1) C  15 - C  16          0.04359     0.43361   
  2314. BD*(   1) C  15 - C  19          0.03043     0.37552   
  2315. BD*(   1) C  16 - H  18          0.01673     0.40220   
  2316. BD*(   1) C  19 - P  20          0.04628     0.15700   
  2317. BD*(   1) C  19 - H  21          0.02595     0.35125   
  2318. BD*(   1) C  19 - C  22          0.01139     0.32704   
  2319. BD*(   1) P  20 - C  29          0.04089     0.20101   
  2320. BD*(   1) P  20 - C  40          0.03768     0.19327   
  2321. BD*(   1) C  22 - H  23          0.00637     0.36781   
  2322. BD*(   1) C  22 - H  24          0.01040     0.36535   
  2323. BD*(   1) C  22 - H  25          0.01003     0.35448   
  2324. BD*(   1) C  26 - C  27          0.01941     0.49510   
  2325. BD*(   1) C  26 - C  31          0.01985     0.49259   
  2326. BD*(   2) C  26 - C  31          0.35177    -0.01200  2329(v),2334(v),2342(v)
                                                    697(g),2343(v),2341(v)
  2327. BD*(   1) C  26 - H  32          0.01214     0.37690   
  2328. BD*(   1) C  27 - C  28          0.02245     0.48861   
  2329. BD*(   2) C  27 - C  28          0.34976    -0.01008  2334(v),2326(v),2339(v)
                                                    2340(v),749(g)
  2330. BD*(   1) C  27 - C  33          0.06698     0.29603   
  2331. BD*(   1) C  28 - C  29          0.02406     0.49797   
  2332. BD*(   1) C  28 - H  34          0.01518     0.38109   
  2333. BD*(   1) C  29 - C  30          0.03307     0.49264   
  2334. BD*(   2) C  29 - C  30          0.34074    -0.00922  2329(v),2326(v),801(g)
                                                    2316(v),2320(v),776(g)
  2335. BD*(   1) C  30 - C  31          0.02525     0.49472   
  2336. BD*(   1) C  30 - H  35          0.01542     0.38051   
  2337. BD*(   1) C  31 - C  36          0.06675     0.29798   
  2338. BD*(   1) C  33 - F  54          0.09120     0.19658   
  2339. BD*(   1) C  33 - F  55          0.09795     0.20238   
  2340. BD*(   1) C  33 - F  56          0.09148     0.20068   
  2341. BD*(   1) C  36 - F  57          0.08989     0.20032   
  2342. BD*(   1) C  36 - F  58          0.09862     0.19821   
  2343. BD*(   1) C  36 - F  59          0.09234     0.19521   
  2344. BD*(   1) C  37 - C  38          0.01992     0.50387   
  2345. BD*(   1) C  37 - C  42          0.02057     0.50678   
  2346. BD*(   2) C  37 - C  42          0.36524    -0.00153  2349(v),2354(v),2361(v)
                                                    919(g),2362(v),2363(v)
  2347. BD*(   1) C  37 - H  43          0.01245     0.38647   
  2348. BD*(   1) C  38 - C  39          0.02357     0.50289   
  2349. BD*(   2) C  38 - C  39          0.36157    -0.00050  2354(v),2346(v),2358(v)
                                                    2360(v),2359(v),974(g)
  2350. BD*(   1) C  38 - C  44          0.06545     0.30642   
  2351. BD*(   1) C  39 - C  40          0.02563     0.51054   
  2352. BD*(   1) C  39 - H  45          0.01851     0.40221   
  2353. BD*(   1) C  40 - C  41          0.02186     0.49646   
  2354. BD*(   2) C  40 - C  41          0.35118    -0.00004  2349(v),2346(v),1023(g)
                                                    2319(v)
  2355. BD*(   1) C  41 - C  42          0.02330     0.51026   
  2356. BD*(   1) C  41 - H  46          0.01607     0.39451   
  2357. BD*(   1) C  42 - C  47          0.06599     0.30688   
  2358. BD*(   1) C  44 - F  51          0.10288     0.19095  2349(v),1085(g)
  2359. BD*(   1) C  44 - F  52          0.08810     0.20356   
  2360. BD*(   1) C  44 - F  53          0.09104     0.20344   
  2361. BD*(   1) C  47 - F  48          0.09694     0.20495   
  2362. BD*(   1) C  47 - F  49          0.09081     0.19982   
  2363. BD*(   1) C  47 - F  50          0.09311     0.19198   
  2364. BD*(   1) P  60 - C  64          0.05089     0.23793   
  2365. BD*(   1) P  60 - C  74          0.04118     0.22349   
  2366. BD*(   1) P  60 - C  83          0.03363     0.23906   
  2367. BD*(   1) C  61 - C  62          0.03833     0.52006   
  2368. BD*(   1) C  61 - C  66          0.04022     0.51685   
  2369. BD*(   2) C  61 - C  66          0.37359     0.03519  2377(v),2372(v),2412(v)
                                                    2414(v),2413(v)
  2370. BD*(   1) C  61 - O  96          0.02773     0.33998   
  2371. BD*(   1) C  62 - C  63          0.02204     0.55140   
  2372. BD*(   2) C  62 - C  63          0.34151     0.04213  2369(v),2377(v),2399(r)
                                                    2410(v),1535(g),2409(v)
  2373. BD*(   1) C  62 - C  88          0.01422     0.39295   
  2374. BD*(   1) C  63 - C  64          0.02804     0.54092   
  2375. BD*(   1) C  63 - H  67          0.01747     0.41916   
  2376. BD*(   1) C  64 - C  65          0.02125     0.54411   
  2377. BD*(   2) C  64 - C  65          0.38288     0.03318  2369(v),2372(v),2391(r)
                                                    1587(g),2305(r),2365(v)
                                                    2404(r),2399(r),1562(g)
                                                    2383(r),1535(v)
  2378. BD*(   1) C  65 - C  66          0.02085     0.54959   
  2379. BD*(   1) C  65 - H  68          0.01760     0.41647   
  2380. BD*(   1) C  66 - C  92          0.01388     0.38928   
  2381. BD*(   1) C  70 - C  71          0.01482     0.53588   
  2382. BD*(   1) C  70 - C  75          0.01880     0.54250   
  2383. BD*(   2) C  70 - C  75          0.31112     0.02803  2391(v),2386(v),2404(r)
                                                    1654(g),2377(r)
  2384. BD*(   1) C  70 - H  76          0.01445     0.40367   
  2385. BD*(   1) C  71 - C  72          0.01504     0.54350   
  2386. BD*(   2) C  71 - C  72          0.32662     0.02380  2391(v),2383(v),1680(g)
                                                    1706(g),2299(r)
  2387. BD*(   1) C  71 - H  77          0.01370     0.40312   
  2388. BD*(   1) C  72 - C  73          0.02806     0.51986   
  2389. BD*(   1) C  72 - H  78          0.01505     0.42503   
  2390. BD*(   1) C  73 - C  74          0.03619     0.50960   
  2391. BD*(   2) C  73 - C  74          0.38402     0.02497  2386(v),2383(v),2377(r)
                                                    2310(v),2308(v),2364(v)
                                                    1759(g),1731(g),2366(v)
                                                    2404(r),1706(v)
  2392. BD*(   1) C  74 - C  75          0.02832     0.51818   
  2393. BD*(   1) C  75 - H  79          0.01725     0.41388   
  2394. BD*(   1) C  80 - C  81          0.04055     0.51497   
  2395. BD*(   1) C  80 - C  85          0.03897     0.52310   
  2396. BD*(   2) C  80 - C  85          0.36910     0.03774  2399(v),2404(v),2421(v)
                                                    2422(v),2424(v)
  2397. BD*(   1) C  80 - O 109          0.02747     0.35115   
  2398. BD*(   1) C  81 - C  82          0.02091     0.54500   
  2399. BD*(   2) C  81 - C  82          0.34116     0.03797  2396(v),2404(v),2372(r)
                                                    2418(v),1882(g),2377(r)
  2400. BD*(   1) C  81 - C 101          0.01376     0.39091   
  2401. BD*(   1) C  82 - C  83          0.02006     0.52956   
  2402. BD*(   1) C  82 - H  86          0.01700     0.40128   
  2403. BD*(   1) C  83 - C  84          0.02822     0.54151   
  2404. BD*(   2) C  83 - C  84          0.39747     0.03022  2396(v),2399(v),1933(g)
                                                    2383(r),2364(v),2377(r)
                                                    1909(g),1882(v),2391(r)
  2405. BD*(   1) C  84 - C  85          0.02259     0.54721   
  2406. BD*(   1) C  84 - H  87          0.01911     0.42812   
  2407. BD*(   1) C  85 - C 105          0.01421     0.39298   
  2408. BD*(   1) C  88 - H  89          0.00517     0.37837   
  2409. BD*(   1) C  88 - H  90          0.00885     0.37503   
  2410. BD*(   1) C  88 - H  91          0.01021     0.36535   
  2411. BD*(   1) C  92 - H  93          0.00677     0.37140   
  2412. BD*(   1) C  92 - H  94          0.01149     0.35665   
  2413. BD*(   1) C  92 - H  95          0.00732     0.37495   
  2414. BD*(   1) O  96 - C  97          0.01029     0.27662   
  2415. BD*(   1) C  97 - H  98          0.02274     0.34247   
  2416. BD*(   1) C  97 - H  99          0.02183     0.34098   
  2417. BD*(   1) C  97 - H 100          0.01108     0.35298   
  2418. BD*(   1) C 101 - H 102          0.01119     0.36115   
  2419. BD*(   1) C 101 - H 103          0.00751     0.37573   
  2420. BD*(   1) C 101 - H 104          0.00651     0.37547   
  2421. BD*(   1) C 105 - H 106          0.01055     0.37613   
  2422. BD*(   1) C 105 - H 107          0.00979     0.37605   
  2423. BD*(   1) C 105 - H 108          0.00547     0.37998   
  2424. BD*(   1) O 109 - C 110          0.01100     0.28225   
  2425. BD*(   1) C 110 - H 111          0.01079     0.35790   
  2426. BD*(   1) C 110 - H 112          0.02175     0.35776   
  2427. BD*(   1) C 110 - H 113          0.02118     0.34926   
       -------------------------------
              Total Lewis  464.37731  ( 97.7915%)
        Valence non-Lewis    9.59498  (  2.0206%)
        Rydberg non-Lewis    0.89248  (  0.1879%)
       -------------------------------
            Total unit  3  474.86477  (100.0000%)
           Charge unit  3    0.13523
 1\1\GINC-NOTCH077\SP\RPBE1PBE\Gen\C52H44F12Fe1O2P2\U6034117\04-Mar-202
 2\0\\# PBE1PBE gen pseudo=read int=(grid=ultrafine) empiricaldispersio
 n=GD3BJ pop=nbo guess=read geom=check\\W005_1_4 title\\0,1\C,0,3.03978
 06235,-1.4852290716,5.9056229138\C,0,4.3935632884,-1.0993840297,6.1905
 367149\C,0,5.255689803,-2.1787664681,5.796417567\C,0,4.4361247238,-3.2
 337120717,5.2714959132\C,0,3.0644799613,-2.8045828773,5.3347043364\H,0
 ,4.7143063664,-0.1325527473,6.5799663908\H,0,6.3453963822,-2.176707666
 7,5.8391272125\H,0,4.8028207058,-4.1767727902,4.8649472925\H,0,2.19300
 08892,-3.3701623553,5.0011148345\H,0,2.1534074185,-0.8717099255,6.0695
 28269\Fe,0,4.1691729349,-1.499458217,4.1950356979\C,0,5.2722856268,-0.
 0687368792,3.2373046069\C,0,5.4353134944,-1.3402958087,2.5973246863\C,
 0,4.1387357033,-1.7970778977,2.1575238539\C,0,3.1653908155,-0.80214329
 69,2.5645183817\C,0,3.882580043,0.2655467795,3.2124388741\H,0,6.059684
 345,0.5194851805,3.708742607\H,0,3.4390584164,1.1662697758,3.630716209
 9\C,0,1.7044930494,-0.7985693404,2.2001274431\P,0,1.6645253403,-0.3176
 483361,0.3531320051\H,0,1.3014731982,-1.8251725803,2.2679042869\C,0,0.
 8815833162,0.1544255169,3.0793391261\H,0,-0.2004848266,0.0396573815,2.
 9212569958\H,0,1.1015128995,-0.0690834508,4.1364706796\H,0,1.151902471
 4,1.2040944541,2.8795333799\C,0,-1.8984523367,2.541103679,-0.592652871
 6\C,0,-0.6078279948,2.8575717241,-1.0320910165\C,0,0.4829629467,2.0348
 380909,-0.7107524247\C,0,0.2813846996,0.8755418148,0.0553440753\C,0,-1
 .0210948884,0.5354472689,0.4636121823\C,0,-2.1001684687,1.3734679327,0
 .1555374525\H,0,-2.7415947227,3.1897719779,-0.8415076957\C,0,-0.363363
 1461,4.1252838289,-1.8181481639\H,0,1.4879856728,2.2963154256,-1.04889
 39049\H,0,-1.2118286013,-0.3942685408,1.0070453095\C,0,-3.4939037732,0
 .9610279808,0.5600490213\C,0,-0.44834629,-3.6804141961,-2.129110813\C,
 0,0.215933694,-4.0343724273,-0.9484181644\C,0,0.8732968428,-3.06876287
 75,-0.1671595412\C,0,0.8882808947,-1.7255606204,-0.5804705443\C,0,0.27
 1793266,-1.3867856643,-1.8019194013\C,0,-0.4051718397,-2.3488846784,-2
 .5560489423\H,0,-0.9739348162,-4.4365694431,-2.7169018751\C,0,0.294104
 4179,-5.4959142479,-0.5875309167\H,0,1.3758832255,-3.384660141,0.75002
 41861\H,0,0.3007844287,-0.3572690011,-2.1666658914\C,0,-1.1556729975,-
 1.9085806904,-3.7880730025\F,0,-2.4009187864,-1.4639038437,-3.47698383
 94\F,0,-0.5127129437,-0.8942188854,-4.4276880932\F,0,-1.3104005772,-2.
 9291170058,-4.6849500263\F,0,1.2832919267,-6.1139533145,-1.3088636217\
 F,0,0.5682180367,-5.6947519234,0.7269121992\F,0,-0.8626151933,-6.14924
 11103,-0.8743580582\F,0,-1.4924888096,4.5402578062,-2.458407717\F,0,0.
 0380333696,5.1383705921,-1.0082262481\F,0,0.6023780048,3.9456260544,-2
 .7567299145\F,0,-4.3154687312,2.0324599945,0.7077559391\F,0,-4.0578807
 887,0.1434343514,-0.3725101547\F,0,-3.4864138761,0.2750117206,1.737800
 4581\P,0,4.5040622653,-1.6024410904,-1.0800633062\C,0,9.034639055,-2.2
 540018034,-1.7026010313\C,0,8.14121138,-2.7458963015,-2.6774428997\C,0
 ,6.7697234826,-2.4982220355,-2.5081823642\C,0,6.3032102604,-1.77790839
 09,-1.3950911969\C,0,7.2155547513,-1.2774842538,-0.452166647\C,0,8.592
 4707176,-1.5052108276,-0.5893386382\H,0,6.0666516935,-2.8601495308,-3.
 2659094438\H,0,6.8535708536,-0.6561644372,0.3719605181\H,0,6.363678928
 2,-1.9002989071,2.4817903625\C,0,4.0254675652,-5.5435855988,0.04422591
 01\C,0,3.6206072714,-5.4758042161,1.382278235\C,0,3.6111226722,-4.2391
 164273,2.0363468836\C,0,3.939172243,-3.040884813,1.3691454443\C,0,4.20
 95951292,-3.1003900011,-0.0264497986\C,0,4.3238639947,-4.3637443242,-0
 .645146209\H,0,4.0971174541,-6.5067209965,-0.4695533956\H,0,3.34886582
 83,-6.3854593248,1.9267355584\H,0,3.3775853546,-4.1748187054,3.1001730
 032\H,0,4.6559587322,-4.4251359296,-1.6847621411\C,0,2.7932877734,-2.2
 151509262,-5.3415051805\C,0,3.5366055942,-1.0587880212,-5.0051795326\C
 ,0,3.9979482865,-0.9258731605,-3.6865282724\C,0,3.7309692736,-1.914958
 9251,-2.7163940722\C,0,2.9602162112,-3.0352815275,-3.071072594\C,0,2.4
 959173482,-3.2086973237,-4.3850139746\H,0,4.5942994515,-0.0461947631,-
 3.4107557981\H,0,2.7065791961,-3.7997538468,-2.3334656973\C,0,8.665041
 953,-3.4940692141,-3.8788422579\H,0,7.8529635143,-3.7074124145,-4.5925
 657412\H,0,9.4458480188,-2.913012522,-4.3975880799\H,0,9.1266441815,-4
 .4568063206,-3.593048005\C,0,9.5739654877,-0.9178201719,0.3951743694\H
 ,0,9.1800036961,0.020121419,0.8194747103\H,0,9.7740189038,-1.604938474
 3,1.2393916497\H,0,10.5384159411,-0.7074330478,-0.0942824325\O,0,10.39
 33593535,-2.4552750335,-1.9086608064\C,0,10.9277705757,-3.5428475399,-
 1.1458039376\H,0,10.8398420907,-3.3637965538,-0.0572077878\H,0,10.4186
 480242,-4.4950280334,-1.3914960027\H,0,11.9922787252,-3.6171790562,-1.
 4163158198\C,0,3.8684523169,-0.0175696533,-6.0456409972\H,0,3.06702248
 57,0.7394359672,-6.1336485845\H,0,3.9943371196,-0.4819132128,-7.037236
 6125\H,0,4.7927615114,0.5198421991,-5.7800552133\C,0,1.7363171702,-4.4
 523139398,-4.7794518186\H,0,0.7221311415,-4.2147287418,-5.1408537851\H
 ,0,2.248833075,-4.9837814069,-5.5993859742\H,0,1.6396185287,-5.1371558
 159,-3.9208672359\O,0,2.4212652989,-2.444187204,-6.6560619018\C,0,1.23
 5587507,-1.750264873,-7.0736008262\H,0,1.1182610075,-1.9692642442,-8.1
 457169671\H,0,0.3474983154,-2.1057556795,-6.5231662568\H,0,1.328406310
 9,-0.6578826551,-6.931231304\\Version=ES64L-G16RevB.01\State=1-A\HF=-4
 160.768679\RMSD=1.157e-09\Dipole=1.2626663,-0.3264197,1.263729\Quadrup
 ole=-2.7824669,-2.9468416,5.7293085,-4.097309,7.5241935,4.9723769\PG=C
 01 [X(C52H44F12Fe1O2P2)]\\@


 "ANNA, YOU MUSN'T SPEAK OF OXIDIZED MURIATIC ACID
 ANYMORE, FROM NOW ON YOU MUST SAY CHLORINE."
   -- JENS JACOB BERZELIUS, IN 1820, TO HIS COOK, WHO HAD
 COMPLAINED OF THE SMELL OF THE FLASK SHE WAS CLEANING.
 Job cpu time:       0 days  3 hours 57 minutes 25.4 seconds.
 Elapsed time:       0 days  0 hours  7 minutes 27.6 seconds.
 File lengths (MBytes):  RWF=   2999 Int=      0 D2E=      0 Chk=    451 Scr=      1
 Normal termination of Gaussian 16 at Fri Mar  4 05:23:33 2022.
