 Entering Gaussian System, Link 0=/uufs/chpc.utah.edu/sys/installdir/gaussian16/B01/E6B/g16/g16
 Input=W005_1_5_SPE.com
 Output=W005_1_5_SPE.log
 Initial command:
 /uufs/chpc.utah.edu/sys/installdir/gaussian16/B01/E6B/g16/l1.exe "/scratch/general/lustre/u6034117/4108808/notchpeak.peaks/Gau-99819.inp" -scrdir="/scratch/general/lustre/u6034117/4108808/notchpeak.peaks/"
 Entering Link 1 = /uufs/chpc.utah.edu/sys/installdir/gaussian16/B01/E6B/g16/l1.exe PID=     99821.
  
 Copyright (c) 1988-2017, Gaussian, Inc.  All Rights Reserved.
  
 This is part of the Gaussian(R) 16 program.  It is based on
 the Gaussian(R) 09 system (copyright 2009, Gaussian, Inc.),
 the Gaussian(R) 03 system (copyright 2003, Gaussian, Inc.),
 the Gaussian(R) 98 system (copyright 1998, Gaussian, Inc.),
 the Gaussian(R) 94 system (copyright 1995, Gaussian, Inc.),
 the Gaussian 92(TM) system (copyright 1992, Gaussian, Inc.),
 the Gaussian 90(TM) system (copyright 1990, Gaussian, Inc.),
 the Gaussian 88(TM) system (copyright 1988, Gaussian, Inc.),
 the Gaussian 86(TM) system (copyright 1986, Carnegie Mellon
 University), and the Gaussian 82(TM) system (copyright 1983,
 Carnegie Mellon University). Gaussian is a federally registered
 trademark of Gaussian, Inc.
  
 This software contains proprietary and confidential information,
 including trade secrets, belonging to Gaussian, Inc.
  
 This software is provided under written license and may be
 used, copied, transmitted, or stored only in accord with that
 written license.
  
 The following legend is applicable only to US Government
 contracts under FAR:
  
                    RESTRICTED RIGHTS LEGEND
  
 Use, reproduction and disclosure by the US Government is
 subject to restrictions as set forth in subparagraphs (a)
 and (c) of the Commercial Computer Software - Restricted
 Rights clause in FAR 52.227-19.
  
 Gaussian, Inc.
 340 Quinnipiac St., Bldg. 40, Wallingford CT 06492
  
  
 ---------------------------------------------------------------
 Warning -- This program may not be used in any manner that
 competes with the business of Gaussian, Inc. or will provide
 assistance to any competitor of Gaussian, Inc.  The licensee
 of this program is prohibited from giving any competitor of
 Gaussian, Inc. access to this program.  By using this program,
 the user acknowledges that Gaussian, Inc. is engaged in the
 business of creating and licensing software in the field of
 computational chemistry and represents and warrants to the
 licensee that it is not a competitor of Gaussian, Inc. and that
 it will not use this program in any manner prohibited above.
 ---------------------------------------------------------------
  

 Cite this work as:
 Gaussian 16, Revision B.01,
 M. J. Frisch, G. W. Trucks, H. B. Schlegel, G. E. Scuseria, 
 M. A. Robb, J. R. Cheeseman, G. Scalmani, V. Barone, 
 G. A. Petersson, H. Nakatsuji, X. Li, M. Caricato, A. V. Marenich, 
 J. Bloino, B. G. Janesko, R. Gomperts, B. Mennucci, H. P. Hratchian, 
 J. V. Ortiz, A. F. Izmaylov, J. L. Sonnenberg, D. Williams-Young, 
 F. Ding, F. Lipparini, F. Egidi, J. Goings, B. Peng, A. Petrone, 
 T. Henderson, D. Ranasinghe, V. G. Zakrzewski, J. Gao, N. Rega, 
 G. Zheng, W. Liang, M. Hada, M. Ehara, K. Toyota, R. Fukuda, 
 J. Hasegawa, M. Ishida, T. Nakajima, Y. Honda, O. Kitao, H. Nakai, 
 T. Vreven, K. Throssell, J. A. Montgomery, Jr., J. E. Peralta, 
 F. Ogliaro, M. J. Bearpark, J. J. Heyd, E. N. Brothers, K. N. Kudin, 
 V. N. Staroverov, T. A. Keith, R. Kobayashi, J. Normand, 
 K. Raghavachari, A. P. Rendell, J. C. Burant, S. S. Iyengar, 
 J. Tomasi, M. Cossi, J. M. Millam, M. Klene, C. Adamo, R. Cammi, 
 J. W. Ochterski, R. L. Martin, K. Morokuma, O. Farkas, 
 J. B. Foresman, and D. J. Fox, Gaussian, Inc., Wallingford CT, 2016.
 
 ******************************************
 Gaussian 16:  ES64L-G16RevB.01 20-Dec-2017
                 4-Mar-2022 
 ******************************************
 %NProcShared=32
 Will use up to   32 processors via shared memory.
 %mem=18GB
 %chk=W005_1_5_SPE.chk
 ----------------------------------------------------------------------
 # PBE1PBE gen pseudo=read int=(grid=ultrafine) empiricaldispersion=GD3
 BJ nmr=giao
 ----------------------------------------------------------------------
 1/38=1,172=1/1;
 2/12=2,17=6,18=5,40=1/2;
 3/5=7,11=2,16=1,17=8,25=1,30=1,74=-13,75=-5,124=41/1,2,3,8;
 4//1;
 5/5=2,38=5/2;
 8/6=1,10=90,11=11/1;
 10/13=100,45=16/2;
 6/7=2,8=2,9=2,10=2,28=1/1;
 99/9=1/99;
 --------------
 W005_1_5 title
 --------------
 Symbolic Z-matrix:
 Charge =  0 Multiplicity = 1
 C                     1.7757   -1.99335   5.24078 
 C                     2.50971  -0.91288   5.83573 
 C                     3.86754  -1.34507   6.01599 
 C                     3.97248  -2.69368   5.53295 
 C                     2.67877  -3.09435   5.04946 
 H                     2.1182    0.08045   6.05809 
 H                     4.68735  -0.73791   6.40138 
 H                     4.88597  -3.28958   5.51281 
 H                     2.4282   -4.05426   4.59617 
 H                     0.72313  -1.96752   4.96128 
 Fe                    3.34594  -1.42943   4.03873 
 C                     4.21547   0.21985   3.23009 
 C                     4.94174  -0.95678   2.85017 
 C                     4.04544  -1.8258    2.1303 
 C                     2.74742  -1.18994   2.08712 
 C                     2.8614    0.0753    2.77713 
 H                     4.60365   1.05075   3.81989 
 H                     2.05728   0.78177   2.97879 
 C                     1.59045  -1.71713   1.28019 
 P                     1.50466  -0.59298  -0.24088 
 H                     1.88388  -2.70633   0.88003 
 C                     0.27024  -1.84366   2.05264 
 H                    -0.58216  -2.08547   1.39662 
 H                     0.374    -2.6475    2.79925 
 H                     0.02796  -0.90962   2.58314 
 C                    -1.50886   2.48776   1.4911 
 C                    -1.98091   1.39568   0.75248 
 C                    -1.08352   0.48487   0.1732 
 C                     0.29915   0.68181   0.30783 
 C                     0.77562   1.8105    0.99412 
 C                    -0.12713   2.6862    1.6093 
 H                    -2.209     3.18482   1.95686 
 C                    -3.46333   1.13283   0.65192 
 H                    -1.47248  -0.36827  -0.39002 
 H                     1.8491    2.00846   1.03464 
 C                     0.43309   3.79669   2.46145 
 C                    -0.66169  -2.76355  -3.73287 
 C                    -0.66388  -3.35939  -2.46844 
 C                    -0.02689  -2.73415  -1.38268 
 C                     0.60481  -1.49521  -1.56302 
 C                     0.61356  -0.89338  -2.83899 
 C                    -0.01465  -1.53116  -3.91167 
 H                    -1.13327  -3.26615  -4.58063 
 C                    -1.37048  -4.67158  -2.23783 
 H                    -0.01996  -3.23693  -0.41194 
 H                     1.12896   0.06377  -2.98196 
 C                    -0.0266   -0.87781  -5.27505 
 F                    -1.19497  -0.21198  -5.48746 
 F                     0.98511   0.01473  -5.41617 
 F                     0.09291  -1.80372  -6.26645 
 F                    -2.56642  -4.49139  -1.61506 
 F                    -1.60978  -5.33762  -3.39738 
 F                    -0.63015  -5.4944   -1.43388 
 F                    -4.19104   2.2715    0.78911 
 F                    -3.791     0.56643  -0.54032 
 F                    -3.87428   0.27122   1.62761 
 F                    -0.51631   4.69044   2.83827 
 F                     0.97766   3.27522   3.60961 
 F                     1.42363   4.47108   1.83094 
 P                     4.61019  -1.85784  -1.08891 
 C                     9.21296  -1.74994  -1.43285 
 C                     8.4882   -2.436    -2.42963 
 C                     7.08595  -2.43972  -2.35015 
 C                     6.4287   -1.76934  -1.30802 
 C                     7.17216  -1.10456  -0.31931 
 C                     8.5723   -1.08584  -0.36273 
 H                     6.50912  -2.96043  -3.1218 
 H                     6.65305  -0.5673    0.48223 
 Cl                    5.43721   1.13926  -2.01988 
 Cl                    2.29267   2.11881  -1.76343 
 H                     5.98428  -1.18111   3.07904 
 C                     5.21143  -5.62364   0.44571 
 C                     5.01497  -5.48248   1.8255 
 C                     4.62393  -4.24547   2.34264 
 C                     4.40407  -3.12564   1.51225 
 C                     4.58689  -3.27589   0.11467 
 C                     5.01225  -4.5249   -0.39322 
 H                     5.53517  -6.57957   0.02206 
 H                     5.1768   -6.33026   2.49912 
 H                     4.48194  -4.11282   3.41611 
 H                     5.21351  -4.62945  -1.46272 
 C                     2.81081  -3.39364  -5.07484 
 C                     3.56579  -2.19847  -5.04912 
 C                     4.11885  -1.78999  -3.82531 
 C                     3.92168  -2.54374  -2.64889 
 C                     3.11248  -3.69353  -2.69561 
 C                     2.56602  -4.14639  -3.90716 
 H                     4.68684  -0.85254  -3.77629 
 H                     2.90526  -4.26504  -1.78568 
 Pd                    3.49313   0.17707  -1.05768 
 C                     9.21447  -3.1512   -3.54256 
 H                     8.52618  -3.80114  -4.10701 
 H                     9.66257  -2.43925  -4.25993 
 H                     10.04099  -3.76466  -3.14735 
 C                     9.37362  -0.37261   0.69817 
 H                     8.83047  -0.35752   1.6577 
 H                     10.35035  -0.86006   0.84765 
 H                     9.56471   0.68026   0.41862 
 O                     10.60079  -1.78452  -1.48737 
 C                     11.16708  -0.63249  -2.12721 
 H                     10.80149  -0.52834  -3.16652 
 H                     10.93291   0.29719  -1.57526 
 H                     12.25691  -0.78796  -2.13536 
 C                     3.73566  -1.36365  -6.29444 
 H                     2.82189  -1.39474  -6.90804 
 H                     4.57154  -1.72653  -6.92131 
 H                     3.95127  -0.31622  -6.03071 
 C                     1.74057  -5.40762  -3.9677 
 H                     0.85316  -5.27716  -4.60646 
 H                     2.32012  -6.24665  -4.39603 
 H                     1.40733  -5.71063  -2.96292 
 O                     2.21956  -3.8143   -6.25644 
 C                     3.10362  -4.55568  -7.1056 
 H                     2.51643  -4.83412  -7.99386 
 H                     3.97448  -3.94981  -7.41905 
 H                     3.46824  -5.47283  -6.60372 
 
 Stoichiometry    C52H44Cl2F12FeO2P2Pd
 Framework group  C1[X(C52H44Cl2F12FeO2P2Pd)]
 Deg. of freedom   342
 Full point group                 C1      NOp   1
 Largest Abelian subgroup         C1      NOp   1
 Largest concise Abelian subgroup C1      NOp   1
                         Standard orientation:                         
 ---------------------------------------------------------------------
 Center     Atomic      Atomic             Coordinates (Angstroms)
 Number     Number       Type             X           Y           Z
 ---------------------------------------------------------------------
      1          6           0        2.665792   -4.313696    3.084713
      2          6           0        2.647251   -5.427963    2.180167
      3          6           0        1.408714   -6.130825    2.367217
      4          6           0        0.661826   -5.451010    3.388537
      5          6           0        1.437787   -4.323834    3.830529
      6          1           0        3.413508   -5.664772    1.441108
      7          1           0        1.070714   -6.996385    1.796413
      8          1           0       -0.332645   -5.731533    3.738265
      9          1           0        1.141033   -3.590903    4.581814
     10          1           0        3.463887   -3.576934    3.167888
     11         26           0        1.055289   -4.192950    1.811811
     12          6           0        0.573325   -4.326167   -0.157973
     13          6           0       -0.603558   -4.074015    0.621540
     14          6           0       -0.421553   -2.826936    1.320414
     15          6           0        0.890192   -2.317267    0.987862
     16          6           0        1.501813   -3.257040    0.075347
     17          1           0        0.760876   -5.209542   -0.769059
     18          1           0        2.512090   -3.208715   -0.328873
     19          6           0        1.379685   -0.953122    1.396713
     20         15           0        1.252679    0.100470   -0.171265
     21          1           0        0.629383   -0.520188    2.085457
     22          6           0        2.762128   -0.937261    2.063218
     23          1           0        3.149879    0.084466    2.208682
     24          1           0        2.684126   -1.423689    3.048951
     25          1           0        3.500282   -1.491457    1.462768
     26          6           0        5.569242   -0.644951   -1.715193
     27          6           0        5.304420    0.466885   -0.906048
     28          6           0        3.996594    0.740811   -0.475912
     29          6           0        2.938152   -0.086419   -0.880977
     30          6           0        3.191595   -1.165071   -1.743668
     31          6           0        4.505738   -1.458241   -2.127537
     32          1           0        6.590256   -0.867046   -2.033356
     33          6           0        6.438250    1.329304   -0.408598
     34          1           0        3.812304    1.607498    0.165375
     35          1           0        2.360646   -1.764191   -2.122818
     36          6           0        4.745915   -2.712665   -2.928745
     37          6           0        0.986761    4.607900    0.929110
     38          6           0        1.272928    3.686310    1.940355
     39          6           0        1.369538    2.314366    1.650538
     40          6           0        1.191925    1.864736    0.334168
     41          6           0        0.897755    2.791448   -0.688119
     42          6           0        0.794382    4.151140   -0.383812
     43          1           0        0.884319    5.670134    1.163300
     44          6           0        1.508472    4.147249    3.356809
     45          1           0        1.566101    1.613563    2.466252
     46          1           0        0.735775    2.433964   -1.711921
     47          6           0        0.501816    5.149131   -1.481189
     48          9           0        1.647592    5.731729   -1.929866
     49          9           0       -0.105274    4.566320   -2.545079
     50          9           0       -0.308036    6.148966   -1.035155
     51          9           0        2.833496    4.155796    3.664753
     52          9           0        1.029750    5.399435    3.576539
     53          9           0        0.903197    3.310170    4.253690
     54          9           0        7.508738    1.291486   -1.243805
     55          9           0        6.056879    2.627746   -0.273661
     56          9           0        6.868252    0.911820    0.817787
     57          9           0        6.013417   -2.786819   -3.408387
     58          9           0        4.546388   -3.817689   -2.137621
     59          9           0        3.890604   -2.820576   -3.972921
     60         15           0       -2.166377   -0.378759    0.037737
     61          6           0       -6.188563   -2.333720   -1.109272
     62          6           0       -6.196872   -0.979860   -0.713631
     63          6           0       -4.971195   -0.369947   -0.400040
     64          6           0       -3.771901   -1.092006   -0.487988
     65          6           0       -3.790085   -2.442984   -0.871087
     66          6           0       -4.994718   -3.085859   -1.184436
     67          1           0       -4.960560    0.683242   -0.100022
     68          1           0       -2.848538   -2.996988   -0.955634
     69         17           0       -2.190410   -0.711571   -3.190563
     70         17           0        0.932536    0.353380   -3.353474
     71          1           0       -1.481892   -4.715684    0.701414
     72          6           0       -3.393467   -1.058848    3.901613
     73          6           0       -2.640143   -2.160706    4.326781
     74          6           0       -1.674817   -2.704574    3.476554
     75          6           0       -1.420358   -2.167343    2.196498
     76          6           0       -2.172127   -1.041748    1.775678
     77          6           0       -3.167309   -0.519333    2.633353
     78          1           0       -4.167171   -0.628717    4.545390
     79          1           0       -2.811364   -2.603092    5.313524
     80          1           0       -1.090047   -3.572517    3.784465
     81          1           0       -3.791304    0.309954    2.289591
     82          6           0       -2.716416    4.215790    0.305484
     83          6           0       -2.934277    3.543582   -0.919158
     84          6           0       -2.787860    2.147742   -0.944334
     85          6           0       -2.424583    1.432180    0.216260
     86          6           0       -2.152840    2.137345    1.402811
     87          6           0       -2.315570    3.530311    1.471453
     88          1           0       -2.926891    1.607841   -1.889321
     89          1           0       -1.821190    1.607498    2.301042
     90         46           0       -0.492969   -0.354482   -1.571227
     91          6           0       -7.498172   -0.220652   -0.625235
     92          1           0       -7.356888    0.742642   -0.108654
     93          1           0       -7.911509   -0.002866   -1.627239
     94          1           0       -8.263038   -0.805049   -0.087540
     95          6           0       -5.017320   -4.537175   -1.596136
     96          1           0       -4.175613   -5.087522   -1.143829
     97          1           0       -5.962004   -5.017120   -1.294195
     98          1           0       -4.922464   -4.646177   -2.692641
     99          8           0       -7.405568   -2.948532   -1.375979
    100          6           0       -7.736349   -2.958576   -2.771591
    101          1           0       -7.792448   -1.931501   -3.179808
    102          1           0       -6.998292   -3.533714   -3.361734
    103          1           0       -8.723225   -3.439822   -2.851843
    104          6           0       -3.272835    4.310924   -2.173413
    105          1           0       -2.742879    5.275957   -2.190845
    106          1           0       -4.355942    4.523221   -2.245260
    107          1           0       -2.989514    3.733602   -3.067601
    108          6           0       -2.074142    4.281677    2.757111
    109          1           0       -1.520206    5.216465    2.578632
    110          1           0       -3.027160    4.564404    3.242004
    111          1           0       -1.504636    3.668272    3.472537
    112          8           0       -2.818081    5.597397    0.365070
    113          6           0       -4.160509    6.064532    0.543832
    114          1           0       -4.102036    7.162885    0.582929
    115          1           0       -4.814286    5.763570   -0.296252
    116          1           0       -4.595637    5.685742    1.488907
 ---------------------------------------------------------------------
 Rotational constants (GHZ):           0.0286589           0.0258454           0.0193069
 General basis read from cards:  (5D, 7F)
 ======================================================================================================
                                       Pseudopotential Parameters
 ======================================================================================================
  Center     Atomic      Valence      Angular      Power
  Number     Number     Electrons     Momentum     of R      Exponent        Coefficient   SO-Coeffient
 ======================================================================================================
    1          6
                                   No pseudopotential on this center.
    2          6
                                   No pseudopotential on this center.
    3          6
                                   No pseudopotential on this center.
    4          6
                                   No pseudopotential on this center.
    5          6
                                   No pseudopotential on this center.
    6          1
                                   No pseudopotential on this center.
    7          1
                                   No pseudopotential on this center.
    8          1
                                   No pseudopotential on this center.
    9          1
                                   No pseudopotential on this center.
   10          1
                                   No pseudopotential on this center.
   11         26           16
                                      F and up 
                                                     2        1.0000000        0.00000000    0.00000000
                                      S - F
                                                     2       20.9300000      253.74958800    0.00000000
                                                     2        9.4450000       37.92284500    0.00000000
                                      P - F
                                                     2       21.7600000      161.03681200    0.00000000
                                                     2        9.1780000       27.65129800    0.00000000
                                      D - F
                                                     2       25.9000000      -24.43127600    0.00000000
                                                     2        8.8350000       -1.43425100    0.00000000
   12          6
                                   No pseudopotential on this center.
   13          6
                                   No pseudopotential on this center.
   14          6
                                   No pseudopotential on this center.
   15          6
                                   No pseudopotential on this center.
   16          6
                                   No pseudopotential on this center.
   17          1
                                   No pseudopotential on this center.
   18          1
                                   No pseudopotential on this center.
   19          6
                                   No pseudopotential on this center.
   20         15
                                   No pseudopotential on this center.
   21          1
                                   No pseudopotential on this center.
   22          6
                                   No pseudopotential on this center.
   23          1
                                   No pseudopotential on this center.
   24          1
                                   No pseudopotential on this center.
   25          1
                                   No pseudopotential on this center.
   26          6
                                   No pseudopotential on this center.
   27          6
                                   No pseudopotential on this center.
   28          6
                                   No pseudopotential on this center.
   29          6
                                   No pseudopotential on this center.
   30          6
                                   No pseudopotential on this center.
   31          6
                                   No pseudopotential on this center.
   32          1
                                   No pseudopotential on this center.
   33          6
                                   No pseudopotential on this center.
   34          1
                                   No pseudopotential on this center.
   35          1
                                   No pseudopotential on this center.
   36          6
                                   No pseudopotential on this center.
   37          6
                                   No pseudopotential on this center.
   38          6
                                   No pseudopotential on this center.
   39          6
                                   No pseudopotential on this center.
   40          6
                                   No pseudopotential on this center.
   41          6
                                   No pseudopotential on this center.
   42          6
                                   No pseudopotential on this center.
   43          1
                                   No pseudopotential on this center.
   44          6
                                   No pseudopotential on this center.
   45          1
                                   No pseudopotential on this center.
   46          1
                                   No pseudopotential on this center.
   47          6
                                   No pseudopotential on this center.
   48          9
                                   No pseudopotential on this center.
   49          9
                                   No pseudopotential on this center.
   50          9
                                   No pseudopotential on this center.
   51          9
                                   No pseudopotential on this center.
   52          9
                                   No pseudopotential on this center.
   53          9
                                   No pseudopotential on this center.
   54          9
                                   No pseudopotential on this center.
   55          9
                                   No pseudopotential on this center.
   56          9
                                   No pseudopotential on this center.
   57          9
                                   No pseudopotential on this center.
   58          9
                                   No pseudopotential on this center.
   59          9
                                   No pseudopotential on this center.
   60         15
                                   No pseudopotential on this center.
   61          6
                                   No pseudopotential on this center.
   62          6
                                   No pseudopotential on this center.
   63          6
                                   No pseudopotential on this center.
   64          6
                                   No pseudopotential on this center.
   65          6
                                   No pseudopotential on this center.
   66          6
                                   No pseudopotential on this center.
   67          1
                                   No pseudopotential on this center.
   68          1
                                   No pseudopotential on this center.
   69         17
                                   No pseudopotential on this center.
   70         17
                                   No pseudopotential on this center.
   71          1
                                   No pseudopotential on this center.
   72          6
                                   No pseudopotential on this center.
   73          6
                                   No pseudopotential on this center.
   74          6
                                   No pseudopotential on this center.
   75          6
                                   No pseudopotential on this center.
   76          6
                                   No pseudopotential on this center.
   77          6
                                   No pseudopotential on this center.
   78          1
                                   No pseudopotential on this center.
   79          1
                                   No pseudopotential on this center.
   80          1
                                   No pseudopotential on this center.
   81          1
                                   No pseudopotential on this center.
   82          6
                                   No pseudopotential on this center.
   83          6
                                   No pseudopotential on this center.
   84          6
                                   No pseudopotential on this center.
   85          6
                                   No pseudopotential on this center.
   86          6
                                   No pseudopotential on this center.
   87          6
                                   No pseudopotential on this center.
   88          1
                                   No pseudopotential on this center.
   89          1
                                   No pseudopotential on this center.
   90         46           18
                                      G and up 
                                                     2        1.0000000        0.00000000    0.00000000
                                      S - G
                                                     2       12.4300000      240.22904000    0.00000000
                                                     2        6.1707590       35.17194300    0.00000000
                                      P - G
                                                     2       11.0800000      170.41727600    0.00000000
                                                     2        5.8295540       28.47213300    0.00000000
                                      D - G
                                                     2        9.5100000       69.01384500    0.00000000
                                                     2        4.1397810       11.75086200    0.00000000
                                      F - G
                                                     2       13.2700000      -31.92955400    0.00000000
                                                     2        6.6300000       -5.39821700    0.00000000
   91          6
                                   No pseudopotential on this center.
   92          1
                                   No pseudopotential on this center.
   93          1
                                   No pseudopotential on this center.
   94          1
                                   No pseudopotential on this center.
   95          6
                                   No pseudopotential on this center.
   96          1
                                   No pseudopotential on this center.
   97          1
                                   No pseudopotential on this center.
   98          1
                                   No pseudopotential on this center.
   99          8
                                   No pseudopotential on this center.
  100          6
                                   No pseudopotential on this center.
  101          1
                                   No pseudopotential on this center.
  102          1
                                   No pseudopotential on this center.
  103          1
                                   No pseudopotential on this center.
  104          6
                                   No pseudopotential on this center.
  105          1
                                   No pseudopotential on this center.
  106          1
                                   No pseudopotential on this center.
  107          1
                                   No pseudopotential on this center.
  108          6
                                   No pseudopotential on this center.
  109          1
                                   No pseudopotential on this center.
  110          1
                                   No pseudopotential on this center.
  111          1
                                   No pseudopotential on this center.
  112          8
                                   No pseudopotential on this center.
  113          6
                                   No pseudopotential on this center.
  114          1
                                   No pseudopotential on this center.
  115          1
                                   No pseudopotential on this center.
  116          1
                                   No pseudopotential on this center.
 ======================================================================================================
 There are  2896 symmetry adapted cartesian basis functions of A   symmetry.
 There are  2537 symmetry adapted basis functions of A   symmetry.
  2537 basis functions,  4134 primitive gaussians,  2896 cartesian basis functions
   289 alpha electrons      289 beta electrons
       nuclear repulsion energy     15695.9427334055 Hartrees.
 NAtoms=  116 NActive=  116 NUniq=  116 SFac= 1.00D+00 NAtFMM=   60 NAOKFM=T Big=T
 Integral buffers will be    131072 words long.
 Raffenetti 2 integral format.
 Two-electron integral symmetry is turned on.
 Nuclear repulsion after empirical dispersion term =    15695.7334631383 Hartrees.
 One-electron integrals computed using PRISM.
   1 Symmetry operations used in ECPInt.
 ECPInt:  NShTT=  483636 NPrTT= 1507730 LenC2=  325714 LenP2D=  641578.
 LDataN:  DoStor=T MaxTD1= 7 Len=  274
 Number of processors reduced to  15 by ecpmxn.
 NBasis=  2537 RedAO= T EigKep=  3.02D-06  NBF=  2537
 NBsUse=  2537 1.00D-06 EigRej= -1.00D+00 NBFU=  2537
 Defaulting to unpruned grid for atomic number  46.
 ExpMin= 1.00D-02 ExpMax= 6.95D+04 ExpMxC= 2.37D+03 IAcc=3 IRadAn=         5 AccDes= 0.00D+00
 Harris functional with IExCor= 1009 and IRadAn=       5 diagonalized for initial guess.
 HarFok:  IExCor= 1009 AccDes= 0.00D+00 IRadAn=         5 IDoV= 1 UseB2=F ITyADJ=14
 ICtDFT=  3500011 ScaDFX=  1.000000  1.000000  1.000000  1.000000
 Defaulting to unpruned grid for atomic number  46.
 FoFCou: FMM=F IPFlag=           0 FMFlag=      100000 FMFlg1=        2001
         NFxFlg=           0 DoJE=T BraDBF=F KetDBF=T FulRan=T
         wScrn=  0.000000 ICntrl=       500 IOpCl=  0 I1Cent=   200000004 NGrid=           0
         NMat0=    1 NMatS0=      1 NMatT0=    0 NMatD0=    1 NMtDS0=    0 NMtDT0=    0
 Petite list used in FoFCou.
 Requested convergence on RMS density matrix=1.00D-08 within 128 cycles.
 Requested convergence on MAX density matrix=1.00D-06.
 Requested convergence on             energy=1.00D-06.
 No special actions if energy rises.
 Defaulting to unpruned grid for atomic number  46.
 Defaulting to unpruned grid for atomic number  46.
 Defaulting to unpruned grid for atomic number  46.
 Defaulting to unpruned grid for atomic number  46.
 Defaulting to unpruned grid for atomic number  46.
 Defaulting to unpruned grid for atomic number  46.
 Defaulting to unpruned grid for atomic number  46.
 Defaulting to unpruned grid for atomic number  46.
 Defaulting to unpruned grid for atomic number  46.
 Defaulting to unpruned grid for atomic number  46.
 Defaulting to unpruned grid for atomic number  46.
 Defaulting to unpruned grid for atomic number  46.
 Defaulting to unpruned grid for atomic number  46.
 Defaulting to unpruned grid for atomic number  46.
 Defaulting to unpruned grid for atomic number  46.
 Defaulting to unpruned grid for atomic number  46.
 Defaulting to unpruned grid for atomic number  46.
 Defaulting to unpruned grid for atomic number  46.
 Defaulting to unpruned grid for atomic number  46.
 Defaulting to unpruned grid for atomic number  46.
 Defaulting to unpruned grid for atomic number  46.
 Defaulting to unpruned grid for atomic number  46.
 Defaulting to unpruned grid for atomic number  46.
 Defaulting to unpruned grid for atomic number  46.
 Defaulting to unpruned grid for atomic number  46.
 Defaulting to unpruned grid for atomic number  46.
 Defaulting to unpruned grid for atomic number  46.
 Defaulting to unpruned grid for atomic number  46.
 Defaulting to unpruned grid for atomic number  46.
 Defaulting to unpruned grid for atomic number  46.
 Defaulting to unpruned grid for atomic number  46.
 Defaulting to unpruned grid for atomic number  46.
 Rare condition: small coef for last iteration:  0.000D+00
 EnCoef did   100 forward-backward iterations
 EnCoef did   100 forward-backward iterations
 EnCoef did   100 forward-backward iterations
 EnCoef did   100 forward-backward iterations
 EnCoef did     4 forward-backward iterations
 EnCoef did     7 forward-backward iterations
 EnCoef did     1 forward-backward iterations
 EnCoef did     6 forward-backward iterations
 EnCoef did     2 forward-backward iterations
 Rare condition: small coef for last iteration:  0.222D-15
 EnCoef did   100 forward-backward iterations
 Restarting incremental Fock formation.
 SCF Done:  E(RPBE1PBE) =  -5208.96366392     A.U. after   35 cycles
            NFock= 35  Conv=0.10D-08     -V/T= 2.0301
 DoSCS=F DFT=T ScalE2(SS,OS)=  1.000000  1.000000
 Range of M.O.s used for correlation:     1  2537
 NBasis=  2537 NAE=   289 NBE=   289 NFC=     0 NFV=     0
 NROrb=   2537 NOA=   289 NOB=   289 NVA=  2248 NVB=  2248

 **** Warning!!: The largest alpha MO coefficient is  0.38308138D+02

          Differentiating once with respect to magnetic field using GIAOs.
          Electric field/nuclear overlap derivatives assumed to be zero.
 Defaulting to unpruned grid for atomic number  46.
 FoFCou: FMM=F IPFlag=           0 FMFlag=      100000 FMFlg1=        2001
         NFxFlg=           0 DoJE=F BraDBF=F KetDBF=T FulRan=T
         wScrn=  0.000000 ICntrl=      6100 IOpCl=  0 I1Cent=           7 NGrid=         116
         NMat0=    1 NMatS0=      1 NMatT0=    0 NMatD0=    1 NMtDS0=    0 NMtDT0=    0
 Symmetry not used in FoFCou.
   1 Symmetry operations used in ECPInt.
 ECPInt:  NShTT=  483636 NPrTT= 1507730 LenC2=  483637 LenP2D= 1507730.
 LDataN:  DoStor=T MaxTD1= 8 Len=  415
 Number of processors reduced to   9 by ecpmxn.
 FoFJK:  IHMeth= 1 ICntrl=    6127 DoSepK=F KAlg= 0 I1Cent=           0 FoldK=F
 IRaf=         1 NMat=       1 IRICut=       1 DoRegI=T DoRafI=F ISym2E= 0 IDoP0=0 IntGTp=1.
 Defaulting to unpruned grid for atomic number  46.
 Defaulting to unpruned grid for atomic number  46.
 Defaulting to unpruned grid for atomic number  46.
 Defaulting to unpruned grid for atomic number  46.
 Defaulting to unpruned grid for atomic number  46.
 Defaulting to unpruned grid for atomic number  46.
 Defaulting to unpruned grid for atomic number  46.
 Defaulting to unpruned grid for atomic number  46.
 Defaulting to unpruned grid for atomic number  46.
 Defaulting to unpruned grid for atomic number  46.
 Defaulting to unpruned grid for atomic number  46.
 Defaulting to unpruned grid for atomic number  46.
 Defaulting to unpruned grid for atomic number  46.
 Defaulting to unpruned grid for atomic number  46.
 Defaulting to unpruned grid for atomic number  46.
 Defaulting to unpruned grid for atomic number  46.
 Defaulting to unpruned grid for atomic number  46.
 Defaulting to unpruned grid for atomic number  46.
 Defaulting to unpruned grid for atomic number  46.
 Defaulting to unpruned grid for atomic number  46.
 Defaulting to unpruned grid for atomic number  46.
 Defaulting to unpruned grid for atomic number  46.
 Defaulting to unpruned grid for atomic number  46.
 Defaulting to unpruned grid for atomic number  46.
 Defaulting to unpruned grid for atomic number  46.
 Defaulting to unpruned grid for atomic number  46.
 Defaulting to unpruned grid for atomic number  46.
 Defaulting to unpruned grid for atomic number  46.
 Defaulting to unpruned grid for atomic number  46.
 Defaulting to unpruned grid for atomic number  46.
 Defaulting to unpruned grid for atomic number  46.
 Defaulting to unpruned grid for atomic number  46.
          There are     3 degrees of freedom in the 1st order CPHF.  IDoFFX=0 NUNeed=     3.
      3 vectors produced by pass  0 Test12= 2.17D-11 3.33D-08 XBig12= 4.75D+02 2.06D+00.
 AX will form     3 AO Fock derivatives at one time.
      3 vectors produced by pass  1 Test12= 2.17D-11 3.33D-08 XBig12= 2.31D+00 3.93D-01.
      3 vectors produced by pass  2 Test12= 2.17D-11 3.33D-08 XBig12= 1.13D-01 9.43D-02.
      3 vectors produced by pass  3 Test12= 2.17D-11 3.33D-08 XBig12= 1.78D-03 9.47D-03.
      3 vectors produced by pass  4 Test12= 2.17D-11 3.33D-08 XBig12= 3.36D-05 1.93D-03.
      3 vectors produced by pass  5 Test12= 2.17D-11 3.33D-08 XBig12= 1.08D-06 1.90D-04.
      3 vectors produced by pass  6 Test12= 2.17D-11 3.33D-08 XBig12= 2.08D-08 4.50D-05.
      3 vectors produced by pass  7 Test12= 2.17D-11 3.33D-08 XBig12= 3.88D-10 6.79D-06.
      3 vectors produced by pass  8 Test12= 2.17D-11 3.33D-08 XBig12= 3.22D-12 5.16D-07.
      2 vectors produced by pass  9 Test12= 2.17D-11 3.33D-08 XBig12= 7.76D-14 1.01D-07.
 InvSVY:  IOpt=1 It=  1 EMax= 2.13D-14
 Solved reduced A of dimension    29 with     3 vectors.
 Calculating GIAO nuclear magnetic shielding tensors.
 SCF GIAO Magnetic shielding tensor (ppm):
      1  C    Isotropic =   110.2916   Anisotropy =    93.7164
   XX=    73.6949   YX=   -44.4439   ZX=     3.1427
   XY=   -32.7586   YY=   125.4056   ZY=   -32.5284
   XZ=     0.6519   YZ=   -38.7651   ZZ=   131.7744
   Eigenvalues:    49.8743   108.2314   172.7692
      2  C    Isotropic =   112.4381   Anisotropy =    90.9608
   XX=    79.4055   YX=     4.1278   ZX=    41.1742
   XY=    11.8187   YY=   121.4595   ZY=   -42.5948
   XZ=    28.9423   YZ=   -32.5839   ZZ=   136.4494
   Eigenvalues:    53.4439   110.7919   173.0787
      3  C    Isotropic =   111.9887   Anisotropy =    89.2523
   XX=   123.4914   YX=   -16.3033   ZX=    19.4789
   XY=   -25.2083   YY=    72.9366   ZY=   -44.5142
   XZ=    18.3842   YZ=   -32.7792   ZZ=   139.5381
   Eigenvalues:    53.3307   111.1451   171.4902
      4  C    Isotropic =   111.7644   Anisotropy =    89.5757
   XX=    96.0243   YX=   -34.7811   ZX=    35.4563
   XY=   -42.2406   YY=   120.0335   ZY=    -7.2371
   XZ=    46.0617   YZ=   -13.1623   ZZ=   119.2353
   Eigenvalues:    54.3417   109.4700   171.4815
      5  C    Isotropic =   111.4150   Anisotropy =    92.6028
   XX=   122.7083   YX=   -16.7581   ZX=    19.3787
   XY=   -19.2057   YY=   121.8598   ZY=   -42.1026
   XZ=    28.0728   YZ=   -54.9191   ZZ=    89.6770
   Eigenvalues:    53.4232   107.6717   173.1502
      6  H    Isotropic =    27.5960   Anisotropy =     5.2119
   XX=    28.6126   YX=    -1.6389   ZX=    -3.1611
   XY=    -1.4198   YY=    27.7206   ZY=     0.5722
   XZ=    -2.4405   YZ=    -0.3609   ZZ=    26.4546
   Eigenvalues:    24.3369    27.3805    31.0706
      7  H    Isotropic =    27.3479   Anisotropy =     6.4897
   XX=    25.3677   YX=     0.8515   ZX=    -0.0277
   XY=     1.4543   YY=    31.0624   ZY=     2.2016
   XZ=    -0.1510   YZ=     0.9499   ZZ=    25.6137
   Eigenvalues:    24.8052    25.5642    31.6744
      8  H    Isotropic =    27.1414   Anisotropy =     5.3932
   XX=    28.1199   YX=     1.0379   ZX=    -2.2514
   XY=     1.1957   YY=    27.2495   ZY=    -1.2523
   XZ=    -3.2450   YZ=    -1.0529   ZZ=    26.0546
   Eigenvalues:    24.1157    26.5715    30.7368
      9  H    Isotropic =    27.4387   Anisotropy =     3.6566
   XX=    26.4269   YX=    -1.3990   ZX=    -0.6819
   XY=     0.3315   YY=    26.9883   ZY=     1.1100
   XZ=    -1.3560   YZ=     1.3259   ZZ=    28.9010
   Eigenvalues:    26.0406    26.3991    29.8764
     10  H    Isotropic =    27.4779   Anisotropy =     4.1570
   XX=    27.5235   YX=     1.4823   ZX=     0.7365
   XY=     1.4018   YY=    29.3957   ZY=    -1.6564
   XZ=     1.3355   YZ=    -0.6939   ZZ=    25.5143
   Eigenvalues:    24.4981    27.6863    30.2492
     11  Fe   Isotropic = -6331.3488   Anisotropy =  8582.9142
   XX= -7621.0800   YX= -2116.8634   ZX=  2549.8323
   XY= -2072.2449   YY= -6640.7668   ZY= -3363.8238
   XZ=  2542.0411   YZ= -3431.1923   ZZ= -4732.1995
   Eigenvalues: -9313.7762 -9070.8642  -609.4060
     12  C    Isotropic =   111.9455   Anisotropy =    88.1806
   XX=   122.7384   YX=   -12.6261   ZX=    14.6972
   XY=   -11.2273   YY=   115.1907   ZY=   -48.9862
   XZ=    18.9667   YZ=   -61.2843   ZZ=    97.9074
   Eigenvalues:    50.3718   114.7321   170.7326
     13  C    Isotropic =   106.3410   Anisotropy =    86.5202
   XX=    64.7987   YX=   -34.9757   ZX=     3.1516
   XY=   -35.1355   YY=   115.1163   ZY=   -25.8651
   XZ=   -17.9092   YZ=   -39.0072   ZZ=   139.1079
   Eigenvalues:    41.7460   113.2558   164.0211
     14  C    Isotropic =    88.2632   Anisotropy =    96.2165
   XX=    55.8337   YX=    -0.1200   ZX=    28.6178
   XY=    -0.7349   YY=    71.4498   ZY=   -35.7286
   XZ=     6.3917   YZ=   -25.7439   ZZ=   137.5062
   Eigenvalues:    49.4779    62.9043   152.4076
     15  C    Isotropic =    88.1413   Anisotropy =   101.9558
   XX=    87.6342   YX=   -22.1206   ZX=    31.5122
   XY=   -13.4048   YY=    55.0369   ZY=   -32.4984
   XZ=    46.6211   YZ=   -15.4840   ZZ=   121.7527
   Eigenvalues:    46.0789    62.2331   156.1118
     16  C    Isotropic =   117.1782   Anisotropy =    87.5426
   XX=   102.0444   YX=    -8.4525   ZX=    46.4751
   XY=   -19.8437   YY=   126.4694   ZY=   -16.0907
   XZ=    63.8124   YZ=    -8.1329   ZZ=   123.0207
   Eigenvalues:    56.2502   119.7445   175.5399
     17  H    Isotropic =    26.9654   Anisotropy =     7.0452
   XX=    25.2222   YX=    -0.1318   ZX=    -0.8856
   XY=    -0.1986   YY=    30.3497   ZY=     2.7538
   XZ=    -1.5434   YZ=     2.8379   ZZ=    25.3244
   Eigenvalues:    23.4479    25.7861    31.6622
     18  H    Isotropic =    27.0219   Anisotropy =     7.0596
   XX=    27.9924   YX=    -1.2100   ZX=    -3.7979
   XY=     2.1599   YY=    29.1472   ZY=    -0.0344
   XZ=    -5.9990   YZ=    -2.4498   ZZ=    23.9262
   Eigenvalues:    20.5857    28.7518    31.7284
     19  C    Isotropic =   150.3304   Anisotropy =    20.4871
   XX=   145.7188   YX=     0.6133   ZX=     8.7073
   XY=     2.5126   YY=   152.7910   ZY=    -9.3083
   XZ=    10.0563   YZ=    -9.5027   ZZ=   152.4814
   Eigenvalues:   136.0857   150.9169   163.9884
     20  P    Isotropic =   219.1475   Anisotropy =   175.1965
   XX=   252.1630   YX=    54.2771   ZX=    83.9132
   XY=    32.2502   YY=   146.0699   ZY=    23.8533
   XZ=    61.1592   YZ=    -2.1278   ZZ=   259.2096
   Eigenvalues:   128.5364   192.9609   335.9452
     21  H    Isotropic =    28.1251   Anisotropy =     5.1096
   XX=    30.6556   YX=    -0.5849   ZX=    -3.7643
   XY=     1.8428   YY=    28.0020   ZY=     0.9472
   XZ=    -0.6823   YZ=     0.7965   ZZ=    25.7178
   Eigenvalues:    24.5504    28.2935    31.5316
     22  C    Isotropic =   162.0433   Anisotropy =    12.4366
   XX=   163.2843   YX=     6.2820   ZX=     7.5829
   XY=     2.1971   YY=   162.0662   ZY=    -1.6855
   XZ=     7.7660   YZ=    -2.3034   ZZ=   160.7795
   Eigenvalues:   152.3425   163.4531   170.3344
     23  H    Isotropic =    30.0581   Anisotropy =     7.8462
   XX=    29.8019   YX=     1.9577   ZX=     3.8857
   XY=     4.4077   YY=    31.8717   ZY=    -0.1475
   XZ=     1.4891   YZ=     2.8940   ZZ=    28.5007
   Eigenvalues:    26.1751    28.7102    35.2889
     24  H    Isotropic =    29.4259   Anisotropy =     9.0702
   XX=    26.5909   YX=    -0.7856   ZX=     2.6231
   XY=     1.8300   YY=    28.7541   ZY=    -4.1303
   XZ=     1.9767   YZ=    -3.3525   ZZ=    32.9326
   Eigenvalues:    24.8118    27.9932    35.4727
     25  H    Isotropic =    31.0533   Anisotropy =     3.7334
   XX=    32.4266   YX=    -3.0386   ZX=    -0.5482
   XY=     0.0943   YY=    29.7692   ZY=    -2.4232
   XZ=    -2.7686   YZ=    -1.0443   ZZ=    30.9640
   Eigenvalues:    27.5619    32.0557    33.5422
     26  C    Isotropic =    55.2678   Anisotropy =   189.5337
   XX=   -30.5768   YX=    -1.5322   ZX=    32.6415
   XY=     9.5663   YY=    70.7582   ZY=   -78.9409
   XZ=    22.2052   YZ=   -74.5670   ZZ=   125.6220
   Eigenvalues:   -38.9662    23.1460   181.6236
     27  C    Isotropic =    48.7212   Anisotropy =   157.4944
   XX=    -6.8617   YX=   -44.4585   ZX=    -6.5032
   XY=   -38.9967   YY=    49.0100   ZY=   -68.7168
   XZ=    -3.4235   YZ=   -70.2572   ZZ=   104.0152
   Eigenvalues:   -41.1880    33.6341   153.7174
     28  C    Isotropic =    45.3757   Anisotropy =   195.6173
   XX=    22.5879   YX=    -7.1902   ZX=    21.7686
   XY=    -4.7043   YY=    25.8564   ZY=  -104.6735
   XZ=    31.5300   YZ=  -116.8217   ZZ=    87.6830
   Eigenvalues:   -59.8339    20.1739   175.7873
     29  C    Isotropic =    44.0863   Anisotropy =   187.7475
   XX=   -34.7612   YX=   -18.1400   ZX=    41.1992
   XY=    -2.2586   YY=    64.3768   ZY=   -82.7052
   XZ=    32.5444   YZ=   -71.7982   ZZ=   102.6433
   Eigenvalues:   -45.1507     8.1583   169.2513
     30  C    Isotropic =    35.7717   Anisotropy =   206.7223
   XX=   -28.6510   YX=   -39.1788   ZX=    -0.6443
   XY=   -54.1758   YY=    40.9906   ZY=   -93.4756
   XZ=    11.4781   YZ=   -99.5634   ZZ=    94.9755
   Eigenvalues:   -66.6132     0.3417   173.5865
     31  C    Isotropic =    49.1786   Anisotropy =   157.8373
   XX=    32.0192   YX=     4.0762   ZX=    17.5727
   XY=     0.3352   YY=    23.7482   ZY=   -87.4121
   XZ=    14.5329   YZ=   -90.9989   ZZ=    91.7683
   Eigenvalues:   -39.3991    32.5314   154.4034
     32  H    Isotropic =    23.1576   Anisotropy =     9.8678
   XX=    22.8835   YX=     2.4303   ZX=     0.0965
   XY=     3.3921   YY=    25.5044   ZY=     4.9352
   XZ=    -0.3394   YZ=     5.3471   ZZ=    21.0848
   Eigenvalues:    17.1474    22.5892    29.7361
     33  C    Isotropic =    48.7291   Anisotropy =    14.6004
   XX=    51.0752   YX=    -4.8103   ZX=    -6.8717
   XY=    -4.4204   YY=    48.9046   ZY=     1.7647
   XZ=    -6.7268   YZ=     2.3935   ZZ=    46.2076
   Eigenvalues:    41.2655    46.4592    58.4628
     34  H    Isotropic =    24.2539   Anisotropy =    16.4401
   XX=    34.8432   YX=    -1.4878   ZX=    -2.0974
   XY=     3.6199   YY=    20.6140   ZY=     0.4176
   XZ=    -2.5224   YZ=     0.1281   ZZ=    17.3044
   Eigenvalues:    16.9591    20.5886    35.2139
     35  H    Isotropic =    22.0142   Anisotropy =    13.4606
   XX=    23.6180   YX=    -8.0565   ZX=    -4.0888
   XY=    -5.9385   YY=    20.5254   ZY=    -0.9641
   XZ=    -5.1978   YZ=     1.8497   ZZ=    21.8992
   Eigenvalues:    13.9600    21.0946    30.9880
     36  C    Isotropic =    48.1177   Anisotropy =    14.8683
   XX=    57.4712   YX=     0.9730   ZX=    -2.2841
   XY=     1.9121   YY=    40.5343   ZY=    -0.1907
   XZ=    -2.0999   YZ=    -1.5189   ZZ=    46.3475
   Eigenvalues:    40.3345    45.9886    58.0299
     37  C    Isotropic =    52.7379   Anisotropy =   199.0030
   XX=   178.4406   YX=    19.4576   ZX=   -24.7048
   XY=    25.5981   YY=   -38.6560   ZY=   -16.9950
   XZ=   -27.7242   YZ=   -16.7395   ZZ=    18.4291
   Eigenvalues:   -44.3215    17.1285   185.4065
     38  C    Isotropic =    47.8438   Anisotropy =   164.8238
   XX=   151.3951   YX=    11.0699   ZX=   -29.3020
   XY=     8.9771   YY=    25.0007   ZY=   -28.2267
   XZ=   -31.0189   YZ=   -24.3559   ZZ=   -32.8645
   Eigenvalues:   -46.1485    31.9535   157.7263
     39  C    Isotropic =    49.4408   Anisotropy =   196.0442
   XX=   171.1173   YX=    24.2270   ZX=   -41.8211
   XY=    22.7591   YY=    -6.4072   ZY=    35.6202
   XZ=   -35.3930   YZ=    40.2722   ZZ=   -16.3877
   Eigenvalues:   -58.3338    26.5193   180.1370
     40  C    Isotropic =    45.3458   Anisotropy =   186.8949
   XX=   162.8078   YX=    19.2274   ZX=   -26.3653
   XY=    23.0009   YY=   -38.7390   ZY=   -21.1595
   XZ=   -26.3133   YZ=   -11.4054   ZZ=    11.9686
   Eigenvalues:   -44.3796    10.4746   169.9424
     41  C    Isotropic =    39.1942   Anisotropy =   212.8310
   XX=   169.4502   YX=    24.7635   ZX=   -47.7986
   XY=    16.3703   YY=    -0.1440   ZY=   -13.6689
   XZ=   -40.3464   YZ=   -25.7445   ZZ=   -51.7236
   Eigenvalues:   -64.0730     0.5740   181.0815
     42  C    Isotropic =    45.2735   Anisotropy =   171.9916
   XX=   149.8974   YX=    26.1975   ZX=   -36.3350
   XY=    26.1741   YY=    -1.1017   ZY=    34.8667
   XZ=   -36.0884   YZ=    28.8727   ZZ=   -12.9751
   Eigenvalues:   -49.4354    25.3214   159.9346
     43  H    Isotropic =    23.3284   Anisotropy =     8.1435
   XX=    20.9908   YX=     0.8434   ZX=     2.6380
   XY=     0.1024   YY=    21.1686   ZY=    -1.2361
   XZ=     2.0210   YZ=    -1.7010   ZZ=    27.8259
   Eigenvalues:    19.6760    21.5518    28.7574
     44  C    Isotropic =    48.2040   Anisotropy =    12.8155
   XX=    46.0207   YX=    -1.3626   ZX=     0.4418
   XY=    -1.6992   YY=    56.3294   ZY=    -1.6964
   XZ=    -0.7708   YZ=    -1.7525   ZZ=    42.2620
   Eigenvalues:    42.0223    45.8421    56.7477
     45  H    Isotropic =    23.5107   Anisotropy =    14.0910
   XX=    20.1969   YX=    -0.5686   ZX=     0.8969
   XY=     0.3885   YY=    28.2907   ZY=     6.5520
   XZ=     0.3933   YZ=     7.5924   ZZ=    22.0445
   Eigenvalues:    17.3157    20.3118    32.9047
     46  H    Isotropic =    22.1964   Anisotropy =    15.4635
   XX=    17.6774   YX=    -2.1175   ZX=    -0.8712
   XY=    -1.7739   YY=    32.2495   ZY=     0.2797
   XZ=     0.5482   YZ=    -0.5249   ZZ=    16.6624
   Eigenvalues:    16.6230    17.4609    32.5054
     47  C    Isotropic =    49.5234   Anisotropy =    13.6442
   XX=    48.5360   YX=     2.5065   ZX=    -1.3368
   XY=     0.3594   YY=    51.6721   ZY=     8.9804
   XZ=     0.0525   YZ=     7.8031   ZZ=    48.3619
   Eigenvalues:    41.1933    48.7573    58.6195
     48  F    Isotropic =   220.7893   Anisotropy =   151.2179
   XX=   232.4138   YX=    68.6999   ZX=   -65.4864
   XY=    68.0688   YY=   225.2671   ZY=    -3.6456
   XZ=   -65.7402   YZ=    -5.5276   ZZ=   204.6870
   Eigenvalues:   130.5399   210.2267   321.6012
     49  F    Isotropic =   246.8685   Anisotropy =   123.9218
   XX=   266.9814   YX=    27.9397   ZX=    27.2251
   XY=    12.5157   YY=   188.8727   ZY=    45.4623
   XZ=    35.4580   YZ=    58.9897   ZZ=   284.7512
   Eigenvalues:   165.5399   245.5825   329.4830
     50  F    Isotropic =   238.4833   Anisotropy =   138.8112
   XX=   267.2336   YX=   -43.7681   ZX=   -24.2700
   XY=   -52.4315   YY=   276.0614   ZY=    47.4704
   XZ=    -9.8608   YZ=    34.2103   ZZ=   172.1548
   Eigenvalues:   158.0224   226.4033   331.0241
     51  F    Isotropic =   219.8564   Anisotropy =   150.1948
   XX=   289.7218   YX=    12.4203   ZX=    67.6201
   XY=    12.3212   YY=   205.2574   ZY=   -14.9391
   XZ=    68.9513   YZ=   -16.7875   ZZ=   164.5901
   Eigenvalues:   129.5119   210.0711   319.9863
     52  F    Isotropic =   250.2450   Anisotropy =   126.2241
   XX=   257.8660   YX=   -21.3043   ZX=   -21.3048
   XY=   -26.4741   YY=   316.9919   ZY=    22.3826
   XZ=   -36.3127   YZ=    36.2770   ZZ=   175.8772
   Eigenvalues:   163.7638   252.5768   334.3944
     53  F    Isotropic =   235.7921   Anisotropy =   145.2722
   XX=   232.8204   YX=    18.1786   ZX=   -42.3015
   XY=    11.4143   YY=   229.1615   ZY=   -67.4759
   XZ=   -55.5349   YZ=   -78.1291   ZZ=   245.3945
   Eigenvalues:   156.5466   218.1895   332.6402
     54  F    Isotropic =   249.2066   Anisotropy =   137.4582
   XX=   293.3288   YX=   -20.0706   ZX=   -72.4846
   XY=   -12.5364   YY=   204.7480   ZY=   -44.3808
   XZ=   -58.2233   YZ=   -27.6443   ZZ=   249.5429
   Eigenvalues:   164.6919   242.0825   340.8454
     55  F    Isotropic =   244.3851   Anisotropy =   140.1431
   XX=   174.9062   YX=   -22.2559   ZX=   -19.8606
   XY=   -42.6293   YY=   330.6229   ZY=     2.8615
   XZ=   -15.6829   YZ=     7.8396   ZZ=   227.6262
   Eigenvalues:   164.1616   231.1798   337.8138
     56  F    Isotropic =   219.0719   Anisotropy =   150.8281
   XX=   202.9634   YX=   -44.5067   ZX=    50.4053
   XY=   -45.4086   YY=   160.8577   ZY=    -5.7144
   XZ=    50.2340   YZ=    -6.0985   ZZ=   293.3946
   Eigenvalues:   128.9058   208.6860   319.6240
     57  F    Isotropic =   255.6310   Anisotropy =   129.2782
   XX=   316.5073   YX=   -23.6455   ZX=   -38.9899
   XY=   -35.9504   YY=   194.9130   ZY=   -28.2184
   XZ=   -52.3451   YZ=   -37.3252   ZZ=   255.4726
   Eigenvalues:   165.9250   259.1514   341.8164
     58  F    Isotropic =   218.6803   Anisotropy =   157.6444
   XX=   202.0268   YX=    17.1656   ZX=    -1.6390
   XY=    17.4942   YY=   286.3245   ZY=   -73.8396
   XZ=     2.4231   YZ=   -74.0652   ZZ=   167.6895
   Eigenvalues:   131.3171   200.9472   323.7766
     59  F    Isotropic =   238.1657   Anisotropy =   137.6313
   XX=   243.8584   YX=    34.3552   ZX=    48.6760
   XY=    41.3978   YY=   177.3798   ZY=     5.3645
   XZ=    57.0448   YZ=    -4.1556   ZZ=   293.2591
   Eigenvalues:   156.2831   228.2943   329.9199
     60  P    Isotropic =   248.1933   Anisotropy =    93.2960
   XX=   277.7005   YX=   -17.8875   ZX=   -23.3757
   XY=   -59.5343   YY=   197.6170   ZY=    12.9289
   XZ=   -19.7046   YZ=    20.9760   ZZ=   269.2623
   Eigenvalues:   181.2507   252.9386   310.3906
     61  C    Isotropic =    19.3098   Anisotropy =   128.7883
   XX=   -41.4499   YX=   -23.7874   ZX=   -23.8462
   XY=   -26.2999   YY=     6.5343   ZY=   -31.1700
   XZ=   -23.5839   YZ=   -33.5313   ZZ=    92.8449
   Eigenvalues:   -60.2056    12.9663   105.1686
     62  C    Isotropic =    47.6975   Anisotropy =   170.5632
   XX=   -21.3025   YX=    32.6345   ZX=   -10.3239
   XY=    22.2649   YY=    17.5004   ZY=   -40.5530
   XZ=   -20.4465   YZ=   -40.7866   ZZ=   146.8946
   Eigenvalues:   -35.6788    17.3650   161.4063
     63  C    Isotropic =    51.9211   Anisotropy =   153.0873
   XX=    47.8255   YX=     7.4408   ZX=   -10.6604
   XY=    14.8464   YY=   -28.5989   ZY=   -49.0602
   XZ=   -18.2641   YZ=   -53.8619   ZZ=   136.5368
   Eigenvalues:   -43.8259    45.6099   153.9794
     64  C    Isotropic =    44.4094   Anisotropy =   173.6897
   XX=   -24.9327   YX=   -18.1751   ZX=   -27.3503
   XY=   -23.1755   YY=    14.0617   ZY=   -45.9759
   XZ=   -21.8947   YZ=   -45.4343   ZZ=   144.0991
   Eigenvalues:   -43.4929    16.5185   160.2025
     65  C    Isotropic =    42.8399   Anisotropy =   167.9093
   XX=   -25.3249   YX=    45.6042   ZX=    -6.4872
   XY=    48.2534   YY=    17.2563   ZY=   -35.2648
   XZ=   -13.3356   YZ=   -53.6112   ZZ=   136.5882
   Eigenvalues:   -56.9738    30.7140   154.7794
     66  C    Isotropic =    47.0948   Anisotropy =   173.3563
   XX=    18.3157   YX=    -2.2005   ZX=   -17.0073
   XY=     9.3980   YY=   -21.8131   ZY=   -50.6124
   XZ=   -15.9350   YZ=   -57.2127   ZZ=   144.7820
   Eigenvalues:   -37.7648    16.3836   162.6657
     67  H    Isotropic =    24.7057   Anisotropy =    15.1333
   XX=    34.1476   YX=     4.0895   ZX=     2.5355
   XY=     0.7951   YY=    21.2749   ZY=     0.9074
   XZ=     1.1683   YZ=    -1.2625   ZZ=    18.6945
   Eigenvalues:    18.3907    20.9318    34.7945
     68  H    Isotropic =    23.9224   Anisotropy =    12.3129
   XX=    24.8686   YX=     5.9735   ZX=     4.8816
   XY=     3.6203   YY=    26.3190   ZY=     1.3680
   XZ=     4.7929   YZ=     1.6267   ZZ=    20.5795
   Eigenvalues:    17.1680    22.4682    32.1310
     69  Cl   Isotropic =   795.9611   Anisotropy =   262.2800
   XX=   681.9819   YX=    -7.9091   ZX=   123.5200
   XY=   -59.8575   YY=   946.3308   ZY=    46.4351
   XZ=    55.6766   YZ=    97.2621   ZZ=   759.5705
   Eigenvalues:   609.1805   807.8882   970.8144
     70  Cl   Isotropic =   851.9993   Anisotropy =   429.3112
   XX=   751.4867   YX=  -167.2872   ZX=   -48.3533
   XY=  -204.3910   YY=  1044.8934   ZY=    -6.2969
   XZ=   -60.0608   YZ=    31.3201   ZZ=   759.6179
   Eigenvalues:   644.7263   773.0650  1138.2068
     71  H    Isotropic =    27.0848   Anisotropy =     4.6131
   XX=    27.9175   YX=     3.4509   ZX=     0.7104
   XY=     0.1214   YY=    28.7287   ZY=     0.2272
   XZ=    -0.1976   YZ=    -0.1929   ZZ=    24.6081
   Eigenvalues:    24.5838    26.5104    30.1602
     72  C    Isotropic =    53.4495   Anisotropy =   184.3494
   XX=    49.5947   YX=    88.1761   ZX=    78.6421
   XY=    78.0514   YY=    80.1228   ZY=    17.2336
   XZ=    73.1325   YZ=    12.6248   ZZ=    30.6310
   Eigenvalues:   -54.7436    38.7430   176.3491
     73  C    Isotropic =    50.2116   Anisotropy =   186.8650
   XX=    96.6473   YX=    53.2689   ZX=    54.1407
   XY=    52.6423   YY=    71.3911   ZY=    68.1096
   XZ=    48.5930   YZ=    69.1039   ZZ=   -17.4035
   Eigenvalues:   -57.8867    33.7332   174.7883
     74  C    Isotropic =    42.6294   Anisotropy =   166.6881
   XX=    73.0259   YX=    87.9159   ZX=     6.6347
   XY=    91.4654   YY=    20.0175   ZY=    42.6064
   XZ=    22.5882   YZ=    50.8395   ZZ=    34.8450
   Eigenvalues:   -56.8334    30.9668   153.7549
     75  C    Isotropic =    38.6438   Anisotropy =   190.2400
   XX=    56.9588   YX=    86.3065   ZX=    62.9549
   XY=    87.1570   YY=    51.6542   ZY=    17.5913
   XZ=    78.4549   YZ=    10.6168   ZZ=     7.3183
   Eigenvalues:   -62.1829    12.6438   165.4704
     76  C    Isotropic =    39.0511   Anisotropy =   176.3985
   XX=    86.1204   YX=    59.8453   ZX=    31.9432
   XY=    66.5874   YY=    53.7305   ZY=    45.7156
   XZ=    42.0367   YZ=    60.0095   ZZ=   -22.6977
   Eigenvalues:   -49.8952    10.3983   156.6501
     77  C    Isotropic =    41.9270   Anisotropy =   197.0659
   XX=    55.4155   YX=   112.8418   ZX=    16.6182
   XY=    98.2517   YY=    41.5533   ZY=    50.5223
   XZ=    27.9530   YZ=    54.1549   ZZ=    28.8123
   Eigenvalues:   -63.8631    16.3399   173.3043
     78  H    Isotropic =    24.0436   Anisotropy =     5.8603
   XX=    22.0799   YX=    -0.4763   ZX=    -1.9460
   XY=    -1.5523   YY=    23.6925   ZY=    -2.6313
   XZ=    -0.8780   YZ=    -2.3792   ZZ=    26.3584
   Eigenvalues:    20.5027    23.6776    27.9505
     79  H    Isotropic =    23.7282   Anisotropy =     5.0038
   XX=    23.7835   YX=    -2.5129   ZX=    -2.6385
   XY=    -2.6883   YY=    23.4648   ZY=    -0.5203
   XZ=    -2.1402   YZ=    -0.3463   ZZ=    23.9364
   Eigenvalues:    19.9695    24.1511    27.0641
     80  H    Isotropic =    22.6234   Anisotropy =     8.3082
   XX=    23.2579   YX=    -2.3643   ZX=    -3.6862
   XY=    -2.6040   YY=    20.1764   ZY=     0.9672
   XZ=    -4.0706   YZ=    -0.6844   ZZ=    24.4359
   Eigenvalues:    18.1041    21.6038    28.1622
     81  H    Isotropic =    23.6056   Anisotropy =    11.1835
   XX=    22.2512   YX=     3.6837   ZX=    -6.5410
   XY=     0.9749   YY=    20.6556   ZY=    -1.9641
   XZ=    -3.2612   YZ=     0.4768   ZZ=    27.9099
   Eigenvalues:    18.1923    21.5631    31.0612
     82  C    Isotropic =    19.0312   Anisotropy =   136.0021
   XX=   101.4593   YX=    17.6417   ZX=   -24.7942
   XY=    18.7347   YY=   -60.8089   ZY=    -6.1310
   XZ=   -22.4544   YZ=    -4.9418   ZZ=    16.4431
   Eigenvalues:   -62.9337    10.3280   109.6992
     83  C    Isotropic =    43.7592   Anisotropy =   183.5062
   XX=   154.6075   YX=    22.8664   ZX=   -41.0215
   XY=    23.5258   YY=    -4.2147   ZY=    25.4393
   XZ=   -41.9861   YZ=    10.1393   ZZ=   -19.1152
   Eigenvalues:   -42.3747     7.5556   166.0966
     84  C    Isotropic =    37.8862   Anisotropy =   185.0521
   XX=   151.8792   YX=     8.3856   ZX=   -34.5037
   XY=    10.1389   YY=     3.5885   ZY=   -30.7540
   XZ=   -44.5983   YZ=   -37.7599   ZZ=   -41.8090
   Eigenvalues:   -64.6619    17.0663   161.2543
     85  C    Isotropic =    55.0077   Anisotropy =   169.5813
   XX=   155.0017   YX=    24.4777   ZX=   -41.6389
   XY=    12.4055   YY=   -35.4339   ZY=    -8.2508
   XZ=   -31.8164   YZ=    -5.1380   ZZ=    45.4554
   Eigenvalues:   -37.3350    34.2963   168.0619
     86  C    Isotropic =    47.8876   Anisotropy =   168.8249
   XX=   141.7750   YX=    39.3742   ZX=   -45.7336
   XY=    26.5273   YY=    23.5036   ZY=    29.9085
   XZ=   -54.0247   YZ=    22.3112   ZZ=   -21.6157
   Eigenvalues:   -51.6870    34.9123   160.4376
     87  C    Isotropic =    47.9052   Anisotropy =   179.3381
   XX=   153.3850   YX=    17.6774   ZX=   -42.2014
   XY=    13.6380   YY=     1.4894   ZY=   -35.4180
   XZ=   -45.8819   YZ=   -22.4294   ZZ=   -11.1588
   Eigenvalues:   -38.0500    14.3017   167.4640
     88  H    Isotropic =    22.7162   Anisotropy =    13.8983
   XX=    20.0974   YX=    -3.9250   ZX=     1.0455
   XY=    -4.4047   YY=    30.0081   ZY=    -1.1858
   XZ=     0.0761   YZ=    -3.7700   ZZ=    18.0432
   Eigenvalues:    17.4952    18.6717    31.9818
     89  H    Isotropic =    24.7842   Anisotropy =    11.8747
   XX=    22.2333   YX=     4.0979   ZX=    -4.5155
   XY=     0.6470   YY=    31.2480   ZY=     2.3268
   XZ=    -1.3861   YZ=     5.3550   ZZ=    20.8712
   Eigenvalues:    17.0997    24.5522    32.7006
     90  Pd   Isotropic =  -171.5369   Anisotropy =   224.3746
   XX=   -55.1711   YX=    99.1857   ZX=    -4.5938
   XY=   106.2595   YY=  -428.9432   ZY=   -13.8087
   XZ=     2.5540   YZ=   -35.0295   ZZ=   -30.4963
   Eigenvalues:  -456.5989   -36.0580   -21.9538
     91  C    Isotropic =   167.7133   Anisotropy =    30.4919
   XX=   180.8972   YX=   -11.3964   ZX=    -3.1707
   XY=   -12.4112   YY=   166.5801   ZY=     4.6855
   XZ=     0.5986   YZ=     5.4897   ZZ=   155.6626
   Eigenvalues:   153.1358   161.9629   188.0412
     92  H    Isotropic =    29.8995   Anisotropy =     6.0005
   XX=    32.2753   YX=    -1.1943   ZX=     0.3892
   XY=     0.6322   YY=    31.8990   ZY=     4.0794
   XZ=     0.4791   YZ=     4.1018   ZZ=    25.5241
   Eigenvalues:    23.4957    32.3029    33.8998
     93  H    Isotropic =    29.1767   Anisotropy =     8.9337
   XX=    30.4902   YX=    -1.3725   ZX=     4.3771
   XY=    -2.7603   YY=    28.2052   ZY=    -0.7073
   XZ=     5.1803   YZ=    -0.7941   ZZ=    28.8347
   Eigenvalues:    24.6306    27.7670    35.1324
     94  H    Isotropic =    28.8912   Anisotropy =     9.1168
   XX=    33.1869   YX=     2.4531   ZX=    -2.7044
   XY=     1.1515   YY=    28.1021   ZY=     0.5044
   XZ=    -4.6398   YZ=     0.5410   ZZ=    25.3846
   Eigenvalues:    23.6193    28.0852    34.9691
     95  C    Isotropic =   169.3530   Anisotropy =    28.7727
   XX=   160.9769   YX=     1.8094   ZX=     1.2653
   XY=     0.9830   YY=   187.3135   ZY=     3.3681
   XZ=     7.8513   YZ=     7.5244   ZZ=   159.7687
   Eigenvalues:   155.4341   164.0902   188.5348
     96  H    Isotropic =    29.5622   Anisotropy =     7.5392
   XX=    31.7024   YX=     0.3747   ZX=     4.1677
   XY=    -2.8452   YY=    32.0515   ZY=    -0.0323
   XZ=     4.7984   YZ=    -0.7795   ZZ=    24.9327
   Eigenvalues:    22.6964    31.4019    34.5883
     97  H    Isotropic =    28.7718   Anisotropy =     8.5865
   XX=    32.4074   YX=     1.9912   ZX=    -0.3585
   XY=     3.3349   YY=    31.0409   ZY=     0.0491
   XZ=    -0.0169   YZ=    -1.2422   ZZ=    22.8672
   Eigenvalues:    22.8239    28.9954    34.4962
     98  H    Isotropic =    29.0725   Anisotropy =     8.2106
   XX=    27.6914   YX=     0.3006   ZX=     0.6430
   XY=     0.0609   YY=    27.7189   ZY=     3.5369
   XZ=     1.0528   YZ=     4.8971   ZZ=    31.8071
   Eigenvalues:    25.0425    27.6287    34.5462
     99  O    Isotropic =   257.5369   Anisotropy =   112.8064
   XX=   271.8568   YX=    39.1770   ZX=   -23.0089
   XY=    45.5749   YY=   235.8879   ZY=   -34.5015
   XZ=   -43.1227   YZ=   -35.4429   ZZ=   264.8659
   Eigenvalues:   204.6348   235.2347   332.7412
    100  C    Isotropic =   126.5948   Anisotropy =    83.9431
   XX=   109.0735   YX=     4.1364   ZX=    24.1978
   XY=     4.7328   YY=    97.5747   ZY=     2.0121
   XZ=    27.7239   YZ=     4.0409   ZZ=   173.1361
   Eigenvalues:    95.2072   102.0203   182.5568
    101  H    Isotropic =    28.0499   Anisotropy =     8.6112
   XX=    25.9808   YX=    -1.0219   ZX=     3.1253
   XY=    -1.3887   YY=    27.1945   ZY=     0.0572
   XZ=     5.3996   YZ=    -2.2862   ZZ=    30.9743
   Eigenvalues:    23.4683    26.8907    33.7907
    102  H    Isotropic =    27.7996   Anisotropy =     8.0284
   XX=    26.8789   YX=    -0.8453   ZX=     2.6733
   XY=    -1.7756   YY=    25.0712   ZY=     1.3575
   XZ=     1.8929   YZ=     4.8157   ZZ=    31.4486
   Eigenvalues:    22.7203    27.5265    33.1519
    103  H    Isotropic =    27.7014   Anisotropy =    10.8120
   XX=    30.4995   YX=     2.6996   ZX=     3.0516
   XY=     2.1216   YY=    25.1965   ZY=     1.3077
   XZ=     6.2698   YZ=     2.8965   ZZ=    27.4081
   Eigenvalues:    23.8133    24.3815    34.9094
    104  C    Isotropic =   168.3461   Anisotropy =    25.3763
   XX=   161.6886   YX=    -8.1991   ZX=     2.8142
   XY=    -0.6185   YY=   165.9342   ZY=   -11.6484
   XZ=     1.4559   YZ=   -11.3566   ZZ=   177.4154
   Eigenvalues:   157.0861   162.6885   185.2636
    105  H    Isotropic =    28.6219   Anisotropy =     5.4816
   XX=    27.1530   YX=     1.8486   ZX=     0.6894
   XY=     1.8190   YY=    31.4087   ZY=    -0.0654
   XZ=     0.9389   YZ=    -2.5404   ZZ=    27.3041
   Eigenvalues:    25.5548    28.0347    32.2763
    106  H    Isotropic =    29.2314   Anisotropy =    10.5467
   XX=    33.1711   YX=    -4.3011   ZX=     4.3269
   XY=    -2.7783   YY=    27.6585   ZY=    -0.0164
   XZ=     3.0593   YZ=    -1.0538   ZZ=    26.8646
   Eigenvalues:    24.6317    26.8000    36.2626
    107  H    Isotropic =    29.1631   Anisotropy =     5.0019
   XX=    25.5233   YX=    -2.4016   ZX=    -0.1286
   XY=    -2.1705   YY=    29.9918   ZY=     0.4795
   XZ=     0.3914   YZ=     1.5200   ZZ=    31.9743
   Eigenvalues:    24.5257    30.4660    32.4977
    108  C    Isotropic =   166.8393   Anisotropy =    22.6956
   XX=   161.8373   YX=    -4.3404   ZX=     4.4973
   XY=     2.7498   YY=   163.7435   ZY=     9.1549
   XZ=     7.8038   YZ=    10.6976   ZZ=   174.9372
   Eigenvalues:   155.3516   163.1967   181.9697
    109  H    Isotropic =    28.8981   Anisotropy =     3.9682
   XX=    29.0287   YX=     0.9153   ZX=     0.8914
   XY=     1.5867   YY=    30.5552   ZY=    -0.3955
   XZ=     1.3426   YZ=     1.6854   ZZ=    27.1105
   Eigenvalues:    26.5961    28.5547    31.5436
    110  H    Isotropic =    29.3002   Anisotropy =    10.6888
   XX=    30.3243   YX=    -4.3297   ZX=    -4.9144
   XY=    -2.8895   YY=    27.0791   ZY=     1.5363
   XZ=    -3.3167   YZ=     3.1313   ZZ=    30.4973
   Eigenvalues:    24.7185    26.7560    36.4261
    111  H    Isotropic =    29.9364   Anisotropy =     4.7705
   XX=    30.2960   YX=    -2.3505   ZX=     1.2981
   XY=    -1.5019   YY=    29.0109   ZY=     0.1423
   XZ=     3.0130   YZ=    -0.4838   ZZ=    30.5022
   Eigenvalues:    27.1407    29.5517    33.1167
    112  O    Isotropic =   253.3050   Anisotropy =   117.1924
   XX=   271.9219   YX=    60.1263   ZX=   -20.9339
   XY=    42.1555   YY=   280.1587   ZY=    -4.9713
   XZ=   -31.0814   YZ=    -7.6814   ZZ=   207.8345
   Eigenvalues:   196.3123   232.1695   331.4333
    113  C    Isotropic =   126.9817   Anisotropy =    86.3486
   XX=   168.0755   YX=   -33.7323   ZX=   -11.4128
   XY=   -29.1501   YY=   116.0851   ZY=     4.4134
   XZ=   -11.3819   YZ=     4.0312   ZZ=    96.7844
   Eigenvalues:    94.9477   101.4499   184.5474
    114  H    Isotropic =    27.5512   Anisotropy =    11.4037
   XX=    27.3492   YX=    -7.2639   ZX=    -0.4710
   XY=    -3.0860   YY=    31.5504   ZY=     0.8850
   XZ=    -0.4219   YZ=     1.3186   ZZ=    23.7539
   Eigenvalues:    23.4805    24.0194    35.1536
    115  H    Isotropic =    27.6973   Anisotropy =    10.0978
   XX=    32.2572   YX=    -5.1176   ZX=     3.5907
   XY=    -3.5746   YY=    25.0226   ZY=     0.9141
   XZ=     0.0422   YZ=     1.8654   ZZ=    25.8122
   Eigenvalues:    21.9062    26.7565    34.4291
    116  H    Isotropic =    28.1085   Anisotropy =    10.6984
   XX=    31.8399   YX=    -4.8203   ZX=    -4.9753
   XY=    -3.3663   YY=    24.9012   ZY=     0.6833
   XZ=    -1.8793   YZ=     0.6053   ZZ=    27.5845
   Eigenvalues:    22.8083    26.2765    35.2408
 End of Minotr F.D. properties file   721 does not exist.
 End of Minotr F.D. properties file   722 does not exist.
 End of Minotr F.D. properties file   788 does not exist.
 Hyperfine terms turned off by default for NAtoms > 100.

 **********************************************************************

            Population analysis using the SCF Density.

 **********************************************************************

 Orbital symmetries:
       Occupied  (A) (A) (A) (A) (A) (A) (A) (A) (A) (A) (A) (A)
                 (A) (A) (A) (A) (A) (A) (A) (A) (A) (A) (A) (A)
                 (A) (A) (A) (A) (A) (A) (A) (A) (A) (A) (A) (A)
                 (A) (A) (A) (A) (A) (A) (A) (A) (A) (A) (A) (A)
                 (A) (A) (A) (A) (A) (A) (A) (A) (A) (A) (A) (A)
                 (A) (A) (A) (A) (A) (A) (A) (A) (A) (A) (A) (A)
                 (A) (A) (A) (A) (A) (A) (A) (A) (A) (A) (A) (A)
                 (A) (A) (A) (A) (A) (A) (A) (A) (A) (A) (A) (A)
                 (A) (A) (A) (A) (A) (A) (A) (A) (A) (A) (A) (A)
                 (A) (A) (A) (A) (A) (A) (A) (A) (A) (A) (A) (A)
                 (A) (A) (A) (A) (A) (A) (A) (A) (A) (A) (A) (A)
                 (A) (A) (A) (A) (A) (A) (A) (A) (A) (A) (A) (A)
                 (A) (A) (A) (A) (A) (A) (A) (A) (A) (A) (A) (A)
                 (A) (A) (A) (A) (A) (A) (A) (A) (A) (A) (A) (A)
                 (A) (A) (A) (A) (A) (A) (A) (A) (A) (A) (A) (A)
                 (A) (A) (A) (A) (A) (A) (A) (A) (A) (A) (A) (A)
                 (A) (A) (A) (A) (A) (A) (A) (A) (A) (A) (A) (A)
                 (A) (A) (A) (A) (A) (A) (A) (A) (A) (A) (A) (A)
                 (A) (A) (A) (A) (A) (A) (A) (A) (A) (A) (A) (A)
                 (A) (A) (A) (A) (A) (A) (A) (A) (A) (A) (A) (A)
                 (A) (A) (A) (A) (A) (A) (A) (A) (A) (A) (A) (A)
                 (A) (A) (A) (A) (A) (A) (A) (A) (A) (A) (A) (A)
                 (A) (A) (A) (A) (A) (A) (A) (A) (A) (A) (A) (A)
                 (A) (A) (A) (A) (A) (A) (A) (A) (A) (A) (A) (A)
                 (A)
       Virtual   (A) (A) (A) (A) (A) (A) (A) (A) (A) (A) (A) (A)
                 (A) (A) (A) (A) (A) (A) (A) (A) (A) (A) (A) (A)
                 (A) (A) (A) (A) (A) (A) (A) (A) (A) (A) (A) (A)
                 (A) (A) (A) (A) (A) (A) (A) (A) (A) (A) (A) (A)
                 (A) (A) (A) (A) (A) (A) (A) (A) (A) (A) (A) (A)
                 (A) (A) (A) (A) (A) (A) (A) (A) (A) (A) (A) (A)
                 (A) (A) (A) (A) (A) (A) (A) (A) (A) (A) (A) (A)
                 (A) (A) (A) (A) (A) (A) (A) (A) (A) (A) (A) (A)
                 (A) (A) (A) (A) (A) (A) (A) (A) (A) (A) (A) (A)
                 (A) (A) (A) (A) (A) (A) (A) (A) (A) (A) (A) (A)
                 (A) (A) (A) (A) (A) (A) (A) (A) (A) (A) (A) (A)
                 (A) (A) (A) (A) (A) (A) (A) (A) (A) (A) (A) (A)
                 (A) (A) (A) (A) (A) (A) (A) (A) (A) (A) (A) (A)
                 (A) (A) (A) (A) (A) (A) (A) (A) (A) (A) (A) (A)
                 (A) (A) (A) (A) (A) (A) (A) (A) (A) (A) (A) (A)
                 (A) (A) (A) (A) (A) (A) (A) (A) (A) (A) (A) (A)
                 (A) (A) (A) (A) (A) (A) (A) (A) (A) (A) (A) (A)
                 (A) (A) (A) (A) (A) (A) (A) (A) (A) (A) (A) (A)
                 (A) (A) (A) (A) (A) (A) (A) (A) (A) (A) (A) (A)
                 (A) (A) (A) (A) (A) (A) (A) (A) (A) (A) (A) (A)
                 (A) (A) (A) (A) (A) (A) (A) (A) (A) (A) (A) (A)
                 (A) (A) (A) (A) (A) (A) (A) (A) (A) (A) (A) (A)
                 (A) (A) (A) (A) (A) (A) (A) (A) (A) (A) (A) (A)
                 (A) (A) (A) (A) (A) (A) (A) (A) (A) (A) (A) (A)
                 (A) (A) (A) (A) (A) (A) (A) (A) (A) (A) (A) (A)
                 (A) (A) (A) (A) (A) (A) (A) (A) (A) (A) (A) (A)
                 (A) (A) (A) (A) (A) (A) (A) (A) (A) (A) (A) (A)
                 (A) (A) (A) (A) (A) (A) (A) (A) (A) (A) (A) (A)
                 (A) (A) (A) (A) (A) (A) (A) (A) (A) (A) (A) (A)
                 (A) (A) (A) (A) (A) (A) (A) (A) (A) (A) (A) (A)
                 (A) (A) (A) (A) (A) (A) (A) (A) (A) (A) (A) (A)
                 (A) (A) (A) (A) (A) (A) (A) (A) (A) (A) (A) (A)
                 (A) (A) (A) (A) (A) (A) (A) (A) (A) (A) (A) (A)
                 (A) (A) (A) (A) (A) (A) (A) (A) (A) (A) (A) (A)
                 (A) (A) (A) (A) (A) (A) (A) (A) (A) (A) (A) (A)
                 (A) (A) (A) (A) (A) (A) (A) (A) (A) (A) (A) (A)
                 (A) (A) (A) (A) (A) (A) (A) (A) (A) (A) (A) (A)
                 (A) (A) (A) (A) (A) (A) (A) (A) (A) (A) (A) (A)
                 (A) (A) (A) (A) (A) (A) (A) (A) (A) (A) (A) (A)
                 (A) (A) (A) (A) (A) (A) (A) (A) (A) (A) (A) (A)
                 (A) (A) (A) (A) (A) (A) (A) (A) (A) (A) (A) (A)
                 (A) (A) (A) (A) (A) (A) (A) (A) (A) (A) (A) (A)
                 (A) (A) (A) (A) (A) (A) (A) (A) (A) (A) (A) (A)
                 (A) (A) (A) (A) (A) (A) (A) (A) (A) (A) (A) (A)
                 (A) (A) (A) (A) (A) (A) (A) (A) (A) (A) (A) (A)
                 (A) (A) (A) (A) (A) (A) (A) (A) (A) (A) (A) (A)
                 (A) (A) (A) (A) (A) (A) (A) (A) (A) (A) (A) (A)
                 (A) (A) (A) (A) (A) (A) (A) (A) (A) (A) (A) (A)
                 (A) (A) (A) (A) (A) (A) (A) (A) (A) (A) (A) (A)
                 (A) (A) (A) (A) (A) (A) (A) (A) (A) (A) (A) (A)
                 (A) (A) (A) (A) (A) (A) (A) (A) (A) (A) (A) (A)
                 (A) (A) (A) (A) (A) (A) (A) (A) (A) (A) (A) (A)
                 (A) (A) (A) (A) (A) (A) (A) (A) (A) (A) (A) (A)
                 (A) (A) (A) (A) (A) (A) (A) (A) (A) (A) (A) (A)
                 (A) (A) (A) (A) (A) (A) (A) (A) (A) (A) (A) (A)
                 (A) (A) (A) (A) (A) (A) (A) (A) (A) (A) (A) (A)
                 (A) (A) (A) (A) (A) (A) (A) (A) (A) (A) (A) (A)
                 (A) (A) (A) (A) (A) (A) (A) (A) (A) (A) (A) (A)
                 (A) (A) (A) (A) (A) (A) (A) (A) (A) (A) (A) (A)
                 (A) (A) (A) (A) (A) (A) (A) (A) (A) (A) (A) (A)
                 (A) (A) (A) (A) (A) (A) (A) (A) (A) (A) (A) (A)
                 (A) (A) (A) (A) (A) (A) (A) (A) (A) (A) (A) (A)
                 (A) (A) (A) (A) (A) (A) (A) (A) (A) (A) (A) (A)
                 (A) (A) (A) (A) (A) (A) (A) (A) (A) (A) (A) (A)
                 (A) (A) (A) (A) (A) (A) (A) (A) (A) (A) (A) (A)
                 (A) (A) (A) (A) (A) (A) (A) (A) (A) (A) (A) (A)
                 (A) (A) (A) (A) (A) (A) (A) (A) (A) (A) (A) (A)
                 (A) (A) (A) (A) (A) (A) (A) (A) (A) (A) (A) (A)
                 (A) (A) (A) (A) (A) (A) (A) (A) (A) (A) (A) (A)
                 (A) (A) (A) (A) (A) (A) (A) (A) (A) (A) (A) (A)
                 (A) (A) (A) (A) (A) (A) (A) (A) (A) (A) (A) (A)
                 (A) (A) (A) (A) (A) (A) (A) (A) (A) (A) (A) (A)
                 (A) (A) (A) (A) (A) (A) (A) (A) (A) (A) (A) (A)
                 (A) (A) (A) (A) (A) (A) (A) (A) (A) (A) (A) (A)
                 (A) (A) (A) (A) (A) (A) (A) (A) (A) (A) (A) (A)
                 (A) (A) (A) (A) (A) (A) (A) (A) (A) (A) (A) (A)
                 (A) (A) (A) (A) (A) (A) (A) (A) (A) (A) (A) (A)
                 (A) (A) (A) (A) (A) (A) (A) (A) (A) (A) (A) (A)
                 (A) (A) (A) (A) (A) (A) (A) (A) (A) (A) (A) (A)
                 (A) (A) (A) (A) (A) (A) (A) (A) (A) (A) (A) (A)
                 (A) (A) (A) (A) (A) (A) (A) (A) (A) (A) (A) (A)
                 (A) (A) (A) (A) (A) (A) (A) (A) (A) (A) (A) (A)
                 (A) (A) (A) (A) (A) (A) (A) (A) (A) (A) (A) (A)
                 (A) (A) (A) (A) (A) (A) (A) (A) (A) (A) (A) (A)
                 (A) (A) (A) (A) (A) (A) (A) (A) (A) (A) (A) (A)
                 (A) (A) (A) (A) (A) (A) (A) (A) (A) (A) (A) (A)
                 (A) (A) (A) (A) (A) (A) (A) (A) (A) (A) (A) (A)
                 (A) (A) (A) (A) (A) (A) (A) (A) (A) (A) (A) (A)
                 (A) (A) (A) (A) (A) (A) (A) (A) (A) (A) (A) (A)
                 (A) (A) (A) (A) (A) (A) (A) (A) (A) (A) (A) (A)
                 (A) (A) (A) (A) (A) (A) (A) (A) (A) (A) (A) (A)
                 (A) (A) (A) (A) (A) (A) (A) (A) (A) (A) (A) (A)
[...]
                                                    1588(r),628(r),2019(r)
                                                    1562(r),1876(r),1875(r)
                                                    590(r),1037(r),1941(r)
                                                    781(r),1671(r),2026(r)
                                                    626(r),1563(r),464(r),513(r)
                                                    635(r),1878(r),543(r)
                                                    1572(r),1874(r),782(r)
                                                    2031(r),835(r),2424(r)
                                                    672(r),1040(r),640(r)
                                                    1033(r),1828(r),1704(r)
                                                    786(r),810(r),719(r),1871(r)
                                                    1847(r),597(r),2046(r)
                                                    1823(r),1057(r),567(r)
                                                    677(r),1010(r),1967(r)
  1676. RY*(   1)Cl  69                  0.00106     0.92013   
  1677. RY*(   2)Cl  69                  0.00105     0.76274   
  1678. RY*(   3)Cl  69                  0.00091     0.98717   
  1679. RY*(   4)Cl  69                  0.00039     0.89944   
  1680. RY*(   5)Cl  69                  0.00013     1.77772   
  1681. RY*(   6)Cl  69                  0.00011     0.89753   
  1682. RY*(   7)Cl  69                  0.00009     1.52734   
  1683. RY*(   8)Cl  69                  0.00008     2.41228   
  1684. RY*(   9)Cl  69                  0.00004     2.06541   
  1685. RY*(  10)Cl  69                  0.00004     1.46358   
  1686. RY*(  11)Cl  69                  0.00000    10.65168   
  1687. RY*(  12)Cl  69                  0.00000    10.58725   
  1688. RY*(  13)Cl  69                  0.00000     2.03296   
  1689. RY*(  14)Cl  69                  0.00000    24.44956   
  1690. RY*(  15)Cl  69                  0.00001     2.14550   
  1691. RY*(  16)Cl  69                  0.00000     2.70651   
  1692. RY*(  17)Cl  69                  0.00000     2.07583   
  1693. RY*(  18)Cl  69                  0.00000    10.58909   
  1694. RY*(  19)Cl  69                  0.00001     2.80155   
  1695. RY*(  20)Cl  69                  0.00000     2.68386   
  1696. RY*(  21)Cl  69                  0.00000     2.36214   
  1697. RY*(  22)Cl  69                  0.00000     2.20129   
  1698. RY*(  23)Cl  69                  0.00000     2.22954   
  1699. RY*(  24)Cl  69                  0.00000     2.18059   
  1700. RY*(  25)Cl  69                  0.00000     2.11943   
  1701. RY*(  26)Cl  69                  0.00000     2.19514   
  1702. RY*(  27)Cl  69                  0.00000     2.20680   
  1703. RY*(  28)Cl  69                  0.00000     2.19452   
       -------------------------------
              Total Lewis   17.39813  ( 99.9773%)
        Valence non-Lewis    0.00000  (  0.0000%)
        Rydberg non-Lewis    0.00394  (  0.0227%)
       -------------------------------
            Total unit  4   17.40208  (100.0000%)
           Charge unit  4   -0.40208
 
 Molecular unit  5  (Cl)
   204. CR (   1)Cl  70                  2.00000   -99.97402  292(r),293(r)
   205. CR (   2)Cl  70                  1.99973   -10.70893  292(r),293(r),2079(r)
                                                    2080(r),294(r),2424(r)
                                                    2081(r)
   206. CR (   3)Cl  70                  1.99996    -7.17882  292(r)
   207. CR (   4)Cl  70                  1.99998    -7.17853  294(r),292(r)
   208. CR (   5)Cl  70                  1.99995    -7.18038  293(r),292(r),2476(r)
   284. LP (   1)Cl  70                  1.96124    -0.26453  292(r),293(r),2424(r)
                                                    2079(r),2084(r),2100(r)
                                                    2095(r),2427(r),294(r)
                                                    2465(r),2091(r),2080(r)
                                                    650(r),2440(r),2094(r)
                                                    2093(r),2096(r),1139(r)
                                                    2086(r),1482(r),2444(r)
                                                    2083(r),2090(r),2099(r)
                                                    1484(r),2438(r),1679(r)
                                                    2082(r),2476(r),2088(r)
                                                    2098(r),2435(r),2097(r)
                                                    780(r)
   285. LP (   2)Cl  70                  1.95219    -0.85188  292(r),293(r),2080(r)
                                                    2082(r),2083(r),2100(r)
                                                    2099(r),2081(r),2097(r)
                                                    2091(r),2098(r),2085(r)
                                                    1482(r),2088(r),2079(r)
                                                    2084(r),1484(r),1483(r)
                                                    2086(r),2424(r),650(r)
                                                    2090(r),2476(r),1992(r)
                                                    2429(r),2093(r),2443(r)
                                                    2440(r),1491(r),1842(r)
                                                    1493(r),2465(r),1492(r)
                                                    1488(r),1841(r),2445(r)
                                                    658(r),2096(r),2474(r)
                                                    1998(r),2444(r),1852(r)
                                                    1849(r),2094(r),1994(r)
                                                    1991(r)
   286. LP (   3)Cl  70                  1.94354    -0.34815  292(r),294(r),293(r),2465(r)
                                                    2081(r),2443(r),2424(r)
                                                    2101(r),1139(r),2086(r)
                                                    2079(r),2093(r),2445(r)
                                                    242(r),2463(r)
   287. LP (   4)Cl  70                  1.54112    -0.37577  292(r),2476(r),293(r)
                                                    2094(r),2096(r),2095(r)
                                                    2098(r),2090(r),1482(r)
                                                    650(r),2091(r),2093(r)
                                                    2083(r),2085(r),1484(r)
                                                    1488(r),2080(r),2429(r)
                                                    2086(r),659(r),1706(g)
                                                    2424(r),658(r),660(r)
                                                    1491(r),624(r),1026(r)
                                                    1842(r),637(r),2087(r)
                                                    1841(r),625(r),1590(r)
                                                    1849(r),1852(r),1025(r)
                                                    1710(g),1566(r),633(r)
                                                    1054(r),780(r),804(r)
                                                    1483(r),1992(r),1030(r)
                                                    663(r),1053(r),1493(r)
                                                    651(r),662(r),1851(r)
                                                    1028(r),1680(r),803(r)
                                                    655(r),2079(r),294(r)
                                                    1709(g),1704(g),1038(r)
                                                    1678(r),657(r),1991(r)
                                                    1817(r),1969(r),653(r)
                                                    833(r),1060(r),1589(r)
                                                    1591(r),1818(r),2092(r)
                                                    2088(r),1998(r),1968(r)
                                                    1496(r),1618(r),1617(r)
                                                    1036(r),1058(r),1059(r)
                                                    1683(r),678(r),1845(r)
                                                    1994(r),2084(r),666(r)
                                                    778(r),807(r),1690(r)
                                                    1974(r),1002(r),1035(r)
                                                    831(r),1139(r),627(r)
                                                    1850(r),562(r),1498(r)
                                                    1492(r),2428(r),1843(r)
                                                    1592(r),1494(r),2089(r)
                                                    1966(r),1598(r),2003(r)
                                                    779(r),830(r),1815(r),462(r)
                                                    1819(r),1057(r),1869(r)
                                                    626(r),806(r),632(r),1588(r)
                                                    591(r),1942(r),2099(r)
                                                    654(r),2074(r),1489(r)
                                                    1487(r),1503(r),1979(r)
                                                    1495(r),802(r),1671(r)
                                                    1970(r),1569(r),1621(r)
                                                    1677(r),1490(r),1965(r)
                                                    1486(r),1502(r),1825(r)
                                                    1033(r),569(r),1604(r)
                                                    639(r),1996(r),787(r)
                                                    1949(r),1571(r),1504(r)
                                                    814(r),1006(r),1684(r)
                                                    1698(r),2024(r),1029(r)
                                                    459(r),1501(r),1997(r)
                                                    2000(r),2019(r),1995(r)
                                                    1034(r),2475(r),1624(r)
                                                    1824(r),811(r),2427(r)
                                                    652(r),812(r),1872(r)
                                                    2445(r),665(r),1562(r)
                                                    2001(r),468(r),1951(r)
                                                    670(r),687(r),1563(r)
                                                    2029(r),1010(r),2097(r)
                                                    1485(r),2081(r),1676(r)
                                                    541(r),628(r),776(r),664(r)
                                                    1041(r),2017(r),1977(r)
                                                    1040(r),590(r),669(r)
                                                    1061(r),2026(r),1565(r)
                                                    835(r),640(r),671(r),1732(r)
                                                    1878(r),630(r),781(r),636(r)
                                                    1051(r),1055(r),1908(r)
                                                    1031(r),464(r),1823(r)
                                                    1572(r),1854(r),783(r)
                                                    2007(r),571(r),635(r)
                                                    2100(r),677(r),813(r)
                                                    1696(r),675(r),1871(r)
                                                    810(r)
  1704. RY*(   1)Cl  70                  0.00129     0.78213   
  1705. RY*(   2)Cl  70                  0.00108     0.85440   
  1706. RY*(   3)Cl  70                  0.00089     0.88824   
  1707. RY*(   4)Cl  70                  0.00031     0.93362   
  1708. RY*(   5)Cl  70                  0.00022     1.02871   
  1709. RY*(   6)Cl  70                  0.00010     1.96138   
  1710. RY*(   7)Cl  70                  0.00007     2.08394   
  1711. RY*(   8)Cl  70                  0.00005     1.78155   
  1712. RY*(   9)Cl  70                  0.00003     1.23563   
  1713. RY*(  10)Cl  70                  0.00003     1.95680   
  1714. RY*(  11)Cl  70                  0.00000    10.64784   
  1715. RY*(  12)Cl  70                  0.00000    10.58297   
  1716. RY*(  13)Cl  70                  0.00001     2.02818   
  1717. RY*(  14)Cl  70                  0.00000    25.21173   
  1718. RY*(  15)Cl  70                  0.00001     1.98198   
  1719. RY*(  16)Cl  70                  0.00000     2.65974   
  1720. RY*(  17)Cl  70                  0.00001     2.10533   
  1721. RY*(  18)Cl  70                  0.00000    10.56725   
  1722. RY*(  19)Cl  70                  0.00000     2.03664   
  1723. RY*(  20)Cl  70                  0.00001     2.57673   
  1724. RY*(  21)Cl  70                  0.00001     2.53926   
  1725. RY*(  22)Cl  70                  0.00000     2.12434   
  1726. RY*(  23)Cl  70                  0.00000     2.22042   
  1727. RY*(  24)Cl  70                  0.00000     2.17094   
  1728. RY*(  25)Cl  70                  0.00000     2.09397   
  1729. RY*(  26)Cl  70                  0.00000     2.18217   
  1730. RY*(  27)Cl  70                  0.00000     2.15185   
  1731. RY*(  28)Cl  70                  0.00000     2.21362   
       -------------------------------
              Total Lewis   17.39772  ( 99.9762%)
        Valence non-Lewis    0.00000  (  0.0000%)
        Rydberg non-Lewis    0.00414  (  0.0238%)
       -------------------------------
            Total unit  5   17.40187  (100.0000%)
           Charge unit  5   -0.40187
 1\1\GINC-NOTCH058\SP\RPBE1PBE\Gen\C52H44Cl2F12Fe1O2P2Pd1\U6034117\04-M
 ar-2022\0\\# PBE1PBE gen pseudo=read int=(grid=ultrafine) empiricaldis
 persion=GD3BJ pop=nbo guess=read geom=check\\W005_1_5 title\\0,1\C,0,1
 .7757026807,-1.9933476587,5.2407827907\C,0,2.5097138112,-0.912880821,5
 .8357257635\C,0,3.8675413437,-1.3450663048,6.0159890863\C,0,3.97248451
 ,-2.6936761665,5.5329521515\C,0,2.6787700749,-3.0943489761,5.049459338
 4\H,0,2.1181960559,0.08044983,6.0580857881\H,0,4.6873497811,-0.7379092
 754,6.401384236\H,0,4.8859736695,-3.2895842751,5.5128128639\H,0,2.4282
 019065,-4.0542581167,4.5961727217\H,0,0.7231318632,-1.9675228769,4.961
 2826582\Fe,0,3.3459376624,-1.4294256543,4.0387284727\C,0,4.2154707591,
 0.2198466204,3.2300877456\C,0,4.9417446446,-0.9567849755,2.8501679476\
 C,0,4.0454398626,-1.8257954185,2.1302962331\C,0,2.7474220001,-1.189936
 7681,2.0871239178\C,0,2.8614037512,0.075304677,2.7771301467\H,0,4.6036
 536846,1.0507534217,3.8198853907\H,0,2.0572760409,0.7817746026,2.97879
 45507\C,0,1.5904490629,-1.7171288085,1.2801949422\P,0,1.5046625753,-0.
 5929828387,-0.240882987\H,0,1.8838792367,-2.7063320894,0.8800339756\C,
 0,0.2702428592,-1.8436552155,2.0526433134\H,0,-0.5821621649,-2.0854698
 051,1.3966197271\H,0,0.373998666,-2.6475042694,2.7992540307\H,0,0.0279
 628034,-0.9096220998,2.5831414206\C,0,-1.5088587392,2.4877641814,1.491
 1019249\C,0,-1.9809076762,1.395684198,0.7524839586\C,0,-1.0835205882,0
 .4848685058,0.1731976853\C,0,0.2991493732,0.6818101527,0.3078253147\C,
 0,0.7756227999,1.8104976135,0.9941162375\C,0,-0.1271345378,2.686197948
 3,1.609303114\H,0,-2.209001852,3.1848220958,1.9568622057\C,0,-3.463333
 38,1.1328270524,0.6519223497\H,0,-1.4724838964,-0.368271526,-0.3900228
 677\H,0,1.8490963371,2.008461708,1.0346430086\C,0,0.4330860505,3.79669
 38017,2.4614485535\C,0,-0.661692352,-2.763548489,-3.7328749993\C,0,-0.
 6638805806,-3.35939088,-2.4684381135\C,0,-0.0268930249,-2.7341513126,-
 1.3826750754\C,0,0.6048088469,-1.4952110137,-1.5630153988\C,0,0.613563
 6766,-0.8933750715,-2.8389931528\C,0,-0.0146478751,-1.5311636452,-3.91
 16667931\H,0,-1.1332667918,-3.266145763,-4.5806337987\C,0,-1.370477493
 1,-4.6715756999,-2.2378314127\H,0,-0.0199583686,-3.2369279741,-0.41194
 45505\H,0,1.1289579326,0.0637718441,-2.9819639995\C,0,-0.0265956195,-0
 .8778105891,-5.2750452408\F,0,-1.1949655135,-0.211981995,-5.4874585819
 \F,0,0.9851093765,0.0147287593,-5.4161707957\F,0,0.0929088481,-1.80371
 7368,-6.2664544869\F,0,-2.5664222587,-4.491390508,-1.6150621317\F,0,-1
 .6097780558,-5.3376175418,-3.3973783998\F,0,-0.6301535173,-5.494397018
 3,-1.4338779152\F,0,-4.1910369057,2.2714989379,0.7891123528\F,0,-3.791
 000793,0.5664314714,-0.5403172561\F,0,-3.8742848348,0.2712180742,1.627
 6079166\F,0,-0.5163052682,4.6904351507,2.8382742925\F,0,0.9776591245,3
 .2752238476,3.6096097782\F,0,1.4236275214,4.4710789727,1.8309434239\P,
 0,4.6101873927,-1.8578361994,-1.0889079715\C,0,9.2129637229,-1.7499379
 798,-1.4328460399\C,0,8.4881980369,-2.4360029422,-2.4296251951\C,0,7.0
 85954407,-2.4397152789,-2.3501466517\C,0,6.428695879,-1.7693437352,-1.
 3080223849\C,0,7.1721595121,-1.1045598231,-0.3193058483\C,0,8.57229525
 01,-1.0858363692,-0.3627330386\H,0,6.5091161145,-2.9604337321,-3.12179
 54337\H,0,6.6530516244,-0.5673014751,0.482230658\Cl,0,5.4372116446,1.1
 392590634,-2.0198792924\Cl,0,2.2926669041,2.1188109043,-1.7634256098\H
 ,0,5.98428198,-1.1811093204,3.0790418664\C,0,5.2114263535,-5.623640077
 ,0.4457063785\C,0,5.0149671354,-5.4824824534,1.825501472\C,0,4.6239272
 317,-4.2454736194,2.3426381787\C,0,4.404072401,-3.1256401379,1.5122491
 19\C,0,4.5868917507,-3.2758894456,0.1146747943\C,0,5.0122494406,-4.524
 8981437,-0.3932216848\H,0,5.5351681886,-6.5795675821,0.0220628331\H,0,
 5.1768011388,-6.3302620602,2.499121565\H,0,4.4819386534,-4.112821061,3
 .4161057167\H,0,5.2135056803,-4.6294485607,-1.4627182072\C,0,2.8108122
 623,-3.3936359494,-5.0748439361\C,0,3.5657882939,-2.1984682563,-5.0491
 19984\C,0,4.1188488466,-1.7899904474,-3.8253097902\C,0,3.9216764707,-2
 .5437354736,-2.6488879201\C,0,3.1124772321,-3.6935263514,-2.69561258\C
 ,0,2.5660173318,-4.1463852417,-3.9071597261\H,0,4.6868350681,-0.852540
 6614,-3.7762898888\H,0,2.9052586122,-4.2650433919,-1.7856802331\Pd,0,3
 .4931343819,0.1770746473,-1.0576789842\C,0,9.2144655729,-3.151201034,-
 3.5425578257\H,0,8.5261843091,-3.8011401009,-4.1070053339\H,0,9.662567
 2424,-2.4392536483,-4.2599315537\H,0,10.0409854339,-3.7646570784,-3.14
 73451263\C,0,9.3736215436,-0.3726122047,0.6981679455\H,0,8.8304700609,
 -0.3575168182,1.6576957036\H,0,10.3503461914,-0.8600633318,0.847646088
 7\H,0,9.5647051813,0.6802614759,0.4186212357\O,0,10.6007884804,-1.7845
 203135,-1.487365766\C,0,11.1670788701,-0.6324933012,-2.1272092197\H,0,
 10.8014917495,-0.5283420538,-3.1665209802\H,0,10.9329141213,0.29718608
 29,-1.5752639974\H,0,12.256908244,-0.7879574649,-2.1353563884\C,0,3.73
 56579145,-1.3636513843,-6.2944380306\H,0,2.821888659,-1.3947388541,-6.
 9080382804\H,0,4.5715412329,-1.7265298761,-6.921312541\H,0,3.951267983
 1,-0.3162233432,-6.0307141606\C,0,1.7405685004,-5.4076235431,-3.967703
 8217\H,0,0.8531563447,-5.2771607763,-4.6064574917\H,0,2.3201169742,-6.
 2466466101,-4.3960303522\H,0,1.4073349295,-5.7106294487,-2.9629246541\
 O,0,2.2195552568,-3.8143039072,-6.2564427049\C,0,3.1036219605,-4.55568
 47747,-7.1055987074\H,0,2.5164253441,-4.834115619,-7.993857749\H,0,3.9
 744833373,-3.9498050961,-7.419051962\H,0,3.4682385148,-5.4728304796,-6
 .6037198799\\Version=ES64L-G16RevB.01\State=1-A\HF=-5208.9636639\RMSD=
 2.642e-09\Dipole=1.417016,-3.679409,1.197927\Quadrupole=-1.7533649,-12
 .8571878,14.6105527,-5.4686803,-3.6746873,14.9633115\PG=C01 [X(C52H44C
 l2F12Fe1O2P2Pd1)]\\@


 YOU ARE IN A MAZE OF TWISTY LITTLE PASSAGES.
 Job cpu time:       0 days  4 hours 34 minutes 50.0 seconds.
 Elapsed time:       0 days  0 hours  8 minutes 38.4 seconds.
 File lengths (MBytes):  RWF=   3276 Int=      0 D2E=      0 Chk=    493 Scr=      1
 Normal termination of Gaussian 16 at Fri Mar  4 07:34:32 2022.
