 Entering Gaussian System, Link 0=/uufs/chpc.utah.edu/sys/installdir/gaussian16/B01/E6B/g16/g16
 Input=W005_1_1_SPE_NoPd.com
 Output=W005_1_1_SPE_NoPd.log
 Initial command:
 /uufs/chpc.utah.edu/sys/installdir/gaussian16/B01/E6B/g16/l1.exe "/scratch/general/lustre/u6034117/4108803/notchpeak.peaks/Gau-158458.inp" -scrdir="/scratch/general/lustre/u6034117/4108803/notchpeak.peaks/"
 Entering Link 1 = /uufs/chpc.utah.edu/sys/installdir/gaussian16/B01/E6B/g16/l1.exe PID=    158460.
  
 Copyright (c) 1988-2017, Gaussian, Inc.  All Rights Reserved.
  
 This is part of the Gaussian(R) 16 program.  It is based on
 the Gaussian(R) 09 system (copyright 2009, Gaussian, Inc.),
 the Gaussian(R) 03 system (copyright 2003, Gaussian, Inc.),
 the Gaussian(R) 98 system (copyright 1998, Gaussian, Inc.),
 the Gaussian(R) 94 system (copyright 1995, Gaussian, Inc.),
 the Gaussian 92(TM) system (copyright 1992, Gaussian, Inc.),
 the Gaussian 90(TM) system (copyright 1990, Gaussian, Inc.),
 the Gaussian 88(TM) system (copyright 1988, Gaussian, Inc.),
 the Gaussian 86(TM) system (copyright 1986, Carnegie Mellon
 University), and the Gaussian 82(TM) system (copyright 1983,
 Carnegie Mellon University). Gaussian is a federally registered
 trademark of Gaussian, Inc.
  
 This software contains proprietary and confidential information,
 including trade secrets, belonging to Gaussian, Inc.
  
 This software is provided under written license and may be
 used, copied, transmitted, or stored only in accord with that
 written license.
  
 The following legend is applicable only to US Government
 contracts under FAR:
  
                    RESTRICTED RIGHTS LEGEND
  
 Use, reproduction and disclosure by the US Government is
 subject to restrictions as set forth in subparagraphs (a)
 and (c) of the Commercial Computer Software - Restricted
 Rights clause in FAR 52.227-19.
  
 Gaussian, Inc.
 340 Quinnipiac St., Bldg. 40, Wallingford CT 06492
  
  
 ---------------------------------------------------------------
 Warning -- This program may not be used in any manner that
 competes with the business of Gaussian, Inc. or will provide
 assistance to any competitor of Gaussian, Inc.  The licensee
 of this program is prohibited from giving any competitor of
 Gaussian, Inc. access to this program.  By using this program,
 the user acknowledges that Gaussian, Inc. is engaged in the
 business of creating and licensing software in the field of
 computational chemistry and represents and warrants to the
 licensee that it is not a competitor of Gaussian, Inc. and that
 it will not use this program in any manner prohibited above.
 ---------------------------------------------------------------
  

 Cite this work as:
 Gaussian 16, Revision B.01,
 M. J. Frisch, G. W. Trucks, H. B. Schlegel, G. E. Scuseria, 
 M. A. Robb, J. R. Cheeseman, G. Scalmani, V. Barone, 
 G. A. Petersson, H. Nakatsuji, X. Li, M. Caricato, A. V. Marenich, 
 J. Bloino, B. G. Janesko, R. Gomperts, B. Mennucci, H. P. Hratchian, 
 J. V. Ortiz, A. F. Izmaylov, J. L. Sonnenberg, D. Williams-Young, 
 F. Ding, F. Lipparini, F. Egidi, J. Goings, B. Peng, A. Petrone, 
 T. Henderson, D. Ranasinghe, V. G. Zakrzewski, J. Gao, N. Rega, 
 G. Zheng, W. Liang, M. Hada, M. Ehara, K. Toyota, R. Fukuda, 
 J. Hasegawa, M. Ishida, T. Nakajima, Y. Honda, O. Kitao, H. Nakai, 
 T. Vreven, K. Throssell, J. A. Montgomery, Jr., J. E. Peralta, 
 F. Ogliaro, M. J. Bearpark, J. J. Heyd, E. N. Brothers, K. N. Kudin, 
 V. N. Staroverov, T. A. Keith, R. Kobayashi, J. Normand, 
 K. Raghavachari, A. P. Rendell, J. C. Burant, S. S. Iyengar, 
 J. Tomasi, M. Cossi, J. M. Millam, M. Klene, C. Adamo, R. Cammi, 
 J. W. Ochterski, R. L. Martin, K. Morokuma, O. Farkas, 
 J. B. Foresman, and D. J. Fox, Gaussian, Inc., Wallingford CT, 2016.
 
 ******************************************
 Gaussian 16:  ES64L-G16RevB.01 20-Dec-2017
                 3-Mar-2022 
 ******************************************
 %NProcShared=52
 Will use up to   52 processors via shared memory.
 %mem=18GB
 %chk=W005_1_1_SPE_NoPd.chk
 ----------------------------------------------------------------------
 # PBE1PBE gen pseudo=read int=(grid=ultrafine) empiricaldispersion=GD3
 BJ nmr=giao
 ----------------------------------------------------------------------
 1/38=1,172=1/1;
 2/12=2,17=6,18=5,40=1/2;
 3/5=7,11=2,16=1,17=8,25=1,30=1,74=-13,75=-5,124=41/1,2,3,8;
 4//1;
 5/5=2,38=5/2;
 8/6=1,10=90,11=11/1;
 10/13=100,45=16/2;
 6/7=2,8=2,9=2,10=2,28=1/1;
 99/9=1/99;
 --------------
 W005_1_1 title
 --------------
 Symbolic Z-matrix:
 Charge =  0 Multiplicity = 1
 C                     3.65099  -1.61245   5.82519 
 C                     5.07678  -1.44603   5.90009 
 C                     5.69157  -2.60196   5.30934 
 C                     4.64791  -3.48529   4.87211 
 C                     3.3841   -2.87389   5.18725 
 H                     5.59863  -0.56843   6.28312 
 H                     6.76178  -2.75821   5.16993 
 H                     4.79899  -4.43803   4.3635 
 H                     2.39658  -3.28347   4.96853 
 H                     2.9055   -0.89099   6.16146 
 Fe                    4.47447  -1.65362   3.95579 
 C                     5.48879  -0.18298   2.9461 
 C                     5.55102  -1.42142   2.23057 
 C                     4.20325  -1.8476    1.93981 
 C                     3.30283  -0.84953   2.50696 
 C                     4.11455   0.17468   3.10819 
 H                     6.34132   0.37212   3.33676 
 H                     3.74118   1.06238   3.61501 
 C                     1.80274  -0.8228    2.34075 
 P                     1.54406  -0.42334   0.49859 
 H                     1.41425  -1.83947   2.51437 
 C                     1.09543   0.16351   3.27844 
 H                     0.00014   0.07395   3.21134 
 H                     1.39709  -0.05695   4.31669 
 H                     1.37457   1.20112   3.03649 
 C                    -2.25215   2.01844  -0.62114 
 C                    -1.00193   2.33231  -1.17048 
 C                     0.14774   1.64377  -0.76389 
 C                     0.04858   0.60897   0.18125 
 C                    -1.20632   0.27194   0.71267 
 C                    -2.34728   0.98996   0.32553 
 H                    -3.14635   2.56299  -0.93428 
 C                    -0.8751    3.45797  -2.16932 
 H                     1.12519   1.91191  -1.17223 
 H                    -1.31368  -0.55805   1.4171 
 C                    -3.69737   0.58233   0.86247 
 C                    -0.35521  -4.17414  -1.5767 
 C                    -0.2126   -4.16264  -0.18498 
 C                     0.37134  -3.06883   0.46721 
 C                     0.83288  -1.9655   -0.2675 
 C                     0.67173  -1.97041  -1.66532 
 C                     0.09215  -3.0699   -2.31153 
 H                    -0.79952  -5.03458  -2.08361 
 C                    -0.6599   -5.37346   0.59619 
 H                     0.47711  -3.11578   1.55156 
 H                     1.0144   -1.1219   -2.2623 
 C                     0.05156  -3.1114   -3.81758 
 F                    -0.9144   -3.94559  -4.28197 
 F                    -0.17363  -1.8792   -4.35483 
 F                     1.24191  -3.55701  -4.32331 
 F                    -0.35604  -5.27623   1.91823 
 F                    -2.0003   -5.56995   0.49277 
 F                    -0.0571   -6.50546   0.12346 
 F                     0.16209   3.24698  -3.0296 
 F                    -2.00735   3.59075  -2.91433 
 F                    -0.65284   4.64744  -1.55591 
 F                    -4.26277  -0.38897   0.09115 
 F                    -3.60133   0.08163   2.12537 
 F                    -4.56503   1.62722   0.89326 
 P                     4.43699  -1.35314  -1.14644 
 C                     8.992    -2.12784  -1.45889 
 C                     8.42883  -1.00823  -2.10983 
 C                     7.04791  -0.7942   -1.98523 
 C                     6.24432  -1.66069  -1.22115 
 C                     6.83316  -2.76882  -0.5835 
 C                     8.20996  -3.01652  -0.69056 
 H                     6.59887   0.07893  -2.46471 
 H                     6.21867  -3.46416  -0.00369 
 H                     6.45645  -1.96572   1.96607 
 C                     2.9025   -5.15584  -0.51613 
 C                     2.87688  -5.25815   0.88011 
 C                     3.30666  -4.18001   1.66271 
 C                     3.78496  -2.98924   1.08237 
 C                     3.80997  -2.89612  -0.34021 
 C                     3.36344  -3.97939  -1.11978 
 H                     2.53707  -5.97997  -1.13631 
 H                     2.49259  -6.16397   1.35872 
 H                     3.27464  -4.23663   2.75287 
 H                     3.33832  -3.88776  -2.20957 
 C                     3.18144  -1.34287  -5.60094 
 C                     2.68065  -0.34874  -4.73227 
 C                     3.08763  -0.38539  -3.39094 
 C                     3.95571  -1.38475  -2.91329 
 C                     4.48194  -2.32829  -3.81541 
 C                     4.09632  -2.32918  -5.16504 
 H                     2.74862   0.39504  -2.69647 
 H                     5.22062  -3.06162  -3.47138 
 C                     9.28928  -0.03968  -2.88392 
 H                     8.86447   0.97599  -2.83631 
 H                     10.31289  -0.01611  -2.47686 
 H                     9.36094  -0.31581  -3.95287 
 C                     8.85535  -4.19014   0.0054 
 H                     8.12615  -4.7185    0.64125 
 H                     9.26632  -4.92064  -0.71493 
 H                     9.6997   -3.86198   0.6348 
 O                     10.36122  -2.3497   -1.5084 
 C                     10.7938  -2.98936  -2.71505 
 H                     10.30516  -3.97455  -2.84466 
 H                     10.58591  -2.36857  -3.60687 
 H                     11.88097  -3.13095  -2.61685 
 C                     1.74832   0.72095  -5.24335 
 H                     1.4756    1.42738  -4.443 
 H                     0.81514   0.28298  -5.63798 
 H                     2.2089    1.28744  -6.07014 
 C                     4.65854  -3.33847  -6.1351 
 H                     4.76334  -2.89843  -7.13969 
 H                     5.64313  -3.70199  -5.79837 
 H                     3.9981   -4.22074  -6.23071 
 O                     2.82383  -1.28645  -6.93776 
 C                     1.74034  -2.16281  -7.28497 
 H                     1.99106  -3.22115  -7.0848 
 H                     0.82315  -1.90711  -6.72515 
 H                     1.56957  -2.02282  -8.36286 
 
 Stoichiometry    C52H44F12FeO2P2
 Framework group  C1[X(C52H44F12FeO2P2)]
 Deg. of freedom   333
 Full point group                 C1      NOp   1
 Largest Abelian subgroup         C1      NOp   1
 Largest concise Abelian subgroup C1      NOp   1
                         Standard orientation:                         
 ---------------------------------------------------------------------
 Center     Atomic      Atomic             Coordinates (Angstroms)
 Number     Number       Type             X           Y           Z
 ---------------------------------------------------------------------
      1          6           0       -1.780247   -6.153597   -0.820554
      2          6           0       -3.104672   -6.051021   -1.369698
      3          6           0       -3.954760   -5.459670   -0.374321
      4          6           0       -3.158763   -5.199415    0.791574
      5          6           0       -1.811973   -5.624972    0.516963
      6          1           0       -3.398102   -6.319086   -2.385206
      7          1           0       -5.007643   -5.204891   -0.499698
      8          1           0       -3.517291   -4.732226    1.709401
      9          1           0       -0.959853   -5.547521    1.194225
     10          1           0       -0.900627   -6.532969   -1.341806
     11         26           0       -2.397430   -4.205984   -0.838828
     12          6           0       -2.862476   -3.001398   -2.433757
     13          6           0       -3.194979   -2.355907   -1.199910
     14          6           0       -1.996018   -2.250254   -0.403676
     15          6           0       -0.914210   -2.860789   -1.168836
     16          6           0       -1.465418   -3.302756   -2.421916
     17          1           0       -3.561995   -3.256772   -3.229384
     18          1           0       -0.912167   -3.797986   -3.217487
     19          6           0        0.543541   -2.870453   -0.777040
     20         15           0        1.080189   -1.051460   -0.929728
     21          1           0        0.616954   -3.146623    0.287392
     22          6           0        1.401497   -3.826373   -1.615182
     23          1           0        2.430430   -3.893492   -1.229221
     24          1           0        0.951311   -4.833015   -1.575483
     25          1           0        1.445044   -3.494096   -2.664368
     26          6           0        5.493666   -0.246293   -2.154574
     27          6           0        4.438484    0.463054   -2.743443
     28          6           0        3.109418    0.155238   -2.427264
     29          6           0        2.826280   -0.852930   -1.490587
     30          6           0        3.881273   -1.546400   -0.876687
     31          6           0        5.208280   -1.255142   -1.225171
     32          1           0        6.529590   -0.009428   -2.409402
     33          6           0        4.725501    1.532938   -3.770016
     34          1           0        2.288685    0.690163   -2.911324
     35          1           0        3.685993   -2.305104   -0.113232
     36          6           0        6.334217   -1.969309   -0.518459
     37          6           0        2.060305    0.567566    3.359878
     38          6           0        1.792003   -0.794841    3.188882
     39          6           0        1.472864   -1.310040    1.925763
     40          6           0        1.408052   -0.464048    0.807618
     41          6           0        1.696493    0.902612    0.977803
     42          6           0        2.009305    1.412066    2.244677
     43          1           0        2.296375    0.968531    4.348928
     44          6           0        1.808968   -1.691405    4.402252
     45          1           0        1.253470   -2.375390    1.847600
     46          1           0        1.661474    1.583460    0.123996
     47          6           0        2.182868    2.898060    2.427049
     48          9           0        2.920809    3.197181    3.527311
     49          9           0        2.791092    3.475139    1.352465
     50          9           0        0.970667    3.513486    2.579004
     51          9           0        1.416975   -2.960879    4.111808
     52          9           0        3.046208   -1.757423    4.959803
     53          9           0        0.965497   -1.217094    5.367574
     54          9           0        3.759037    2.495391   -3.770989
     55          9           0        5.917081    2.146361   -3.528158
     56          9           0        4.782376    1.019251   -5.024372
     57          9           0        6.681079   -1.326779    0.632568
     58          9           0        5.981308   -3.238900   -0.174345
     59          9           0        7.449743   -2.041542   -1.290450
     60         15           0       -1.783101    0.865394   -0.670993
     61          6           0       -6.321973    1.664995   -1.123957
     62          6           0       -5.410712    2.308667   -1.989816
     63          6           0       -4.043339    2.035433   -1.835120
     64          6           0       -3.588851    1.133805   -0.854870
     65          6           0       -4.520187    0.506988   -0.005756
     66          6           0       -5.894629    0.760412   -0.128579
     67          1           0       -3.326015    2.508331   -2.510171
     68          1           0       -4.181275   -0.179924    0.775632
     69          1           0       -4.185486   -2.018747   -0.897848
     70          6           0       -1.428801   -0.158184    3.333905
     71          6           0       -1.568167   -1.551342    3.316877
     72          6           0       -1.756915   -2.214822    2.098797
     73          6           0       -1.828565   -1.514880    0.878783
     74          6           0       -1.688598   -0.096207    0.907092
     75          6           0       -1.485553    0.562017    2.134324
     76          1           0       -1.247107    0.366428    4.276847
     77          1           0       -1.497722   -2.123017    4.247197
     78          1           0       -1.847810   -3.302653    2.066419
     79          1           0       -1.330380    1.644783    2.148441
     80          6           0       -0.147325    5.135010    0.045766
     81          6           0        0.522042    4.272185   -0.849303
     82          6           0       -0.007437    2.987993   -1.040717
     83          6           0       -1.160135    2.558823   -0.356957
     84          6           0       -1.836599    3.460692    0.485676
     85          6           0       -1.337115    4.753461    0.708084
     86          1           0        0.465077    2.304576   -1.759017
     87          1           0       -2.779037    3.164106    0.960672
     88          6           0       -5.890364    3.232750   -3.082365
     89          1           0       -5.207961    3.194112   -3.946741
     90          1           0       -6.902022    2.950627   -3.415487
     91          1           0       -5.931450    4.285073   -2.743286
     92          6           0       -6.903815    0.078654    0.763074
     93          1           0       -6.414485   -0.667671    1.410187
     94          1           0       -7.428801    0.799017    1.416411
     95          1           0       -7.681443   -0.427425    0.166475
     96          8           0       -7.687607    1.861957   -1.274558
     97          6           0       -8.160915    3.072237   -0.671651
     98          1           0       -7.953603    3.086764    0.415994
     99          1           0       -7.703892    3.967720   -1.133369
    100          1           0       -9.249034    3.094278   -0.836410
    101          6           0        1.758869    4.731020   -1.580353
    102          1           0        2.137259    3.946148   -2.254728
    103          1           0        2.568259    4.987609   -0.875077
    104          1           0        1.555444    5.637330   -2.175209
    105          6           0       -2.059567    5.723134    1.610067
    106          1           0       -1.940528    6.756712    1.247614
    107          1           0       -3.134140    5.483898    1.664897
    108          1           0       -1.662827    5.689715    2.642157
    109          8           0        0.339978    6.421658    0.204550
    110          6           0        1.167246    6.588392    1.366597
    111          1           0        0.615429    6.358496    2.297001
    112          1           0        2.060515    5.940475    1.318716
    113          1           0        1.473885    7.645063    1.372397
 ---------------------------------------------------------------------
 Rotational constants (GHZ):           0.0336895           0.0265091           0.0213743
 General basis read from cards:  (5D, 7F)
 ======================================================================================================
                                       Pseudopotential Parameters
 ======================================================================================================
  Center     Atomic      Valence      Angular      Power
  Number     Number     Electrons     Momentum     of R      Exponent        Coefficient   SO-Coeffient
 ======================================================================================================
    1          6
                                   No pseudopotential on this center.
    2          6
                                   No pseudopotential on this center.
    3          6
                                   No pseudopotential on this center.
    4          6
                                   No pseudopotential on this center.
    5          6
                                   No pseudopotential on this center.
    6          1
                                   No pseudopotential on this center.
    7          1
                                   No pseudopotential on this center.
    8          1
                                   No pseudopotential on this center.
    9          1
                                   No pseudopotential on this center.
   10          1
                                   No pseudopotential on this center.
   11         26           16
                                      F and up 
                                                     2        1.0000000        0.00000000    0.00000000
                                      S - F
                                                     2       20.9300000      253.74958800    0.00000000
                                                     2        9.4450000       37.92284500    0.00000000
                                      P - F
                                                     2       21.7600000      161.03681200    0.00000000
                                                     2        9.1780000       27.65129800    0.00000000
                                      D - F
                                                     2       25.9000000      -24.43127600    0.00000000
                                                     2        8.8350000       -1.43425100    0.00000000
   12          6
                                   No pseudopotential on this center.
   13          6
                                   No pseudopotential on this center.
   14          6
                                   No pseudopotential on this center.
   15          6
                                   No pseudopotential on this center.
   16          6
                                   No pseudopotential on this center.
   17          1
                                   No pseudopotential on this center.
   18          1
                                   No pseudopotential on this center.
   19          6
                                   No pseudopotential on this center.
   20         15
                                   No pseudopotential on this center.
   21          1
                                   No pseudopotential on this center.
   22          6
                                   No pseudopotential on this center.
   23          1
                                   No pseudopotential on this center.
   24          1
                                   No pseudopotential on this center.
   25          1
                                   No pseudopotential on this center.
   26          6
                                   No pseudopotential on this center.
   27          6
                                   No pseudopotential on this center.
   28          6
                                   No pseudopotential on this center.
   29          6
                                   No pseudopotential on this center.
   30          6
                                   No pseudopotential on this center.
   31          6
                                   No pseudopotential on this center.
   32          1
                                   No pseudopotential on this center.
   33          6
                                   No pseudopotential on this center.
   34          1
                                   No pseudopotential on this center.
   35          1
                                   No pseudopotential on this center.
   36          6
                                   No pseudopotential on this center.
   37          6
                                   No pseudopotential on this center.
   38          6
                                   No pseudopotential on this center.
   39          6
                                   No pseudopotential on this center.
   40          6
                                   No pseudopotential on this center.
   41          6
                                   No pseudopotential on this center.
   42          6
                                   No pseudopotential on this center.
   43          1
                                   No pseudopotential on this center.
   44          6
                                   No pseudopotential on this center.
   45          1
                                   No pseudopotential on this center.
   46          1
                                   No pseudopotential on this center.
   47          6
                                   No pseudopotential on this center.
   48          9
                                   No pseudopotential on this center.
   49          9
                                   No pseudopotential on this center.
   50          9
                                   No pseudopotential on this center.
   51          9
                                   No pseudopotential on this center.
   52          9
                                   No pseudopotential on this center.
   53          9
                                   No pseudopotential on this center.
   54          9
                                   No pseudopotential on this center.
   55          9
                                   No pseudopotential on this center.
   56          9
                                   No pseudopotential on this center.
   57          9
                                   No pseudopotential on this center.
   58          9
                                   No pseudopotential on this center.
   59          9
                                   No pseudopotential on this center.
   60         15
                                   No pseudopotential on this center.
   61          6
                                   No pseudopotential on this center.
   62          6
                                   No pseudopotential on this center.
   63          6
                                   No pseudopotential on this center.
   64          6
                                   No pseudopotential on this center.
   65          6
                                   No pseudopotential on this center.
   66          6
                                   No pseudopotential on this center.
   67          1
                                   No pseudopotential on this center.
   68          1
                                   No pseudopotential on this center.
   69          1
                                   No pseudopotential on this center.
   70          6
                                   No pseudopotential on this center.
   71          6
                                   No pseudopotential on this center.
   72          6
                                   No pseudopotential on this center.
   73          6
                                   No pseudopotential on this center.
   74          6
                                   No pseudopotential on this center.
   75          6
                                   No pseudopotential on this center.
   76          1
                                   No pseudopotential on this center.
   77          1
                                   No pseudopotential on this center.
   78          1
                                   No pseudopotential on this center.
   79          1
                                   No pseudopotential on this center.
   80          6
                                   No pseudopotential on this center.
   81          6
                                   No pseudopotential on this center.
   82          6
                                   No pseudopotential on this center.
   83          6
                                   No pseudopotential on this center.
   84          6
                                   No pseudopotential on this center.
   85          6
                                   No pseudopotential on this center.
   86          1
                                   No pseudopotential on this center.
   87          1
                                   No pseudopotential on this center.
   88          6
                                   No pseudopotential on this center.
   89          1
                                   No pseudopotential on this center.
   90          1
                                   No pseudopotential on this center.
   91          1
                                   No pseudopotential on this center.
   92          6
                                   No pseudopotential on this center.
   93          1
                                   No pseudopotential on this center.
   94          1
                                   No pseudopotential on this center.
   95          1
                                   No pseudopotential on this center.
   96          8
                                   No pseudopotential on this center.
   97          6
                                   No pseudopotential on this center.
   98          1
                                   No pseudopotential on this center.
   99          1
                                   No pseudopotential on this center.
  100          1
                                   No pseudopotential on this center.
  101          6
                                   No pseudopotential on this center.
  102          1
                                   No pseudopotential on this center.
  103          1
                                   No pseudopotential on this center.
  104          1
                                   No pseudopotential on this center.
  105          6
                                   No pseudopotential on this center.
  106          1
                                   No pseudopotential on this center.
  107          1
                                   No pseudopotential on this center.
  108          1
                                   No pseudopotential on this center.
  109          8
                                   No pseudopotential on this center.
  110          6
                                   No pseudopotential on this center.
  111          1
                                   No pseudopotential on this center.
  112          1
                                   No pseudopotential on this center.
  113          1
                                   No pseudopotential on this center.
 ======================================================================================================
 There are  2773 symmetry adapted cartesian basis functions of A   symmetry.
 There are  2427 symmetry adapted basis functions of A   symmetry.
  2427 basis functions,  3931 primitive gaussians,  2773 cartesian basis functions
   263 alpha electrons      263 beta electrons
       nuclear repulsion energy     13133.5387467258 Hartrees.
 NAtoms=  113 NActive=  113 NUniq=  113 SFac= 1.00D+00 NAtFMM=   60 NAOKFM=T Big=T
 Integral buffers will be    131072 words long.
 Raffenetti 2 integral format.
 Two-electron integral symmetry is turned on.
 Nuclear repulsion after empirical dispersion term =    13133.3544430155 Hartrees.
 One-electron integrals computed using PRISM.
   1 Symmetry operations used in ECPInt.
 ECPInt:  NShTT=  445096 NPrTT= 1380297 LenC2=  299606 LenP2D=  587548.
 LDataN:  DoStor=T MaxTD1= 6 Len=  172
 Number of processors reduced to  16 by ecpmxn.
 NBasis=  2427 RedAO= T EigKep=  2.76D-06  NBF=  2427
 NBsUse=  2427 1.00D-06 EigRej= -1.00D+00 NBFU=  2427
 ExpMin= 1.00D-02 ExpMax= 5.24D+04 ExpMxC= 1.79D+03 IAcc=3 IRadAn=         5 AccDes= 0.00D+00
 Harris functional with IExCor= 1009 and IRadAn=       5 diagonalized for initial guess.
 HarFok:  IExCor= 1009 AccDes= 0.00D+00 IRadAn=         5 IDoV= 1 UseB2=F ITyADJ=14
 ICtDFT=  3500011 ScaDFX=  1.000000  1.000000  1.000000  1.000000
 FoFCou: FMM=F IPFlag=           0 FMFlag=      100000 FMFlg1=        2001
         NFxFlg=           0 DoJE=T BraDBF=F KetDBF=T FulRan=T
         wScrn=  0.000000 ICntrl=       500 IOpCl=  0 I1Cent=   200000004 NGrid=           0
         NMat0=    1 NMatS0=      1 NMatT0=    0 NMatD0=    1 NMtDS0=    0 NMtDT0=    0
 Petite list used in FoFCou.
 Requested convergence on RMS density matrix=1.00D-08 within 128 cycles.
 Requested convergence on MAX density matrix=1.00D-06.
 Requested convergence on             energy=1.00D-06.
 No special actions if energy rises.
 EnCoef did     3 forward-backward iterations
 EnCoef did    11 forward-backward iterations
 Restarting incremental Fock formation.
 SCF Done:  E(RPBE1PBE) =  -4160.77687381     A.U. after   22 cycles
            NFock= 22  Conv=0.47D-08     -V/T= 2.0173
 DoSCS=F DFT=T ScalE2(SS,OS)=  1.000000  1.000000
 Range of M.O.s used for correlation:     1  2427
 NBasis=  2427 NAE=   263 NBE=   263 NFC=     0 NFV=     0
 NROrb=   2427 NOA=   263 NOB=   263 NVA=  2164 NVB=  2164

 **** Warning!!: The largest alpha MO coefficient is  0.51378498D+02

          Differentiating once with respect to magnetic field using GIAOs.
          Electric field/nuclear overlap derivatives assumed to be zero.
 FoFCou: FMM=F IPFlag=           0 FMFlag=      100000 FMFlg1=        2001
         NFxFlg=           0 DoJE=F BraDBF=F KetDBF=T FulRan=T
         wScrn=  0.000000 ICntrl=      6100 IOpCl=  0 I1Cent=           7 NGrid=         113
         NMat0=    1 NMatS0=      1 NMatT0=    0 NMatD0=    1 NMtDS0=    0 NMtDT0=    0
 Symmetry not used in FoFCou.
   1 Symmetry operations used in ECPInt.
 ECPInt:  NShTT=  445096 NPrTT= 1380297 LenC2=  445097 LenP2D= 1380297.
 LDataN:  DoStor=T MaxTD1= 7 Len=  274
 Number of processors reduced to  10 by ecpmxn.
 FoFJK:  IHMeth= 1 ICntrl=    6127 DoSepK=F KAlg= 0 I1Cent=           0 FoldK=F
 IRaf=         1 NMat=       1 IRICut=       1 DoRegI=T DoRafI=F ISym2E= 0 IDoP0=0 IntGTp=1.
          There are     3 degrees of freedom in the 1st order CPHF.  IDoFFX=0 NUNeed=     3.
      3 vectors produced by pass  0 Test12= 1.90D-11 3.33D-08 XBig12= 4.16D+02 1.84D+00.
 AX will form     3 AO Fock derivatives at one time.
      3 vectors produced by pass  1 Test12= 1.90D-11 3.33D-08 XBig12= 1.80D+00 4.45D-01.
      3 vectors produced by pass  2 Test12= 1.90D-11 3.33D-08 XBig12= 1.08D-01 1.00D-01.
      3 vectors produced by pass  3 Test12= 1.90D-11 3.33D-08 XBig12= 1.47D-03 7.19D-03.
      3 vectors produced by pass  4 Test12= 1.90D-11 3.33D-08 XBig12= 2.73D-05 2.21D-03.
      3 vectors produced by pass  5 Test12= 1.90D-11 3.33D-08 XBig12= 9.25D-07 2.18D-04.
      3 vectors produced by pass  6 Test12= 1.90D-11 3.33D-08 XBig12= 5.43D-09 8.59D-06.
      3 vectors produced by pass  7 Test12= 1.90D-11 3.33D-08 XBig12= 3.45D-11 1.20D-06.
      3 vectors produced by pass  8 Test12= 1.90D-11 3.33D-08 XBig12= 9.78D-13 4.47D-07.
 InvSVY:  IOpt=1 It=  1 EMax= 1.42D-14
 Solved reduced A of dimension    27 with     3 vectors.
 Calculating GIAO nuclear magnetic shielding tensors.
 SCF GIAO Magnetic shielding tensor (ppm):
      1  C    Isotropic =   112.3141   Anisotropy =    87.9497
   XX=    92.0910   YX=    37.9517   ZX=    10.0444
   XY=    48.5817   YY=   133.5562   ZY=   -36.3362
   XZ=     8.4067   YZ=   -30.3421   ZZ=   111.2950
   Eigenvalues:    52.6519   113.3431   170.9472
      2  C    Isotropic =   112.7950   Anisotropy =    88.1919
   XX=   107.5175   YX=     1.2596   ZX=   -22.2167
   XY=    -2.4067   YY=   141.0479   ZY=   -56.5096
   XZ=   -18.5418   YZ=   -39.7518   ZZ=    89.8195
   Eigenvalues:    54.8218   111.9736   171.5896
      3  C    Isotropic =   111.7437   Anisotropy =    90.3486
   XX=    52.8190   YX=    11.1876   ZX=    -3.9901
   XY=    -4.5142   YY=   164.9124   ZY=   -19.2152
   XZ=    -2.7097   YZ=   -19.5359   ZZ=   117.4997
   Eigenvalues:    52.5949   110.6602   171.9761
      4  C    Isotropic =   110.0989   Anisotropy =    92.5924
   XX=   100.9060   YX=    20.0695   ZX=    19.3849
   XY=    17.2978   YY=   164.4444   ZY=   -13.4364
   XZ=    15.8847   YZ=   -27.6175   ZZ=    64.9463
   Eigenvalues:    51.6306   106.8389   171.8272
      5  C    Isotropic =   112.3792   Anisotropy =    90.6167
   XX=    88.8766   YX=    22.1760   ZX=   -29.7451
   XY=    30.2834   YY=   161.1352   ZY=    -1.0122
   XZ=   -35.1013   YZ=   -10.5160   ZZ=    87.1257
   Eigenvalues:    53.5557   110.7916   172.7903
      6  H    Isotropic =    27.4959   Anisotropy =     7.1744
   XX=    26.2946   YX=     1.1670   ZX=     2.3533
   XY=     1.0866   YY=    26.7626   ZY=     2.9985
   XZ=     1.9731   YZ=     2.8081   ZZ=    29.4304
   Eigenvalues:    24.8169    25.3919    32.2788
      7  H    Isotropic =    27.4778   Anisotropy =     6.5729
   XX=    31.8158   YX=     0.1552   ZX=     0.9837
   XY=     0.2453   YY=    25.8896   ZY=     0.3743
   XZ=    -0.0014   YZ=     0.9032   ZZ=    24.7279
   Eigenvalues:    24.4269    26.1468    31.8597
      8  H    Isotropic =    27.1835   Anisotropy =     4.0644
   XX=    26.7282   YX=     2.3121   ZX=    -1.2470
   XY=     0.2647   YY=    25.8866   ZY=     1.1393
   XZ=    -1.2534   YZ=     2.4190   ZZ=    28.9359
   Eigenvalues:    23.9951    27.6624    29.8931
      9  H    Isotropic =    27.0860   Anisotropy =     4.1064
   XX=    27.3422   YX=     0.4716   ZX=     2.0626
   XY=    -0.0392   YY=    26.2529   ZY=    -0.2366
   XZ=     2.5045   YZ=     0.7553   ZZ=    27.6629
   Eigenvalues:    25.2130    26.2214    29.8236
     10  H    Isotropic =    27.3122   Anisotropy =     4.9754
   XX=    28.6509   YX=    -0.8109   ZX=    -1.6864
   XY=    -1.5818   YY=    27.7395   ZY=     2.1102
   XZ=    -1.3791   YZ=     1.8455   ZZ=    25.5460
   Eigenvalues:    24.2438    27.0636    30.6291
     11  Fe   Isotropic = -6174.9736   Anisotropy =  8290.7086
   XX= -8579.6277   YX=  1661.5880   ZX=  -788.0288
   XY=  1652.6988   YY= -2249.4318   ZY= -2797.4533
   XZ=  -766.6149   YZ= -2794.6076   ZZ= -7695.8614
   Eigenvalues: -9032.6704 -8844.4159  -647.8345
     12  C    Isotropic =   114.4918   Anisotropy =    87.5497
   XX=   104.6447   YX=    13.4622   ZX=   -26.1485
   XY=    23.9359   YY=   163.3846   ZY=    -3.0614
   XZ=   -36.9725   YZ=   -17.5847   ZZ=    75.4460
   Eigenvalues:    55.2532   115.3640   172.8582
     13  C    Isotropic =   107.1466   Anisotropy =    89.2991
   XX=    67.7267   YX=    40.0708   ZX=     5.1301
   XY=    54.6307   YY=   126.8545   ZY=   -31.6254
   XZ=   -17.9029   YZ=   -14.2822   ZZ=   126.8588
   Eigenvalues:    41.0884   113.6721   166.6794
     14  C    Isotropic =    91.2052   Anisotropy =    94.6540
   XX=    69.7202   YX=     9.0900   ZX=    -7.2254
   XY=     3.1147   YY=   102.5232   ZY=   -63.6458
   XZ=    -1.8297   YZ=   -39.7300   ZZ=   101.3723
   Eigenvalues:    50.1961    69.1117   154.3079
     15  C    Isotropic =    87.2962   Anisotropy =    88.4549
   XX=    44.0723   YX=     0.2984   ZX=    -5.6522
   XY=   -15.3132   YY=   128.5428   ZY=   -32.4646
   XZ=    15.7988   YZ=   -29.2189   ZZ=    89.2735
   Eigenvalues:    43.2519    72.3706   146.2662
     16  C    Isotropic =   116.8540   Anisotropy =    90.6826
   XX=   105.7165   YX=    10.9363   ZX=    20.8780
   XY=    -8.5503   YY=   171.0791   ZY=   -15.1219
   XZ=    30.0586   YZ=   -34.1724   ZZ=    73.7663
   Eigenvalues:    55.3709   117.8819   177.3091
     17  H    Isotropic =    27.7573   Anisotropy =     7.4121
   XX=    28.1315   YX=     0.7091   ZX=     3.7729
   XY=     0.0311   YY=    26.1591   ZY=     2.0879
   XZ=     3.2359   YZ=     2.5189   ZZ=    28.9813
   Eigenvalues:    24.0590    26.5142    32.6987
     18  H    Isotropic =    27.6967   Anisotropy =     4.2279
   XX=    29.1291   YX=    -1.0832   ZX=    -0.4030
   XY=    -0.9715   YY=    25.5142   ZY=     2.8536
   XZ=     0.2227   YZ=     2.9272   ZZ=    28.4469
   Eigenvalues:    23.6138    28.9611    30.5154
     19  C    Isotropic =   155.8633   Anisotropy =    20.1121
   XX=   166.0840   YX=     3.4001   ZX=    -3.5039
   XY=     6.1775   YY=   161.1332   ZY=    -1.6996
   XZ=    -1.6645   YZ=    -0.5925   ZZ=   140.3729
   Eigenvalues:   140.0937   158.2250   169.2714
     20  P    Isotropic =   292.7226   Anisotropy =   116.3234
   XX=   278.5928   YX=   -53.7986   ZX=   -11.0026
   XY=   -56.2428   YY=   337.2510   ZY=    -1.4060
   XZ=   -14.9220   YZ=   -14.1974   ZZ=   262.3239
   Eigenvalues:   236.6553   271.2409   370.2715
     21  H    Isotropic =    27.2740   Anisotropy =     5.0121
   XX=    26.4089   YX=    -1.2118   ZX=    -0.5388
   XY=     1.5684   YY=    24.8160   ZY=    -0.4312
   XZ=     0.3615   YZ=    -0.1760   ZZ=    30.5972
   Eigenvalues:    24.7816    26.4251    30.6154
     22  C    Isotropic =   170.3053   Anisotropy =    12.4939
   XX=   174.6087   YX=    -0.4207   ZX=    -2.2410
   XY=    -0.7151   YY=   173.2725   ZY=     8.0897
   XZ=    -4.8480   YZ=     7.1477   ZZ=   163.0347
   Eigenvalues:   158.4601   173.8213   178.6346
     23  H    Isotropic =    29.7669   Anisotropy =    10.5457
   XX=    36.4244   YX=    -2.8587   ZX=     0.5673
   XY=    -0.2022   YY=    29.1438   ZY=     0.2695
   XZ=     1.9194   YZ=     2.9362   ZZ=    23.7325
   Eigenvalues:    23.0974    29.4059    36.7973
     24  H    Isotropic =    29.2566   Anisotropy =     8.9841
   XX=    29.1787   YX=     0.4755   ZX=    -1.7364
   XY=     2.6494   YY=    34.6675   ZY=     1.0505
   XZ=    -0.3301   YZ=     2.2843   ZZ=    23.9236
   Eigenvalues:    23.3903    29.1336    35.2460
     25  H    Isotropic =    30.2460   Anisotropy =     6.9604
   XX=    29.3108   YX=    -0.6582   ZX=    -3.7870
   XY=     2.7030   YY=    27.6912   ZY=     0.5567
   XZ=    -1.0085   YZ=     2.1498   ZZ=    33.7360
   Eigenvalues:    26.4200    29.4317    34.8862
     26  C    Isotropic =    55.0730   Anisotropy =   190.5504
   XX=   -32.5360   YX=   -13.0957   ZX=    17.4490
   XY=   -14.5789   YY=    96.0337   ZY=    80.6046
   XZ=    14.1833   YZ=    85.7273   ZZ=   101.7213
   Eigenvalues:   -40.3754    23.4878   182.1066
     27  C    Isotropic =    46.6498   Anisotropy =   161.9888
   XX=    27.6434   YX=   -10.7390   ZX=    11.4365
   XY=   -10.6767   YY=    45.8902   ZY=    98.2738
   XZ=     7.5281   YZ=    97.6323   ZZ=    66.4158
   Eigenvalues:   -45.1465    30.4536   154.6423
     28  C    Isotropic =    43.2160   Anisotropy =   182.5667
   XX=   -22.0516   YX=    33.3993   ZX=   -30.3673
   XY=    40.7968   YY=    70.5434   ZY=    85.5631
   XZ=   -21.5006   YZ=    91.7846   ZZ=    81.1563
   Eigenvalues:   -62.6367    27.3576   164.9271
     29  C    Isotropic =    34.7104   Anisotropy =   209.5198
   XX=   -43.2810   YX=     2.1443   ZX=    14.5313
   XY=     2.7049   YY=    69.5014   ZY=   103.7484
   XZ=    16.1181   YZ=    95.9490   ZZ=    77.9107
   Eigenvalues:   -47.6720   -22.5872   174.3902
     30  C    Isotropic =    38.3228   Anisotropy =   195.6826
   XX=     8.2217   YX=    -4.2176   ZX=    10.5257
   XY=   -14.2367   YY=    58.2459   ZY=   109.8186
   XZ=     9.5065   YZ=   120.7836   ZZ=    48.5009
   Eigenvalues:   -64.5772    10.7678   168.7779
     31  C    Isotropic =    46.4527   Anisotropy =   161.9814
   XX=    -9.4448   YX=    30.1855   ZX=   -26.1175
   XY=    32.2939   YY=    68.6318   ZY=    80.2908
   XZ=   -18.9325   YZ=    79.0738   ZZ=    80.1711
   Eigenvalues:   -45.7937    30.7115   154.4403
     32  H    Isotropic =    23.3641   Anisotropy =    10.0175
   XX=    22.8765   YX=    -2.5219   ZX=     0.4850
   XY=    -2.5442   YY=    24.6210   ZY=    -5.3080
   XZ=     1.2417   YZ=    -5.6120   ZZ=    22.5949
   Eigenvalues:    17.8506    22.1994    30.0425
     33  C    Isotropic =    48.3767   Anisotropy =    14.6525
   XX=    57.8610   YX=    -1.9450   ZX=    -0.1017
   XY=    -1.9181   YY=    44.9932   ZY=     1.5656
   XZ=     0.6219   YZ=     0.9281   ZZ=    42.2759
   Eigenvalues:    41.7325    45.2525    58.1451
     34  H    Isotropic =    22.5637   Anisotropy =    12.8146
   XX=    23.5139   YX=     4.0974   ZX=    -6.5742
   XY=     4.1163   YY=    22.5890   ZY=    -2.1046
   XZ=    -4.7266   YZ=    -3.3514   ZZ=    21.5882
   Eigenvalues:    16.7349    19.8494    31.1068
     35  H    Isotropic =    23.6342   Anisotropy =    15.6709
   XX=    33.6060   YX=    -4.6362   ZX=    -1.4710
   XY=    -0.5555   YY=    19.0178   ZY=     1.4139
   XZ=     0.5029   YZ=     0.6936   ZZ=    18.2788
   Eigenvalues:    17.4422    19.3789    34.0815
     36  C    Isotropic =    48.8625   Anisotropy =    14.5443
   XX=    51.4237   YX=     3.3789   ZX=    -7.5894
   XY=     4.6911   YY=    48.9807   ZY=    -1.8498
   XZ=    -6.5341   YZ=    -2.7010   ZZ=    46.1830
   Eigenvalues:    41.2411    46.7877    58.5587
     37  C    Isotropic =    58.3373   Anisotropy =   187.3072
   XX=   173.5167   YX=   -22.2777   ZX=   -35.0033
   XY=   -28.5398   YY=    23.1244   ZY=   -18.7414
   XZ=   -38.5449   YZ=   -17.8083   ZZ=   -21.6291
   Eigenvalues:   -37.0783    28.8816   183.2088
     38  C    Isotropic =    46.9204   Anisotropy =   167.5280
   XX=   152.7893   YX=   -17.7818   ZX=   -14.8408
   XY=   -22.2046   YY=     5.4587   ZY=    38.5880
   XZ=   -21.0178   YZ=    40.1492   ZZ=   -17.4867
   Eigenvalues:   -47.0490    29.2045   158.6057
     39  C    Isotropic =    55.0409   Anisotropy =   199.6816
   XX=   177.8642   YX=   -38.2379   ZX=   -17.4838
   XY=   -41.3230   YY=   -40.8695   ZY=    -1.9616
   XZ=   -29.2088   YZ=     1.2709   ZZ=    28.1281
   Eigenvalues:   -48.1402    25.1010   188.1620
     40  C    Isotropic =    31.7023   Anisotropy =   221.6626
   XX=   166.9293   YX=   -32.3364   ZX=   -45.1455
   XY=   -32.8109   YY=   -31.1271   ZY=     2.0755
   XZ=   -36.6210   YZ=    -4.9343   ZZ=   -40.6954
   Eigenvalues:   -51.8845   -32.4860   179.4773
     41  C    Isotropic =    47.2486   Anisotropy =   194.7417
   XX=   170.8996   YX=   -12.5493   ZX=   -18.8767
   XY=   -30.0634   YY=    -7.2090   ZY=    39.6538
   XZ=   -27.3361   YZ=    24.3063   ZZ=   -21.9447
   Eigenvalues:   -47.5084    12.1778   177.0764
     42  C    Isotropic =    49.5758   Anisotropy =   161.6132
   XX=   149.2295   YX=   -32.1864   ZX=   -20.9722
   XY=   -28.9967   YY=   -38.2874   ZY=    -3.8845
   XZ=   -20.6617   YZ=    -8.3879   ZZ=    37.7854
   Eigenvalues:   -44.2386    35.6482   157.3179
     43  H    Isotropic =    24.0682   Anisotropy =     9.5866
   XX=    20.4031   YX=     2.0921   ZX=     2.2587
   XY=     1.4907   YY=    28.7861   ZY=    -2.8971
   XZ=     0.7819   YZ=    -3.8954   ZZ=    23.0153
   Eigenvalues:    18.6771    23.0682    30.4593
     44  C    Isotropic =    48.3653   Anisotropy =    12.3459
   XX=    46.3980   YX=     1.1260   ZX=     3.9116
   XY=     1.8373   YY=    52.1301   ZY=     6.2445
   XZ=     2.7946   YZ=     5.0999   ZZ=    46.5678
   Eigenvalues:    41.9169    46.5831    56.5959
     45  H    Isotropic =    23.9031   Anisotropy =     9.5345
   XX=    23.8021   YX=    -2.3458   ZX=     1.8876
   XY=    -0.4687   YY=    18.0873   ZY=     0.9302
   XZ=     1.4530   YZ=    -0.7984   ZZ=    29.8199
   Eigenvalues:    17.7428    23.7071    30.2595
     46  H    Isotropic =    24.0509   Anisotropy =     8.0669
   XX=    22.6032   YX=    -0.1364   ZX=     0.2286
   XY=    -2.0127   YY=    28.1449   ZY=     4.4582
   XZ=     2.0143   YZ=     1.8074   ZZ=    21.4046
   Eigenvalues:    19.5004    23.2235    29.4288
     47  C    Isotropic =    48.8358   Anisotropy =    14.0796
   XX=    46.1287   YX=     1.8345   ZX=     3.0781
   XY=     1.2685   YY=    43.4529   ZY=    -2.7334
   XZ=     3.9866   YZ=    -2.0994   ZZ=    56.9260
   Eigenvalues:    41.7926    46.4927    58.2223
     48  F    Isotropic =   249.7476   Anisotropy =   135.8782
   XX=   277.3876   YX=    13.1491   ZX=    44.3698
   XY=    29.2049   YY=   179.9920   ZY=    48.9949
   XZ=    39.3101   YZ=    35.3732   ZZ=   291.8634
   Eigenvalues:   165.3905   243.5193   340.3331
     49  F    Isotropic =   240.7651   Anisotropy =   128.0202
   XX=   251.3473   YX=    20.4014   ZX=   -33.0248
   XY=    28.8142   YY=   208.2650   ZY=   -73.6361
   XZ=   -22.9112   YZ=   -60.4387   ZZ=   262.6831
   Eigenvalues:   162.8351   233.3484   326.1120
     50  F    Isotropic =   215.7447   Anisotropy =   145.7303
   XX=   237.2498   YX=   -91.5950   ZX=    -7.9531
   XY=   -92.8549   YY=   199.2905   ZY=     0.5649
   XZ=    -5.1386   YZ=     5.3205   ZZ=   210.6938
   Eigenvalues:   124.0726   210.2632   312.8982
     51  F    Isotropic =   255.3375   Anisotropy =   118.1076
   XX=   268.4606   YX=    15.7083   ZX=    -3.7584
   XY=    24.7429   YY=   324.1076   ZY=    36.3407
   XZ=   -12.6026   YZ=    17.5272   ZZ=   173.4442
   Eigenvalues:   167.4332   264.5034   334.0759
     52  F    Isotropic =   226.9660   Anisotropy =   151.4269
   XX=   277.7979   YX=   -27.6397   ZX=    71.7714
   XY=   -32.7906   YY=   192.3357   ZY=    18.5042
   XZ=    77.7312   YZ=    20.0603   ZZ=   210.7643
   Eigenvalues:   141.1072   211.8735   327.9172
     53  F    Isotropic =   226.8338   Anisotropy =   151.9713
   XX=   234.5204   YX=    -5.7131   ZX=   -59.9087
   XY=    -2.2264   YY=   183.5489   ZY=    49.7665
   XZ=   -68.7518   YZ=    56.2684   ZZ=   262.4321
   Eigenvalues:   146.7401   205.6132   328.1480
     54  F    Isotropic =   243.6074   Anisotropy =   140.7078
   XX=   253.3531   YX=   -63.0721   ZX=    22.3779
   XY=   -79.1080   YY=   277.2910   ZY=    29.5375
   XZ=    28.8523   YZ=    13.8608   ZZ=   200.1783
   Eigenvalues:   162.9550   230.4547   337.4126
     55  F    Isotropic =   244.4931   Anisotropy =   141.6290
   XX=   305.0686   YX=    50.4457   ZX=     2.9470
   XY=    61.9671   YY=   235.5434   ZY=    49.5017
   XZ=    -6.1780   YZ=    32.3680   ZZ=   192.8674
   Eigenvalues:   160.4254   234.1415   338.9125
     56  F    Isotropic =   222.6172   Anisotropy =   142.7207
   XX=   214.4500   YX=   -16.0055   ZX=    -6.7996
   XY=   -16.2466   YY=   143.1508   ZY=    33.8523
   XZ=    -6.1382   YZ=    34.0807   ZZ=   310.2509
   Eigenvalues:   133.8547   216.2326   317.7644
     57  F    Isotropic =   218.9621   Anisotropy =   148.5102
   XX=   195.0755   YX=    52.7838   ZX=    34.3188
   XY=    53.0993   YY=   171.3555   ZY=    32.3568
   XZ=    34.8512   YZ=    31.6827   ZZ=   290.4552
   Eigenvalues:   128.8811   210.0362   317.9689
     58  F    Isotropic =   245.1570   Anisotropy =   139.1628
   XX=   175.4313   YX=    12.3687   ZX=   -26.2249
   XY=    34.6453   YY=   328.0886   ZY=   -17.8592
   XZ=   -25.9237   YZ=   -25.8179   ZZ=   231.9511
   Eigenvalues:   163.9728   233.5660   337.9322
     59  F    Isotropic =   248.1292   Anisotropy =   138.6495
   XX=   299.4060   YX=     7.4767   ZX=   -75.2357
   XY=     2.3498   YY=   218.7621   ZY=    43.8505
   XZ=   -57.8091   YZ=    29.5366   ZZ=   226.2196
   Eigenvalues:   164.8483   238.9772   340.5622
     60  P    Isotropic =   304.8875   Anisotropy =    19.6218
   XX=   307.2170   YX=     8.9713   ZX=    19.5678
   XY=   -41.8945   YY=   292.7009   ZY=    -5.3228
   XZ=   -18.6643   YZ=     5.8011   ZZ=   314.7446
   Eigenvalues:   281.9622   314.7316   317.9687
     61  C    Isotropic =    22.0192   Anisotropy =   124.5464
   XX=   -52.5263   YX=    17.0376   ZX=    -0.5616
   XY=    18.0712   YY=    64.2590   ZY=    46.0514
   XZ=    -0.6050   YZ=    42.8447   ZZ=    54.3248
   Eigenvalues:   -55.6345    16.6419   105.0501
     62  C    Isotropic =    48.1822   Anisotropy =   173.3152
   XX=    12.7873   YX=    27.2289   ZX=   -12.3944
   XY=    16.4309   YY=    83.3670   ZY=    94.5142
   XZ=     1.1728   YZ=    95.6591   ZZ=    48.3923
   Eigenvalues:   -37.5570    18.3779   163.7256
     63  C    Isotropic =    47.7447   Anisotropy =   160.0409
   XX=     4.3200   YX=   -16.9563   ZX=    44.8787
   XY=   -26.2722   YY=    84.9751   ZY=    81.1425
   XZ=    45.6645   YZ=    83.7154   ZZ=    53.9390
   Eigenvalues:   -54.8832    43.6786   154.4387
     64  C    Isotropic =    38.8022   Anisotropy =   195.1056
   XX=   -42.1447   YX=     3.1994   ZX=     6.2734
   XY=    16.9180   YY=   100.2773   ZY=    86.8195
   XZ=     6.0371   YZ=    86.0444   ZZ=    58.2740
   Eigenvalues:   -42.8517    -9.6143   168.8726
     65  C    Isotropic =    46.7651   Anisotropy =   156.8770
   XX=    38.8538   YX=    19.6914   ZX=   -12.8414
   XY=    19.2752   YY=    73.6119   ZY=    90.9324
   XZ=   -16.2646   YZ=   104.3232   ZZ=    27.8296
   Eigenvalues:   -55.4276    44.3732   151.3498
     66  C    Isotropic =    48.7060   Anisotropy =   169.8065
   XX=    -5.6423   YX=   -12.1979   ZX=    37.6897
   XY=     0.6503   YY=    94.7417   ZY=    76.8105
   XZ=    29.9676   YZ=    87.5970   ZZ=    57.0187
   Eigenvalues:   -37.8096    22.0174   161.9104
     67  H    Isotropic =    24.5792   Anisotropy =    13.2203
   XX=    27.9407   YX=    -2.4462   ZX=     6.0701
   XY=    -4.5894   YY=    22.1644   ZY=    -2.5808
   XZ=     5.4737   YZ=    -1.4072   ZZ=    23.6324
   Eigenvalues:    19.5244    20.8205    33.3928
     68  H    Isotropic =    25.0347   Anisotropy =    16.4736
   XX=    35.6964   YX=    -2.2126   ZX=     3.0362
   XY=    -2.1118   YY=    21.3759   ZY=     0.9296
   XZ=    -2.4911   YZ=     0.6211   ZZ=    18.0318
   Eigenvalues:    17.8288    21.2582    36.0171
     69  H    Isotropic =    27.3671   Anisotropy =     7.5066
   XX=    29.2972   YX=    -1.0417   ZX=     1.4975
   XY=    -3.2758   YY=    29.8127   ZY=     1.1640
   XZ=    -2.0123   YZ=     4.7228   ZZ=    22.9912
   Eigenvalues:    21.8592    27.8705    32.3715
     70  C    Isotropic =    48.8694   Anisotropy =   199.0360
   XX=   175.1594   YX=   -20.0707   ZX=   -34.9608
   XY=   -24.3182   YY=     9.0523   ZY=   -33.8582
   XZ=   -29.2993   YZ=   -40.2351   ZZ=   -37.6034
   Eigenvalues:   -64.3623    29.4105   181.5601
     71  C    Isotropic =    51.7185   Anisotropy =   190.5694
   XX=   175.7663   YX=    -4.5205   ZX=   -22.6308
   XY=    -9.4482   YY=     8.6145   ZY=    40.2988
   XZ=   -20.4934   YZ=    39.7675   ZZ=   -29.2252
   Eigenvalues:   -55.5040    31.8948   178.7648
     72  C    Isotropic =    45.2576   Anisotropy =   169.4872
   XX=   156.4833   YX=   -16.7338   ZX=    -1.9980
   XY=   -16.3112   YY=   -54.2872   ZY=     1.3748
   XZ=   -13.2878   YZ=     1.2834   ZZ=    33.5767
   Eigenvalues:   -55.5806    33.1043   158.2491
     73  C    Isotropic =    39.6603   Anisotropy =   191.9881
   XX=   163.9532   YX=    -8.6144   ZX=   -26.7378
   XY=   -19.2654   YY=    -3.9586   ZY=   -33.9010
   XZ=   -24.4716   YZ=   -36.7114   ZZ=   -41.0137
   Eigenvalues:   -66.0465    17.3751   167.6524
     74  C    Isotropic =    37.4371   Anisotropy =   204.4968
   XX=   168.9637   YX=   -28.5231   ZX=   -16.3491
   XY=   -13.5853   YY=   -18.0109   ZY=    27.6629
   XZ=   -22.3488   YZ=    34.1330   ZZ=   -38.6415
   Eigenvalues:   -60.9535    -0.5035   173.7683
     75  C    Isotropic =    45.9830   Anisotropy =   203.8715
   XX=   176.2059   YX=   -22.7621   ZX=   -23.6678
   XY=   -30.7560   YY=   -62.5209   ZY=     1.0847
   XZ=   -18.9995   YZ=    -9.7328   ZZ=    24.2641
   Eigenvalues:   -65.9826    22.0344   181.8974
     76  H    Isotropic =    24.6201   Anisotropy =     3.9871
   XX=    23.9789   YX=    -0.8543   ZX=    -1.9645
   XY=    -0.7451   YY=    25.1285   ZY=    -1.3892
   XZ=    -1.1716   YZ=    -3.1026   ZZ=    24.7529
   Eigenvalues:    21.5058    25.0763    27.2781
     77  H    Isotropic =    23.7430   Anisotropy =     3.4354
   XX=    23.3570   YX=     2.4290   ZX=    -0.2227
   XY=     1.1194   YY=    23.5292   ZY=     1.8333
   XZ=     0.2560   YZ=     1.1411   ZZ=    24.3429
   Eigenvalues:    21.2929    23.9028    26.0333
     78  H    Isotropic =    22.8010   Anisotropy =     7.4986
   XX=    20.5759   YX=     3.4786   ZX=     0.7550
   XY=     1.8741   YY=    21.1682   ZY=     2.2740
   XZ=     1.1401   YZ=     1.8140   ZZ=    26.6587
   Eigenvalues:    18.1231    22.4798    27.8000
     79  H    Isotropic =    24.7726   Anisotropy =     7.4829
   XX=    22.4516   YX=    -3.3202   ZX=     3.0559
   XY=     0.3518   YY=    23.8088   ZY=    -2.0032
   XZ=    -0.9472   YZ=    -3.4911   ZZ=    28.0575
   Eigenvalues:    21.4125    23.1441    29.7613
     80  C    Isotropic =    17.5221   Anisotropy =   135.8534
   XX=    29.2413   YX=   -49.1454   ZX=    34.4391
   XY=   -46.8277   YY=   -40.0512   ZY=   -35.1602
   XZ=    37.0002   YZ=   -37.8748   ZZ=    63.3761
   Eigenvalues:   -66.9719    11.4471   108.0910
     81  C    Isotropic =    45.9220   Anisotropy =   176.1413
   XX=    22.2603   YX=   -41.5902   ZX=    87.5940
   XY=   -49.8628   YY=    26.8836   ZY=   -27.8317
   XZ=    75.5667   YZ=   -35.0832   ZZ=    88.6220
   Eigenvalues:   -40.4819    14.8983   163.3495
     82  C    Isotropic =    40.2319   Anisotropy =   150.8473
   XX=    55.4667   YX=    13.3468   ZX=    73.7616
   XY=     9.9990   YY=    14.7637   ZY=   -68.2231
   XZ=    75.3804   YZ=   -64.0932   ZZ=    50.4653
   Eigenvalues:   -64.6559    44.5548   140.7968
     83  C    Isotropic =    45.9162   Anisotropy =   189.9378
   XX=    55.3754   YX=   -56.9993   ZX=    68.4079
   XY=   -45.0915   YY=   -10.1980   ZY=   -43.7192
   XZ=    71.0532   YZ=   -52.6785   ZZ=    92.5712
   Eigenvalues:   -39.1484     4.3556   172.5414
     84  C    Isotropic =    38.4226   Anisotropy =   169.3955
   XX=    -5.0573   YX=   -38.9162   ZX=    87.6935
   XY=   -43.9131   YY=    38.1458   ZY=   -21.1123
   XZ=    88.0810   YZ=   -22.3083   ZZ=    82.1792
   Eigenvalues:   -65.4593    29.3742   151.3529
     85  C    Isotropic =    44.9480   Anisotropy =   177.9317
   XX=    45.4951   YX=   -17.1234   ZX=    73.8856
   XY=    -6.2130   YY=     8.3100   ZY=   -65.5340
   XZ=    81.7587   YZ=   -57.8503   ZZ=    81.0389
   Eigenvalues:   -42.0704    13.3454   163.5691
     86  H    Isotropic =    22.9745   Anisotropy =     9.7174
   XX=    23.1240   YX=     4.1802   ZX=    -1.1298
   XY=     3.1690   YY=    26.1161   ZY=    -2.6989
   XZ=    -2.7871   YZ=    -1.6676   ZZ=    19.6834
   Eigenvalues:    18.7402    20.7306    29.4528
     87  H    Isotropic =    24.4631   Anisotropy =    12.5473
   XX=    21.8754   YX=    -2.2247   ZX=     1.4227
   XY=     1.4271   YY=    30.4471   ZY=     5.6407
   XZ=     3.2335   YZ=     4.8555   ZZ=    21.0669
   Eigenvalues:    17.5125    23.0489    32.8280
     88  C    Isotropic =   169.4369   Anisotropy =    29.3099
   XX=   164.1748   YX=    -4.2373   ZX=     7.8938
   XY=   -12.0774   YY=   166.1295   ZY=   -12.8898
   XZ=     4.4790   YZ=   -10.6159   ZZ=   178.0064
   Eigenvalues:   156.1145   163.2193   188.9768
     89  H    Isotropic =    29.5816   Anisotropy =     7.3076
   XX=    30.0747   YX=    -1.5585   ZX=    -0.6327
   XY=    -1.7465   YY=    25.2265   ZY=    -1.9802
   XZ=    -2.7186   YZ=    -2.8459   ZZ=    33.4435
   Eigenvalues:    23.8864    30.4050    34.4533
     90  H    Isotropic =    28.8302   Anisotropy =     8.0031
   XX=    32.5711   YX=     1.5245   ZX=     1.8435
   XY=     0.1763   YY=    24.5092   ZY=    -1.8942
   XZ=     3.6206   YZ=    -2.6723   ZZ=    29.4104
   Eigenvalues:    23.2383    29.0868    34.1656
     91  H    Isotropic =    29.3952   Anisotropy =     8.3385
   XX=    27.8489   YX=    -1.0456   ZX=     0.3756
   XY=    -2.1900   YY=    34.4255   ZY=    -1.7972
   XZ=     0.4640   YZ=    -0.4168   ZZ=    25.9114
   Eigenvalues:    25.7449    27.4866    34.9542
     92  C    Isotropic =   167.4293   Anisotropy =    27.7954
   XX=   172.3632   YX=     7.2366   ZX=    -9.1358
   XY=     4.4798   YY=   165.2175   ZY=   -12.5069
   XZ=   -10.6411   YZ=   -10.9817   ZZ=   164.7072
   Eigenvalues:   152.6123   163.7161   185.9596
     93  H    Isotropic =    29.8608   Anisotropy =     6.9699
   XX=    32.7296   YX=    -1.0634   ZX=    -0.3562
   XY=    -3.1171   YY=    29.1664   ZY=    -4.5827
   XZ=     0.4687   YZ=    -4.1532   ZZ=    27.6865
   Eigenvalues:    23.7987    31.2763    34.5074
     94  H    Isotropic =    29.2391   Anisotropy =     8.9006
   XX=    30.4865   YX=    -3.0935   ZX=    -3.0663
   XY=    -3.7211   YY=    27.5158   ZY=     0.4400
   XZ=    -4.8607   YZ=     0.4015   ZZ=    29.7151
   Eigenvalues:    24.4107    28.1338    35.1728
     95  H    Isotropic =    28.8488   Anisotropy =     8.4750
   XX=    32.3501   YX=     2.4108   ZX=     2.6551
   XY=     3.9433   YY=    28.5511   ZY=    -1.2267
   XZ=     2.1329   YZ=    -0.2911   ZZ=    25.6453
   Eigenvalues:    24.0836    27.9641    34.4988
     96  O    Isotropic =   260.8775   Anisotropy =   106.8996
   XX=   286.8746   YX=    20.9208   ZX=    28.5902
   XY=    33.5990   YY=   241.4603   ZY=    34.6000
   XZ=    40.8145   YZ=    46.9896   ZZ=   254.2975
   Eigenvalues:   206.5232   243.9653   332.1439
     97  C    Isotropic =   126.4255   Anisotropy =    84.5927
   XX=   116.7009   YX=   -27.6756   ZX=   -11.7718
   XY=   -32.5428   YY=   152.2176   ZY=    28.2057
   XZ=   -12.8154   YZ=    29.4583   ZZ=   110.3580
   Eigenvalues:    94.6709   101.7849   182.8206
     98  H    Isotropic =    28.1752   Anisotropy =     8.4848
   XX=    26.0807   YX=    -2.6190   ZX=    -1.9157
   XY=    -4.1872   YY=    28.7966   ZY=     3.8957
   XZ=    -2.4770   YZ=     1.2778   ZZ=    29.6482
   Eigenvalues:    23.7437    26.9501    33.8317
     99  H    Isotropic =    27.8192   Anisotropy =     7.9875
   XX=    26.4824   YX=    -2.5715   ZX=    -1.7305
   XY=    -2.6405   YY=    32.0179   ZY=    -1.7824
   XZ=    -2.8096   YZ=     1.7864   ZZ=    24.9572
   Eigenvalues:    23.0398    27.2735    33.1442
    100  H    Isotropic =    27.6982   Anisotropy =    10.5973
   XX=    32.2120   YX=    -2.6874   ZX=    -0.0559
   XY=    -6.0724   YY=    26.8327   ZY=     0.0582
   XZ=    -1.8998   YZ=     0.7048   ZZ=    24.0499
   Eigenvalues:    23.9057    24.4259    34.7631
    101  C    Isotropic =   167.0006   Anisotropy =    27.9250
   XX=   172.5883   YX=     6.9726   ZX=   -13.2926
   XY=     6.1276   YY=   161.8456   ZY=    -2.3720
   XZ=   -15.1567   YZ=    -0.3045   ZZ=   166.5679
   Eigenvalues:   153.6808   161.7038   185.6173
    102  H    Isotropic =    29.1652   Anisotropy =    10.1071
   XX=    27.5101   YX=    -1.4838   ZX=    -5.4990
   XY=    -0.8989   YY=    31.5081   ZY=     2.1501
   XZ=    -5.2149   YZ=     4.5589   ZZ=    28.4773
   Eigenvalues:    22.3801    29.2122    35.9032
    103  H    Isotropic =    28.9501   Anisotropy =     5.1275
   XX=    30.8634   YX=     3.2645   ZX=     0.3529
   XY=     0.9371   YY=    27.8136   ZY=     1.3541
   XZ=     0.6678   YZ=     2.3301   ZZ=    28.1733
   Eigenvalues:    25.7982    28.6836    32.3684
    104  H    Isotropic =    28.6686   Anisotropy =     9.6826
   XX=    24.5719   YX=     0.0491   ZX=    -1.7456
   XY=    -0.1808   YY=    32.1720   ZY=    -3.5897
   XZ=    -3.4208   YZ=    -4.2995   ZZ=    29.2619
   Eigenvalues:    23.0555    27.8266    35.1237
    105  C    Isotropic =   169.3130   Anisotropy =    29.8583
   XX=   171.1441   YX=    -7.7937   ZX=    -7.0591
   XY=   -11.5999   YY=   172.4296   ZY=     9.7651
   XZ=    -4.8933   YZ=    16.3844   ZZ=   164.3654
   Eigenvalues:   154.6386   164.0819   189.2186
    106  H    Isotropic =    28.7068   Anisotropy =     8.3868
   XX=    28.0473   YX=    -2.1405   ZX=    -2.7779
   XY=     0.2584   YY=    34.1513   ZY=    -0.8016
   XZ=    -1.4202   YZ=    -0.2725   ZZ=    23.9219
   Eigenvalues:    22.9752    28.8473    34.2980
    107  H    Isotropic =    29.7593   Anisotropy =     7.6645
   XX=    34.6773   YX=     0.4783   ZX=    -1.7794
   XY=    -0.6046   YY=    29.7477   ZY=     3.1628
   XZ=    -0.7062   YZ=     2.3353   ZZ=    24.8530
   Eigenvalues:    23.5094    30.8997    34.8690
    108  H    Isotropic =    29.2247   Anisotropy =     7.5282
   XX=    27.0428   YX=    -0.4774   ZX=     0.4589
   XY=     0.1947   YY=    27.3872   ZY=     1.8805
   XZ=     0.0260   YZ=     3.3421   ZZ=    33.2440
   Eigenvalues:    26.3252    27.1053    34.2435
    109  O    Isotropic =   255.4572   Anisotropy =   117.3230
   XX=   223.7837   YX=   -17.9198   ZX=    32.5543
   XY=    -6.9770   YY=   299.3271   ZY=   -46.4050
   XZ=    17.2380   YZ=   -53.6325   ZZ=   243.2609
   Eigenvalues:   201.2932   231.4060   333.6726
    110  C    Isotropic =   126.2607   Anisotropy =    78.6778
   XX=   125.2110   YX=     9.9964   ZX=    38.1805
   XY=     8.7816   YY=   106.9210   ZY=    10.8687
   XZ=    38.2433   YZ=    12.3058   ZZ=   146.6502
   Eigenvalues:    96.2142   103.8554   178.7126
    111  H    Isotropic =    27.7246   Anisotropy =     6.5476
   XX=    26.4233   YX=     1.3104   ZX=     2.9762
   XY=     0.3125   YY=    25.8559   ZY=     1.2621
   XZ=    -0.0824   YZ=     2.8182   ZZ=    30.8947
   Eigenvalues:    25.0511    26.0331    32.0897
    112  H    Isotropic =    27.6416   Anisotropy =     5.4191
   XX=    28.9672   YX=    -0.4226   ZX=     1.7210
   XY=    -1.0099   YY=    27.5847   ZY=     0.8799
   XZ=     4.9615   YZ=     1.2795   ZZ=    26.3729
   Eigenvalues:    23.6584    28.0120    31.2543
    113  H    Isotropic =    27.6183   Anisotropy =    10.0529
   XX=    26.1619   YX=     4.4969   ZX=     1.6461
   XY=     2.5362   YY=    30.7324   ZY=     1.6326
   XZ=     2.4743   YZ=     4.6521   ZZ=    25.9607
   Eigenvalues:    23.9825    24.5523    34.3203
 End of Minotr F.D. properties file   721 does not exist.
 End of Minotr F.D. properties file   722 does not exist.
 End of Minotr F.D. properties file   788 does not exist.
 Hyperfine terms turned off by default for NAtoms > 100.

 **********************************************************************

            Population analysis using the SCF Density.

 **********************************************************************

 Orbital symmetries:
       Occupied  (A) (A) (A) (A) (A) (A) (A) (A) (A) (A) (A) (A)
                 (A) (A) (A) (A) (A) (A) (A) (A) (A) (A) (A) (A)
                 (A) (A) (A) (A) (A) (A) (A) (A) (A) (A) (A) (A)
                 (A) (A) (A) (A) (A) (A) (A) (A) (A) (A) (A) (A)
                 (A) (A) (A) (A) (A) (A) (A) (A) (A) (A) (A) (A)
                 (A) (A) (A) (A) (A) (A) (A) (A) (A) (A) (A) (A)
                 (A) (A) (A) (A) (A) (A) (A) (A) (A) (A) (A) (A)
                 (A) (A) (A) (A) (A) (A) (A) (A) (A) (A) (A) (A)
                 (A) (A) (A) (A) (A) (A) (A) (A) (A) (A) (A) (A)
                 (A) (A) (A) (A) (A) (A) (A) (A) (A) (A) (A) (A)
                 (A) (A) (A) (A) (A) (A) (A) (A) (A) (A) (A) (A)
                 (A) (A) (A) (A) (A) (A) (A) (A) (A) (A) (A) (A)
                 (A) (A) (A) (A) (A) (A) (A) (A) (A) (A) (A) (A)
                 (A) (A) (A) (A) (A) (A) (A) (A) (A) (A) (A) (A)
                 (A) (A) (A) (A) (A) (A) (A) (A) (A) (A) (A) (A)
                 (A) (A) (A) (A) (A) (A) (A) (A) (A) (A) (A) (A)
                 (A) (A) (A) (A) (A) (A) (A) (A) (A) (A) (A) (A)
                 (A) (A) (A) (A) (A) (A) (A) (A) (A) (A) (A) (A)
                 (A) (A) (A) (A) (A) (A) (A) (A) (A) (A) (A) (A)
                 (A) (A) (A) (A) (A) (A) (A) (A) (A) (A) (A) (A)
                 (A) (A) (A) (A) (A) (A) (A) (A) (A) (A) (A) (A)
                 (A) (A) (A) (A) (A) (A) (A) (A) (A) (A) (A)
       Virtual   (A) (A) (A) (A) (A) (A) (A) (A) (A) (A) (A) (A)
                 (A) (A) (A) (A) (A) (A) (A) (A) (A) (A) (A) (A)
                 (A) (A) (A) (A) (A) (A) (A) (A) (A) (A) (A) (A)
                 (A) (A) (A) (A) (A) (A) (A) (A) (A) (A) (A) (A)
                 (A) (A) (A) (A) (A) (A) (A) (A) (A) (A) (A) (A)
                 (A) (A) (A) (A) (A) (A) (A) (A) (A) (A) (A) (A)
                 (A) (A) (A) (A) (A) (A) (A) (A) (A) (A) (A) (A)
                 (A) (A) (A) (A) (A) (A) (A) (A) (A) (A) (A) (A)
                 (A) (A) (A) (A) (A) (A) (A) (A) (A) (A) (A) (A)
                 (A) (A) (A) (A) (A) (A) (A) (A) (A) (A) (A) (A)
                 (A) (A) (A) (A) (A) (A) (A) (A) (A) (A) (A) (A)
                 (A) (A) (A) (A) (A) (A) (A) (A) (A) (A) (A) (A)
                 (A) (A) (A) (A) (A) (A) (A) (A) (A) (A) (A) (A)
                 (A) (A) (A) (A) (A) (A) (A) (A) (A) (A) (A) (A)
                 (A) (A) (A) (A) (A) (A) (A) (A) (A) (A) (A) (A)
                 (A) (A) (A) (A) (A) (A) (A) (A) (A) (A) (A) (A)
                 (A) (A) (A) (A) (A) (A) (A) (A) (A) (A) (A) (A)
                 (A) (A) (A) (A) (A) (A) (A) (A) (A) (A) (A) (A)
                 (A) (A) (A) (A) (A) (A) (A) (A) (A) (A) (A) (A)
                 (A) (A) (A) (A) (A) (A) (A) (A) (A) (A) (A) (A)
                 (A) (A) (A) (A) (A) (A) (A) (A) (A) (A) (A) (A)
                 (A) (A) (A) (A) (A) (A) (A) (A) (A) (A) (A) (A)
                 (A) (A) (A) (A) (A) (A) (A) (A) (A) (A) (A) (A)
                 (A) (A) (A) (A) (A) (A) (A) (A) (A) (A) (A) (A)
                 (A) (A) (A) (A) (A) (A) (A) (A) (A) (A) (A) (A)
                 (A) (A) (A) (A) (A) (A) (A) (A) (A) (A) (A) (A)
                 (A) (A) (A) (A) (A) (A) (A) (A) (A) (A) (A) (A)
                 (A) (A) (A) (A) (A) (A) (A) (A) (A) (A) (A) (A)
                 (A) (A) (A) (A) (A) (A) (A) (A) (A) (A) (A) (A)
                 (A) (A) (A) (A) (A) (A) (A) (A) (A) (A) (A) (A)
                 (A) (A) (A) (A) (A) (A) (A) (A) (A) (A) (A) (A)
                 (A) (A) (A) (A) (A) (A) (A) (A) (A) (A) (A) (A)
                 (A) (A) (A) (A) (A) (A) (A) (A) (A) (A) (A) (A)
                 (A) (A) (A) (A) (A) (A) (A) (A) (A) (A) (A) (A)
                 (A) (A) (A) (A) (A) (A) (A) (A) (A) (A) (A) (A)
                 (A) (A) (A) (A) (A) (A) (A) (A) (A) (A) (A) (A)
                 (A) (A) (A) (A) (A) (A) (A) (A) (A) (A) (A) (A)
                 (A) (A) (A) (A) (A) (A) (A) (A) (A) (A) (A) (A)
                 (A) (A) (A) (A) (A) (A) (A) (A) (A) (A) (A) (A)
                 (A) (A) (A) (A) (A) (A) (A) (A) (A) (A) (A) (A)
                 (A) (A) (A) (A) (A) (A) (A) (A) (A) (A) (A) (A)
                 (A) (A) (A) (A) (A) (A) (A) (A) (A) (A) (A) (A)
                 (A) (A) (A) (A) (A) (A) (A) (A) (A) (A) (A) (A)
                 (A) (A) (A) (A) (A) (A) (A) (A) (A) (A) (A) (A)
                 (A) (A) (A) (A) (A) (A) (A) (A) (A) (A) (A) (A)
                 (A) (A) (A) (A) (A) (A) (A) (A) (A) (A) (A) (A)
                 (A) (A) (A) (A) (A) (A) (A) (A) (A) (A) (A) (A)
                 (A) (A) (A) (A) (A) (A) (A) (A) (A) (A) (A) (A)
                 (A) (A) (A) (A) (A) (A) (A) (A) (A) (A) (A) (A)
                 (A) (A) (A) (A) (A) (A) (A) (A) (A) (A) (A) (A)
                 (A) (A) (A) (A) (A) (A) (A) (A) (A) (A) (A) (A)
                 (A) (A) (A) (A) (A) (A) (A) (A) (A) (A) (A) (A)
                 (A) (A) (A) (A) (A) (A) (A) (A) (A) (A) (A) (A)
                 (A) (A) (A) (A) (A) (A) (A) (A) (A) (A) (A) (A)
                 (A) (A) (A) (A) (A) (A) (A) (A) (A) (A) (A) (A)
                 (A) (A) (A) (A) (A) (A) (A) (A) (A) (A) (A) (A)
                 (A) (A) (A) (A) (A) (A) (A) (A) (A) (A) (A) (A)
                 (A) (A) (A) (A) (A) (A) (A) (A) (A) (A) (A) (A)
                 (A) (A) (A) (A) (A) (A) (A) (A) (A) (A) (A) (A)
                 (A) (A) (A) (A) (A) (A) (A) (A) (A) (A) (A) (A)
                 (A) (A) (A) (A) (A) (A) (A) (A) (A) (A) (A) (A)
                 (A) (A) (A) (A) (A) (A) (A) (A) (A) (A) (A) (A)
                 (A) (A) (A) (A) (A) (A) (A) (A) (A) (A) (A) (A)
                 (A) (A) (A) (A) (A) (A) (A) (A) (A) (A) (A) (A)
                 (A) (A) (A) (A) (A) (A) (A) (A) (A) (A) (A) (A)
                 (A) (A) (A) (A) (A) (A) (A) (A) (A) (A) (A) (A)
                 (A) (A) (A) (A) (A) (A) (A) (A) (A) (A) (A) (A)
                 (A) (A) (A) (A) (A) (A) (A) (A) (A) (A) (A) (A)
                 (A) (A) (A) (A) (A) (A) (A) (A) (A) (A) (A) (A)
                 (A) (A) (A) (A) (A) (A) (A) (A) (A) (A) (A) (A)
                 (A) (A) (A) (A) (A) (A) (A) (A) (A) (A) (A) (A)
                 (A) (A) (A) (A) (A) (A) (A) (A) (A) (A) (A) (A)
                 (A) (A) (A) (A) (A) (A) (A) (A) (A) (A) (A) (A)
                 (A) (A) (A) (A) (A) (A) (A) (A) (A) (A) (A) (A)
                 (A) (A) (A) (A) (A) (A) (A) (A) (A) (A) (A) (A)
                 (A) (A) (A) (A) (A) (A) (A) (A) (A) (A) (A) (A)
                 (A) (A) (A) (A) (A) (A) (A) (A) (A) (A) (A) (A)
                 (A) (A) (A) (A) (A) (A) (A) (A) (A) (A) (A) (A)
                 (A) (A) (A) (A) (A) (A) (A) (A) (A) (A) (A) (A)
                 (A) (A) (A) (A) (A) (A) (A) (A) (A) (A) (A) (A)
                 (A) (A) (A) (A) (A) (A) (A) (A) (A) (A) (A) (A)
                 (A) (A) (A) (A) (A) (A) (A) (A) (A) (A) (A) (A)
                 (A) (A) (A) (A) (A) (A) (A) (A) (A) (A) (A) (A)
                 (A) (A) (A) (A) (A) (A) (A) (A) (A) (A) (A) (A)
                 (A) (A) (A) (A) (A) (A) (A) (A) (A) (A) (A) (A)
                 (A) (A) (A) (A) (A) (A) (A) (A) (A) (A) (A) (A)
                 (A) (A) (A) (A) (A) (A) (A) (A) (A) (A) (A) (A)
                 (A) (A) (A) (A) (A) (A) (A) (A) (A) (A) (A) (A)
                 (A) (A) (A) (A) (A) (A) (A) (A) (A) (A) (A) (A)
                 (A) (A) (A) (A) (A) (A) (A) (A) (A) (A) (A) (A)
                 (A) (A) (A) (A) (A) (A) (A) (A) (A) (A) (A) (A)
                 (A) (A) (A) (A) (A) (A) (A) (A) (A) (A) (A) (A)
                 (A) (A) (A) (A) (A) (A) (A) (A) (A) (A) (A) (A)
                 (A) (A) (A) (A) (A) (A) (A) (A) (A) (A) (A) (A)
                 (A) (A) (A) (A) (A) (A) (A) (A) (A) (A) (A) (A)
                 (A) (A) (A) (A) (A) (A) (A) (A) (A) (A) (A) (A)
                 (A) (A) (A) (A) (A) (A) (A) (A) (A) (A) (A) (A)
                 (A) (A) (A) (A) (A) (A) (A) (A) (A) (A) (A) (A)
                 (A) (A) (A) (A) (A) (A) (A) (A) (A) (A) (A) (A)
                 (A) (A) (A) (A) (A) (A) (A) (A) (A) (A) (A) (A)
                 (A) (A) (A) (A) (A) (A) (A) (A) (A) (A) (A) (A)
                 (A) (A) (A) (A) (A) (A) (A) (A) (A) (A) (A) (A)
                 (A) (A) (A) (A) (A) (A) (A) (A) (A) (A) (A) (A)
                 (A) (A) (A) (A) (A) (A) (A) (A) (A) (A) (A) (A)
                 (A) (A) (A) (A) (A) (A) (A) (A) (A) (A) (A) (A)
                 (A) (A) (A) (A) (A) (A) (A) (A) (A) (A) (A) (A)
                 (A) (A) (A) (A) (A) (A) (A) (A) (A) (A) (A) (A)
                 (A) (A) (A) (A) (A) (A) (A) (A) (A) (A) (A) (A)
                 (A) (A) (A) (A) (A) (A) (A) (A) (A) (A) (A) (A)
                 (A) (A) (A) (A) (A) (A) (A) (A) (A) (A) (A) (A)
                 (A) (A) (A) (A) (A) (A) (A) (A) (A) (A) (A) (A)
                 (A) (A) (A) (A) (A) (A) (A) (A) (A) (A) (A) (A)
                 (A) (A) (A) (A) (A) (A) (A) (A) (A) (A) (A) (A)
                 (A) (A) (A) (A) (A) (A) (A) (A) (A) (A) (A) (A)
                 (A) (A) (A) (A) (A) (A) (A) (A) (A) (A) (A) (A)
                 (A) (A) (A) (A) (A) (A) (A) (A) (A) (A) (A) (A)
                 (A) (A) (A) (A) (A) (A) (A) (A) (A) (A) (A) (A)
                 (A) (A) (A) (A) (A) (A) (A) (A) (A) (A) (A) (A)
                 (A) (A) (A) (A) (A) (A) (A) (A) (A) (A) (A) (A)
                 (A) (A) (A) (A) (A) (A) (A) (A) (A) (A) (A) (A)
                 (A) (A) (A) (A) (A) (A) (A) (A) (A) (A) (A) (A)
                 (A) (A) (A) (A) (A) (A) (A) (A) (A) (A) (A) (A)
                 (A) (A) (A) (A) (A) (A) (A) (A) (A) (A) (A) (A)
                 (A) (A) (A) (A) (A) (A) (A) (A) (A) (A) (A) (A)
                 (A) (A) (A) (A) (A) (A) (A) (A) (A) (A) (A) (A)
                 (A) (A) (A) (A) (A) (A) (A) (A) (A) (A) (A) (A)
                 (A) (A) (A) (A) (A) (A) (A) (A) (A) (A) (A) (A)
                 (A) (A) (A) (A) (A) (A) (A) (A) (A) (A) (A) (A)
                 (A) (A) (A) (A) (A) (A) (A) (A) (A) (A) (A) (A)
                 (A) (A) (A) (A) (A) (A) (A) (A) (A) (A) (A) (A)
                 (A) (A) (A) (A) (A) (A) (A) (A) (A) (A) (A) (A)
                 (A) (A) (A) (A) (A) (A) (A) (A) (A) (A) (A) (A)
                 (A) (A) (A) (A) (A) (A) (A) (A) (A) (A) (A) (A)
                 (A) (A) (A) (A) (A) (A) (A) (A) (A) (A) (A) (A)
                 (A) (A) (A) (A) (A) (A) (A) (A) (A) (A) (A) (A)
                 (A) (A) (A) (A) (A) (A) (A) (A) (A) (A) (A) (A)
                 (A) (A) (A) (A) (A) (A) (A) (A) (A) (A) (A) (A)
                 (A) (A) (A) (A) (A) (A) (A) (A) (A) (A) (A) (A)
                 (A) (A) (A) (A) (A) (A) (A) (A) (A) (A) (A) (A)
                 (A) (A) (A) (A) (A) (A) (A) (A) (A) (A) (A) (A)
                 (A) (A) (A) (A) (A) (A) (A) (A) (A) (A) (A) (A)
                 (A) (A) (A) (A) (A) (A) (A) (A) (A) (A) (A) (A)
                 (A) (A) (A) (A) (A) (A) (A) (A) (A) (A) (A) (A)
                 (A) (A) (A) (A) (A) (A) (A) (A) (A) (A) (A) (A)
                 (A) (A) (A) (A) (A) (A) (A) (A) (A) (A) (A) (A)
                 (A) (A) (A) (A) (A) (A) (A) (A) (A) (A) (A) (A)
                 (A) (A) (A) (A) (A) (A) (A) (A) (A) (A) (A) (A)
                 (A) (A) (A) (A) (A) (A) (A) (A) (A) (A) (A) (A)
                 (A) (A) (A) (A) (A) (A) (A) (A) (A) (A) (A) (A)
                 (A) (A) (A) (A) (A) (A) (A) (A) (A) (A) (A) (A)
                 (A) (A) (A) (A) (A) (A) (A) (A) (A) (A) (A) (A)
                 (A) (A) (A) (A) (A) (A) (A) (A) (A) (A) (A) (A)
                 (A) (A) (A) (A) (A) (A) (A) (A) (A) (A) (A) (A)
                 (A) (A) (A) (A) (A) (A) (A) (A) (A) (A) (A) (A)
                 (A) (A) (A) (A) (A) (A) (A) (A) (A) (A) (A) (A)
                 (A) (A) (A) (A) (A) (A) (A) (A) (A) (A) (A) (A)
                 (A) (A) (A) (A) (A) (A) (A) (A) (A) (A) (A) (A)
                 (A) (A) (A) (A) (A) (A) (A) (A) (A) (A) (A) (A)
                 (A) (A) (A) (A) (A) (A) (A) (A) (A) (A) (A) (A)
                 (A) (A) (A) (A) (A) (A) (A) (A) (A) (A) (A) (A)
                 (A) (A) (A) (A) (A) (A) (A) (A) (A) (A) (A) (A)
                 (A) (A) (A) (A) (A) (A) (A) (A) (A) (A) (A) (A)
                 (A) (A) (A) (A) (A) (A) (A) (A) (A) (A) (A) (A)
                 (A) (A) (A) (A) (A) (A) (A) (A) (A) (A) (A) (A)
                 (A) (A) (A) (A) (A) (A) (A) (A) (A) (A) (A) (A)
                 (A) (A) (A) (A) (A) (A) (A) (A) (A) (A) (A) (A)
                 (A) (A) (A) (A) (A) (A) (A) (A) (A) (A) (A) (A)
                 (A) (A) (A) (A) (A) (A) (A) (A) (A) (A) (A) (A)
                 (A) (A) (A) (A) (A) (A) (A) (A) (A) (A) (A) (A)
                 (A) (A) (A) (A) (A) (A) (A) (A) (A) (A) (A) (A)
                 (A) (A) (A) (A) (A) (A) (A) (A) (A) (A) (A) (A)
                 (A) (A) (A) (A) (A) (A) (A) (A) (A) (A) (A) (A)
                 (A) (A) (A) (A) (A) (A) (A) (A) (A) (A) (A) (A)
                 (A) (A) (A) (A) (A) (A) (A) (A) (A) (A) (A) (A)
                 (A) (A) (A) (A) (A) (A) (A) (A) (A) (A) (A) (A)
                 (A) (A) (A) (A) (A) (A) (A) (A) (A) (A) (A) (A)
                 (A) (A) (A) (A) (A) (A) (A) (A) (A) (A) (A) (A)
                 (A) (A) (A) (A) (A) (A) (A) (A) (A) (A) (A) (A)
                 (A) (A) (A) (A) (A) (A) (A) (A) (A) (A) (A) (A)
                 (A) (A) (A) (A) (A) (A) (A) (A) (A) (A) (A) (A)
                 (A) (A) (A) (A)
 The electronic state is 1-A.
 Alpha  occ. eigenvalues --  -77.22172 -77.19727 -24.81631 -24.81605 -24.81590
 Alpha  occ. eigenvalues --  -24.81559 -24.81498 -24.81486 -24.81399 -24.81396
 Alpha  occ. eigenvalues --  -24.81083 -24.81079 -24.81032 -24.80902 -19.22659
 Alpha  occ. eigenvalues --  -19.22475 -10.49236 -10.49144 -10.48900 -10.48852
 Alpha  occ. eigenvalues --  -10.28654 -10.28616 -10.28276 -10.28125 -10.27802
 Alpha  occ. eigenvalues --  -10.27797 -10.27723 -10.27673 -10.27560 -10.27474
 Alpha  occ. eigenvalues --  -10.27357 -10.27249 -10.27166 -10.27043 -10.26751
 Alpha  occ. eigenvalues --  -10.26703 -10.26537 -10.25570 -10.25455 -10.25120
 Alpha  occ. eigenvalues --  -10.24896 -10.24493 -10.24445 -10.24394 -10.24362
 Alpha  occ. eigenvalues --  -10.24317 -10.24224 -10.24186 -10.24186 -10.24134
 Alpha  occ. eigenvalues --  -10.23972 -10.23874 -10.23816 -10.23801 -10.23797
 Alpha  occ. eigenvalues --  -10.23796 -10.23776 -10.23708 -10.23665 -10.23414
 Alpha  occ. eigenvalues --  -10.23407 -10.23208 -10.22529 -10.22393 -10.22372
[...]
  2242. RY*(  18) O 109                  0.00001     3.02848   
  2243. RY*(  19) O 109                  0.00000     5.87085   
  2244. RY*(  20) O 109                  0.00000     5.49857   
  2245. RY*(  21) O 109                  0.00000     5.34014   
  2246. RY*(  22) O 109                  0.00000     5.46195   
  2247. RY*(  23) O 109                  0.00000     5.44740   
  2248. RY*(  24) O 109                  0.00000     5.42006   
  2249. RY*(  25) O 109                  0.00000     5.55257   
  2250. RY*(  26) O 109                  0.00000     5.57377   
  2251. RY*(   1) C 110                  0.00205     1.66859   
  2252. RY*(   2) C 110                  0.00191     1.45853   
  2253. RY*(   3) C 110                  0.00157     1.18190   
  2254. RY*(   4) C 110                  0.00024     1.00526   
  2255. RY*(   5) C 110                  0.00015     1.69460   
  2256. RY*(   6) C 110                  0.00009     1.25293   
  2257. RY*(   7) C 110                  0.00007     1.95005   
  2258. RY*(   8) C 110                  0.00004     1.62454   
  2259. RY*(   9) C 110                  0.00004     1.59127   
  2260. RY*(  10) C 110                  0.00002     2.26119   
  2261. RY*(  11) C 110                  0.00000     2.75821   
  2262. RY*(  12) C 110                  0.00000     2.76011   
  2263. RY*(  13) C 110                  0.00000     2.56347   
  2264. RY*(  14) C 110                  0.00001     2.88028   
  2265. RY*(  15) C 110                  0.00000    21.45745   
  2266. RY*(  16) C 110                  0.00000     2.39124   
  2267. RY*(  17) C 110                  0.00000     2.49618   
  2268. RY*(  18) C 110                  0.00001     2.71260   
  2269. RY*(  19) C 110                  0.00000     2.45571   
  2270. RY*(  20) C 110                  0.00000     3.42384   
  2271. RY*(  21) C 110                  0.00000     3.83603   
  2272. RY*(  22) C 110                  0.00000     3.55799   
  2273. RY*(  23) C 110                  0.00000     3.35041   
  2274. RY*(  24) C 110                  0.00000     3.30509   
  2275. RY*(  25) C 110                  0.00000     3.27752   
  2276. RY*(  26) C 110                  0.00000     3.67304   
  2277. RY*(   1) H 111                  0.00121     0.77527   
  2278. RY*(   2) H 111                  0.00020     2.01987   
  2279. RY*(   3) H 111                  0.00013     2.09822   
  2280. RY*(   4) H 111                  0.00008     2.00321   
  2281. RY*(   5) H 111                  0.00002     2.85083   
  2282. RY*(   1) H 112                  0.00105     0.93921   
  2283. RY*(   2) H 112                  0.00022     1.92525   
  2284. RY*(   3) H 112                  0.00013     2.09734   
  2285. RY*(   4) H 112                  0.00005     2.09404   
  2286. RY*(   5) H 112                  0.00002     2.80432   
  2287. RY*(   1) H 113                  0.00048     1.06155   
  2288. RY*(   2) H 113                  0.00012     2.02647   
  2289. RY*(   3) H 113                  0.00010     1.68109   
  2290. RY*(   4) H 113                  0.00007     1.96481   
  2291. RY*(   5) H 113                  0.00001     2.72231   
  2304. BD*(   1) C  12 - C  13          0.03076     0.43897   
  2305. BD*(   2) C  12 - C  13          0.43061     0.04143  2311(v),227(v),2372(r)
                                                    2304(g),222(r),225(r)
                                                    2388(r),458(g),485(g)
                                                    2309(g),2307(g),456(g)
                                                    2308(g),224(r),2299(r)
                                                    426(r),226(r),444(r),442(r)
  2306. BD*(   1) C  12 - C  16          0.02803     0.45034   
  2307. BD*(   1) C  12 - H  17          0.01435     0.40229   
  2308. BD*(   1) C  13 - C  14          0.02497     0.45147   
  2309. BD*(   1) C  13 - H  69          0.01493     0.41514   
  2310. BD*(   1) C  14 - C  15          0.05728     0.41887   
  2311. BD*(   2) C  14 - C  15          0.49798     0.03357  2305(v),227(v),2310(g)
                                                    222(r),224(r),2293(r)
                                                    2316(v),2317(v),2390(v)
                                                    225(r),2387(v),221(r)
                                                    2312(g),539(g),512(g)
                                                    2299(r),454(r),223(r),452(r)
                                                    427(r)
  2312. BD*(   1) C  14 - C  73          0.03283     0.43630   
  2313. BD*(   1) C  15 - C  16          0.04374     0.43877   
  2314. BD*(   1) C  15 - C  19          0.03084     0.37391   
  2315. BD*(   1) C  16 - H  18          0.01674     0.40402   
  2316. BD*(   1) C  19 - P  20          0.04568     0.16115   
  2317. BD*(   1) C  19 - H  21          0.02866     0.35872   
  2318. BD*(   1) C  19 - C  22          0.01103     0.33025   
  2319. BD*(   1) P  20 - C  29          0.04320     0.20312   
  2320. BD*(   1) P  20 - C  40          0.03694     0.19241   
  2321. BD*(   1) C  22 - H  23          0.00618     0.36433   
  2322. BD*(   1) C  22 - H  24          0.00975     0.36108   
  2323. BD*(   1) C  22 - H  25          0.00999     0.35532   
  2324. BD*(   1) C  26 - C  27          0.01948     0.49235   
  2325. BD*(   1) C  26 - C  31          0.01943     0.49191   
  2326. BD*(   2) C  26 - C  31          0.34809    -0.01215  2329(v),2334(v),2341(v)
                                                    697(g),2343(v),2342(v)
  2327. BD*(   1) C  26 - H  32          0.01196     0.37526   
  2328. BD*(   1) C  27 - C  28          0.02300     0.49347   
  2329. BD*(   2) C  27 - C  28          0.34597    -0.00902  2334(v),2326(v),2340(v)
                                                    749(g),2338(v),2339(v)
  2330. BD*(   1) C  27 - C  33          0.06652     0.29632   
  2331. BD*(   1) C  28 - C  29          0.02314     0.49411   
  2332. BD*(   1) C  28 - H  34          0.01541     0.37917   
  2333. BD*(   1) C  29 - C  30          0.03334     0.49753   
  2334. BD*(   2) C  29 - C  30          0.33392    -0.00711  2329(v),2326(v),801(g)
                                                    2320(v),2316(v)
  2335. BD*(   1) C  30 - C  31          0.02424     0.49433   
  2336. BD*(   1) C  30 - H  35          0.01544     0.37897   
  2337. BD*(   1) C  31 - C  36          0.06655     0.29762   
  2338. BD*(   1) C  33 - F  54          0.09240     0.19312   
  2339. BD*(   1) C  33 - F  55          0.09128     0.19632   
  2340. BD*(   1) C  33 - F  56          0.09719     0.20231   
  2341. BD*(   1) C  36 - F  57          0.09916     0.19694   
  2342. BD*(   1) C  36 - F  58          0.09170     0.19609   
  2343. BD*(   1) C  36 - F  59          0.09022     0.19961   
  2344. BD*(   1) C  37 - C  38          0.02002     0.50714   
  2345. BD*(   1) C  37 - C  42          0.01975     0.50490   
  2346. BD*(   2) C  37 - C  42          0.35826    -0.00228  2349(v),2354(v),2363(v)
                                                    920(g),2362(v),2361(v)
  2347. BD*(   1) C  37 - H  43          0.01230     0.38234   
  2348. BD*(   1) C  38 - C  39          0.02471     0.50781   
  2349. BD*(   2) C  38 - C  39          0.35151     0.00173  2354(v),2346(v),2359(v)
                                                    2360(v),971(g),946(g)
  2350. BD*(   1) C  38 - C  44          0.06597     0.30591   
  2351. BD*(   1) C  39 - C  40          0.03007     0.51158   
  2352. BD*(   1) C  39 - H  45          0.01918     0.40204   
  2353. BD*(   1) C  40 - C  41          0.02261     0.50187   
  2354. BD*(   2) C  40 - C  41          0.34119     0.00447  2349(v),2346(v),1023(g)
                                                    2392(r),2319(v),999(g)
  2355. BD*(   1) C  41 - C  42          0.02329     0.50481   
  2356. BD*(   1) C  41 - H  46          0.01858     0.40220   
  2357. BD*(   1) C  42 - C  47          0.06511     0.30727   
  2358. BD*(   1) C  44 - F  51          0.08787     0.19928   
  2359. BD*(   1) C  44 - F  52          0.09546     0.20373   
  2360. BD*(   1) C  44 - F  53          0.09783     0.19431   
  2361. BD*(   1) C  47 - F  48          0.08831     0.20244   
  2362. BD*(   1) C  47 - F  49          0.09257     0.19616   
  2363. BD*(   1) C  47 - F  50          0.10134     0.19263  2346(v),2362(g),1121(g)
  2364. BD*(   1) P  60 - C  64          0.05032     0.24158   
  2365. BD*(   1) P  60 - C  74          0.04397     0.22848   
  2366. BD*(   1) P  60 - C  83          0.03552     0.24144   
  2367. BD*(   1) C  61 - C  62          0.04009     0.51916   
  2368. BD*(   1) C  61 - C  66          0.03848     0.52046   
  2369. BD*(   2) C  61 - C  66          0.37762     0.03711  2377(v),2372(v),2412(v)
                                                    2413(v),2414(v)
  2370. BD*(   1) C  61 - O  96          0.02763     0.34232   
  2371. BD*(   1) C  62 - C  63          0.02015     0.54963   
  2372. BD*(   2) C  62 - C  63          0.34371     0.04151  2369(v),2377(v),2305(r)
                                                    2410(v),1535(g),2408(v)
                                                    1537(g)
  2373. BD*(   1) C  62 - C  88          0.01375     0.39151   
  2374. BD*(   1) C  63 - C  64          0.02074     0.54138   
  2375. BD*(   1) C  63 - H  67          0.01690     0.41210   
  2376. BD*(   1) C  64 - C  65          0.02523     0.53965   
  2377. BD*(   2) C  64 - C  65          0.39721     0.03240  2369(v),2372(v),2396(r)
                                                    1587(g),2366(v),1562(g)
                                                    2404(r),1535(v)
  2378. BD*(   1) C  65 - C  66          0.02158     0.55343   
  2379. BD*(   1) C  65 - H  68          0.01749     0.42310   
  2380. BD*(   1) C  66 - C  92          0.01417     0.39190   
  2381. BD*(   1) C  70 - C  71          0.01509     0.53582   
  2382. BD*(   2) C  70 - C  71          0.33130     0.02340  2392(v),2388(v),1680(g)
                                                    1654(g)
  2383. BD*(   1) C  70 - C  75          0.01828     0.54266   
  2384. BD*(   1) C  70 - H  76          0.01421     0.40681   
  2385. BD*(   1) C  71 - C  72          0.01519     0.54483   
  2386. BD*(   1) C  71 - H  77          0.01373     0.40688   
  2387. BD*(   1) C  72 - C  73          0.02929     0.52466   
  2388. BD*(   2) C  72 - C  73          0.34786     0.02804  2392(v),2382(v),2310(v)
                                                    1706(g),2308(v),2305(r)
                                                    2299(r)
  2389. BD*(   1) C  72 - H  78          0.01510     0.42203   
  2390. BD*(   1) C  73 - C  74          0.03565     0.50436   
  2391. BD*(   1) C  74 - C  75          0.02824     0.52755   
  2392. BD*(   2) C  74 - C  75          0.35697     0.02469  2382(v),2388(v),1783(g)
                                                    2364(v),2354(r),2404(r)
                                                    1759(g)
  2393. BD*(   1) C  75 - H  79          0.01850     0.42052   
  2394. BD*(   1) C  80 - C  81          0.03965     0.51513   
  2395. BD*(   1) C  80 - C  85          0.04094     0.51158   
  2396. BD*(   2) C  80 - C  85          0.36399     0.03248  2399(v),2404(v),2377(r)
                                                    2423(v),2424(v),2421(v)
  2397. BD*(   1) C  80 - O 109          0.02743     0.34139   
  2398. BD*(   1) C  81 - C  82          0.02251     0.54226   
  2399. BD*(   2) C  81 - C  82          0.34709     0.03533  2396(v),2404(v),1882(g)
                                                    2419(v),2420(v)
  2400. BD*(   1) C  81 - C 101          0.01400     0.39071   
  2401. BD*(   1) C  82 - C  83          0.02320     0.53387   
  2402. BD*(   1) C  82 - H  86          0.01834     0.40103   
  2403. BD*(   1) C  83 - C  84          0.03168     0.53292   
  2404. BD*(   2) C  83 - C  84          0.38603     0.02628  2396(v),2399(v),2365(v)
                                                    1934(g),2364(v),1909(g)
                                                    2392(r),2377(r),1882(v)
  2405. BD*(   1) C  84 - C  85          0.02236     0.54437   
  2406. BD*(   1) C  84 - H  87          0.01700     0.41207   
  2407. BD*(   1) C  85 - C 105          0.01446     0.38812   
  2408. BD*(   1) C  88 - H  89          0.00682     0.37473   
  2409. BD*(   1) C  88 - H  90          0.00709     0.37657   
  2410. BD*(   1) C  88 - H  91          0.01127     0.36055   
  2411. BD*(   1) C  92 - H  93          0.00522     0.37523   
  2412. BD*(   1) C  92 - H  94          0.01046     0.36439   
  2413. BD*(   1) C  92 - H  95          0.00892     0.37286   
  2414. BD*(   1) O  96 - C  97          0.01062     0.27673   
  2415. BD*(   1) C  97 - H  98          0.02188     0.34098   
  2416. BD*(   1) C  97 - H  99          0.02264     0.34415   
  2417. BD*(   1) C  97 - H 100          0.01106     0.35350   
  2418. BD*(   1) C 101 - H 102          0.00532     0.37993   
  2419. BD*(   1) C 101 - H 103          0.00967     0.36906   
  2420. BD*(   1) C 101 - H 104          0.00936     0.37280   
  2421. BD*(   1) C 105 - H 106          0.00742     0.37400   
  2422. BD*(   1) C 105 - H 107          0.00631     0.37129   
  2423. BD*(   1) C 105 - H 108          0.01126     0.35794   
  2424. BD*(   1) O 109 - C 110          0.01062     0.27335   
  2425. BD*(   1) C 110 - H 111          0.02160     0.34629   
  2426. BD*(   1) C 110 - H 112          0.02131     0.35133   
  2427. BD*(   1) C 110 - H 113          0.01090     0.35584   
       -------------------------------
              Total Lewis  464.36040  ( 97.7893%)
        Valence non-Lewis    9.60126  (  2.0219%)
        Rydberg non-Lewis    0.89645  (  0.1888%)
       -------------------------------
            Total unit  3  474.85811  (100.0000%)
           Charge unit  3    0.14189
 1\1\GINC-NOTCH211\SP\RPBE1PBE\Gen\C52H44F12Fe1O2P2\U6034117\04-Mar-202
 2\0\\# PBE1PBE gen pseudo=read int=(grid=ultrafine) empiricaldispersio
 n=GD3BJ pop=nbo guess=read geom=check\\W005_1_1 title\\0,1\C,0,3.65099
 32491,-1.6124546496,5.825185797\C,0,5.0767831322,-1.4460332723,5.90008
 83514\C,0,5.6915664405,-2.6019630053,5.3093352456\C,0,4.6479118664,-3.
 4852922959,4.8721066051\C,0,3.3841005852,-2.8738873705,5.1872526666\H,
 0,5.5986328748,-0.5684347391,6.2831169749\H,0,6.7617756514,-2.75820893
 7,5.1699309764\H,0,4.7989852065,-4.4380311365,4.3635014223\H,0,2.39658
 32096,-3.2834710106,4.9685252188\H,0,2.9054985457,-0.89098883,6.161463
 7024\Fe,0,4.4744672106,-1.6536200017,3.9557890739\C,0,5.4887878602,-0.
 1829805537,2.9461029615\C,0,5.5510179604,-1.4214229024,2.2305726943\C,
 0,4.2032453892,-1.8475964272,1.9398079048\C,0,3.3028343554,-0.84953227
 67,2.5069569655\C,0,4.1145489354,0.1746786486,3.1081939645\H,0,6.34132
 46712,0.3721192645,3.3367582008\H,0,3.7411774174,1.0623774404,3.615005
 4369\C,0,1.8027352527,-0.8228009522,2.3407472533\P,0,1.5440627092,-0.4
 233372797,0.4985859701\H,0,1.4142521018,-1.8394666185,2.5143749599\C,0
 ,1.0954279212,0.1635108602,3.2784359095\H,0,0.0001426714,0.0739497774,
 3.211335932\H,0,1.3970858771,-0.0569458242,4.3166908811\H,0,1.37457493
 43,1.2011217299,3.0364935204\C,0,-2.2521532853,2.0184395598,-0.6211403
 554\C,0,-1.0019288344,2.332312988,-1.1704776604\C,0,0.1477352559,1.643
 7677846,-0.7638917489\C,0,0.0485842819,0.608965722,0.1812471959\C,0,-1
 .2063205293,0.2719416955,0.7126738153\C,0,-2.3472821125,0.9899551835,0
 .3255275974\H,0,-3.1463515047,2.5629872048,-0.9342833394\C,0,-0.875100
 2161,3.4579723819,-2.1693216661\H,0,1.1251941846,1.9119061031,-1.17222
 7562\H,0,-1.3136797361,-0.5580524477,1.4170975528\C,0,-3.6973716997,0.
 5823262873,0.8624719149\C,0,-0.3552138103,-4.1741390979,-1.5767031387\
 C,0,-0.2125988832,-4.1626370537,-0.1849750643\C,0,0.3713428543,-3.0688
 298004,0.4672104476\C,0,0.8328788676,-1.96549693,-0.2674953209\C,0,0.6
 717266873,-1.9704070643,-1.6653241604\C,0,0.0921509487,-3.0698964969,-
 2.31152822\H,0,-0.7995244823,-5.0345775027,-2.0836108402\C,0,-0.659898
 6829,-5.3734574728,0.5961901874\H,0,0.4771129989,-3.1157765238,1.55156
 42926\H,0,1.0144049285,-1.121904355,-2.2623011493\C,0,0.0515575357,-3.
 1114048051,-3.8175797969\F,0,-0.914402047,-3.945593857,-4.2819673174\F
 ,0,-0.1736334167,-1.8791973202,-4.3548340911\F,0,1.2419097366,-3.55701
 109,-4.3233138195\F,0,-0.3560404723,-5.2762333626,1.9182335439\F,0,-2.
 0003012582,-5.5699522092,0.4927732457\F,0,-0.0571002456,-6.5054554084,
 0.123459227\F,0,0.162093611,3.2469758907,-3.029601131\F,0,-2.007346820
 3,3.5907541064,-2.9143269412\F,0,-0.6528350478,4.6474435095,-1.5559109
 447\F,0,-4.262774823,-0.3889653391,0.0911536658\F,0,-3.6013289697,0.08
 16328316,2.1253660053\F,0,-4.5650336851,1.6272187501,0.8932559829\P,0,
 4.4369933796,-1.3531438313,-1.1464411006\C,0,8.9920043121,-2.127838710
 6,-1.4588857324\C,0,8.4288347949,-1.00822615,-2.1098314348\C,0,7.04790
 75319,-0.7941970055,-1.9852294115\C,0,6.2443183076,-1.6606874918,-1.22
 1146601\C,0,6.833155717,-2.7688188997,-0.5834985403\C,0,8.2099576199,-
 3.0165170455,-0.6905601825\H,0,6.5988747053,0.0789268191,-2.4647139168
 \H,0,6.2186694425,-3.4641608794,-0.0036863227\H,0,6.4564494627,-1.9657
 160636,1.9660715723\C,0,2.902498286,-5.1558367762,-0.5161253163\C,0,2.
 8768781931,-5.2581455481,0.8801124454\C,0,3.3066628316,-4.1800103948,1
 .6627099655\C,0,3.7849631147,-2.9892448706,1.0823723154\C,0,3.80997266
 57,-2.8961239794,-0.3402063752\C,0,3.3634435297,-3.9793869285,-1.11978
 12362\H,0,2.5370652804,-5.9799727633,-1.1363091197\H,0,2.4925857136,-6
 .1639717739,1.3587229591\H,0,3.274642066,-4.2366344592,2.7528730564\H,
 0,3.3383193785,-3.8877616429,-2.2095676007\C,0,3.1814352994,-1.3428650
 926,-5.6009436089\C,0,2.6806461526,-0.348744691,-4.7322650187\C,0,3.08
 76286388,-0.3853852904,-3.3909375161\C,0,3.9557052803,-1.3847486799,-2
 .913294218\C,0,4.481943763,-2.3282861542,-3.8154092915\C,0,4.0963216,-
 2.3291786942,-5.1650373374\H,0,2.7486163509,0.3950412873,-2.6964667228
 \H,0,5.2206206839,-3.0616166495,-3.4713807829\C,0,9.2892794686,-0.0396
 766887,-2.8839171245\H,0,8.8644737861,0.9759935572,-2.8363094811\H,0,1
 0.3128851972,-0.0161065824,-2.4768641586\H,0,9.3609422804,-0.315805565
 5,-3.9528714998\C,0,8.8553543601,-4.190144168,0.0053983886\H,0,8.12615
 04503,-4.7184972782,0.6412469137\H,0,9.2663160335,-4.9206387972,-0.714
 9277982\H,0,9.6997004441,-3.8619834235,0.6347952526\O,0,10.3612212289,
 -2.3497007857,-1.5083976348\C,0,10.7937954275,-2.9893598678,-2.7150503
 148\H,0,10.3051620997,-3.9745495805,-2.844658888\H,0,10.585910008,-2.3
 685691149,-3.6068718375\H,0,11.8809662811,-3.1309528413,-2.6168481691\
 C,0,1.7483171071,0.7209532605,-5.24335362\H,0,1.4755957727,1.427381031
 6,-4.4429979974\H,0,0.8151445434,0.2829796477,-5.6379832115\H,0,2.2089
 047153,1.2874415858,-6.0701437172\C,0,4.6585417023,-3.3384685774,-6.13
 50988078\H,0,4.7633369008,-2.8984269852,-7.1396924077\H,0,5.643131217,
 -3.7019858967,-5.7983697029\H,0,3.9980964803,-4.2207378433,-6.23070811
 25\O,0,2.823829492,-1.2864451212,-6.9377585985\C,0,1.7403397827,-2.162
 812893,-7.2849689111\H,0,1.9910558142,-3.2211501351,-7.0847953985\H,0,
 0.8231485494,-1.9071087705,-6.7251527676\H,0,1.5695738285,-2.022822724
 2,-8.3628624745\\Version=ES64L-G16RevB.01\State=1-A\HF=-4160.7768738\R
 MSD=1.268e-09\Dipole=1.1330488,-0.4243893,0.1907493\Quadrupole=-5.1721
 426,-2.3710886,7.5432312,-4.6469464,-2.640256,12.6075405\PG=C01 [X(C52
 H44F12Fe1O2P2)]\\@


 REPARTEE - WHAT YOU THINK OF AFTER YOU BECOME A DEPARTEE.
 Job cpu time:       0 days  4 hours 34 minutes 38.8 seconds.
 Elapsed time:       0 days  0 hours  5 minutes 19.3 seconds.
 File lengths (MBytes):  RWF=   2999 Int=      0 D2E=      0 Chk=    451 Scr=      1
 Normal termination of Gaussian 16 at Fri Mar  4 02:34:35 2022.
