 Entering Gaussian System, Link 0=/uufs/chpc.utah.edu/sys/installdir/gaussian16/B01/E6B/g16/g16
 Input=W005_1_2_SPE.com
 Output=W005_1_2_SPE.log
 Initial command:
 /uufs/chpc.utah.edu/sys/installdir/gaussian16/B01/E6B/g16/l1.exe "/scratch/general/lustre/u6034117/4108804/notchpeak.peaks/Gau-292901.inp" -scrdir="/scratch/general/lustre/u6034117/4108804/notchpeak.peaks/"
 Entering Link 1 = /uufs/chpc.utah.edu/sys/installdir/gaussian16/B01/E6B/g16/l1.exe PID=    292904.
  
 Copyright (c) 1988-2017, Gaussian, Inc.  All Rights Reserved.
  
 This is part of the Gaussian(R) 16 program.  It is based on
 the Gaussian(R) 09 system (copyright 2009, Gaussian, Inc.),
 the Gaussian(R) 03 system (copyright 2003, Gaussian, Inc.),
 the Gaussian(R) 98 system (copyright 1998, Gaussian, Inc.),
 the Gaussian(R) 94 system (copyright 1995, Gaussian, Inc.),
 the Gaussian 92(TM) system (copyright 1992, Gaussian, Inc.),
 the Gaussian 90(TM) system (copyright 1990, Gaussian, Inc.),
 the Gaussian 88(TM) system (copyright 1988, Gaussian, Inc.),
 the Gaussian 86(TM) system (copyright 1986, Carnegie Mellon
 University), and the Gaussian 82(TM) system (copyright 1983,
 Carnegie Mellon University). Gaussian is a federally registered
 trademark of Gaussian, Inc.
  
 This software contains proprietary and confidential information,
 including trade secrets, belonging to Gaussian, Inc.
  
 This software is provided under written license and may be
 used, copied, transmitted, or stored only in accord with that
 written license.
  
 The following legend is applicable only to US Government
 contracts under FAR:
  
                    RESTRICTED RIGHTS LEGEND
  
 Use, reproduction and disclosure by the US Government is
 subject to restrictions as set forth in subparagraphs (a)
 and (c) of the Commercial Computer Software - Restricted
 Rights clause in FAR 52.227-19.
  
 Gaussian, Inc.
 340 Quinnipiac St., Bldg. 40, Wallingford CT 06492
  
  
 ---------------------------------------------------------------
 Warning -- This program may not be used in any manner that
 competes with the business of Gaussian, Inc. or will provide
 assistance to any competitor of Gaussian, Inc.  The licensee
 of this program is prohibited from giving any competitor of
 Gaussian, Inc. access to this program.  By using this program,
 the user acknowledges that Gaussian, Inc. is engaged in the
 business of creating and licensing software in the field of
 computational chemistry and represents and warrants to the
 licensee that it is not a competitor of Gaussian, Inc. and that
 it will not use this program in any manner prohibited above.
 ---------------------------------------------------------------
  

 Cite this work as:
 Gaussian 16, Revision B.01,
 M. J. Frisch, G. W. Trucks, H. B. Schlegel, G. E. Scuseria, 
 M. A. Robb, J. R. Cheeseman, G. Scalmani, V. Barone, 
 G. A. Petersson, H. Nakatsuji, X. Li, M. Caricato, A. V. Marenich, 
 J. Bloino, B. G. Janesko, R. Gomperts, B. Mennucci, H. P. Hratchian, 
 J. V. Ortiz, A. F. Izmaylov, J. L. Sonnenberg, D. Williams-Young, 
 F. Ding, F. Lipparini, F. Egidi, J. Goings, B. Peng, A. Petrone, 
 T. Henderson, D. Ranasinghe, V. G. Zakrzewski, J. Gao, N. Rega, 
 G. Zheng, W. Liang, M. Hada, M. Ehara, K. Toyota, R. Fukuda, 
 J. Hasegawa, M. Ishida, T. Nakajima, Y. Honda, O. Kitao, H. Nakai, 
 T. Vreven, K. Throssell, J. A. Montgomery, Jr., J. E. Peralta, 
 F. Ogliaro, M. J. Bearpark, J. J. Heyd, E. N. Brothers, K. N. Kudin, 
 V. N. Staroverov, T. A. Keith, R. Kobayashi, J. Normand, 
 K. Raghavachari, A. P. Rendell, J. C. Burant, S. S. Iyengar, 
 J. Tomasi, M. Cossi, J. M. Millam, M. Klene, C. Adamo, R. Cammi, 
 J. W. Ochterski, R. L. Martin, K. Morokuma, O. Farkas, 
 J. B. Foresman, and D. J. Fox, Gaussian, Inc., Wallingford CT, 2016.
 
 ******************************************
 Gaussian 16:  ES64L-G16RevB.01 20-Dec-2017
                 4-Mar-2022 
 ******************************************
 %NProcShared=52
 Will use up to   52 processors via shared memory.
 %mem=18GB
 %chk=W005_1_2_SPE.chk
 ----------------------------------------------------------------------
 # PBE1PBE gen pseudo=read int=(grid=ultrafine) empiricaldispersion=GD3
 BJ nmr=giao
 ----------------------------------------------------------------------
 1/38=1,172=1/1;
 2/12=2,17=6,18=5,40=1/2;
 3/5=7,11=2,16=1,17=8,25=1,30=1,74=-13,75=-5,124=41/1,2,3,8;
 4//1;
 5/5=2,38=5/2;
 8/6=1,10=90,11=11/1;
 10/13=100,45=16/2;
 6/7=2,8=2,9=2,10=2,28=1/1;
 99/9=1/99;
 --------------
 W005_1_2 title
 --------------
 Symbolic Z-matrix:
 Charge =  0 Multiplicity = 1
 C                     2.32062  -2.24711   5.80118 
 C                     3.42453  -1.57625   6.42803 
 C                     4.59462  -2.39325   6.2587 
 C                     4.21444  -3.56998   5.52753 
 C                     2.8064   -3.4791    5.24529 
 H                     3.39308  -0.5925    6.89765 
 H                     5.60504  -2.13771   6.57976 
 H                     4.88645  -4.37007   5.21453 
 H                     2.20261  -4.20868   4.70381 
 H                     1.29657  -1.87806   5.73933 
 Fe                    3.81463  -1.87384   4.43974 
 C                     5.03025  -0.36185   3.77349 
 C                     5.28995  -1.56682   3.05037 
 C                     4.07398  -1.987     2.39466 
 C                     3.03713  -1.02969   2.75774 
 C                     3.65423  -0.02829   3.59245 
 H                     5.74334   0.18392   4.39086 
 H                     3.14774   0.82999   4.02741 
 C                     1.61552  -0.97613   2.2548 
 P                     1.72758  -0.4066    0.43727 
 H                     1.18888  -1.9943    2.23018 
 C                     0.71703  -0.0531    3.09057 
 H                    -0.3427   -0.15413   2.81209 
 H                     0.81959  -0.32202   4.15473 
 H                     1.01328   1.00081   2.96457 
 C                    -1.47942   2.53723  -1.17211 
 C                    -0.11475   2.76882  -1.38972 
 C                     0.85279   1.93607  -0.81079 
 C                     0.45799   0.85666  -0.0022 
 C                    -0.90997   0.6236    0.21825 
 C                    -1.87085   1.46189  -0.36439 
 H                    -2.23142   3.17486  -1.64292 
 C                     0.32888   3.94058  -2.23274 
 H                     1.91532   2.11202  -0.9939 
 H                    -1.2449   -0.24133   0.79713 
 C                    -3.32934   1.09869  -0.23376 
 C                    -0.33737  -3.86057  -1.98082 
 C                     0.47454  -4.17082  -0.88383 
 C                     1.10835  -3.15923  -0.14515 
 C                     0.96808  -1.81165  -0.52302 
 C                     0.20499  -1.51346  -1.66976 
 C                    -0.46078  -2.52257  -2.37161 
 H                    -0.84934  -4.65103  -2.53447 
 C                     0.74433  -5.61817  -0.5631 
 H                     1.72318  -3.44407   0.71117 
 H                     0.11168  -0.48666  -2.0252 
 C                    -1.38716  -2.14012  -3.50126 
 F                    -2.64485  -1.90261  -3.03589 
 F                    -0.97455  -1.01054  -4.13311 
 F                    -1.48365  -3.13145  -4.43117 
 F                     1.06561  -5.80886   0.74287 
 F                    -0.32146  -6.41077  -0.84934 
 F                     1.79649  -6.08929  -1.30849 
 F                    -0.6073    4.26801  -3.16504 
 F                     0.55179   5.04368  -1.47592 
 F                     1.49075   3.66531  -2.89475 
 F                    -3.67091   0.14693  -1.14879 
 F                    -3.60858   0.58611   0.99648 
 F                    -4.14236   2.16745  -0.43547 
 P                     4.61166  -1.54403  -0.86483 
 C                     8.96596  -1.90555  -2.35736 
 C                     7.93163  -1.88047  -3.31596 
 C                     6.60842  -1.75171  -2.86426 
 C                     6.3265   -1.65579  -1.49135 
 C                     7.37794  -1.66138  -0.55744 
 C                     8.71065  -1.78458  -0.97253 
 H                     5.79497  -1.72798  -3.59629 
 H                     7.16023  -1.53135   0.50747 
 Cl                    6.07827   1.23557   0.19684 
 Cl                    3.0971    2.28679   1.38485 
 H                     6.23536  -2.10872   3.00351 
 C                     4.64891  -5.5493    0.02446 
 C                     4.16761  -5.62942   1.33545 
 C                     3.92688  -4.45545   2.05737 
 C                     4.09064  -3.17394   1.48962 
 C                     4.48321  -3.10348   0.12093 
 C                     4.81794  -4.29219  -0.56399 
 H                     4.89443  -6.45471  -0.53885 
 H                     4.01315  -6.60281   1.8116 
 H                     3.63434  -4.50297   3.10646 
 H                     5.23613  -4.22372  -1.57311 
 C                     2.06031  -1.81073  -4.73236 
 C                     2.4695   -0.55972  -4.21774 
 C                     3.23406  -0.55202  -3.03984 
 C                     3.5705   -1.74792  -2.37271 
 C                     3.10637  -2.97065  -2.88528 
 C                     2.35315  -3.02151  -4.06899 
 H                     3.5529    0.40711  -2.61158 
 H                     3.27751  -3.90475  -2.34549 
 Pd                    3.89878   0.34171   0.20262 
 C                     8.25817  -1.9705   -4.7866 
 H                     7.35053  -1.83955  -5.39776 
 H                     8.99121  -1.19908  -5.07651 
 H                     8.70649  -2.94584  -5.04964 
 C                     9.84058  -1.73745   0.02654 
 H                     9.56449  -1.11311   0.89195 
 H                     10.09457  -2.7432    0.41163 
 H                     10.74975  -1.31942  -0.43439 
 O                     10.27389  -1.97834  -2.81811 
 C                     10.83255  -3.29442  -2.73872 
 H                     10.89206  -3.6539   -1.69376 
 H                     10.24034  -4.01914  -3.33069 
 H                     11.84856  -3.22507  -3.15676 
 C                     2.04006   0.72365  -4.88495 
 H                     1.05155   0.59649  -5.35487 
 H                     2.74636   1.03192  -5.67817 
 H                     1.98514   1.55163  -4.16027 
 C                     1.82556  -4.33179  -4.60071 
 H                     0.78141  -4.22418  -4.93411 
 H                     2.40804  -4.68175  -5.47299 
 H                     1.87631  -5.11374  -3.82578 
 O                     1.26217  -1.86134  -5.86391 
 C                     2.00692  -1.82208  -7.08778 
 H                     1.26726  -1.88225  -7.90037 
 H                     2.58248  -0.88217  -7.18519 
 H                     2.70485  -2.67832  -7.16071 
 
 Stoichiometry    C52H44Cl2F12FeO2P2Pd
 Framework group  C1[X(C52H44Cl2F12FeO2P2Pd)]
 Deg. of freedom   342
 Full point group                 C1      NOp   1
 Largest Abelian subgroup         C1      NOp   1
 Largest concise Abelian subgroup C1      NOp   1
                         Standard orientation:                         
 ---------------------------------------------------------------------
 Center     Atomic      Atomic             Coordinates (Angstroms)
 Number     Number       Type             X           Y           Z
 ---------------------------------------------------------------------
      1          6           0       -2.085255   -5.850306    1.244479
      2          6           0       -3.065820   -6.191612    0.252706
      3          6           0       -4.306958   -5.568801    0.622760
      4          6           0       -4.094376   -4.842578    1.843934
      5          6           0       -2.718944   -5.017930    2.228544
      6          1           0       -2.885684   -6.771736   -0.652996
      7          1           0       -5.232922   -5.596341    0.047294
      8          1           0       -4.839225   -4.238463    2.363497
      9          1           0       -2.230258   -4.596867    3.108284
     10          1           0       -1.037666   -6.152395    1.241984
     11         26           0       -2.847968   -4.158204    0.361317
     12          6           0       -3.236918   -3.354495   -1.485440
     13          6           0       -3.605517   -2.436863   -0.453739
     14          6           0       -2.437246   -2.135021    0.339439
     15          6           0       -1.334993   -2.918138   -0.203806
     16          6           0       -1.847616   -3.646985   -1.337979
     17          1           0       -3.905512   -3.789960   -2.227631
     18          1           0       -1.272310   -4.323174   -1.965805
     19          6           0        0.113913   -2.884581    0.216120
     20         15           0        0.793904   -1.209513   -0.393866
     21          1           0        0.183541   -2.859652    1.317850
     22          6           0        0.925778   -4.066955   -0.332202
     23          1           0        1.929863   -4.114647    0.115385
     24          1           0        0.398100   -5.004729   -0.092608
     25          1           0        1.033277   -3.994219   -1.426517
     26          6           0        5.102356   -1.051713   -2.112414
     27          6           0        4.031835   -0.459824   -2.795767
     28          6           0        2.718398   -0.602713   -2.327552
     29          6           0        2.464703   -1.346187   -1.162353
     30          6           0        3.536750   -1.941566   -0.476440
     31          6           0        4.847227   -1.793858   -0.952199
     32          1           0        6.127099   -0.919745   -2.467696
     33          6           0        4.282338    0.319063   -4.065057
     34          1           0        1.888058   -0.128407   -2.855769
     35          1           0        3.372863   -2.477843    0.462130
     36          6           0        5.988917   -2.315276   -0.115028
     37          6           0        2.352844    0.888949    3.505786
     38          6           0        1.169839    0.142096    3.545242
     39          6           0        0.677324   -0.492377    2.393923
     40          6           0        1.348660   -0.353341    1.165750
     41          6           0        2.500896    0.456904    1.120145
     42          6           0        3.010448    1.046561    2.280669
     43          1           0        2.744778    1.357402    4.411545
     44          6           0        0.370916    0.109442    4.822403
     45          1           0       -0.242607   -1.075627    2.471266
     46          1           0        3.022700    0.630675    0.178401
     47          6           0        4.328755    1.779917    2.211301
     48          9           0        5.368693    0.926162    2.422031
     49          9           0        4.523771    2.355584    0.996394
     50          9           0        4.412536    2.756208    3.158194
     51          9           0       -0.407080   -0.999832    4.919298
     52          9           0        1.166717    0.156832    5.922632
     53          9           0       -0.466381    1.194895    4.895363
     54          9           0        5.526827    0.870376   -4.075411
     55          9           0        4.178251   -0.469826   -5.163289
     56          9           0        3.380995    1.333975   -4.211792
     57          9           0        6.298336   -1.432962    0.877740
     58          9           0        5.669988   -3.494704    0.486147
     59          9           0        7.113707   -2.511677   -0.850026
     60         15           0       -1.698403    1.046732   -0.323988
     61          6           0       -5.194009    3.830905   -1.484775
     62          6           0       -3.947959    4.416246   -1.177984
     63          6           0       -2.879171    3.569480   -0.843066
     64          6           0       -3.052680    2.175783   -0.810715
     65          6           0       -4.299686    1.616425   -1.142120
     66          6           0       -5.387317    2.430836   -1.484759
     67          1           0       -1.905199    4.008683   -0.605122
     68          1           0       -4.417731    0.528471   -1.169701
     69         17           0       -2.486472    0.132669   -3.413919
     70         17           0        0.103098   -2.034407   -3.372152
     71          1           0       -4.601145   -2.033822   -0.264196
     72          6           0       -3.278323    0.738179    3.450008
     73          6           0       -3.308871   -0.635158    3.714140
     74          6           0       -2.966451   -1.541851    2.705173
     75          6           0       -2.523598   -1.122304    1.432660
     76          6           0       -2.397981    0.279640    1.206454
     77          6           0       -2.840943    1.182016    2.198260
     78          1           0       -3.593541    1.461886    4.207803
     79          1           0       -3.633339   -1.005375    4.691752
     80          1           0       -3.068156   -2.614709    2.869630
     81          1           0       -2.857790    2.252822    1.972437
     82          6           0        1.769998    3.951085    0.711994
     83          6           0        1.626501    3.428385   -0.593186
     84          6           0        0.558278    2.549556   -0.835304
     85          6           0       -0.336031    2.177862    0.189622
     86          6           0       -0.135458    2.678186    1.486796
     87          6           0        0.911090    3.571550    1.765578
     88          1           0        0.432541    2.118569   -1.837027
     89          1           0       -0.758594    2.342238    2.318694
     90         46           0       -0.827461   -0.422298   -1.836293
     91          6           0       -3.779988    5.915015   -1.232896
     92          1           0       -2.728643    6.197531   -1.061613
     93          1           0       -4.095434    6.312326   -2.212242
     94          1           0       -4.397024    6.426416   -0.471845
     95          6           0       -6.709301    1.827135   -1.890985
     96          1           0       -6.554763    0.845515   -2.367953
     97          1           0       -7.377381    1.671711   -1.022746
     98          1           0       -7.235439    2.485357   -2.600719
     99          8           0       -6.228699    4.674292   -1.867390
    100          6           0       -7.163872    4.940491   -0.816164
    101          1           0       -7.675179    4.019413   -0.477195
    102          1           0       -6.667258    5.412087    0.054081
    103          1           0       -7.908347    5.636044   -1.233043
    104          6           0        2.630988    3.760431   -1.669002
    105          1           0        3.626867    3.918466   -1.224706
    106          1           0        2.361141    4.684431   -2.213523
    107          1           0        2.698877    2.952705   -2.415117
    108          6           0        1.147137    4.081913    3.166188
    109          1           0        2.220757    4.063747    3.411091
    110          1           0        0.807885    5.128002    3.281308
    111          1           0        0.600913    3.467664    3.900279
    112          8           0        2.839354    4.781495    1.006750
    113          6           0        2.593726    6.158368    0.693789
    114          1           0        3.502439    6.706969    0.984148
    115          1           0        2.407440    6.304167   -0.387050
    116          1           0        1.728770    6.551188    1.262228
 ---------------------------------------------------------------------
 Rotational constants (GHZ):           0.0310309           0.0242991           0.0216613
 General basis read from cards:  (5D, 7F)
 ======================================================================================================
                                       Pseudopotential Parameters
 ======================================================================================================
  Center     Atomic      Valence      Angular      Power
  Number     Number     Electrons     Momentum     of R      Exponent        Coefficient   SO-Coeffient
 ======================================================================================================
    1          6
                                   No pseudopotential on this center.
    2          6
                                   No pseudopotential on this center.
    3          6
                                   No pseudopotential on this center.
    4          6
                                   No pseudopotential on this center.
    5          6
                                   No pseudopotential on this center.
    6          1
                                   No pseudopotential on this center.
    7          1
                                   No pseudopotential on this center.
    8          1
                                   No pseudopotential on this center.
    9          1
                                   No pseudopotential on this center.
   10          1
                                   No pseudopotential on this center.
   11         26           16
                                      F and up 
                                                     2        1.0000000        0.00000000    0.00000000
                                      S - F
                                                     2       20.9300000      253.74958800    0.00000000
                                                     2        9.4450000       37.92284500    0.00000000
                                      P - F
                                                     2       21.7600000      161.03681200    0.00000000
                                                     2        9.1780000       27.65129800    0.00000000
                                      D - F
                                                     2       25.9000000      -24.43127600    0.00000000
                                                     2        8.8350000       -1.43425100    0.00000000
   12          6
                                   No pseudopotential on this center.
   13          6
                                   No pseudopotential on this center.
   14          6
                                   No pseudopotential on this center.
   15          6
                                   No pseudopotential on this center.
   16          6
                                   No pseudopotential on this center.
   17          1
                                   No pseudopotential on this center.
   18          1
                                   No pseudopotential on this center.
   19          6
                                   No pseudopotential on this center.
   20         15
                                   No pseudopotential on this center.
   21          1
                                   No pseudopotential on this center.
   22          6
                                   No pseudopotential on this center.
   23          1
                                   No pseudopotential on this center.
   24          1
                                   No pseudopotential on this center.
   25          1
                                   No pseudopotential on this center.
   26          6
                                   No pseudopotential on this center.
   27          6
                                   No pseudopotential on this center.
   28          6
                                   No pseudopotential on this center.
   29          6
                                   No pseudopotential on this center.
   30          6
                                   No pseudopotential on this center.
   31          6
                                   No pseudopotential on this center.
   32          1
                                   No pseudopotential on this center.
   33          6
                                   No pseudopotential on this center.
   34          1
                                   No pseudopotential on this center.
   35          1
                                   No pseudopotential on this center.
   36          6
                                   No pseudopotential on this center.
   37          6
                                   No pseudopotential on this center.
   38          6
                                   No pseudopotential on this center.
   39          6
                                   No pseudopotential on this center.
   40          6
                                   No pseudopotential on this center.
   41          6
                                   No pseudopotential on this center.
   42          6
                                   No pseudopotential on this center.
   43          1
                                   No pseudopotential on this center.
   44          6
                                   No pseudopotential on this center.
   45          1
                                   No pseudopotential on this center.
   46          1
                                   No pseudopotential on this center.
   47          6
                                   No pseudopotential on this center.
   48          9
                                   No pseudopotential on this center.
   49          9
                                   No pseudopotential on this center.
   50          9
                                   No pseudopotential on this center.
   51          9
                                   No pseudopotential on this center.
   52          9
                                   No pseudopotential on this center.
   53          9
                                   No pseudopotential on this center.
   54          9
                                   No pseudopotential on this center.
   55          9
                                   No pseudopotential on this center.
   56          9
                                   No pseudopotential on this center.
   57          9
                                   No pseudopotential on this center.
   58          9
                                   No pseudopotential on this center.
   59          9
                                   No pseudopotential on this center.
   60         15
                                   No pseudopotential on this center.
   61          6
                                   No pseudopotential on this center.
   62          6
                                   No pseudopotential on this center.
   63          6
                                   No pseudopotential on this center.
   64          6
                                   No pseudopotential on this center.
   65          6
                                   No pseudopotential on this center.
   66          6
                                   No pseudopotential on this center.
   67          1
                                   No pseudopotential on this center.
   68          1
                                   No pseudopotential on this center.
   69         17
                                   No pseudopotential on this center.
   70         17
                                   No pseudopotential on this center.
   71          1
                                   No pseudopotential on this center.
   72          6
                                   No pseudopotential on this center.
   73          6
                                   No pseudopotential on this center.
   74          6
                                   No pseudopotential on this center.
   75          6
                                   No pseudopotential on this center.
   76          6
                                   No pseudopotential on this center.
   77          6
                                   No pseudopotential on this center.
   78          1
                                   No pseudopotential on this center.
   79          1
                                   No pseudopotential on this center.
   80          1
                                   No pseudopotential on this center.
   81          1
                                   No pseudopotential on this center.
   82          6
                                   No pseudopotential on this center.
   83          6
                                   No pseudopotential on this center.
   84          6
                                   No pseudopotential on this center.
   85          6
                                   No pseudopotential on this center.
   86          6
                                   No pseudopotential on this center.
   87          6
                                   No pseudopotential on this center.
   88          1
                                   No pseudopotential on this center.
   89          1
                                   No pseudopotential on this center.
   90         46           18
                                      G and up 
                                                     2        1.0000000        0.00000000    0.00000000
                                      S - G
                                                     2       12.4300000      240.22904000    0.00000000
                                                     2        6.1707590       35.17194300    0.00000000
                                      P - G
                                                     2       11.0800000      170.41727600    0.00000000
                                                     2        5.8295540       28.47213300    0.00000000
                                      D - G
                                                     2        9.5100000       69.01384500    0.00000000
                                                     2        4.1397810       11.75086200    0.00000000
                                      F - G
                                                     2       13.2700000      -31.92955400    0.00000000
                                                     2        6.6300000       -5.39821700    0.00000000
   91          6
                                   No pseudopotential on this center.
   92          1
                                   No pseudopotential on this center.
   93          1
                                   No pseudopotential on this center.
   94          1
                                   No pseudopotential on this center.
   95          6
                                   No pseudopotential on this center.
   96          1
                                   No pseudopotential on this center.
   97          1
                                   No pseudopotential on this center.
   98          1
                                   No pseudopotential on this center.
   99          8
                                   No pseudopotential on this center.
  100          6
                                   No pseudopotential on this center.
  101          1
                                   No pseudopotential on this center.
  102          1
                                   No pseudopotential on this center.
  103          1
                                   No pseudopotential on this center.
  104          6
                                   No pseudopotential on this center.
  105          1
                                   No pseudopotential on this center.
  106          1
                                   No pseudopotential on this center.
  107          1
                                   No pseudopotential on this center.
  108          6
                                   No pseudopotential on this center.
  109          1
                                   No pseudopotential on this center.
  110          1
                                   No pseudopotential on this center.
  111          1
                                   No pseudopotential on this center.
  112          8
                                   No pseudopotential on this center.
  113          6
                                   No pseudopotential on this center.
  114          1
                                   No pseudopotential on this center.
  115          1
                                   No pseudopotential on this center.
  116          1
                                   No pseudopotential on this center.
 ======================================================================================================
 There are  2896 symmetry adapted cartesian basis functions of A   symmetry.
 There are  2537 symmetry adapted basis functions of A   symmetry.
  2537 basis functions,  4134 primitive gaussians,  2896 cartesian basis functions
   289 alpha electrons      289 beta electrons
       nuclear repulsion energy     15995.4716806806 Hartrees.
 NAtoms=  116 NActive=  116 NUniq=  116 SFac= 1.00D+00 NAtFMM=   60 NAOKFM=T Big=T
 Integral buffers will be    131072 words long.
 Raffenetti 2 integral format.
 Two-electron integral symmetry is turned on.
 Nuclear repulsion after empirical dispersion term =    15995.2550860192 Hartrees.
 One-electron integrals computed using PRISM.
   1 Symmetry operations used in ECPInt.
 ECPInt:  NShTT=  483636 NPrTT= 1507730 LenC2=  333279 LenP2D=  658263.
 LDataN:  DoStor=T MaxTD1= 7 Len=  274
 Number of processors reduced to  15 by ecpmxn.
 NBasis=  2537 RedAO= T EigKep=  2.19D-06  NBF=  2537
 NBsUse=  2537 1.00D-06 EigRej= -1.00D+00 NBFU=  2537
 Defaulting to unpruned grid for atomic number  46.
 ExpMin= 1.00D-02 ExpMax= 6.95D+04 ExpMxC= 2.37D+03 IAcc=3 IRadAn=         5 AccDes= 0.00D+00
 Harris functional with IExCor= 1009 and IRadAn=       5 diagonalized for initial guess.
 HarFok:  IExCor= 1009 AccDes= 0.00D+00 IRadAn=         5 IDoV= 1 UseB2=F ITyADJ=14
 ICtDFT=  3500011 ScaDFX=  1.000000  1.000000  1.000000  1.000000
 Defaulting to unpruned grid for atomic number  46.
 FoFCou: FMM=F IPFlag=           0 FMFlag=      100000 FMFlg1=        2001
         NFxFlg=           0 DoJE=T BraDBF=F KetDBF=T FulRan=T
         wScrn=  0.000000 ICntrl=       500 IOpCl=  0 I1Cent=   200000004 NGrid=           0
         NMat0=    1 NMatS0=      1 NMatT0=    0 NMatD0=    1 NMtDS0=    0 NMtDT0=    0
 Petite list used in FoFCou.
 Requested convergence on RMS density matrix=1.00D-08 within 128 cycles.
 Requested convergence on MAX density matrix=1.00D-06.
 Requested convergence on             energy=1.00D-06.
 No special actions if energy rises.
 Defaulting to unpruned grid for atomic number  46.
 Defaulting to unpruned grid for atomic number  46.
 Defaulting to unpruned grid for atomic number  46.
 Defaulting to unpruned grid for atomic number  46.
 Defaulting to unpruned grid for atomic number  46.
 Defaulting to unpruned grid for atomic number  46.
 Defaulting to unpruned grid for atomic number  46.
 Defaulting to unpruned grid for atomic number  46.
 Defaulting to unpruned grid for atomic number  46.
 Defaulting to unpruned grid for atomic number  46.
 Defaulting to unpruned grid for atomic number  46.
 Defaulting to unpruned grid for atomic number  46.
 Defaulting to unpruned grid for atomic number  46.
 Defaulting to unpruned grid for atomic number  46.
 Defaulting to unpruned grid for atomic number  46.
 Defaulting to unpruned grid for atomic number  46.
 Defaulting to unpruned grid for atomic number  46.
 Defaulting to unpruned grid for atomic number  46.
 Defaulting to unpruned grid for atomic number  46.
 Defaulting to unpruned grid for atomic number  46.
 Defaulting to unpruned grid for atomic number  46.
 Defaulting to unpruned grid for atomic number  46.
 Defaulting to unpruned grid for atomic number  46.
 Defaulting to unpruned grid for atomic number  46.
 Defaulting to unpruned grid for atomic number  46.
 Defaulting to unpruned grid for atomic number  46.
 Defaulting to unpruned grid for atomic number  46.
 Defaulting to unpruned grid for atomic number  46.
 Defaulting to unpruned grid for atomic number  46.
 Defaulting to unpruned grid for atomic number  46.
 Defaulting to unpruned grid for atomic number  46.
 Defaulting to unpruned grid for atomic number  46.
 Defaulting to unpruned grid for atomic number  46.
 Defaulting to unpruned grid for atomic number  46.
 Defaulting to unpruned grid for atomic number  46.
 Defaulting to unpruned grid for atomic number  46.
 Defaulting to unpruned grid for atomic number  46.
 Defaulting to unpruned grid for atomic number  46.
 Defaulting to unpruned grid for atomic number  46.
 Defaulting to unpruned grid for atomic number  46.
 Defaulting to unpruned grid for atomic number  46.
 Defaulting to unpruned grid for atomic number  46.
 Defaulting to unpruned grid for atomic number  46.
 Defaulting to unpruned grid for atomic number  46.
 Defaulting to unpruned grid for atomic number  46.
 Defaulting to unpruned grid for atomic number  46.
 Defaulting to unpruned grid for atomic number  46.
 Defaulting to unpruned grid for atomic number  46.
 Defaulting to unpruned grid for atomic number  46.
 Defaulting to unpruned grid for atomic number  46.
 Defaulting to unpruned grid for atomic number  46.
 Defaulting to unpruned grid for atomic number  46.
 EnCoef did     8 forward-backward iterations
 EnCoef did   100 forward-backward iterations
 EnCoef did   100 forward-backward iterations
 EnCoef did   100 forward-backward iterations
 EnCoef did     4 forward-backward iterations
 EnCoef did     2 forward-backward iterations
 EnCoef did     2 forward-backward iterations
 EnCoef did     4 forward-backward iterations
 EnCoef did     4 forward-backward iterations
 EnCoef did     7 forward-backward iterations
 EnCoef did     3 forward-backward iterations
 Restarting incremental Fock formation.
 SCF Done:  E(RPBE1PBE) =  -5208.95896456     A.U. after   28 cycles
            NFock= 28  Conv=0.30D-08     -V/T= 2.0301
 DoSCS=F DFT=T ScalE2(SS,OS)=  1.000000  1.000000
 Range of M.O.s used for correlation:     1  2537
 NBasis=  2537 NAE=   289 NBE=   289 NFC=     0 NFV=     0
 NROrb=   2537 NOA=   289 NOB=   289 NVA=  2248 NVB=  2248

 **** Warning!!: The largest alpha MO coefficient is  0.47410909D+02

          Differentiating once with respect to magnetic field using GIAOs.
          Electric field/nuclear overlap derivatives assumed to be zero.
 Defaulting to unpruned grid for atomic number  46.
 FoFCou: FMM=F IPFlag=           0 FMFlag=      100000 FMFlg1=        2001
         NFxFlg=           0 DoJE=F BraDBF=F KetDBF=T FulRan=T
         wScrn=  0.000000 ICntrl=      6100 IOpCl=  0 I1Cent=           7 NGrid=         116
         NMat0=    1 NMatS0=      1 NMatT0=    0 NMatD0=    1 NMtDS0=    0 NMtDT0=    0
 Symmetry not used in FoFCou.
   1 Symmetry operations used in ECPInt.
 ECPInt:  NShTT=  483636 NPrTT= 1507730 LenC2=  483637 LenP2D= 1507730.
 LDataN:  DoStor=T MaxTD1= 8 Len=  415
 Number of processors reduced to   9 by ecpmxn.
 FoFJK:  IHMeth= 1 ICntrl=    6127 DoSepK=F KAlg= 0 I1Cent=           0 FoldK=F
 IRaf=         1 NMat=       1 IRICut=       1 DoRegI=T DoRafI=F ISym2E= 0 IDoP0=0 IntGTp=1.
 Defaulting to unpruned grid for atomic number  46.
 Defaulting to unpruned grid for atomic number  46.
 Defaulting to unpruned grid for atomic number  46.
 Defaulting to unpruned grid for atomic number  46.
 Defaulting to unpruned grid for atomic number  46.
 Defaulting to unpruned grid for atomic number  46.
 Defaulting to unpruned grid for atomic number  46.
 Defaulting to unpruned grid for atomic number  46.
 Defaulting to unpruned grid for atomic number  46.
 Defaulting to unpruned grid for atomic number  46.
 Defaulting to unpruned grid for atomic number  46.
 Defaulting to unpruned grid for atomic number  46.
 Defaulting to unpruned grid for atomic number  46.
 Defaulting to unpruned grid for atomic number  46.
 Defaulting to unpruned grid for atomic number  46.
 Defaulting to unpruned grid for atomic number  46.
 Defaulting to unpruned grid for atomic number  46.
 Defaulting to unpruned grid for atomic number  46.
 Defaulting to unpruned grid for atomic number  46.
 Defaulting to unpruned grid for atomic number  46.
 Defaulting to unpruned grid for atomic number  46.
 Defaulting to unpruned grid for atomic number  46.
 Defaulting to unpruned grid for atomic number  46.
 Defaulting to unpruned grid for atomic number  46.
 Defaulting to unpruned grid for atomic number  46.
 Defaulting to unpruned grid for atomic number  46.
 Defaulting to unpruned grid for atomic number  46.
 Defaulting to unpruned grid for atomic number  46.
 Defaulting to unpruned grid for atomic number  46.
 Defaulting to unpruned grid for atomic number  46.
 Defaulting to unpruned grid for atomic number  46.
 Defaulting to unpruned grid for atomic number  46.
 Defaulting to unpruned grid for atomic number  46.
 Defaulting to unpruned grid for atomic number  46.
 Defaulting to unpruned grid for atomic number  46.
 Defaulting to unpruned grid for atomic number  46.
 Defaulting to unpruned grid for atomic number  46.
 Defaulting to unpruned grid for atomic number  46.
 Defaulting to unpruned grid for atomic number  46.
 Defaulting to unpruned grid for atomic number  46.
 Defaulting to unpruned grid for atomic number  46.
 Defaulting to unpruned grid for atomic number  46.
 Defaulting to unpruned grid for atomic number  46.
 Defaulting to unpruned grid for atomic number  46.
 Defaulting to unpruned grid for atomic number  46.
 Defaulting to unpruned grid for atomic number  46.
 Defaulting to unpruned grid for atomic number  46.
 Defaulting to unpruned grid for atomic number  46.
 Defaulting to unpruned grid for atomic number  46.
 Defaulting to unpruned grid for atomic number  46.
 Defaulting to unpruned grid for atomic number  46.
 Defaulting to unpruned grid for atomic number  46.
          There are     3 degrees of freedom in the 1st order CPHF.  IDoFFX=0 NUNeed=     3.
      3 vectors produced by pass  0 Test12= 2.17D-11 3.33D-08 XBig12= 4.57D+02 1.90D+00.
 AX will form     3 AO Fock derivatives at one time.
      3 vectors produced by pass  1 Test12= 2.17D-11 3.33D-08 XBig12= 2.31D+00 3.35D-01.
      3 vectors produced by pass  2 Test12= 2.17D-11 3.33D-08 XBig12= 1.20D-01 8.36D-02.
      3 vectors produced by pass  3 Test12= 2.17D-11 3.33D-08 XBig12= 1.80D-03 9.89D-03.
      3 vectors produced by pass  4 Test12= 2.17D-11 3.33D-08 XBig12= 3.73D-05 1.91D-03.
      3 vectors produced by pass  5 Test12= 2.17D-11 3.33D-08 XBig12= 1.14D-06 3.35D-04.
      3 vectors produced by pass  6 Test12= 2.17D-11 3.33D-08 XBig12= 2.01D-08 4.17D-05.
      3 vectors produced by pass  7 Test12= 2.17D-11 3.33D-08 XBig12= 4.20D-10 6.50D-06.
      3 vectors produced by pass  8 Test12= 2.17D-11 3.33D-08 XBig12= 3.62D-12 4.71D-07.
      2 vectors produced by pass  9 Test12= 2.17D-11 3.33D-08 XBig12= 7.54D-14 1.36D-07.
 InvSVY:  IOpt=1 It=  1 EMax= 1.42D-14
 Solved reduced A of dimension    29 with     3 vectors.
 Calculating GIAO nuclear magnetic shielding tensors.
 SCF GIAO Magnetic shielding tensor (ppm):
      1  C    Isotropic =   110.2537   Anisotropy =    92.9934
   XX=    76.5415   YX=    39.1527   ZX=   -15.5090
   XY=    52.2271   YY=   130.6633   ZY=   -22.6553
   XZ=   -18.5997   YZ=   -21.1538   ZZ=   123.5562
   Eigenvalues:    50.2620   108.2497   172.2493
      2  C    Isotropic =   112.4042   Anisotropy =    90.4456
   XX=   115.8609   YX=    14.5665   ZX=    -9.7130
   XY=    19.7240   YY=   109.1314   ZY=   -64.4654
   XZ=    -8.0518   YZ=   -47.6651   ZZ=   112.2204
   Eigenvalues:    53.9588   110.5526   172.7013
      3  C    Isotropic =   112.4956   Anisotropy =    88.2261
   XX=    68.0004   YX=    -1.7180   ZX=   -26.6886
   XY=   -14.2209   YY=   146.0774   ZY=   -37.3371
   XZ=   -21.6836   YZ=   -30.8933   ZZ=   123.4089
   Eigenvalues:    54.2591   111.9147   171.3130
      4  C    Isotropic =   112.0954   Anisotropy =    90.1227
   XX=    80.2812   YX=    29.1881   ZX=    20.2695
   XY=    20.1307   YY=   155.2215   ZY=   -25.0143
   XZ=    19.5677   YZ=   -38.3436   ZZ=   100.7837
   Eigenvalues:    53.7525   110.3566   172.1772
      5  C    Isotropic =   111.5930   Anisotropy =    92.0655
   XX=   105.7451   YX=    13.3460   ZX=   -24.6537
   XY=    12.9685   YY=   158.2706   ZY=   -20.6403
   XZ=   -29.9677   YZ=   -35.1421   ZZ=    70.7634
   Eigenvalues:    52.4163   109.3928   172.9700
      6  H    Isotropic =    27.3739   Anisotropy =     6.0557
   XX=    25.8248   YX=     0.5835   ZX=    -0.3779
   XY=     0.4146   YY=    28.7398   ZY=     3.4906
   XZ=    -0.4277   YZ=     2.9207   ZZ=    27.5570
   Eigenvalues:    24.5723    26.1382    31.4110
      7  H    Isotropic =    27.3654   Anisotropy =     6.9094
   XX=    30.5088   YX=     1.6997   ZX=     2.4895
   XY=     2.0108   YY=    25.7236   ZY=     1.0071
   XZ=     1.6515   YZ=     0.7768   ZZ=    25.8638
   Eigenvalues:    24.8975    25.2270    31.9716
      8  H    Isotropic =    27.1641   Anisotropy =     4.8552
   XX=    28.4489   YX=     0.4492   ZX=    -2.5284
   XY=    -0.2626   YY=    26.4684   ZY=     1.2841
   XZ=    -2.3069   YZ=     2.5617   ZZ=    26.5751
   Eigenvalues:    23.8327    27.2587    30.4009
      9  H    Isotropic =    27.0818   Anisotropy =     4.2467
   XX=    25.3163   YX=     0.0513   ZX=     0.8123
   XY=     1.3738   YY=    26.8874   ZY=     0.8757
   XZ=     0.9576   YZ=     1.7087   ZZ=    29.0416
   Eigenvalues:    24.9975    26.3349    29.9129
     10  H    Isotropic =    27.2738   Anisotropy =     3.6471
   XX=    29.4550   YX=    -0.6380   ZX=    -0.7874
   XY=    -0.7892   YY=    27.6679   ZY=    -0.3422
   XZ=     0.2118   YZ=    -1.0756   ZZ=    24.6986
   Eigenvalues:    24.4983    27.6180    29.7052
     11  Fe   Isotropic = -6313.5139   Anisotropy =  8471.9280
   XX= -8686.0142   YX=  1679.0823   ZX= -1140.5373
   XY=  1651.9159   YY= -3743.5674   ZY= -3706.8099
   XZ= -1122.3387   YZ= -3706.0413   ZZ= -6510.9603
   Eigenvalues: -9194.8685 -9080.1114  -665.5620
     12  C    Isotropic =   111.5468   Anisotropy =    95.8817
   XX=   103.6393   YX=    11.2519   ZX=   -30.9199
   XY=    17.8775   YY=   151.8820   ZY=   -25.4923
   XZ=   -43.5932   YZ=   -39.1287   ZZ=    79.1191
   Eigenvalues:    48.7606   110.4119   175.4679
     13  C    Isotropic =   102.1215   Anisotropy =    83.2693
   XX=    61.2398   YX=    46.0439   ZX=    -2.5961
   XY=    48.0569   YY=   112.0389   ZY=   -20.6620
   XZ=   -35.0832   YZ=    -4.4074   ZZ=   133.0860
   Eigenvalues:    32.1897   116.5405   157.6344
     14  C    Isotropic =    88.7177   Anisotropy =    97.1383
   XX=    67.9190   YX=    12.3997   ZX=   -16.0793
   XY=    14.4829   YY=    74.8162   ZY=   -55.5142
   XZ=    -7.3641   YZ=   -34.1413   ZZ=   123.4179
   Eigenvalues:    46.4750    66.2015   153.4765
     15  C    Isotropic =    89.3021   Anisotropy =    95.1993
   XX=    49.4633   YX=     1.2120   ZX=    -8.4624
   XY=    -7.8591   YY=   121.1550   ZY=   -41.8653
   XZ=    17.3220   YZ=   -41.3243   ZZ=    97.2881
   Eigenvalues:    49.0497    66.0883   152.7683
     16  C    Isotropic =   109.2285   Anisotropy =    96.0613
   XX=   100.2198   YX=    19.3426   ZX=    10.0283
   XY=     7.6730   YY=   145.2781   ZY=   -42.0331
   XZ=    28.5921   YZ=   -58.7430   ZZ=    82.1877
   Eigenvalues:    44.4310   109.9852   173.2694
     17  H    Isotropic =    27.0815   Anisotropy =     7.6839
   XX=    28.0903   YX=     2.8386   ZX=     3.0114
   XY=     2.5014   YY=    26.4523   ZY=     1.6252
   XZ=     2.6668   YZ=     2.2364   ZZ=    26.7020
   Eigenvalues:    24.3980    24.6424    32.2042
     18  H    Isotropic =    26.7257   Anisotropy =     3.7099
   XX=    27.5305   YX=     0.5475   ZX=    -1.1625
   XY=     2.1305   YY=    27.9569   ZY=     1.1040
   XZ=    -0.1046   YZ=     1.6038   ZZ=    24.6896
   Eigenvalues:    23.8784    27.0997    29.1989
     19  C    Isotropic =   140.7584   Anisotropy =    35.3708
   XX=   136.6260   YX=     9.5180   ZX=    -2.1670
   XY=    16.0535   YY=   150.9102   ZY=   -16.5509
   XZ=     0.4954   YZ=   -12.5237   ZZ=   134.7391
   Eigenvalues:   122.9134   135.0229   164.3389
     20  P    Isotropic =   203.5818   Anisotropy =   168.7285
   XX=   205.6132   YX=   -96.4349   ZX=     5.1813
   XY=   -86.6312   YY=   204.2294   ZY=   -64.4909
   XZ=    32.0878   YZ=   -31.6058   ZZ=   200.9027
   Eigenvalues:   107.9654   186.7125   316.0675
     21  H    Isotropic =    27.5151   Anisotropy =     4.0610
   XX=    26.0244   YX=    -2.2454   ZX=    -1.0048
   XY=     3.0267   YY=    26.4187   ZY=     1.1286
   XZ=    -0.1247   YZ=    -0.2069   ZZ=    30.1022
   Eigenvalues:    25.6660    26.6568    30.2224
     22  C    Isotropic =   167.3580   Anisotropy =    17.3071
   XX=   168.5733   YX=    -5.1612   ZX=    -3.9031
   XY=    -5.0091   YY=   175.3364   ZY=     3.5678
   XZ=    -4.1545   YZ=     1.4533   ZZ=   158.1644
   Eigenvalues:   156.7542   166.4237   178.8961
     23  H    Isotropic =    29.7228   Anisotropy =    10.5304
   XX=    35.6421   YX=    -3.1135   ZX=     1.5815
   XY=    -0.8298   YY=    30.4689   ZY=    -1.8324
   XZ=     2.6886   YZ=    -0.7539   ZZ=    23.0574
   Eigenvalues:    22.5841    29.8413    36.7431
     24  H    Isotropic =    29.0849   Anisotropy =    10.3642
   XX=    29.0387   YX=     0.3905   ZX=    -1.7342
   XY=     3.2314   YY=    35.0256   ZY=    -2.2695
   XZ=    -1.2384   YZ=    -1.9402   ZZ=    23.1905
   Eigenvalues:    22.6081    28.6523    35.9944
     25  H    Isotropic =    28.9644   Anisotropy =     3.8989
   XX=    26.7988   YX=    -2.5647   ZX=    -2.6291
   XY=     0.9097   YY=    29.1527   ZY=    -0.5416
   XZ=    -0.6898   YZ=     0.5963   ZZ=    30.9418
   Eigenvalues:    26.0247    29.3050    31.5637
     26  C    Isotropic =    53.9150   Anisotropy =   192.4649
   XX=   -32.1425   YX=     3.4944   ZX=    26.1985
   XY=    -4.1941   YY=   132.7246   ZY=    76.8439
   XZ=    21.1281   YZ=    76.3770   ZZ=    61.1628
   Eigenvalues:   -40.5111    20.0311   182.2249
     27  C    Isotropic =    48.4447   Anisotropy =   160.0374
   XX=    30.1753   YX=     1.4527   ZX=    19.8368
   XY=     2.0398   YY=    89.8649   ZY=    95.4112
   XZ=    14.8939   YZ=    86.4698   ZZ=    25.2940
   Eigenvalues:   -41.3721    31.5699   155.1363
     28  C    Isotropic =    32.0278   Anisotropy =   205.7785
   XX=   -32.0613   YX=    44.2421   ZX=    -9.0404
   XY=    56.2159   YY=    99.7984   ZY=    85.4466
   XZ=    -5.5278   YZ=    97.0470   ZZ=    28.3463
   Eigenvalues:   -70.3878    -2.7422   169.2134
     29  C    Isotropic =    37.9252   Anisotropy =   187.8094
   XX=   -28.6618   YX=    24.8663   ZX=    41.9616
   XY=    22.5942   YY=   102.4403   ZY=    86.5087
   XZ=    32.3436   YZ=    67.9556   ZZ=    39.9971
   Eigenvalues:   -45.9134    -3.4425   163.1315
     30  C    Isotropic =    41.7242   Anisotropy =   197.6845
   XX=    13.7043   YX=     9.1804   ZX=    14.4715
   XY=     6.5644   YY=   117.8015   ZY=    90.2815
   XZ=    19.2881   YZ=   106.5632   ZZ=    -6.3331
   Eigenvalues:   -62.2319    13.8906   173.5139
     31  C    Isotropic =    47.5355   Anisotropy =   161.9395
   XX=    -8.8039   YX=    29.1251   ZX=   -27.5133
   XY=    31.3988   YY=   108.5404   ZY=    71.8106
   XZ=   -20.8619   YZ=    71.4600   ZZ=    42.8700
   Eigenvalues:   -43.1828    30.2941   155.4952
     32  H    Isotropic =    23.1867   Anisotropy =     9.1346
   XX=    22.9480   YX=    -2.6244   ZX=     1.0407
   XY=    -2.7564   YY=    21.7409   ZY=    -4.2397
   XZ=     1.6161   YZ=    -4.9022   ZZ=    24.8712
   Eigenvalues:    18.0029    22.2807    29.2764
     33  C    Isotropic =    48.4019   Anisotropy =    14.8824
   XX=    58.0373   YX=    -2.0194   ZX=    -0.3371
   XY=    -1.6560   YY=    45.1876   ZY=     2.3679
   XZ=    -0.5386   YZ=     1.1520   ZZ=    41.9808
   Eigenvalues:    41.1961    45.6861    58.3235
     34  H    Isotropic =    21.3795   Anisotropy =    18.0299
   XX=    27.2179   YX=     6.7253   ZX=    -6.6257
   XY=     6.9072   YY=    17.6119   ZY=     0.0852
   XZ=    -5.9884   YZ=    -2.0911   ZZ=    19.3086
   Eigenvalues:    13.0954    17.6436    33.3994
     35  H    Isotropic =    23.9545   Anisotropy =    14.8914
   XX=    33.1565   YX=    -4.0245   ZX=    -0.0937
   XY=    -1.7085   YY=    22.3247   ZY=     2.7057
   XZ=     1.6663   YZ=    -0.4396   ZZ=    16.3822
   Eigenvalues:    16.0690    21.9124    33.8821
     36  C    Isotropic =    48.8516   Anisotropy =    13.2190
   XX=    50.9291   YX=     0.4222   ZX=    -8.5053
   XY=     1.7202   YY=    48.2884   ZY=    -0.5149
   XZ=    -7.4225   YZ=    -2.7411   ZZ=    47.3373
   Eigenvalues:    40.9186    47.9720    57.6643
     37  C    Isotropic =    55.6425   Anisotropy =   193.5684
   XX=    59.6274   YX=   -76.2377   ZX=     4.7981
   XY=   -79.3629   YY=   120.5820   ZY=   -59.6169
   XZ=    -0.1168   YZ=   -48.9827   ZZ=   -13.2819
   Eigenvalues:   -40.6460    22.8854   184.6881
     38  C    Isotropic =    49.9980   Anisotropy =   160.0701
   XX=    49.7816   YX=   -55.0170   ZX=    46.7938
   XY=   -50.2942   YY=   118.7147   ZY=   -17.8868
   XZ=    50.4597   YZ=   -20.1881   ZZ=   -18.5024
   Eigenvalues:   -44.1748    37.4574   156.7113
     39  C    Isotropic =    47.1682   Anisotropy =   201.4580
   XX=    17.2399   YX=  -111.2129   ZX=    21.9388
   XY=   -97.9460   YY=   102.7518   ZY=   -27.9990
   XZ=    27.2289   YZ=   -27.7657   ZZ=    21.5130
   Eigenvalues:   -53.3300    13.3612   181.4735
     40  C    Isotropic =    34.3615   Anisotropy =   194.7421
   XX=    41.7719   YX=   -88.6203   ZX=    11.8111
   XY=   -86.4573   YY=    87.7583   ZY=   -38.4823
   XZ=    11.3148   YZ=   -47.3937   ZZ=   -26.4457
   Eigenvalues:   -47.8943   -13.2107   164.1896
     41  C    Isotropic =    42.2444   Anisotropy =   209.2501
   XX=    33.4823   YX=   -90.2842   ZX=    46.0322
   XY=   -74.4453   YY=   131.0913   ZY=    -1.8137
   XZ=    35.6425   YZ=   -16.6937   ZZ=   -37.8402
   Eigenvalues:   -61.1822     6.1711   181.7445
     42  C    Isotropic =    48.8378   Anisotropy =   167.5440
   XX=    21.0254   YX=   -84.7838   ZX=    17.0820
   XY=  -103.0013   YY=    91.9976   ZY=   -13.9120
   XZ=    14.4988   YZ=   -16.5791   ZZ=    33.4905
   Eigenvalues:   -44.1113    30.0910   160.5338
     43  H    Isotropic =    23.7723   Anisotropy =     8.8558
   XX=    26.3199   YX=     3.7178   ZX=    -1.6562
   XY=     2.8379   YY=    20.7895   ZY=    -3.1581
   XZ=    -2.7911   YZ=    -2.0308   ZZ=    24.2075
   Eigenvalues:    18.8038    22.8369    29.6762
     44  C    Isotropic =    48.0754   Anisotropy =    15.6974
   XX=    49.5986   YX=     7.0198   ZX=     7.5775
   XY=     6.3895   YY=    47.2285   ZY=     1.2589
   XZ=     6.6093   YZ=    -0.1230   ZZ=    47.3991
   Eigenvalues:    38.9439    46.7420    58.5403
     45  H    Isotropic =    24.0921   Anisotropy =     7.4925
   XX=    25.6504   YX=    -2.7460   ZX=     0.7553
   XY=     1.6028   YY=    18.8298   ZY=     3.7740
   XZ=     2.7134   YZ=     0.9138   ZZ=    27.7961
   Eigenvalues:    18.1253    25.0639    29.0871
     46  H    Isotropic =    26.3540   Anisotropy =    14.2294
   XX=    25.9941   YX=     2.5361   ZX=     3.7516
   XY=    -1.6567   YY=    29.5859   ZY=     9.6774
   XZ=     2.4132   YZ=     6.9036   ZZ=    23.4821
   Eigenvalues:    17.1002    26.1216    35.8403
     47  C    Isotropic =    49.7566   Anisotropy =    13.2713
   XX=    43.3132   YX=    -0.8814   ZX=     0.5479
   XY=    -4.2767   YY=    48.2014   ZY=     2.9740
   XZ=     0.6101   YZ=     2.9637   ZZ=    57.7551
   Eigenvalues:    42.0090    48.6567    58.6041
     48  F    Isotropic =   215.8380   Anisotropy =   150.4359
   XX=   271.4808   YX=   -78.1244   ZX=    18.6825
   XY=   -79.3465   YY=   170.2362   ZY=     6.1655
   XZ=    19.5318   YZ=     7.5742   ZZ=   205.7970
   Eigenvalues:   124.3874   206.9980   316.1286
     49  F    Isotropic =   247.8117   Anisotropy =   125.9634
   XX=   190.6657   YX=   -13.6347   ZX=   -42.8102
   XY=   -25.7802   YY=   257.1096   ZY=   -55.7527
   XZ=   -30.1067   YZ=   -42.0891   ZZ=   295.6599
   Eigenvalues:   165.2935   246.3543   331.7874
     50  F    Isotropic =   247.2093   Anisotropy =   133.9149
   XX=   184.0807   YX=     0.3491   ZX=    39.5371
   XY=   -18.4278   YY=   293.0817   ZY=    59.5278
   XZ=    30.9295   YZ=    49.3073   ZZ=   264.4654
   Eigenvalues:   163.8377   241.3043   336.4859
     51  F    Isotropic =   245.5891   Anisotropy =   121.6293
   XX=   267.2469   YX=    45.3238   ZX=    17.5156
   XY=    42.3944   YY=   290.1183   ZY=   -24.7580
   XZ=     9.1294   YZ=   -44.0721   ZZ=   179.4022
   Eigenvalues:   162.9677   247.1243   326.6753
     52  F    Isotropic =   244.5845   Anisotropy =   141.7683
   XX=   211.1793   YX=    -4.8975   ZX=    71.0013
   XY=   -14.1063   YY=   234.3168   ZY=     2.0848
   XZ=    89.9778   YZ=     0.9122   ZZ=   288.2573
   Eigenvalues:   159.4337   235.2230   339.0966
     53  F    Isotropic =   212.9447   Anisotropy =   140.6272
   XX=   249.4700   YX=   -53.4356   ZX=     1.2599
   XY=   -55.7157   YY=   238.9266   ZY=    53.4762
   XZ=     0.1940   YZ=    47.0366   ZZ=   150.4375
   Eigenvalues:   122.8153   209.3227   306.6962
     54  F    Isotropic =   246.8121   Anisotropy =   139.3465
   XX=   311.3017   YX=    45.2633   ZX=   -17.2702
   XY=    56.1895   YY=   247.1116   ZY=    33.4084
   XZ=   -30.6367   YZ=    18.8091   ZZ=   182.0231
   Eigenvalues:   161.1916   239.5350   339.7098
     55  F    Isotropic =   221.9348   Anisotropy =   144.2652
   XX=   212.2995   YX=   -13.7879   ZX=     9.6747
   XY=   -16.4452   YY=   169.3746   ZY=    71.3249
   XZ=     8.6673   YZ=    70.7857   ZZ=   284.1304
   Eigenvalues:   131.5872   216.1056   318.1116
     56  F    Isotropic =   240.9847   Anisotropy =   139.2911
   XX=   247.8052   YX=   -53.1591   ZX=    33.1306
   XY=   -63.5702   YY=   290.8717   ZY=    11.4786
   XZ=    40.5425   YZ=    -4.0509   ZZ=   184.2771
   Eigenvalues:   160.1260   228.9826   333.8454
     57  F    Isotropic =   215.9558   Anisotropy =   148.6827
   XX=   187.4715   YX=    54.3409   ZX=    20.0422
   XY=    55.4109   YY=   191.2832   ZY=    57.2543
   XZ=    21.0643   YZ=    55.8168   ZZ=   269.1126
   Eigenvalues:   129.1917   203.5980   315.0776
     58  F    Isotropic =   244.4557   Anisotropy =   141.9744
   XX=   174.1217   YX=     2.9096   ZX=   -27.4158
   XY=    22.7571   YY=   317.4229   ZY=   -37.7685
   XZ=   -31.1336   YZ=   -44.9646   ZZ=   241.8226
   Eigenvalues:   163.1752   231.0866   339.1054
     59  F    Isotropic =   251.1771   Anisotropy =   136.0060
   XX=   300.3524   YX=    -5.6099   ZX=   -74.8143
   XY=    -9.1736   YY=   240.1094   ZY=    43.5916
   XZ=   -57.7177   YZ=    28.8240   ZZ=   213.0695
   Eigenvalues:   165.9996   245.6839   341.8478
     60  P    Isotropic =   239.6293   Anisotropy =   116.7990
   XX=   208.9948   YX=   -12.2012   ZX=   -19.6556
   XY=   -42.4030   YY=   235.5749   ZY=    54.7893
   XZ=     2.9056   YZ=    53.9902   ZZ=   274.3184
   Eigenvalues:   183.2155   218.1772   317.4953
     61  C    Isotropic =    18.1091   Anisotropy =   130.3284
   XX=   -23.9771   YX=    32.2526   ZX=   -37.0333
   XY=    31.4950   YY=   -15.0005   ZY=    14.2687
   XZ=   -39.0119   YZ=    19.2007   ZZ=    93.3049
   Eigenvalues:   -61.9510    11.2836   104.9947
     62  C    Isotropic =    48.4944   Anisotropy =   168.8992
   XX=    28.1528   YX=     2.2549   ZX=   -34.0140
   XY=   -13.1968   YY=   -35.0375   ZY=     8.1422
   XZ=   -32.2972   YZ=     8.0498   ZZ=   152.3680
   Eigenvalues:   -35.6681    20.0576   161.0939
     63  C    Isotropic =    47.7533   Anisotropy =   157.6299
   XX=   -20.2154   YX=   -40.4809   ZX=   -44.1805
   XY=   -38.7107   YY=    21.4737   ZY=    -3.0189
   XZ=   -41.4595   YZ=    -5.6703   ZZ=   142.0016
   Eigenvalues:   -52.0596    42.4796   152.8399
     64  C    Isotropic =    49.5758   Anisotropy =   162.7783
   XX=     3.9925   YX=    34.3996   ZX=   -51.7083
   XY=    22.5731   YY=     2.3827   ZY=    16.7371
   XZ=   -46.5708   YZ=     8.0548   ZZ=   142.3523
   Eigenvalues:   -36.3668    26.9996   158.0946
     65  C    Isotropic =    39.1504   Anisotropy =   175.1432
   XX=    27.5692   YX=   -18.1638   ZX=   -34.6575
   XY=   -17.6313   YY=   -58.0101   ZY=     6.8670
   XZ=   -28.6659   YZ=    -2.3806   ZZ=   147.8921
   Eigenvalues:   -61.6840    23.2226   155.9126
     66  C    Isotropic =    47.9904   Anisotropy =   172.0923
   XX=   -13.1191   YX=   -26.0039   ZX=   -51.2424
   XY=   -12.0663   YY=    10.2406   ZY=     1.3482
   XZ=   -54.1209   YZ=    -5.5877   ZZ=   146.8496
   Eigenvalues:   -36.5130    17.7655   162.7186
     67  H    Isotropic =    25.3582   Anisotropy =    16.7675
   XX=    26.6805   YX=    -4.7900   ZX=     3.5080
   XY=    -9.2768   YY=    29.9939   ZY=    -3.5829
   XZ=     2.5799   YZ=    -2.0079   ZZ=    19.4003
   Eigenvalues:    18.2862    21.2519    36.5366
     68  H    Isotropic =    23.8341   Anisotropy =    13.5982
   XX=    30.7654   YX=    -3.5266   ZX=     4.1184
   XY=    -4.7692   YY=    20.6755   ZY=    -0.7553
   XZ=     1.4766   YZ=    -0.7269   ZZ=    20.0614
   Eigenvalues:    19.0364    19.5664    32.8996
     69  Cl   Isotropic =   805.4228   Anisotropy =   174.8764
   XX=   846.0237   YX=    61.9460   ZX=    64.4081
   XY=   144.2767   YY=   775.9146   ZY=  -104.6971
   XZ=    94.4633   YZ=   -77.7127   ZZ=   794.3302
   Eigenvalues:   619.1169   875.1444   922.0071
     70  Cl   Isotropic =   902.2392   Anisotropy =   547.7074
   XX=   941.6509   YX=   266.1444   ZX=  -165.2537
   XY=   250.8280   YY=   967.0325   ZY=   -54.0021
   XZ=  -179.3804   YZ=   -52.0338   ZZ=   798.0341
   Eigenvalues:   632.3214   807.0186  1267.3775
     71  H    Isotropic =    27.4025   Anisotropy =     4.0925
   XX=    29.9359   YX=     2.2164   ZX=     1.8994
   XY=    -1.0035   YY=    26.6494   ZY=     0.2855
   XZ=    -0.8521   YZ=     0.9041   ZZ=    25.6220
   Eigenvalues:    25.3379    26.7386    30.1308
     72  C    Isotropic =    52.5108   Anisotropy =   188.1844
   XX=   151.8086   YX=    27.4648   ZX=    68.3056
   XY=    22.7872   YY=    -1.6361   ZY=   -36.1898
   XZ=    63.7157   YZ=   -40.5610   ZZ=     7.3598
   Eigenvalues:   -55.7389    35.3042   177.9670
     73  C    Isotropic =    47.8751   Anisotropy =   192.6970
   XX=   152.2558   YX=    -5.8840   ZX=    69.5719
   XY=    -4.3462   YY=    18.9460   ZY=    26.2082
   XZ=    70.2473   YZ=    28.3282   ZZ=   -27.5764
   Eigenvalues:   -60.9920    28.2775   176.3398
     74  C    Isotropic =    40.6254   Anisotropy =   167.0362
   XX=   136.0011   YX=   -14.8616   ZX=    42.8033
   XY=    -6.8995   YY=   -55.6406   ZY=    19.0427
   XZ=    40.9418   YZ=    13.2977   ZZ=    41.5158
   Eigenvalues:   -59.9425    29.8360   151.9829
     75  C    Isotropic =    34.1905   Anisotropy =   197.0879
   XX=   148.2508   YX=     3.1699   ZX=    57.1078
   XY=    -5.9697   YY=   -30.1720   ZY=   -31.4551
   XZ=    52.0165   YZ=   -45.1406   ZZ=   -15.5072
   Eigenvalues:   -67.6842     4.6734   165.5825
     76  C    Isotropic =    40.1116   Anisotropy =   175.6605
   XX=   137.1296   YX=   -21.5446   ZX=    37.7025
   XY=   -13.4195   YY=     3.6063   ZY=    18.9075
   XZ=    79.1780   YZ=    17.8877   ZZ=   -20.4011
   Eigenvalues:   -49.7034    12.8197   157.2186
     77  C    Isotropic =    40.2836   Anisotropy =   197.6749
   XX=   148.4790   YX=    15.3687   ZX=    57.5579
   XY=    13.0195   YY=   -65.3491   ZY=    19.6313
   XZ=    50.4369   YZ=    14.5176   ZZ=    37.7209
   Eigenvalues:   -68.2595    17.0435   172.0669
     78  H    Isotropic =    23.7736   Anisotropy =     4.1793
   XX=    22.6258   YX=     0.5282   ZX=    -2.5417
   XY=    -0.5645   YY=    23.7839   ZY=    -0.6750
   XZ=    -1.4040   YZ=    -2.0489   ZZ=    24.9111
   Eigenvalues:    21.2710    23.4900    26.5598
     79  H    Isotropic =    23.3768   Anisotropy =     4.3113
   XX=    21.6740   YX=     0.2275   ZX=    -1.4657
   XY=     0.1302   YY=    24.8869   ZY=     1.9510
   XZ=    -1.6522   YZ=     1.5875   ZZ=    23.5695
   Eigenvalues:    20.5236    23.3559    26.2510
     80  H    Isotropic =    21.9331   Anisotropy =     8.4015
   XX=    18.5093   YX=     0.8312   ZX=    -2.1847
   XY=     0.8612   YY=    22.6818   ZY=     3.9730
   XZ=    -1.8931   YZ=     3.2699   ZZ=    24.6081
   Eigenvalues:    17.0883    21.1768    27.5341
     81  H    Isotropic =    23.9146   Anisotropy =     9.6213
   XX=    22.9669   YX=    -1.0521   ZX=    -4.9885
   XY=    -2.5294   YY=    19.4714   ZY=     2.1117
   XZ=     0.1823   YZ=    -0.1260   ZZ=    29.3057
   Eigenvalues:    18.7168    22.6983    30.3289
     82  C    Isotropic =    18.2145   Anisotropy =   138.4776
   XX=     2.3590   YX=   -81.9423   ZX=     0.7950
   XY=   -82.6522   YY=    40.5079   ZY=   -24.8356
   XZ=     5.3720   YZ=   -24.5674   ZZ=    11.7765
   Eigenvalues:   -65.2999     9.4105   110.5329
     83  C    Isotropic =    43.7137   Anisotropy =   182.6131
   XX=    36.3421   YX=   -75.2168   ZX=    52.4754
   XY=   -82.6561   YY=    99.9713   ZY=   -18.9699
   XZ=    41.6804   YZ=   -26.2939   ZZ=    -5.1722
   Eigenvalues:   -42.6167     8.3021   165.4558
     84  C    Isotropic =    40.3247   Anisotropy =   164.7102
   XX=    66.7888   YX=   -56.7877   ZX=    17.7901
   XY=   -48.4591   YY=    96.2707   ZY=   -59.2803
   XZ=     2.6592   YZ=   -53.3512   ZZ=   -42.0856
   Eigenvalues:   -62.6720    33.5145   150.1315
     85  C    Isotropic =    51.7654   Anisotropy =   177.9003
   XX=    44.4134   YX=   -91.8572   ZX=     3.5707
   XY=  -111.6886   YY=    80.8230   ZY=   -25.2457
   XZ=    12.7389   YZ=   -25.4942   ZZ=    30.0600
   Eigenvalues:   -42.2207    27.1514   170.3656
     86  C    Isotropic =    47.7196   Anisotropy =   175.2807
   XX=    52.5966   YX=   -74.0632   ZX=    56.4935
   XY=   -75.7100   YY=   105.1128   ZY=    -1.7956
   XZ=    50.1178   YZ=    -2.8531   ZZ=   -14.5505
   Eigenvalues:   -53.2684    31.8538   164.5735
     87  C    Isotropic =    47.7307   Anisotropy =   179.8962
   XX=    67.5367   YX=   -76.5012   ZX=     4.4782
   XY=   -73.3705   YY=    97.6782   ZY=   -53.4294
   XZ=    12.7203   YZ=   -36.1928   ZZ=   -22.0227
   Eigenvalues:   -40.2722    15.8028   167.6615
     88  H    Isotropic =    22.7766   Anisotropy =    14.1160
   XX=    25.5940   YX=     6.4598   ZX=    -2.1106
   XY=     5.1118   YY=    26.3058   ZY=    -1.8349
   XZ=    -3.5418   YZ=    -0.0458   ZZ=    16.4301
   Eigenvalues:    15.5688    20.5737    32.1873
     89  H    Isotropic =    24.9466   Anisotropy =     9.8588
   XX=    26.4051   YX=     5.8042   ZX=     1.8210
   XY=     0.7850   YY=    25.5665   ZY=     2.9888
   XZ=     4.3107   YZ=     3.2774   ZZ=    22.8681
   Eigenvalues:    20.6174    22.7032    31.5191
     90  Pd   Isotropic =  -161.0260   Anisotropy =   223.4738
   XX=  -167.3855   YX=  -162.2348   ZX=    94.6627
   XY=  -188.9808   YY=  -229.4524   ZY=   118.1917
   XZ=    80.3467   YZ=   123.0310   ZZ=   -86.2399
   Eigenvalues:  -439.3632   -31.6712   -12.0434
     91  C    Isotropic =   167.4006   Anisotropy =    29.1249
   XX=   163.1074   YX=     3.9308   ZX=     2.2739
   XY=     3.9252   YY=   186.0310   ZY=    -2.8321
   XZ=    -0.0146   YZ=    -1.8148   ZZ=   153.0633
   Eigenvalues:   152.7032   162.6813   186.8172
     92  H    Isotropic =    30.0447   Anisotropy =     6.5818
   XX=    34.0187   YX=    -0.2957   ZX=     2.5446
   XY=     1.0397   YY=    32.3111   ZY=    -0.6819
   XZ=     1.5675   YZ=    -1.2912   ZZ=    23.8045
   Eigenvalues:    23.2864    32.4152    34.4326
     93  H    Isotropic =    28.8994   Anisotropy =     9.3742
   XX=    27.5271   YX=     0.6991   ZX=     2.2968
   XY=    -1.4999   YY=    30.3650   ZY=    -4.5608
   XZ=     2.4580   YZ=    -5.5196   ZZ=    28.8062
   Eigenvalues:    23.7889    27.7605    35.1489
     94  H    Isotropic =    29.3209   Anisotropy =     9.0515
   XX=    29.7371   YX=    -2.0446   ZX=    -0.9494
   XY=    -3.0545   YY=    32.0778   ZY=     3.0378
   XZ=    -1.9301   YZ=     4.3137   ZZ=    26.1478
   Eigenvalues:    24.3813    28.2261    35.3552
     95  C    Isotropic =   169.6954   Anisotropy =    28.4559
   XX=   182.2382   YX=     5.3970   ZX=    12.0363
   XY=     7.2356   YY=   164.2089   ZY=     5.0318
   XZ=     5.9955   YZ=     8.5032   ZZ=   162.6391
   Eigenvalues:   156.2508   164.1694   188.6660
     96  H    Isotropic =    29.2950   Anisotropy =     6.6714
   XX=    30.1555   YX=    -0.6277   ZX=     2.6027
   XY=    -2.2057   YY=    32.0560   ZY=     2.5824
   XZ=     2.6828   YZ=     4.7586   ZZ=    25.6734
   Eigenvalues:    22.7854    31.3569    33.7426
     97  H    Isotropic =    29.3994   Anisotropy =     7.9725
   XX=    33.3560   YX=     0.6519   ZX=    -2.1390
   XY=     0.5459   YY=    27.7133   ZY=    -1.1611
   XZ=    -3.7984   YZ=    -1.6600   ZZ=    27.1288
   Eigenvalues:    25.3999    28.0838    34.7144
     98  H    Isotropic =    28.7322   Anisotropy =     8.9630
   XX=    29.3760   YX=    -2.6569   ZX=     4.9616
   XY=    -0.9393   YY=    29.9409   ZY=    -1.2279
   XZ=     5.7113   YZ=    -1.6052   ZZ=    26.8799
   Eigenvalues:    22.6475    28.8417    34.7076
     99  O    Isotropic =   255.8822   Anisotropy =   111.0132
   XX=   223.6144   YX=   -23.6683   ZX=    21.9076
   XY=   -30.9759   YY=   232.5631   ZY=   -19.3641
   XZ=    22.9303   YZ=   -39.4368   ZZ=   311.4690
   Eigenvalues:   200.3587   237.3967   329.8910
    100  C    Isotropic =   126.6393   Anisotropy =    84.1229
   XX=   140.0142   YX=   -19.0924   ZX=   -35.9470
   XY=   -16.9463   YY=   102.6418   ZY=    12.8347
   XZ=   -39.6360   YZ=    14.2997   ZZ=   137.2619
   Eigenvalues:    95.1514   102.0453   182.7212
    101  H    Isotropic =    27.8251   Anisotropy =     7.8123
   XX=    30.2997   YX=     0.6446   ZX=    -2.8697
   XY=    -1.2726   YY=    27.5694   ZY=     1.3430
   XZ=    -6.0046   YZ=    -0.1533   ZZ=    25.6063
   Eigenvalues:    22.9074    27.5347    33.0333
    102  H    Isotropic =    28.2197   Anisotropy =     8.6653
   XX=    28.4777   YX=    -2.1907   ZX=    -3.0670
   XY=    -0.8350   YY=    27.0771   ZY=     2.8636
   XZ=    -2.3371   YZ=     5.2920   ZZ=    29.1041
   Eigenvalues:    23.8258    26.8367    33.9965
    103  H    Isotropic =    27.6579   Anisotropy =    10.7825
   XX=    31.5115   YX=    -5.2680   ZX=     0.4758
   XY=    -4.3549   YY=    27.5002   ZY=    -0.4547
   XZ=    -2.5877   YZ=     1.5357   ZZ=    23.9621
   Eigenvalues:    23.7976    24.3299    34.8462
    104  C    Isotropic =   169.7385   Anisotropy =    26.8340
   XX=   172.1673   YX=    -0.1066   ZX=   -14.1203
   XY=     6.7611   YY=   165.8252   ZY=    -1.2157
   XZ=   -16.4900   YZ=    -2.4797   ZZ=   171.2229
   Eigenvalues:   156.2752   165.3124   187.6279
    105  H    Isotropic =    28.9099   Anisotropy =     5.2553
   XX=    31.2678   YX=     2.9094   ZX=     0.9437
   XY=     1.6422   YY=    26.8849   ZY=     1.7090
   XZ=    -0.5381   YZ=     1.3988   ZZ=    28.5769
   Eigenvalues:    25.3375    28.9787    32.4134
    106  H    Isotropic =    29.1972   Anisotropy =    10.2877
   XX=    24.7953   YX=     0.4970   ZX=     0.3574
   XY=     1.4379   YY=    32.9739   ZY=    -4.7399
   XZ=    -1.3795   YZ=    -3.8029   ZZ=    29.8224
   Eigenvalues:    24.6824    26.8536    36.0557
    107  H    Isotropic =    29.1606   Anisotropy =    10.4192
   XX=    26.0760   YX=     0.6921   ZX=    -4.7298
   XY=     0.8980   YY=    31.9177   ZY=     3.9875
   XZ=    -3.3745   YZ=     5.7223   ZZ=    29.4881
   Eigenvalues:    22.0754    29.2996    36.1067
    108  C    Isotropic =   168.8521   Anisotropy =    23.7019
   XX=   157.7273   YX=     0.1287   ZX=     2.3571
   XY=     6.6704   YY=   166.2640   ZY=     7.7320
   XZ=     1.5801   YZ=     3.5898   ZZ=   182.5650
   Eigenvalues:   156.5389   165.3641   184.6534
    109  H    Isotropic =    28.9177   Anisotropy =     4.7487
   XX=    31.3739   YX=     0.2217   ZX=     0.8390
   XY=     1.0868   YY=    27.2773   ZY=     0.7050
   XZ=     1.9247   YZ=     1.4049   ZZ=    28.1019
   Eigenvalues:    26.5420    28.1276    32.0835
    110  H    Isotropic =    29.4279   Anisotropy =    11.3070
   XX=    25.4244   YX=    -1.9707   ZX=    -2.5383
   XY=    -0.5637   YY=    35.0547   ZY=     4.2931
   XZ=    -1.1329   YZ=     3.2329   ZZ=    27.8047
   Eigenvalues:    24.3624    26.9554    36.9659
    111  H    Isotropic =    30.1560   Anisotropy =     6.4748
   XX=    27.2134   YX=     2.9202   ZX=    -2.1853
   XY=     3.0531   YY=    31.8119   ZY=     0.3560
   XZ=    -2.7768   YZ=    -1.8493   ZZ=    31.4426
   Eigenvalues:    25.1364    30.8590    34.4725
    112  O    Isotropic =   252.0885   Anisotropy =   117.9558
   XX=   311.9313   YX=   -18.7344   ZX=    39.9346
   XY=   -31.6862   YY=   234.3045   ZY=    -7.3731
   XZ=    36.7916   YZ=     7.2619   ZZ=   210.0298
   Eigenvalues:   195.3740   230.1659   330.7257
    113  C    Isotropic =   126.1897   Anisotropy =    87.6292
   XX=    99.7304   YX=    -8.4317   ZX=     2.6090
   XY=    -3.9553   YY=   181.6621   ZY=   -13.6711
   XZ=     1.5217   YZ=   -15.5598   ZZ=    97.1768
   Eigenvalues:    94.5055    99.4544   184.6092
    114  H    Isotropic =    27.5983   Anisotropy =    11.6833
   XX=    25.4486   YX=     2.4006   ZX=     0.6222
   XY=     6.2125   YY=    33.4886   ZY=     1.1134
   XZ=    -0.0198   YZ=    -0.1522   ZZ=    23.8576
   Eigenvalues:    23.5516    23.8560    35.3871
    115  H    Isotropic =    27.8204   Anisotropy =    10.1188
   XX=    22.0900   YX=    -1.1215   ZX=     0.8254
   XY=     1.2928   YY=    33.5473   ZY=    -4.1207
   XZ=    -0.6728   YZ=    -1.1206   ZZ=    27.8238
   Eigenvalues:    22.0875    26.8074    34.5662
    116  H    Isotropic =    28.1741   Anisotropy =    11.0271
   XX=    24.5449   YX=    -2.5490   ZX=    -2.3325
   XY=    -2.0403   YY=    34.9260   ZY=     2.1921
   XZ=    -1.1910   YZ=    -0.7171   ZZ=    25.0515
   Eigenvalues:    22.8747    26.1221    35.5255
 End of Minotr F.D. properties file   721 does not exist.
 End of Minotr F.D. properties file   722 does not exist.
 End of Minotr F.D. properties file   788 does not exist.
 Hyperfine terms turned off by default for NAtoms > 100.

 **********************************************************************

            Population analysis using the SCF Density.

 **********************************************************************

 Orbital symmetries:
       Occupied  (A) (A) (A) (A) (A) (A) (A) (A) (A) (A) (A) (A)
                 (A) (A) (A) (A) (A) (A) (A) (A) (A) (A) (A) (A)
                 (A) (A) (A) (A) (A) (A) (A) (A) (A) (A) (A) (A)
                 (A) (A) (A) (A) (A) (A) (A) (A) (A) (A) (A) (A)
                 (A) (A) (A) (A) (A) (A) (A) (A) (A) (A) (A) (A)
                 (A) (A) (A) (A) (A) (A) (A) (A) (A) (A) (A) (A)
                 (A) (A) (A) (A) (A) (A) (A) (A) (A) (A) (A) (A)
                 (A) (A) (A) (A) (A) (A) (A) (A) (A) (A) (A) (A)
                 (A) (A) (A) (A) (A) (A) (A) (A) (A) (A) (A) (A)
                 (A) (A) (A) (A) (A) (A) (A) (A) (A) (A) (A) (A)
                 (A) (A) (A) (A) (A) (A) (A) (A) (A) (A) (A) (A)
                 (A) (A) (A) (A) (A) (A) (A) (A) (A) (A) (A) (A)
                 (A) (A) (A) (A) (A) (A) (A) (A) (A) (A) (A) (A)
                 (A) (A) (A) (A) (A) (A) (A) (A) (A) (A) (A) (A)
                 (A) (A) (A) (A) (A) (A) (A) (A) (A) (A) (A) (A)
                 (A) (A) (A) (A) (A) (A) (A) (A) (A) (A) (A) (A)
                 (A) (A) (A) (A) (A) (A) (A) (A) (A) (A) (A) (A)
                 (A) (A) (A) (A) (A) (A) (A) (A) (A) (A) (A) (A)
                 (A) (A) (A) (A) (A) (A) (A) (A) (A) (A) (A) (A)
                 (A) (A) (A) (A) (A) (A) (A) (A) (A) (A) (A) (A)
                 (A) (A) (A) (A) (A) (A) (A) (A) (A) (A) (A) (A)
                 (A) (A) (A) (A) (A) (A) (A) (A) (A) (A) (A) (A)
                 (A) (A) (A) (A) (A) (A) (A) (A) (A) (A) (A) (A)
                 (A) (A) (A) (A) (A) (A) (A) (A) (A) (A) (A) (A)
                 (A)
       Virtual   (A) (A) (A) (A) (A) (A) (A) (A) (A) (A) (A) (A)
                 (A) (A) (A) (A) (A) (A) (A) (A) (A) (A) (A) (A)
                 (A) (A) (A) (A) (A) (A) (A) (A) (A) (A) (A) (A)
                 (A) (A) (A) (A) (A) (A) (A) (A) (A) (A) (A) (A)
                 (A) (A) (A) (A) (A) (A) (A) (A) (A) (A) (A) (A)
                 (A) (A) (A) (A) (A) (A) (A) (A) (A) (A) (A) (A)
                 (A) (A) (A) (A) (A) (A) (A) (A) (A) (A) (A) (A)
                 (A) (A) (A) (A) (A) (A) (A) (A) (A) (A) (A) (A)
                 (A) (A) (A) (A) (A) (A) (A) (A) (A) (A) (A) (A)
                 (A) (A) (A) (A) (A) (A) (A) (A) (A) (A) (A) (A)
                 (A) (A) (A) (A) (A) (A) (A) (A) (A) (A) (A) (A)
                 (A) (A) (A) (A) (A) (A) (A) (A) (A) (A) (A) (A)
                 (A) (A) (A) (A) (A) (A) (A) (A) (A) (A) (A) (A)
                 (A) (A) (A) (A) (A) (A) (A) (A) (A) (A) (A) (A)
                 (A) (A) (A) (A) (A) (A) (A) (A) (A) (A) (A) (A)
                 (A) (A) (A) (A) (A) (A) (A) (A) (A) (A) (A) (A)
                 (A) (A) (A) (A) (A) (A) (A) (A) (A) (A) (A) (A)
                 (A) (A) (A) (A) (A) (A) (A) (A) (A) (A) (A) (A)
                 (A) (A) (A) (A) (A) (A) (A) (A) (A) (A) (A) (A)
                 (A) (A) (A) (A) (A) (A) (A) (A) (A) (A) (A) (A)
                 (A) (A) (A) (A) (A) (A) (A) (A) (A) (A) (A) (A)
                 (A) (A) (A) (A) (A) (A) (A) (A) (A) (A) (A) (A)
                 (A) (A) (A) (A) (A) (A) (A) (A) (A) (A) (A) (A)
                 (A) (A) (A) (A) (A) (A) (A) (A) (A) (A) (A) (A)
                 (A) (A) (A) (A) (A) (A) (A) (A) (A) (A) (A) (A)
                 (A) (A) (A) (A) (A) (A) (A) (A) (A) (A) (A) (A)
                 (A) (A) (A) (A) (A) (A) (A) (A) (A) (A) (A) (A)
                 (A) (A) (A) (A) (A) (A) (A) (A) (A) (A) (A) (A)
                 (A) (A) (A) (A) (A) (A) (A) (A) (A) (A) (A) (A)
                 (A) (A) (A) (A) (A) (A) (A) (A) (A) (A) (A) (A)
                 (A) (A) (A) (A) (A) (A) (A) (A) (A) (A) (A) (A)
                 (A) (A) (A) (A) (A) (A) (A) (A) (A) (A) (A) (A)
                 (A) (A) (A) (A) (A) (A) (A) (A) (A) (A) (A) (A)
                 (A) (A) (A) (A) (A) (A) (A) (A) (A) (A) (A) (A)
                 (A) (A) (A) (A) (A) (A) (A) (A) (A) (A) (A) (A)
                 (A) (A) (A) (A) (A) (A) (A) (A) (A) (A) (A) (A)
                 (A) (A) (A) (A) (A) (A) (A) (A) (A) (A) (A) (A)
                 (A) (A) (A) (A) (A) (A) (A) (A) (A) (A) (A) (A)
                 (A) (A) (A) (A) (A) (A) (A) (A) (A) (A) (A) (A)
                 (A) (A) (A) (A) (A) (A) (A) (A) (A) (A) (A) (A)
                 (A) (A) (A) (A) (A) (A) (A) (A) (A) (A) (A) (A)
                 (A) (A) (A) (A) (A) (A) (A) (A) (A) (A) (A) (A)
                 (A) (A) (A) (A) (A) (A) (A) (A) (A) (A) (A) (A)
                 (A) (A) (A) (A) (A) (A) (A) (A) (A) (A) (A) (A)
                 (A) (A) (A) (A) (A) (A) (A) (A) (A) (A) (A) (A)
                 (A) (A) (A) (A) (A) (A) (A) (A) (A) (A) (A) (A)
                 (A) (A) (A) (A) (A) (A) (A) (A) (A) (A) (A) (A)
                 (A) (A) (A) (A) (A) (A) (A) (A) (A) (A) (A) (A)
                 (A) (A) (A) (A) (A) (A) (A) (A) (A) (A) (A) (A)
                 (A) (A) (A) (A) (A) (A) (A) (A) (A) (A) (A) (A)
                 (A) (A) (A) (A) (A) (A) (A) (A) (A) (A) (A) (A)
                 (A) (A) (A) (A) (A) (A) (A) (A) (A) (A) (A) (A)
                 (A) (A) (A) (A) (A) (A) (A) (A) (A) (A) (A) (A)
                 (A) (A) (A) (A) (A) (A) (A) (A) (A) (A) (A) (A)
                 (A) (A) (A) (A) (A) (A) (A) (A) (A) (A) (A) (A)
                 (A) (A) (A) (A) (A) (A) (A) (A) (A) (A) (A) (A)
                 (A) (A) (A) (A) (A) (A) (A) (A) (A) (A) (A) (A)
                 (A) (A) (A) (A) (A) (A) (A) (A) (A) (A) (A) (A)
                 (A) (A) (A) (A) (A) (A) (A) (A) (A) (A) (A) (A)
                 (A) (A) (A) (A) (A) (A) (A) (A) (A) (A) (A) (A)
                 (A) (A) (A) (A) (A) (A) (A) (A) (A) (A) (A) (A)
[...]
                                                    721(r),2020(r),684(r)
                                                    1822(r),1718(r),1870(r)
                                                    1600(r),1844(r),601(r)
                                                    1034(r),511(r),1499(r)
                                                    1847(r),1908(r),1572(r)
                                                    1065(r),1722(r),1727(r)
                                                    602(r),457(r),590(r),1824(r)
                                                    1569(r),1495(r),1497(r)
  1676. RY*(   1)Cl  69                  0.00115     0.77836   
  1677. RY*(   2)Cl  69                  0.00112     0.94429   
  1678. RY*(   3)Cl  69                  0.00098     1.01649   
  1679. RY*(   4)Cl  69                  0.00031     0.90201   
  1680. RY*(   5)Cl  69                  0.00013     1.19036   
  1681. RY*(   6)Cl  69                  0.00010     1.02471   
  1682. RY*(   7)Cl  69                  0.00010     2.54105   
  1683. RY*(   8)Cl  69                  0.00005     1.63202   
  1684. RY*(   9)Cl  69                  0.00006     1.49541   
  1685. RY*(  10)Cl  69                  0.00003     2.25456   
  1686. RY*(  11)Cl  69                  0.00001     2.19727   
  1687. RY*(  12)Cl  69                  0.00000    10.64704   
  1688. RY*(  13)Cl  69                  0.00000    24.79810   
  1689. RY*(  14)Cl  69                  0.00000     2.80484   
  1690. RY*(  15)Cl  69                  0.00001     1.98429   
  1691. RY*(  16)Cl  69                  0.00000    10.60456   
  1692. RY*(  17)Cl  69                  0.00001     2.10341   
  1693. RY*(  18)Cl  69                  0.00001     2.76386   
  1694. RY*(  19)Cl  69                  0.00001     2.00576   
  1695. RY*(  20)Cl  69                  0.00001     2.64850   
  1696. RY*(  21)Cl  69                  0.00000    10.66111   
  1697. RY*(  22)Cl  69                  0.00000     2.11513   
  1698. RY*(  23)Cl  69                  0.00000     2.21076   
  1699. RY*(  24)Cl  69                  0.00000     2.19296   
  1700. RY*(  25)Cl  69                  0.00000     2.23205   
  1701. RY*(  26)Cl  69                  0.00000     2.09615   
  1702. RY*(  27)Cl  69                  0.00000     2.20177   
  1703. RY*(  28)Cl  69                  0.00000     2.21097   
       -------------------------------
              Total Lewis   17.37540  ( 99.9764%)
        Valence non-Lewis    0.00000  (  0.0000%)
        Rydberg non-Lewis    0.00411  (  0.0236%)
       -------------------------------
            Total unit  4   17.37950  (100.0000%)
           Charge unit  4   -0.37950
 
 Molecular unit  5  (Cl)
   204. CR (   1)Cl  70                  2.00000   -99.97490  293(r),292(r)
   205. CR (   2)Cl  70                  1.99972   -10.69101  293(r),292(r),2079(r)
                                                    2428(r),2081(r),2476(r)
   206. CR (   3)Cl  70                  1.99997    -7.17254  292(r),293(r)
   207. CR (   4)Cl  70                  1.99996    -7.17411  293(r),292(r)
   208. CR (   5)Cl  70                  1.99996    -7.17417  293(r),2476(r)
   284. LP (   1)Cl  70                  1.95418    -0.31209  292(r),293(r),294(r),243(r)
                                                    2438(r),2428(r),2080(r)
                                                    2100(r),2443(r),2101(r)
                                                    2086(r),2427(r),2079(r)
                                                    2442(r),14(r),2084(r)
                                                    2081(r),2441(r),2437(r)
                                                    2432(r),2091(r),2094(r)
                                                    2090(r),2085(r),651(r)
                                                    625(r),2429(r),2083(r)
                                                    2089(r),2096(r),2099(r)
   285. LP (   2)Cl  70                  1.95269    -0.85050  293(r),292(r),2085(r)
                                                    2081(r),2080(r),2098(r)
                                                    1483(r),2079(r),2101(r)
                                                    2083(r),2088(r),2100(r)
                                                    2438(r),2099(r),2428(r)
                                                    2089(r),2476(r),1482(r)
                                                    650(r),2094(r),1496(r)
                                                    2093(r),2092(r),1494(r)
                                                    2443(r),1484(r),1491(r)
                                                    1991(r),1968(r),2082(r)
                                                    2442(r),1841(r),1679(r)
                                                    1842(r),2437(r),2090(r)
                                                    1852(r),2429(r),1995(r)
                                                    539(r),1490(r),1818(r)
                                                    2003(r),657(r),1500(r)
                                                    1993(r),660(r),1488(r)
                                                    661(r)
   286. LP (   3)Cl  70                  1.94616    -0.27287  294(r),293(r),243(r),2428(r)
                                                    14(r),292(r),2432(r),2079(r)
                                                    592(r),2091(r),2441(r)
                                                    2443(r),2083(r),2100(r)
                                                    2101(r),2089(r),2084(r)
                                                    2082(r),2424(r),2095(r)
                                                    2438(r),2419(r),591(r)
                                                    2085(r),2081(r),237(r)
                                                    2069(r),238(r),2086(r)
                                                    2512(r),2418(r),2425(r)
   287. LP (   4)Cl  70                  1.57061    -0.39176  293(r),2476(r),292(r)
                                                    2094(r),2096(r),2090(r)
                                                    2093(r),2098(r),1482(r)
                                                    650(r),2089(r),1483(r)
                                                    2429(r),2428(r),624(r)
                                                    2085(r),2082(r),2083(r)
                                                    1491(r),1706(g),2080(r)
                                                    2095(r),1842(r),2088(r)
                                                    1035(r),1490(r),1711(g)
                                                    1025(r),661(r),1992(r)
                                                    660(r),2086(r),678(r),803(r)
                                                    563(r),657(r),658(r),1841(r)
                                                    1026(r),1496(r),1991(r)
                                                    1682(r),565(r),1852(r)
                                                    1027(r),1995(r),664(r)
                                                    1487(r),652(r),1588(r)
                                                    294(r),2097(r),1484(r)
                                                    831(r),663(r),1713(g)
                                                    1494(r),1818(r),1590(r)
                                                    1589(r),1968(r),1817(r)
                                                    656(r),1819(r),1851(r)
                                                    665(r),1566(r),1139(r)
                                                    630(r),1618(r),568(r)
                                                    1680(r),1054(r),2087(r)
                                                    2101(r),2092(r),1061(r)
                                                    1489(r),1993(r),832(r)
                                                    830(r),1038(r),1690(r)
                                                    653(r),1676(r),1134(r)
                                                    1617(r),1843(r),667(r)
                                                    2003(r),1846(r),462(r)
                                                    1051(r),631(r),1967(r)
                                                    1052(r),780(r),1503(r)
                                                    1039(r),628(r),654(r),662(r)
                                                    2099(r),2000(r),566(r)
                                                    1998(r),2100(r),1619(r)
                                                    641(r),572(r),1030(r)
                                                    1678(r),1592(r),637(r)
                                                    1010(r),1994(r),1971(r)
                                                    1677(r),591(r),1492(r)
                                                    1869(r),636(r),629(r)
                                                    2006(r),1006(r),1040(r)
                                                    242(r),693(r),14(r),1974(r)
                                                    1059(r),802(r),536(r)
                                                    1060(r),812(r),1871(r)
                                                    1488(r),1603(r),2432(r)
                                                    804(r),1942(r),463(r)
                                                    2004(r),634(r),1997(r)
                                                    807(r),679(r),1823(r),651(r)
                                                    2022(r),1679(r),1681(r)
                                                    1855(r),1854(r),590(r)
                                                    692(r),1845(r),829(r)
                                                    2438(r),835(r),2427(r)
                                                    1666(r),1853(r),1876(r)
                                                    2069(r),2002(r),2020(r)
                                                    571(r),2475(r),2026(r)
                                                    1684(r),632(r),458(r)
                                                    1593(r),239(r),1502(r)
                                                    1624(r),517(r),999(r)
                                                    2419(r),470(r),1815(r)
                                                    1571(r),2474(r),1591(r)
                                                    785(r),2441(r),459(r),593(r)
                                                    1870(r),1504(r),243(r)
                                                    461(r),779(r),1976(r)
                                                    1569(r),1002(r),1499(r)
                                                    676(r),691(r),1486(r),471(r)
                                                    594(r),1600(r),828(r)
                                                    1622(r),2091(r),596(r)
                                                    579(r),2081(r),1495(r)
                                                    1620(r),814(r),1034(r)
                                                    1065(r),683(r),1952(r)
                                                    457(r),1977(r),544(r)
                                                    1792(r),1972(r),1493(r)
                                                    511(r),806(r),1572(r)
                                                    1055(r),1565(r),1671(r)
                                                    1868(r),1573(r),1626(r)
                                                    2001(r)
  1704. RY*(   1)Cl  70                  0.00113     0.84158   
  1705. RY*(   2)Cl  70                  0.00099     0.73438   
  1706. RY*(   3)Cl  70                  0.00083     0.93027   
  1707. RY*(   4)Cl  70                  0.00033     1.05307   
  1708. RY*(   5)Cl  70                  0.00028     0.89479   
  1709. RY*(   6)Cl  70                  0.00011     1.54577   
  1710. RY*(   7)Cl  70                  0.00008     1.86260   
  1711. RY*(   8)Cl  70                  0.00007     1.74816   
  1712. RY*(   9)Cl  70                  0.00005     1.63940   
  1713. RY*(  10)Cl  70                  0.00006     2.51858   
  1714. RY*(  11)Cl  70                  0.00000    10.58938   
  1715. RY*(  12)Cl  70                  0.00000    10.55541   
  1716. RY*(  13)Cl  70                  0.00001     2.11579   
  1717. RY*(  14)Cl  70                  0.00000    25.17043   
  1718. RY*(  15)Cl  70                  0.00001     2.02112   
  1719. RY*(  16)Cl  70                  0.00001     2.79500   
  1720. RY*(  17)Cl  70                  0.00001     1.93228   
  1721. RY*(  18)Cl  70                  0.00000    10.58748   
  1722. RY*(  19)Cl  70                  0.00001     1.98377   
  1723. RY*(  20)Cl  70                  0.00001     2.51426   
  1724. RY*(  21)Cl  70                  0.00000     2.63671   
  1725. RY*(  22)Cl  70                  0.00000     2.21035   
  1726. RY*(  23)Cl  70                  0.00000     2.23250   
  1727. RY*(  24)Cl  70                  0.00000     2.19541   
  1728. RY*(  25)Cl  70                  0.00000     2.18125   
  1729. RY*(  26)Cl  70                  0.00000     2.20814   
  1730. RY*(  27)Cl  70                  0.00001     2.19609   
  1731. RY*(  28)Cl  70                  0.00000     2.18097   
       -------------------------------
              Total Lewis   17.42325  ( 99.9770%)
        Valence non-Lewis    0.00000  (  0.0000%)
        Rydberg non-Lewis    0.00400  (  0.0230%)
       -------------------------------
            Total unit  5   17.42726  (100.0000%)
           Charge unit  5   -0.42726
 1\1\GINC-NOTCH212\SP\RPBE1PBE\Gen\C52H44Cl2F12Fe1O2P2Pd1\U6034117\04-M
 ar-2022\0\\# PBE1PBE gen pseudo=read int=(grid=ultrafine) empiricaldis
 persion=GD3BJ pop=nbo guess=read geom=check\\W005_1_2 title\\0,1\C,0,2
 .3206204861,-2.2471112849,5.801183945\C,0,3.4245318985,-1.5762482694,6
 .4280272114\C,0,4.5946169397,-2.3932475096,6.2587037698\C,0,4.21443938
 04,-3.5699841899,5.5275323961\C,0,2.8064020378,-3.479101266,5.24529495
 32\H,0,3.3930792409,-0.5925013646,6.8976458479\H,0,5.6050394993,-2.137
 7073177,6.5797563677\H,0,4.8864519564,-4.370065754,5.214532492\H,0,2.2
 026141641,-4.2086789251,4.7038098078\H,0,1.2965700614,-1.8780567584,5.
 7393296644\Fe,0,3.8146290238,-1.8738351093,4.4397439827\C,0,5.03025197
 47,-0.361845622,3.7734929187\C,0,5.2899541077,-1.5668191337,3.05036654
 54\C,0,4.0739810446,-1.9870029274,2.3946590555\C,0,3.0371269437,-1.029
 6880307,2.7577428549\C,0,3.6542349281,-0.0282936494,3.5924494492\H,0,5
 .7433412346,0.1839152616,4.3908630994\H,0,3.1477448726,0.8299878808,4.
 0274135505\C,0,1.6155171268,-0.9761345776,2.2547998752\P,0,1.727578144
 1,-0.4066006675,0.4372748321\H,0,1.1888819207,-1.9942972175,2.23017758
 91\C,0,0.7170289314,-0.0531016035,3.090574039\H,0,-0.3427038709,-0.154
 1349459,2.8120876348\H,0,0.8195893166,-0.3220242223,4.1547317892\H,0,1
 .0132758583,1.0008109858,2.9645696717\C,0,-1.4794171751,2.5372287439,-
 1.1721071614\C,0,-0.1147457377,2.7688173989,-1.3897225483\C,0,0.852792
 0171,1.9360705784,-0.8107903935\C,0,0.4579928284,0.8566638182,-0.00219
 86285\C,0,-0.9099676887,0.6235951393,0.218254545\C,0,-1.8708497852,1.4
 61891857,-0.3643944496\H,0,-2.2314211476,3.1748562318,-1.6429162147\C,
 0,0.3288752861,3.9405844606,-2.2327389371\H,0,1.9153160336,2.112016032
 ,-0.9938971419\H,0,-1.2448971002,-0.2413270131,0.7971301312\C,0,-3.329
 3429284,1.0986853386,-0.2337581272\C,0,-0.3373684819,-3.8605720835,-1.
 9808240055\C,0,0.4745394013,-4.1708168566,-0.8838278778\C,0,1.10834909
 61,-3.1592316474,-0.1451522732\C,0,0.9680781841,-1.8116529814,-0.52302
 41256\C,0,0.2049932833,-1.5134565581,-1.66976147\C,0,-0.4607754962,-2.
 5225692083,-2.3716138125\H,0,-0.8493416138,-4.6510268477,-2.5344690192
 \C,0,0.7443259717,-5.6181722312,-0.5631038419\H,0,1.7231832881,-3.4440
 709376,0.7111660045\H,0,0.1116752028,-0.4866582144,-2.0251953376\C,0,-
 1.3871573762,-2.1401221285,-3.5012633745\F,0,-2.644850808,-1.902611600
 4,-3.0358918503\F,0,-0.9745485577,-1.0105437797,-4.1331088352\F,0,-1.4
 8364835,-3.1314461848,-4.4311748952\F,0,1.0656064331,-5.8088639067,0.7
 428706202\F,0,-0.3214599321,-6.4107734851,-0.8493404311\F,0,1.79648598
 41,-6.0892924188,-1.3084920501\F,0,-0.607297868,4.2680102846,-3.165035
 3016\F,0,0.5517901441,5.04368005,-1.4759154338\F,0,1.4907526886,3.6653
 077975,-2.8947519563\F,0,-3.6709104941,0.1469250205,-1.1487935704\F,0,
 -3.6085753382,0.5861094645,0.9964750789\F,0,-4.1423628595,2.1674510962
 ,-0.4354656004\P,0,4.6116564455,-1.5440281046,-0.8648272582\C,0,8.9659
 598252,-1.9055506148,-2.3573596542\C,0,7.931626226,-1.8804731571,-3.31
 59585752\C,0,6.6084196042,-1.7517050903,-2.864257934\C,0,6.3265032865,
 -1.6557933908,-1.4913530085\C,0,7.3779366429,-1.6613764884,-0.55744026
 15\C,0,8.7106509881,-1.7845772976,-0.9725334122\H,0,5.7949687188,-1.72
 79795939,-3.5962906841\H,0,7.160226573,-1.5313484225,0.5074696017\Cl,0
 ,6.078270565,1.2355662545,0.1968397761\Cl,0,3.0970967913,2.2867946455,
 1.3848461767\H,0,6.2353614741,-2.1087163814,3.0035063212\C,0,4.6489068
 844,-5.5492965752,0.0244583652\C,0,4.1676126645,-5.6294235405,1.335445
 7217\C,0,3.9268754326,-4.4554452381,2.0573725217\C,0,4.0906383999,-3.1
 739353721,1.4896183989\C,0,4.483210331,-3.1034776025,0.1209262571\C,0,
 4.8179409039,-4.2921865604,-0.563985494\H,0,4.8944313706,-6.4547107547
 ,-0.5388457007\H,0,4.0131522305,-6.6028134171,1.8115965207\H,0,3.63433
 97726,-4.5029668704,3.1064561982\H,0,5.2361321628,-4.223723058,-1.5731
 102212\C,0,2.0603096145,-1.8107345981,-4.7323626587\C,0,2.469495743,-0
 .5597221845,-4.2177387814\C,0,3.2340625931,-0.5520211773,-3.0398425707
 \C,0,3.5704967416,-1.7479181434,-2.3727143961\C,0,3.1063702375,-2.9706
 505733,-2.8852825399\C,0,2.3531497124,-3.0215129911,-4.0689859685\H,0,
 3.5529010113,0.4071128567,-2.6115762197\H,0,3.2775100196,-3.904754657,
 -2.3454918142\Pd,0,3.8987751117,0.3417109193,0.2026208121\C,0,8.258171
 6914,-1.9705028079,-4.7866048434\H,0,7.3505260298,-1.8395531614,-5.397
 7597301\H,0,8.991208018,-1.1990798108,-5.076511705\H,0,8.7064943885,-2
 .9458397525,-5.0496386309\C,0,9.8405808151,-1.7374529781,0.0265426918\
 H,0,9.5644897912,-1.1131102645,0.8919493369\H,0,10.0945664851,-2.74320
 01463,0.4116277249\H,0,10.749749664,-1.3194188025,-0.4343908095\O,0,10
 .2738926302,-1.9783368232,-2.8181110337\C,0,10.83255485,-3.2944223902,
 -2.7387226921\H,0,10.8920603401,-3.6538990397,-1.693757109\H,0,10.2403
 440451,-4.0191352555,-3.3306948712\H,0,11.8485565017,-3.2250650764,-3.
 156762929\C,0,2.0400607258,0.7236490969,-4.8849500504\H,0,1.0515491586
 ,0.5964880935,-5.3548701514\H,0,2.7463647354,1.0319175331,-5.678172454
 6\H,0,1.9851388546,1.5516256626,-4.1602735528\C,0,1.8255553481,-4.3317
 857244,-4.6007075919\H,0,0.7814130823,-4.2241808202,-4.9341057853\H,0,
 2.4080417308,-4.6817480929,-5.4729942884\H,0,1.8763098729,-5.113742080
 1,-3.8257758761\O,0,1.2621674308,-1.8613381008,-5.8639075756\C,0,2.006
 9207221,-1.8220776509,-7.0877773927\H,0,1.2672563419,-1.8822547439,-7.
 9003696869\H,0,2.5824769221,-0.8821742722,-7.1851858547\H,0,2.70484742
 06,-2.6783244232,-7.1607057153\\Version=ES64L-G16RevB.01\State=1-A\HF=
 -5208.9589646\RMSD=2.434e-09\Dipole=0.515989,-3.9164438,-0.664191\Quad
 rupole=-4.8341918,-17.8927787,22.7269705,-23.3783098,-6.196589,1.49682
 93\PG=C01 [X(C52H44Cl2F12Fe1O2P2Pd1)]\\@


 FROM THE ASHES OF OUR DESPAIR GROW THE FLOWERS OF TOMORROW.
 Job cpu time:       0 days  5 hours 32 minutes 36.1 seconds.
 Elapsed time:       0 days  0 hours  6 minutes 26.8 seconds.
 File lengths (MBytes):  RWF=   3276 Int=      0 D2E=      0 Chk=    493 Scr=      1
 Normal termination of Gaussian 16 at Fri Mar  4 04:12:47 2022.
