 Entering Gaussian System, Link 0=/uufs/chpc.utah.edu/sys/installdir/gaussian16/B01/E6B/g16/g16
 Input=W005_1_1_SPE.com
 Output=W005_1_1_SPE.log
 Initial command:
 /uufs/chpc.utah.edu/sys/installdir/gaussian16/B01/E6B/g16/l1.exe "/scratch/general/lustre/u6034117/4108802/notchpeak.peaks/Gau-45754.inp" -scrdir="/scratch/general/lustre/u6034117/4108802/notchpeak.peaks/"
 Entering Link 1 = /uufs/chpc.utah.edu/sys/installdir/gaussian16/B01/E6B/g16/l1.exe PID=     45757.
  
 Copyright (c) 1988-2017, Gaussian, Inc.  All Rights Reserved.
  
 This is part of the Gaussian(R) 16 program.  It is based on
 the Gaussian(R) 09 system (copyright 2009, Gaussian, Inc.),
 the Gaussian(R) 03 system (copyright 2003, Gaussian, Inc.),
 the Gaussian(R) 98 system (copyright 1998, Gaussian, Inc.),
 the Gaussian(R) 94 system (copyright 1995, Gaussian, Inc.),
 the Gaussian 92(TM) system (copyright 1992, Gaussian, Inc.),
 the Gaussian 90(TM) system (copyright 1990, Gaussian, Inc.),
 the Gaussian 88(TM) system (copyright 1988, Gaussian, Inc.),
 the Gaussian 86(TM) system (copyright 1986, Carnegie Mellon
 University), and the Gaussian 82(TM) system (copyright 1983,
 Carnegie Mellon University). Gaussian is a federally registered
 trademark of Gaussian, Inc.
  
 This software contains proprietary and confidential information,
 including trade secrets, belonging to Gaussian, Inc.
  
 This software is provided under written license and may be
 used, copied, transmitted, or stored only in accord with that
 written license.
  
 The following legend is applicable only to US Government
 contracts under FAR:
  
                    RESTRICTED RIGHTS LEGEND
  
 Use, reproduction and disclosure by the US Government is
 subject to restrictions as set forth in subparagraphs (a)
 and (c) of the Commercial Computer Software - Restricted
 Rights clause in FAR 52.227-19.
  
 Gaussian, Inc.
 340 Quinnipiac St., Bldg. 40, Wallingford CT 06492
  
  
 ---------------------------------------------------------------
 Warning -- This program may not be used in any manner that
 competes with the business of Gaussian, Inc. or will provide
 assistance to any competitor of Gaussian, Inc.  The licensee
 of this program is prohibited from giving any competitor of
 Gaussian, Inc. access to this program.  By using this program,
 the user acknowledges that Gaussian, Inc. is engaged in the
 business of creating and licensing software in the field of
 computational chemistry and represents and warrants to the
 licensee that it is not a competitor of Gaussian, Inc. and that
 it will not use this program in any manner prohibited above.
 ---------------------------------------------------------------
  

 Cite this work as:
 Gaussian 16, Revision B.01,
 M. J. Frisch, G. W. Trucks, H. B. Schlegel, G. E. Scuseria, 
 M. A. Robb, J. R. Cheeseman, G. Scalmani, V. Barone, 
 G. A. Petersson, H. Nakatsuji, X. Li, M. Caricato, A. V. Marenich, 
 J. Bloino, B. G. Janesko, R. Gomperts, B. Mennucci, H. P. Hratchian, 
 J. V. Ortiz, A. F. Izmaylov, J. L. Sonnenberg, D. Williams-Young, 
 F. Ding, F. Lipparini, F. Egidi, J. Goings, B. Peng, A. Petrone, 
 T. Henderson, D. Ranasinghe, V. G. Zakrzewski, J. Gao, N. Rega, 
 G. Zheng, W. Liang, M. Hada, M. Ehara, K. Toyota, R. Fukuda, 
 J. Hasegawa, M. Ishida, T. Nakajima, Y. Honda, O. Kitao, H. Nakai, 
 T. Vreven, K. Throssell, J. A. Montgomery, Jr., J. E. Peralta, 
 F. Ogliaro, M. J. Bearpark, J. J. Heyd, E. N. Brothers, K. N. Kudin, 
 V. N. Staroverov, T. A. Keith, R. Kobayashi, J. Normand, 
 K. Raghavachari, A. P. Rendell, J. C. Burant, S. S. Iyengar, 
 J. Tomasi, M. Cossi, J. M. Millam, M. Klene, C. Adamo, R. Cammi, 
 J. W. Ochterski, R. L. Martin, K. Morokuma, O. Farkas, 
 J. B. Foresman, and D. J. Fox, Gaussian, Inc., Wallingford CT, 2016.
 
 ******************************************
 Gaussian 16:  ES64L-G16RevB.01 20-Dec-2017
                 3-Mar-2022 
 ******************************************
 %NProcShared=32
 Will use up to   32 processors via shared memory.
 %mem=18GB
 %chk=W005_1_1_SPE.chk
 ----------------------------------------------------------------------
 # PBE1PBE gen pseudo=read int=(grid=ultrafine) empiricaldispersion=GD3
 BJ nmr=giao
 ----------------------------------------------------------------------
 1/38=1,172=1/1;
 2/12=2,17=6,18=5,40=1/2;
 3/5=7,11=2,16=1,17=8,25=1,30=1,74=-13,75=-5,124=41/1,2,3,8;
 4//1;
 5/5=2,38=5/2;
 8/6=1,10=90,11=11/1;
 10/13=100,45=16/2;
 6/7=2,8=2,9=2,10=2,28=1/1;
 99/9=1/99;
 --------------
 W005_1_1 title
 --------------
 Symbolic Z-matrix:
 Charge =  0 Multiplicity = 1
 C                     3.65099  -1.61245   5.82519 
 C                     5.07678  -1.44603   5.90009 
 C                     5.69157  -2.60196   5.30934 
 C                     4.64791  -3.48529   4.87211 
 C                     3.3841   -2.87389   5.18725 
 H                     5.59863  -0.56843   6.28312 
 H                     6.76178  -2.75821   5.16993 
 H                     4.79899  -4.43803   4.3635 
 H                     2.39658  -3.28347   4.96853 
 H                     2.9055   -0.89099   6.16146 
 Fe                    4.47447  -1.65362   3.95579 
 C                     5.48879  -0.18298   2.9461 
 C                     5.55102  -1.42142   2.23057 
 C                     4.20325  -1.8476    1.93981 
 C                     3.30283  -0.84953   2.50696 
 C                     4.11455   0.17468   3.10819 
 H                     6.34132   0.37212   3.33676 
 H                     3.74118   1.06238   3.61501 
 C                     1.80274  -0.8228    2.34075 
 P                     1.54406  -0.42334   0.49859 
 H                     1.41425  -1.83947   2.51437 
 C                     1.09543   0.16351   3.27844 
 H                     0.00014   0.07395   3.21134 
 H                     1.39709  -0.05695   4.31669 
 H                     1.37457   1.20112   3.03649 
 C                    -2.25215   2.01844  -0.62114 
 C                    -1.00193   2.33231  -1.17048 
 C                     0.14774   1.64377  -0.76389 
 C                     0.04858   0.60897   0.18125 
 C                    -1.20632   0.27194   0.71267 
 C                    -2.34728   0.98996   0.32553 
 H                    -3.14635   2.56299  -0.93428 
 C                    -0.8751    3.45797  -2.16932 
 H                     1.12519   1.91191  -1.17223 
 H                    -1.31368  -0.55805   1.4171 
 C                    -3.69737   0.58233   0.86247 
 C                    -0.35521  -4.17414  -1.5767 
 C                    -0.2126   -4.16264  -0.18498 
 C                     0.37134  -3.06883   0.46721 
 C                     0.83288  -1.9655   -0.2675 
 C                     0.67173  -1.97041  -1.66532 
 C                     0.09215  -3.0699   -2.31153 
 H                    -0.79952  -5.03458  -2.08361 
 C                    -0.6599   -5.37346   0.59619 
 H                     0.47711  -3.11578   1.55156 
 H                     1.0144   -1.1219   -2.2623 
 C                     0.05156  -3.1114   -3.81758 
 F                    -0.9144   -3.94559  -4.28197 
 F                    -0.17363  -1.8792   -4.35483 
 F                     1.24191  -3.55701  -4.32331 
 F                    -0.35604  -5.27623   1.91823 
 F                    -2.0003   -5.56995   0.49277 
 F                    -0.0571   -6.50546   0.12346 
 F                     0.16209   3.24698  -3.0296 
 F                    -2.00735   3.59075  -2.91433 
 F                    -0.65284   4.64744  -1.55591 
 F                    -4.26277  -0.38897   0.09115 
 F                    -3.60133   0.08163   2.12537 
 F                    -4.56503   1.62722   0.89326 
 P                     4.43699  -1.35314  -1.14644 
 C                     8.992    -2.12784  -1.45889 
 C                     8.42883  -1.00823  -2.10983 
 C                     7.04791  -0.7942   -1.98523 
 C                     6.24432  -1.66069  -1.22115 
 C                     6.83316  -2.76882  -0.5835 
 C                     8.20996  -3.01652  -0.69056 
 H                     6.59887   0.07893  -2.46471 
 H                     6.21867  -3.46416  -0.00369 
 Cl                    5.49408   1.73496  -0.68658 
 Cl                    2.67178   2.45961   0.98368 
 H                     6.45645  -1.96572   1.96607 
 C                     2.9025   -5.15584  -0.51613 
 C                     2.87688  -5.25815   0.88011 
 C                     3.30666  -4.18001   1.66271 
 C                     3.78496  -2.98924   1.08237 
 C                     3.80997  -2.89612  -0.34021 
 C                     3.36344  -3.97939  -1.11978 
 H                     2.53707  -5.97997  -1.13631 
 H                     2.49259  -6.16397   1.35872 
 H                     3.27464  -4.23663   2.75287 
 H                     3.33832  -3.88776  -2.20957 
 C                     3.18144  -1.34287  -5.60094 
 C                     2.68065  -0.34874  -4.73227 
 C                     3.08763  -0.38539  -3.39094 
 C                     3.95571  -1.38475  -2.91329 
 C                     4.48194  -2.32829  -3.81541 
 C                     4.09632  -2.32918  -5.16504 
 H                     2.74862   0.39504  -2.69647 
 H                     5.22062  -3.06162  -3.47138 
 Pd                    3.53087   0.53147  -0.17765 
 C                     9.28928  -0.03968  -2.88392 
 H                     8.86447   0.97599  -2.83631 
 H                     10.31289  -0.01611  -2.47686 
 H                     9.36094  -0.31581  -3.95287 
 C                     8.85535  -4.19014   0.0054 
 H                     8.12615  -4.7185    0.64125 
 H                     9.26632  -4.92064  -0.71493 
 H                     9.6997   -3.86198   0.6348 
 O                     10.36122  -2.3497   -1.5084 
 C                     10.7938  -2.98936  -2.71505 
 H                     10.30516  -3.97455  -2.84466 
 H                     10.58591  -2.36857  -3.60687 
 H                     11.88097  -3.13095  -2.61685 
 C                     1.74832   0.72095  -5.24335 
 H                     1.4756    1.42738  -4.443 
 H                     0.81514   0.28298  -5.63798 
 H                     2.2089    1.28744  -6.07014 
 C                     4.65854  -3.33847  -6.1351 
 H                     4.76334  -2.89843  -7.13969 
 H                     5.64313  -3.70199  -5.79837 
 H                     3.9981   -4.22074  -6.23071 
 O                     2.82383  -1.28645  -6.93776 
 C                     1.74034  -2.16281  -7.28497 
 H                     1.99106  -3.22115  -7.0848 
 H                     0.82315  -1.90711  -6.72515 
 H                     1.56957  -2.02282  -8.36286 
 
 Stoichiometry    C52H44Cl2F12FeO2P2Pd
 Framework group  C1[X(C52H44Cl2F12FeO2P2Pd)]
 Deg. of freedom   342
 Full point group                 C1      NOp   1
 Largest Abelian subgroup         C1      NOp   1
 Largest concise Abelian subgroup C1      NOp   1
                         Standard orientation:                         
 ---------------------------------------------------------------------
 Center     Atomic      Atomic             Coordinates (Angstroms)
 Number     Number       Type             X           Y           Z
 ---------------------------------------------------------------------
      1          6           0       -1.609139   -6.169637   -0.234881
      2          6           0       -2.950931   -6.103240   -0.746123
      3          6           0       -3.781780   -5.503854    0.260628
      4          6           0       -2.956429   -5.202470    1.395801
      5          6           0       -1.610824   -5.610556    1.090573
      6          1           0       -3.269415   -6.400073   -1.745960
      7          1           0       -4.842404   -5.270642    0.161207
      8          1           0       -3.296047   -4.720352    2.313099
      9          1           0       -0.740540   -5.502323    1.739944
     10          1           0       -0.738583   -6.545542   -0.773571
     11         26           0       -2.262110   -4.234146   -0.279017
     12          6           0       -2.796234   -3.075512   -1.886304
     13          6           0       -3.103726   -2.407330   -0.658063
     14          6           0       -1.883798   -2.262024    0.099116
     15          6           0       -0.814188   -2.871131   -0.684117
     16          6           0       -1.394162   -3.351878   -1.909631
     17          1           0       -3.514268   -3.361671   -2.654488
     18          1           0       -0.855799   -3.855741   -2.709981
     19          6           0        0.654481   -2.845984   -0.336242
     20         15           0        1.153004   -1.021891   -0.546480
     21          1           0        0.764488   -3.095882    0.731524
     22          6           0        1.504527   -3.805973   -1.177788
     23          1           0        2.545515   -3.845940   -0.821530
     24          1           0        1.074203   -4.819180   -1.101599
     25          1           0        1.510836   -3.497577   -2.235118
     26          6           0        5.512725   -0.168004   -1.921625
     27          6           0        4.427736    0.508715   -2.494512
     28          6           0        3.114491    0.185025   -2.131543
     29          6           0        2.877759   -0.805817   -1.164008
     30          6           0        3.963012   -1.466085   -0.566465
     31          6           0        5.273544   -1.159736   -0.961276
     32          1           0        6.536125    0.081038   -2.212848
     33          6           0        4.664548    1.559215   -3.553405
     34          1           0        2.270108    0.693971   -2.602769
     35          1           0        3.804382   -2.210068    0.219636
     36          6           0        6.432830   -1.837276   -0.272649
     37          6           0        2.230207    0.713883    3.673628
     38          6           0        1.981911   -0.656657    3.541918
     39          6           0        1.634906   -1.206754    2.301060
     40          6           0        1.521480   -0.388381    1.166357
     41          6           0        1.789800    0.986746    1.296554
     42          6           0        2.130699    1.531077    2.541486
     43          1           0        2.488150    1.141933    4.645719
     44          6           0        2.051270   -1.524198    4.774372
     45          1           0        1.432810   -2.277336    2.253867
     46          1           0        1.717014    1.646744    0.428872
     47          6           0        2.282391    3.023750    2.684594
     48          9           0        3.047063    3.361429    3.755041
     49          9           0        2.847803    3.586188    1.579306
     50          9           0        1.064180    3.621128    2.858871
     51          9           0        1.674115   -2.806812    4.524900
     52          9           0        3.305511   -1.555391    5.295804
     53          9           0        1.228283   -1.042387    5.753561
     54          9           0        3.681039    2.504225   -3.547260
     55          9           0        5.851361    2.198995   -3.361571
     56          9           0        4.693560    1.017451   -4.796854
     57          9           0        6.801887   -1.162032    0.852457
     58          9           0        6.113567   -3.104496    0.110811
     59          9           0        7.526090   -1.907877   -1.076006
     60         15           0       -1.735926    0.849795   -0.245517
     61          6           0       -6.300106    1.558594   -0.579833
     62          6           0       -5.426865    2.197804   -1.487183
     63          6           0       -4.050736    1.952365   -1.367506
     64          6           0       -3.550944    1.082017   -0.381054
     65          6           0       -4.445053    0.458910    0.509781
     66          6           0       -5.826940    0.685167    0.422619
     67          1           0       -3.362528    2.421918   -2.074451
     68          1           0       -4.070596   -0.203493    1.296090
     69         17           0       -2.031830    0.615208   -3.520075
     70         17           0        0.736197   -1.283118   -3.641069
     71          1           0       -4.090834   -2.080691   -0.334107
     72          6           0       -1.244275   -0.073568    3.769221
     73          6           0       -1.358583   -1.468981    3.788192
     74          6           0       -1.571228   -2.163949    2.591801
     75          6           0       -1.691839   -1.494063    1.358840
     76          6           0       -1.577064   -0.072872    1.350542
     77          6           0       -1.349762    0.617308    2.555768
     78          1           0       -1.044305    0.476041    4.694052
     79          1           0       -1.250117   -2.017441    4.728774
     80          1           0       -1.643132   -3.253671    2.587006
     81          1           0       -1.214068    1.702671    2.540497
     82          6           0       -0.157963    5.163114    0.324075
     83          6           0        0.500217    4.291532   -0.570806
     84          6           0       -0.011134    2.994101   -0.716846
     85          6           0       -1.134991    2.560798    0.010905
     86          6           0       -1.802534    3.470057    0.852710
     87          6           0       -1.320398    4.776258    1.030428
     88          1           0        0.452277    2.302514   -1.433255
     89          1           0       -2.724879    3.168107    1.362493
     90         46           0       -0.474681   -0.123986   -1.910572
     91          6           0       -5.955548    3.087532   -2.585609
     92          1           0       -5.298503    3.040731   -3.469020
     93          1           0       -6.971317    2.779944   -2.881615
     94          1           0       -6.005793    4.146601   -2.269549
     95          6           0       -6.796583    0.006766    1.359560
     96          1           0       -6.274698   -0.715513    2.008519
     97          1           0       -7.315037    0.732842    2.011788
     98          1           0       -7.582186   -0.526716    0.798334
     99          8           0       -7.672981    1.727920   -0.693730
    100          6           0       -8.150246    2.943434   -0.104631
    101          1           0       -7.911049    2.987008    0.975668
    102          1           0       -7.723580    3.835793   -0.600207
    103          1           0       -9.242995    2.942468   -0.237035
    104          6           0        1.706206    4.754863   -1.349021
    105          1           0        2.078709    3.961234   -2.016389
    106          1           0        2.531340    5.042060   -0.674458
    107          1           0        1.468677    5.643311   -1.958014
    108          6           0       -2.033379    5.753870    1.931378
    109          1           0       -1.944071    6.780635    1.542015
    110          1           0       -3.101296    5.497106    2.023962
    111          1           0       -1.605641    5.751554    2.951556
    112          8           0        0.310224    6.461496    0.438722
    113          6           0        1.168423    6.669861    1.571243
    114          1           0        0.648756    6.452083    2.522833
    115          1           0        2.071578    6.036823    1.511304
    116          1           0        1.455722    7.731611    1.543698
 ---------------------------------------------------------------------
 Rotational constants (GHZ):           0.0305628           0.0243811           0.0211304
 General basis read from cards:  (5D, 7F)
 ======================================================================================================
                                       Pseudopotential Parameters
 ======================================================================================================
  Center     Atomic      Valence      Angular      Power
  Number     Number     Electrons     Momentum     of R      Exponent        Coefficient   SO-Coeffient
 ======================================================================================================
    1          6
                                   No pseudopotential on this center.
    2          6
                                   No pseudopotential on this center.
    3          6
                                   No pseudopotential on this center.
    4          6
                                   No pseudopotential on this center.
    5          6
                                   No pseudopotential on this center.
    6          1
                                   No pseudopotential on this center.
    7          1
                                   No pseudopotential on this center.
    8          1
                                   No pseudopotential on this center.
    9          1
                                   No pseudopotential on this center.
   10          1
                                   No pseudopotential on this center.
   11         26           16
                                      F and up 
                                                     2        1.0000000        0.00000000    0.00000000
                                      S - F
                                                     2       20.9300000      253.74958800    0.00000000
                                                     2        9.4450000       37.92284500    0.00000000
                                      P - F
                                                     2       21.7600000      161.03681200    0.00000000
                                                     2        9.1780000       27.65129800    0.00000000
                                      D - F
                                                     2       25.9000000      -24.43127600    0.00000000
                                                     2        8.8350000       -1.43425100    0.00000000
   12          6
                                   No pseudopotential on this center.
   13          6
                                   No pseudopotential on this center.
   14          6
                                   No pseudopotential on this center.
   15          6
                                   No pseudopotential on this center.
   16          6
                                   No pseudopotential on this center.
   17          1
                                   No pseudopotential on this center.
   18          1
                                   No pseudopotential on this center.
   19          6
                                   No pseudopotential on this center.
   20         15
                                   No pseudopotential on this center.
   21          1
                                   No pseudopotential on this center.
   22          6
                                   No pseudopotential on this center.
   23          1
                                   No pseudopotential on this center.
   24          1
                                   No pseudopotential on this center.
   25          1
                                   No pseudopotential on this center.
   26          6
                                   No pseudopotential on this center.
   27          6
                                   No pseudopotential on this center.
   28          6
                                   No pseudopotential on this center.
   29          6
                                   No pseudopotential on this center.
   30          6
                                   No pseudopotential on this center.
   31          6
                                   No pseudopotential on this center.
   32          1
                                   No pseudopotential on this center.
   33          6
                                   No pseudopotential on this center.
   34          1
                                   No pseudopotential on this center.
   35          1
                                   No pseudopotential on this center.
   36          6
                                   No pseudopotential on this center.
   37          6
                                   No pseudopotential on this center.
   38          6
                                   No pseudopotential on this center.
   39          6
                                   No pseudopotential on this center.
   40          6
                                   No pseudopotential on this center.
   41          6
                                   No pseudopotential on this center.
   42          6
                                   No pseudopotential on this center.
   43          1
                                   No pseudopotential on this center.
   44          6
                                   No pseudopotential on this center.
   45          1
                                   No pseudopotential on this center.
   46          1
                                   No pseudopotential on this center.
   47          6
                                   No pseudopotential on this center.
   48          9
                                   No pseudopotential on this center.
   49          9
                                   No pseudopotential on this center.
   50          9
                                   No pseudopotential on this center.
   51          9
                                   No pseudopotential on this center.
   52          9
                                   No pseudopotential on this center.
   53          9
                                   No pseudopotential on this center.
   54          9
                                   No pseudopotential on this center.
   55          9
                                   No pseudopotential on this center.
   56          9
                                   No pseudopotential on this center.
   57          9
                                   No pseudopotential on this center.
   58          9
                                   No pseudopotential on this center.
   59          9
                                   No pseudopotential on this center.
   60         15
                                   No pseudopotential on this center.
   61          6
                                   No pseudopotential on this center.
   62          6
                                   No pseudopotential on this center.
   63          6
                                   No pseudopotential on this center.
   64          6
                                   No pseudopotential on this center.
   65          6
                                   No pseudopotential on this center.
   66          6
                                   No pseudopotential on this center.
   67          1
                                   No pseudopotential on this center.
   68          1
                                   No pseudopotential on this center.
   69         17
                                   No pseudopotential on this center.
   70         17
                                   No pseudopotential on this center.
   71          1
                                   No pseudopotential on this center.
   72          6
                                   No pseudopotential on this center.
   73          6
                                   No pseudopotential on this center.
   74          6
                                   No pseudopotential on this center.
   75          6
                                   No pseudopotential on this center.
   76          6
                                   No pseudopotential on this center.
   77          6
                                   No pseudopotential on this center.
   78          1
                                   No pseudopotential on this center.
   79          1
                                   No pseudopotential on this center.
   80          1
                                   No pseudopotential on this center.
   81          1
                                   No pseudopotential on this center.
   82          6
                                   No pseudopotential on this center.
   83          6
                                   No pseudopotential on this center.
   84          6
                                   No pseudopotential on this center.
   85          6
                                   No pseudopotential on this center.
   86          6
                                   No pseudopotential on this center.
   87          6
                                   No pseudopotential on this center.
   88          1
                                   No pseudopotential on this center.
   89          1
                                   No pseudopotential on this center.
   90         46           18
                                      G and up 
                                                     2        1.0000000        0.00000000    0.00000000
                                      S - G
                                                     2       12.4300000      240.22904000    0.00000000
                                                     2        6.1707590       35.17194300    0.00000000
                                      P - G
                                                     2       11.0800000      170.41727600    0.00000000
                                                     2        5.8295540       28.47213300    0.00000000
                                      D - G
                                                     2        9.5100000       69.01384500    0.00000000
                                                     2        4.1397810       11.75086200    0.00000000
                                      F - G
                                                     2       13.2700000      -31.92955400    0.00000000
                                                     2        6.6300000       -5.39821700    0.00000000
   91          6
                                   No pseudopotential on this center.
   92          1
                                   No pseudopotential on this center.
   93          1
                                   No pseudopotential on this center.
   94          1
                                   No pseudopotential on this center.
   95          6
                                   No pseudopotential on this center.
   96          1
                                   No pseudopotential on this center.
   97          1
                                   No pseudopotential on this center.
   98          1
                                   No pseudopotential on this center.
   99          8
                                   No pseudopotential on this center.
  100          6
                                   No pseudopotential on this center.
  101          1
                                   No pseudopotential on this center.
  102          1
                                   No pseudopotential on this center.
  103          1
                                   No pseudopotential on this center.
  104          6
                                   No pseudopotential on this center.
  105          1
                                   No pseudopotential on this center.
  106          1
                                   No pseudopotential on this center.
  107          1
                                   No pseudopotential on this center.
  108          6
                                   No pseudopotential on this center.
  109          1
                                   No pseudopotential on this center.
  110          1
                                   No pseudopotential on this center.
  111          1
                                   No pseudopotential on this center.
  112          8
                                   No pseudopotential on this center.
  113          6
                                   No pseudopotential on this center.
  114          1
                                   No pseudopotential on this center.
  115          1
                                   No pseudopotential on this center.
  116          1
                                   No pseudopotential on this center.
 ======================================================================================================
 There are  2896 symmetry adapted cartesian basis functions of A   symmetry.
 There are  2537 symmetry adapted basis functions of A   symmetry.
  2537 basis functions,  4134 primitive gaussians,  2896 cartesian basis functions
   289 alpha electrons      289 beta electrons
       nuclear repulsion energy     15891.8947369674 Hartrees.
 NAtoms=  116 NActive=  116 NUniq=  116 SFac= 1.00D+00 NAtFMM=   60 NAOKFM=T Big=T
 Integral buffers will be    131072 words long.
 Raffenetti 2 integral format.
 Two-electron integral symmetry is turned on.
 Nuclear repulsion after empirical dispersion term =    15891.6800958258 Hartrees.
 One-electron integrals computed using PRISM.
   1 Symmetry operations used in ECPInt.
 ECPInt:  NShTT=  483636 NPrTT= 1507730 LenC2=  331240 LenP2D=  653148.
 LDataN:  DoStor=T MaxTD1= 7 Len=  274
 Number of processors reduced to  15 by ecpmxn.
 NBasis=  2537 RedAO= T EigKep=  2.62D-06  NBF=  2537
 NBsUse=  2537 1.00D-06 EigRej= -1.00D+00 NBFU=  2537
 Defaulting to unpruned grid for atomic number  46.
 ExpMin= 1.00D-02 ExpMax= 6.95D+04 ExpMxC= 2.37D+03 IAcc=3 IRadAn=         5 AccDes= 0.00D+00
 Harris functional with IExCor= 1009 and IRadAn=       5 diagonalized for initial guess.
 HarFok:  IExCor= 1009 AccDes= 0.00D+00 IRadAn=         5 IDoV= 1 UseB2=F ITyADJ=14
 ICtDFT=  3500011 ScaDFX=  1.000000  1.000000  1.000000  1.000000
 Defaulting to unpruned grid for atomic number  46.
 FoFCou: FMM=F IPFlag=           0 FMFlag=      100000 FMFlg1=        2001
         NFxFlg=           0 DoJE=T BraDBF=F KetDBF=T FulRan=T
         wScrn=  0.000000 ICntrl=       500 IOpCl=  0 I1Cent=   200000004 NGrid=           0
         NMat0=    1 NMatS0=      1 NMatT0=    0 NMatD0=    1 NMtDS0=    0 NMtDT0=    0
 Petite list used in FoFCou.
 Requested convergence on RMS density matrix=1.00D-08 within 128 cycles.
 Requested convergence on MAX density matrix=1.00D-06.
 Requested convergence on             energy=1.00D-06.
 No special actions if energy rises.
 Defaulting to unpruned grid for atomic number  46.
 Defaulting to unpruned grid for atomic number  46.
 Defaulting to unpruned grid for atomic number  46.
 Defaulting to unpruned grid for atomic number  46.
 Defaulting to unpruned grid for atomic number  46.
 Defaulting to unpruned grid for atomic number  46.
 Defaulting to unpruned grid for atomic number  46.
 Defaulting to unpruned grid for atomic number  46.
 Defaulting to unpruned grid for atomic number  46.
 Defaulting to unpruned grid for atomic number  46.
 Defaulting to unpruned grid for atomic number  46.
 Defaulting to unpruned grid for atomic number  46.
 Defaulting to unpruned grid for atomic number  46.
 Defaulting to unpruned grid for atomic number  46.
 Defaulting to unpruned grid for atomic number  46.
 Defaulting to unpruned grid for atomic number  46.
 Defaulting to unpruned grid for atomic number  46.
 Defaulting to unpruned grid for atomic number  46.
 Defaulting to unpruned grid for atomic number  46.
 Defaulting to unpruned grid for atomic number  46.
 Defaulting to unpruned grid for atomic number  46.
 Defaulting to unpruned grid for atomic number  46.
 Defaulting to unpruned grid for atomic number  46.
 Defaulting to unpruned grid for atomic number  46.
 Defaulting to unpruned grid for atomic number  46.
 Defaulting to unpruned grid for atomic number  46.
 Defaulting to unpruned grid for atomic number  46.
 Defaulting to unpruned grid for atomic number  46.
 Defaulting to unpruned grid for atomic number  46.
 Defaulting to unpruned grid for atomic number  46.
 Defaulting to unpruned grid for atomic number  46.
 Defaulting to unpruned grid for atomic number  46.
 EnCoef did    10 forward-backward iterations
 EnCoef did   100 forward-backward iterations
 EnCoef did   100 forward-backward iterations
 EnCoef did   100 forward-backward iterations
 EnCoef did     5 forward-backward iterations
 EnCoef did     3 forward-backward iterations
 EnCoef did     2 forward-backward iterations
 Restarting incremental Fock formation.
 SCF Done:  E(RPBE1PBE) =  -5208.96910141     A.U. after   29 cycles
            NFock= 29  Conv=0.13D-08     -V/T= 2.0301
 DoSCS=F DFT=T ScalE2(SS,OS)=  1.000000  1.000000
 Range of M.O.s used for correlation:     1  2537
 NBasis=  2537 NAE=   289 NBE=   289 NFC=     0 NFV=     0
 NROrb=   2537 NOA=   289 NOB=   289 NVA=  2248 NVB=  2248

 **** Warning!!: The largest alpha MO coefficient is  0.45704442D+02

          Differentiating once with respect to magnetic field using GIAOs.
          Electric field/nuclear overlap derivatives assumed to be zero.
 Defaulting to unpruned grid for atomic number  46.
 FoFCou: FMM=F IPFlag=           0 FMFlag=      100000 FMFlg1=        2001
         NFxFlg=           0 DoJE=F BraDBF=F KetDBF=T FulRan=T
         wScrn=  0.000000 ICntrl=      6100 IOpCl=  0 I1Cent=           7 NGrid=         116
         NMat0=    1 NMatS0=      1 NMatT0=    0 NMatD0=    1 NMtDS0=    0 NMtDT0=    0
 Symmetry not used in FoFCou.
   1 Symmetry operations used in ECPInt.
 ECPInt:  NShTT=  483636 NPrTT= 1507730 LenC2=  483637 LenP2D= 1507730.
 LDataN:  DoStor=T MaxTD1= 8 Len=  415
 Number of processors reduced to   9 by ecpmxn.
 FoFJK:  IHMeth= 1 ICntrl=    6127 DoSepK=F KAlg= 0 I1Cent=           0 FoldK=F
 IRaf=         1 NMat=       1 IRICut=       1 DoRegI=T DoRafI=F ISym2E= 0 IDoP0=0 IntGTp=1.
 Defaulting to unpruned grid for atomic number  46.
 Defaulting to unpruned grid for atomic number  46.
 Defaulting to unpruned grid for atomic number  46.
 Defaulting to unpruned grid for atomic number  46.
 Defaulting to unpruned grid for atomic number  46.
 Defaulting to unpruned grid for atomic number  46.
 Defaulting to unpruned grid for atomic number  46.
 Defaulting to unpruned grid for atomic number  46.
 Defaulting to unpruned grid for atomic number  46.
 Defaulting to unpruned grid for atomic number  46.
 Defaulting to unpruned grid for atomic number  46.
 Defaulting to unpruned grid for atomic number  46.
 Defaulting to unpruned grid for atomic number  46.
 Defaulting to unpruned grid for atomic number  46.
 Defaulting to unpruned grid for atomic number  46.
 Defaulting to unpruned grid for atomic number  46.
 Defaulting to unpruned grid for atomic number  46.
 Defaulting to unpruned grid for atomic number  46.
 Defaulting to unpruned grid for atomic number  46.
 Defaulting to unpruned grid for atomic number  46.
 Defaulting to unpruned grid for atomic number  46.
 Defaulting to unpruned grid for atomic number  46.
 Defaulting to unpruned grid for atomic number  46.
 Defaulting to unpruned grid for atomic number  46.
 Defaulting to unpruned grid for atomic number  46.
 Defaulting to unpruned grid for atomic number  46.
 Defaulting to unpruned grid for atomic number  46.
 Defaulting to unpruned grid for atomic number  46.
 Defaulting to unpruned grid for atomic number  46.
 Defaulting to unpruned grid for atomic number  46.
 Defaulting to unpruned grid for atomic number  46.
 Defaulting to unpruned grid for atomic number  46.
          There are     3 degrees of freedom in the 1st order CPHF.  IDoFFX=0 NUNeed=     3.
      3 vectors produced by pass  0 Test12= 2.17D-11 3.33D-08 XBig12= 4.25D+02 1.61D+00.
 AX will form     3 AO Fock derivatives at one time.
      3 vectors produced by pass  1 Test12= 2.17D-11 3.33D-08 XBig12= 2.07D+00 3.90D-01.
      3 vectors produced by pass  2 Test12= 2.17D-11 3.33D-08 XBig12= 1.22D-01 8.32D-02.
      3 vectors produced by pass  3 Test12= 2.17D-11 3.33D-08 XBig12= 1.81D-03 1.01D-02.
      3 vectors produced by pass  4 Test12= 2.17D-11 3.33D-08 XBig12= 3.49D-05 1.93D-03.
      3 vectors produced by pass  5 Test12= 2.17D-11 3.33D-08 XBig12= 1.10D-06 3.09D-04.
      3 vectors produced by pass  6 Test12= 2.17D-11 3.33D-08 XBig12= 1.94D-08 3.87D-05.
      3 vectors produced by pass  7 Test12= 2.17D-11 3.33D-08 XBig12= 4.45D-10 6.48D-06.
      3 vectors produced by pass  8 Test12= 2.17D-11 3.33D-08 XBig12= 3.46D-12 4.73D-07.
      2 vectors produced by pass  9 Test12= 2.17D-11 3.33D-08 XBig12= 3.24D-14 4.37D-08.
 InvSVY:  IOpt=1 It=  1 EMax= 3.55D-15
 Solved reduced A of dimension    29 with     3 vectors.
 Calculating GIAO nuclear magnetic shielding tensors.
 SCF GIAO Magnetic shielding tensor (ppm):
      1  C    Isotropic =   111.8285   Anisotropy =    89.6493
   XX=    90.1062   YX=    36.5075   ZX=     9.8259
   XY=    47.1686   YY=   133.7783   ZY=   -39.1798
   XZ=     8.4523   YZ=   -32.2787   ZZ=   111.6009
   Eigenvalues:    51.8060   112.0848   171.5947
      2  C    Isotropic =   112.0794   Anisotropy =    90.0140
   XX=   105.0284   YX=    -0.4847   ZX=   -21.7983
   XY=    -4.3696   YY=   139.1803   ZY=   -57.9956
   XZ=   -18.2591   YZ=   -42.0698   ZZ=    92.0296
   Eigenvalues:    53.7453   110.4042   172.0887
      3  C    Isotropic =   111.9792   Anisotropy =    90.9640
   XX=    52.8767   YX=     8.7547   ZX=    -2.0537
   XY=    -7.4794   YY=   164.1824   ZY=   -21.4284
   XZ=    -0.3226   YZ=   -21.1398   ZZ=   118.8784
   Eigenvalues:    52.8547   110.4610   172.6218
      4  C    Isotropic =   110.7041   Anisotropy =    91.9842
   XX=   102.1716   YX=    18.4804   ZX=    18.2595
   XY=    15.6514   YY=   164.3091   ZY=   -16.1262
   XZ=    15.0217   YZ=   -30.1348   ZZ=    65.6315
   Eigenvalues:    52.2627   107.8226   172.0268
      5  C    Isotropic =   113.1548   Anisotropy =    90.0382
   XX=    87.0516   YX=    19.2392   ZX=   -30.6596
   XY=    28.4601   YY=   161.8879   ZY=    -4.4113
   XZ=   -35.9677   YZ=   -13.3106   ZZ=    90.5248
   Eigenvalues:    54.1760   112.1081   173.1802
      6  H    Isotropic =    27.4336   Anisotropy =     6.9690
   XX=    26.1836   YX=     1.5497   ZX=     2.2816
   XY=     1.5056   YY=    27.2701   ZY=     2.9921
   XZ=     1.8322   YZ=     2.6052   ZZ=    28.8473
   Eigenvalues:    25.0648    25.1566    32.0796
      7  H    Isotropic =    27.5135   Anisotropy =     6.6057
   XX=    31.8510   YX=     0.5746   ZX=     0.6328
   XY=     0.6335   YY=    26.0668   ZY=     0.0841
   XZ=    -0.3678   YZ=     0.6658   ZZ=    24.6228
   Eigenvalues:    24.5313    26.0920    31.9174
      8  H    Isotropic =    27.2289   Anisotropy =     3.9662
   XX=    26.5395   YX=     2.5123   ZX=    -1.4581
   XY=     0.3970   YY=    26.0971   ZY=     0.8079
   XZ=    -1.3937   YZ=     2.0726   ZZ=    29.0500
   Eigenvalues:    24.0316    27.7820    29.8730
      9  H    Isotropic =    27.1061   Anisotropy =     3.8164
   XX=    27.2356   YX=     0.5343   ZX=     2.0238
   XY=     0.0785   YY=    26.4895   ZY=    -0.6287
   XZ=     2.4243   YZ=     0.3951   ZZ=    27.5933
   Eigenvalues:    25.1156    26.5524    29.6504
     10  H    Isotropic =    27.2639   Anisotropy =     4.6588
   XX=    28.2409   YX=    -0.7144   ZX=    -1.8409
   XY=    -1.4576   YY=    28.2195   ZY=     1.7423
   XZ=    -1.4486   YZ=     1.4845   ZZ=    25.3312
   Eigenvalues:    24.2777    27.1442    30.3698
     11  Fe   Isotropic = -6195.4214   Anisotropy =  8295.2629
   XX= -8662.3559   YX=  1472.4612   ZX=  -746.1745
   XY=  1462.1428   YY= -2307.4411   ZY= -2939.1957
   XZ=  -710.1292   YZ= -2942.6941   ZZ= -7616.4673
   Eigenvalues: -9037.7929 -8883.2252  -665.2462
     12  C    Isotropic =   111.4638   Anisotropy =    94.4173
   XX=    98.4799   YX=    13.2430   ZX=   -27.4681
   XY=    23.3464   YY=   163.2660   ZY=    -8.9364
   XZ=   -39.7880   YZ=   -23.2335   ZZ=    72.6455
   Eigenvalues:    49.4597   110.5230   174.4087
     13  C    Isotropic =   105.9109   Anisotropy =    91.4655
   XX=    64.2733   YX=    39.9611   ZX=     5.5106
   XY=    52.4775   YY=   127.8588   ZY=   -33.0202
   XZ=   -21.4733   YZ=   -14.2174   ZZ=   125.6007
   Eigenvalues:    39.7760   111.0689   166.8879
     14  C    Isotropic =    92.2593   Anisotropy =    95.5926
   XX=    73.1240   YX=     7.3716   ZX=    -4.5842
   XY=     1.5677   YY=    99.3806   ZY=   -64.9832
   XZ=     1.2178   YZ=   -42.7798   ZZ=   104.2733
   Eigenvalues:    47.7203    73.0698   155.9877
     15  C    Isotropic =    88.4162   Anisotropy =    93.7942
   XX=    44.5268   YX=    -4.4798   ZX=    -3.7466
   XY=   -16.5004   YY=   132.4502   ZY=   -31.6385
   XZ=    22.1791   YZ=   -32.2847   ZZ=    88.2717
   Eigenvalues:    42.4301    71.8729   150.9457
     16  C    Isotropic =   109.4333   Anisotropy =   100.6086
   XX=    98.4369   YX=    12.5646   ZX=    14.2377
   XY=    -3.9034   YY=   168.0888   ZY=   -21.1256
   XZ=    28.1569   YZ=   -40.9274   ZZ=    61.7743
   Eigenvalues:    44.7029   107.0914   176.5057
     17  H    Isotropic =    27.3622   Anisotropy =     7.2487
   XX=    27.9942   YX=     2.1901   ZX=     3.4247
   XY=     1.4078   YY=    26.8230   ZY=     1.8801
   XZ=     2.7784   YZ=     2.4273   ZZ=    27.2694
   Eigenvalues:    24.3721    25.5198    32.1947
     18  H    Isotropic =    26.8791   Anisotropy =     3.1460
   XX=    27.2154   YX=     0.5036   ZX=    -1.3604
   XY=     1.0835   YY=    27.5610   ZY=     1.8463
   XZ=    -0.1922   YZ=     2.2789   ZZ=    25.8609
   Eigenvalues:    24.0998    27.5611    28.9764
     19  C    Isotropic =   149.6151   Anisotropy =    23.9596
   XX=   158.2622   YX=     2.4269   ZX=    -6.6482
   XY=     6.2181   YY=   160.2372   ZY=    -9.1252
   XZ=    -2.8630   YZ=    -4.2420   ZZ=   130.3458
   Eigenvalues:   128.4350   154.8221   165.5882
     20  P    Isotropic =   214.5602   Anisotropy =   197.2384
   XX=   237.5580   YX=   -98.1985   ZX=     2.0124
   XY=   -94.8839   YY=   229.5115   ZY=   -74.6498
   XZ=    37.8584   YZ=   -32.4037   ZZ=   176.6113
   Eigenvalues:   122.1428   175.4854   346.0525
     21  H    Isotropic =    27.0531   Anisotropy =     6.3279
   XX=    25.1371   YX=    -1.8574   ZX=    -0.2432
   XY=     1.1243   YY=    25.0285   ZY=    -1.6142
   XZ=     0.7688   YZ=    -0.9311   ZZ=    30.9936
   Eigenvalues:    24.5910    25.2965    31.2717
     22  C    Isotropic =   169.7558   Anisotropy =    18.8593
   XX=   171.0344   YX=    -5.1856   ZX=    -5.0578
   XY=    -5.6320   YY=   174.9537   ZY=     5.9242
   XZ=    -6.8238   YZ=     5.8437   ZZ=   163.2793
   Eigenvalues:   159.4807   167.4581   182.3287
     23  H    Isotropic =    29.8067   Anisotropy =    11.0000
   XX=    36.3246   YX=    -3.3643   ZX=     0.6412
   XY=    -1.2967   YY=    29.6738   ZY=    -0.6887
   XZ=     1.9336   YZ=     1.9132   ZZ=    23.4216
   Eigenvalues:    23.1794    29.1007    37.1400
     24  H    Isotropic =    29.3907   Anisotropy =     9.9167
   XX=    28.5556   YX=    -0.3709   ZX=    -1.7677
   XY=     1.8658   YY=    35.9061   ZY=     0.0006
   XZ=    -0.6145   YZ=     1.2378   ZZ=    23.7103
   Eigenvalues:    23.3854    28.7849    36.0018
     25  H    Isotropic =    28.6113   Anisotropy =     5.7909
   XX=    25.2468   YX=    -2.8887   ZX=    -2.7949
   XY=    -0.2075   YY=    29.0013   ZY=    -2.4978
   XZ=    -0.0939   YZ=    -0.8598   ZZ=    31.5858
   Eigenvalues:    24.1744    29.1876    32.4719
     26  C    Isotropic =    54.4551   Anisotropy =   190.0379
   XX=   -30.9470   YX=   -10.6830   ZX=    18.8999
   XY=   -14.2118   YY=    96.9890   ZY=    82.8517
   XZ=    15.5407   YZ=    85.0197   ZZ=    97.3233
   Eigenvalues:   -39.3655    21.5838   181.1471
     27  C    Isotropic =    47.3499   Anisotropy =   160.5186
   XX=    28.9397   YX=    -5.8469   ZX=    10.4881
   XY=    -5.3853   YY=    48.5405   ZY=   100.2185
   XZ=     8.3983   YZ=    94.5796   ZZ=    64.5697
   Eigenvalues:   -42.7211    30.4086   154.3624
     28  C    Isotropic =    36.4155   Anisotropy =   198.7286
   XX=   -30.0236   YX=    31.6031   ZX=   -14.2893
   XY=    38.2712   YY=    71.5388   ZY=    89.9344
   XZ=    -9.7184   YZ=   105.7323   ZZ=    67.7314
   Eigenvalues:   -62.7810     3.1263   168.9013
     29  C    Isotropic =    38.4286   Anisotropy =   186.4111
   XX=   -37.5911   YX=     2.3148   ZX=    20.4105
   XY=    -0.1653   YY=    71.0424   ZY=    93.9149
   XZ=    22.4243   YZ=    75.5848   ZZ=    81.8345
   Eigenvalues:   -44.2687    -3.1481   162.7027
     30  C    Isotropic =    44.3572   Anisotropy =   193.9669
   XX=    13.3893   YX=    -1.2625   ZX=     9.6943
   XY=    -9.4444   YY=    69.5174   ZY=   108.8430
   XZ=     9.9864   YZ=   117.8952   ZZ=    50.1647
   Eigenvalues:   -55.6521    15.0551   173.6684
     31  C    Isotropic =    48.1525   Anisotropy =   158.7557
   XX=   -10.3825   YX=    30.2154   ZX=   -24.1110
   XY=    31.6796   YY=    76.1749   ZY=    75.7964
   XZ=   -18.4154   YZ=    76.7711   ZZ=    78.6652
   Eigenvalues:   -42.1728    32.6408   153.9897
     32  H    Isotropic =    23.3740   Anisotropy =     9.6131
   XX=    23.5552   YX=    -2.5961   ZX=     0.5933
   XY=    -2.5956   YY=    23.9988   ZY=    -5.1696
   XZ=     1.3596   YZ=    -5.5407   ZZ=    22.5681
   Eigenvalues:    17.6994    22.6399    29.7828
     33  C    Isotropic =    48.4124   Anisotropy =    15.5246
   XX=    58.6393   YX=    -1.3017   ZX=    -0.6092
   XY=    -1.2084   YY=    44.5283   ZY=     2.2011
   XZ=     0.0225   YZ=     1.3096   ZZ=    42.0697
   Eigenvalues:    41.1500    45.3251    58.7622
     34  H    Isotropic =    21.4252   Anisotropy =    17.7229
   XX=    25.7965   YX=     8.5480   ZX=    -5.6620
   XY=     7.6272   YY=    20.3028   ZY=    -0.6874
   XZ=    -4.0538   YZ=    -2.8089   ZZ=    18.1761
   Eigenvalues:    13.8362    17.1989    33.2404
     35  H    Isotropic =    24.0435   Anisotropy =    15.8207
   XX=    34.0419   YX=    -4.8640   ZX=    -1.2797
   XY=    -0.9233   YY=    19.2035   ZY=     0.9485
   XZ=     0.9863   YZ=     0.3211   ZZ=    18.8850
   Eigenvalues:    18.1631    19.3767    34.5906
     36  C    Isotropic =    48.8182   Anisotropy =    14.0974
   XX=    51.1950   YX=     2.8048   ZX=    -7.6044
   XY=     3.9425   YY=    48.5996   ZY=    -2.0515
   XZ=    -6.5939   YZ=    -2.9608   ZZ=    46.6600
   Eigenvalues:    41.4748    46.7633    58.2165
     37  C    Isotropic =    55.7413   Anisotropy =   191.6335
   XX=   173.0409   YX=   -19.2486   ZX=   -37.4616
   XY=   -28.4057   YY=    16.6871   ZY=   -20.3468
   XZ=   -43.8647   YZ=   -18.2095   ZZ=   -22.5040
   Eigenvalues:   -40.6192    24.3462   183.4970
     38  C    Isotropic =    46.7912   Anisotropy =   168.0827
   XX=   152.3222   YX=   -16.9132   ZX=   -19.9482
   XY=   -19.0556   YY=     7.1909   ZY=    37.0126
   XZ=   -25.4522   YZ=    38.8945   ZZ=   -19.1396
   Eigenvalues:   -46.4904    28.0177   158.8463
     39  C    Isotropic =    53.4722   Anisotropy =   200.3394
   XX=   173.3465   YX=   -44.9889   ZX=   -29.8004
   XY=   -35.7686   YY=   -41.1645   ZY=     3.7620
   XZ=   -33.4457   YZ=     3.0107   ZZ=    28.2347
   Eigenvalues:   -48.5885    21.9733   187.0318
     40  C    Isotropic =    35.5294   Anisotropy =   207.2539
   XX=   158.3723   YX=   -24.3569   ZX=   -53.1191
   XY=   -31.6391   YY=   -17.4230   ZY=    -3.3787
   XZ=   -44.8119   YZ=    -5.5101   ZZ=   -34.3610
   Eigenvalues:   -50.0690   -17.0414   173.6987
     41  C    Isotropic =    45.5311   Anisotropy =   201.2198
   XX=   170.5568   YX=   -16.5532   ZX=   -32.1995
   XY=   -26.2819   YY=    -8.9709   ZY=    40.9086
   XZ=   -33.5697   YZ=    22.9490   ZZ=   -24.9925
   Eigenvalues:   -50.7111     7.6268   179.6776
     42  C    Isotropic =    48.9809   Anisotropy =   162.9299
   XX=   149.2675   YX=   -29.7381   ZX=   -23.4737
   XY=   -26.3115   YY=   -40.3355   ZY=    -1.5485
   XZ=   -23.2219   YZ=    -5.5901   ZZ=    38.0105
   Eigenvalues:   -44.9790    34.3208   157.6008
     43  H    Isotropic =    23.8696   Anisotropy =     9.4752
   XX=    20.1865   YX=     1.9635   ZX=     2.6071
   XY=     1.2660   YY=    28.3397   ZY=    -3.0866
   XZ=     1.0797   YZ=    -4.0594   ZZ=    23.0827
   Eigenvalues:    18.2764    23.1461    30.1864
     44  C    Isotropic =    48.6277   Anisotropy =    12.4711
   XX=    47.2988   YX=     1.2835   ZX=     3.9784
   XY=     1.6813   YY=    52.3883   ZY=     6.4003
   XZ=     2.7091   YZ=     5.4505   ZZ=    46.1961
   Eigenvalues:    41.7218    47.2196    56.9418
     45  H    Isotropic =    23.8777   Anisotropy =    10.7322
   XX=    23.6513   YX=    -2.7964   ZX=     2.8457
   XY=    -0.2728   YY=    17.8289   ZY=     0.5261
   XZ=     2.1270   YZ=    -0.9651   ZZ=    30.1529
   Eigenvalues:    17.4367    23.1639    31.0325
     46  H    Isotropic =    23.7738   Anisotropy =     9.3062
   XX=    22.4675   YX=     1.4876   ZX=     1.2720
   XY=    -0.8997   YY=    27.3904   ZY=     5.7213
   XZ=     3.5672   YZ=     3.0169   ZZ=    21.4634
   Eigenvalues:    18.1770    23.1664    29.9779
     47  C    Isotropic =    49.0062   Anisotropy =    15.1489
   XX=    46.7101   YX=     1.9361   ZX=     3.7032
   XY=     1.5521   YY=    42.7088   ZY=    -2.0901
   XZ=     4.6579   YZ=    -1.5752   ZZ=    57.5997
   Eigenvalues:    41.3548    46.5583    59.1055
     48  F    Isotropic =   248.4920   Anisotropy =   136.9971
   XX=   277.4617   YX=    16.9986   ZX=    43.8804
   XY=    33.5486   YY=   181.7663   ZY=    52.0299
   XZ=    38.8879   YZ=    38.6804   ZZ=   286.2479
   Eigenvalues:   163.9552   241.6973   339.8233
     49  F    Isotropic =   239.1118   Anisotropy =   127.9427
   XX=   247.0169   YX=    19.1089   ZX=   -31.4788
   XY=    27.1293   YY=   204.5420   ZY=   -73.5084
   XZ=   -21.7984   YZ=   -60.0689   ZZ=   265.7765
   Eigenvalues:   161.3548   231.5737   324.4069
     50  F    Isotropic =   215.3845   Anisotropy =   145.0750
   XX=   238.7068   YX=   -90.5335   ZX=    -6.1451
   XY=   -92.3669   YY=   196.7335   ZY=     3.9507
   XZ=    -2.9878   YZ=     8.6330   ZZ=   210.7133
   Eigenvalues:   123.8430   210.2094   312.1012
     51  F    Isotropic =   254.5493   Anisotropy =   117.4522
   XX=   265.7198   YX=    14.8317   ZX=    -7.9614
   XY=    24.0574   YY=   324.9671   ZY=    32.0054
   XZ=   -16.4452   YZ=    12.7465   ZZ=   172.9609
   Eigenvalues:   167.4463   263.3508   332.8507
     52  F    Isotropic =   225.1270   Anisotropy =   152.7311
   XX=   281.3969   YX=   -24.0220   ZX=    70.6798
   XY=   -28.5162   YY=   189.9328   ZY=    20.2401
   XZ=    76.6673   YZ=    22.0505   ZZ=   204.0515
   Eigenvalues:   139.3751   209.0582   326.9478
     53  F    Isotropic =   225.7874   Anisotropy =   151.9874
   XX=   230.4101   YX=    -4.4826   ZX=   -60.0518
   XY=    -0.4309   YY=   183.0589   ZY=    48.4343
   XZ=   -68.6548   YZ=    56.6742   ZZ=   263.8932
   Eigenvalues:   145.8188   204.4310   327.1123
     54  F    Isotropic =   243.2926   Anisotropy =   140.3921
   XX=   257.8073   YX=   -61.8631   ZX=    22.2997
   XY=   -76.0396   YY=   276.7666   ZY=    29.3469
   XZ=    29.3063   YZ=    15.0019   ZZ=   195.3039
   Eigenvalues:   162.4532   230.5372   336.8873
     55  F    Isotropic =   245.2397   Anisotropy =   142.0885
   XX=   303.6032   YX=    52.6118   ZX=    -2.6869
   XY=    64.9745   YY=   240.1869   ZY=    46.1929
   XZ=   -11.8380   YZ=    29.8840   ZZ=   191.9290
   Eigenvalues:   160.9510   234.8027   339.9654
     56  F    Isotropic =   221.9296   Anisotropy =   144.2622
   XX=   214.1471   YX=   -13.9277   ZX=    -4.6170
   XY=   -16.2076   YY=   143.4666   ZY=    40.4544
   XZ=    -5.2525   YZ=    39.8944   ZZ=   308.1750
   Eigenvalues:   131.9397   215.7446   318.1044
     57  F    Isotropic =   219.9355   Anisotropy =   148.9463
   XX=   195.5354   YX=    54.4358   ZX=    35.3731
   XY=    55.5845   YY=   176.4289   ZY=    34.4939
   XZ=    36.1265   YZ=    33.5512   ZZ=   287.8422
   Eigenvalues:   130.0816   210.4919   319.2331
     58  F    Isotropic =   245.3391   Anisotropy =   138.7898
   XX=   173.2635   YX=     7.9381   ZX=   -24.1021
   XY=    30.5885   YY=   327.8323   ZY=   -21.2415
   XZ=   -23.7635   YZ=   -28.7886   ZZ=   234.9215
   Eigenvalues:   164.3913   233.7604   337.8656
     59  F    Isotropic =   247.0629   Anisotropy =   139.2732
   XX=   294.6802   YX=     7.0696   ZX=   -78.0960
   XY=     3.1643   YY=   218.7289   ZY=    43.2165
   XZ=   -60.1188   YZ=    28.6136   ZZ=   227.7795
   Eigenvalues:   163.9334   237.3435   339.9117
     60  P    Isotropic =   239.3335   Anisotropy =   108.4181
   XX=   236.6462   YX=   -10.1189   ZX=    -6.3120
   XY=    -0.2895   YY=   218.9639   ZY=    55.9096
   XZ=   -30.4757   YZ=    70.0049   ZZ=   262.3905
   Eigenvalues:   173.3989   232.9894   311.6123
     61  C    Isotropic =    17.6044   Anisotropy =   131.7842
   XX=   -61.0886   YX=    18.0633   ZX=     0.4613
   XY=    13.0416   YY=    65.5080   ZY=    47.9766
   XZ=    -2.1814   YZ=    45.9265   ZZ=    48.3939
   Eigenvalues:   -63.4141    10.7668   105.4606
     62  C    Isotropic =    47.6552   Anisotropy =   173.0229
   XX=     8.4594   YX=    26.4215   ZX=   -13.7177
   XY=    16.4798   YY=    88.0320   ZY=    92.8411
   XZ=     0.7323   YZ=    91.9351   ZZ=    46.4742
   Eigenvalues:   -35.3738    15.3356   163.0038
     63  C    Isotropic =    35.5921   Anisotropy =   183.8841
   XX=    -7.2557   YX=   -17.8713   ZX=    37.4834
   XY=    -1.1863   YY=    73.4838   ZY=    97.8155
   XZ=    43.3433   YZ=    97.2917   ZZ=    40.5482
   Eigenvalues:   -65.9240    14.5188   158.1815
     64  C    Isotropic =    50.2333   Anisotropy =   160.8920
   XX=   -32.3506   YX=    10.7901   ZX=     4.1381
   XY=    18.7365   YY=   112.0867   ZY=    56.3919
   XZ=     4.1135   YZ=    66.6736   ZZ=    70.9637
   Eigenvalues:   -33.8993    27.1045   157.4946
     65  C    Isotropic =    45.4300   Anisotropy =   160.5649
   XX=    34.3062   YX=    22.3138   ZX=   -12.8322
   XY=    25.3704   YY=    73.4099   ZY=    98.5712
   XZ=   -10.1378   YZ=    97.0293   ZZ=    28.5739
   Eigenvalues:   -55.7037    39.5204   152.4732
     66  C    Isotropic =    49.9741   Anisotropy =   167.4186
   XX=    -1.5351   YX=   -11.9567   ZX=    37.1969
   XY=     1.0138   YY=    94.9223   ZY=    80.3538
   XZ=    28.6625   YZ=    83.6199   ZZ=    56.5349
   Eigenvalues:   -35.0117    23.3474   161.5865
     67  H    Isotropic =    23.1014   Anisotropy =    14.1164
   XX=    26.7145   YX=    -5.4571   ZX=     3.4620
   XY=    -8.9034   YY=    22.0144   ZY=    -1.2873
   XZ=     2.9865   YZ=     1.2015   ZZ=    20.5753
   Eigenvalues:    15.9798    20.8120    32.5124
     68  H    Isotropic =    25.0705   Anisotropy =    16.7108
   XX=    35.9102   YX=    -1.7425   ZX=     1.5703
   XY=    -1.8346   YY=    20.7172   ZY=     0.6834
   XZ=    -4.0387   YZ=     0.2676   ZZ=    18.5842
   Eigenvalues:    18.4388    20.5618    36.2111
     69  Cl   Isotropic =   866.6283   Anisotropy =   352.1442
   XX=   893.3979   YX=   141.7807   ZX=    65.5221
   XY=   211.5511   YY=   900.3337   ZY=  -191.8253
   XZ=    82.5156   YZ=  -168.1274   ZZ=   806.1534
   Eigenvalues:   574.6019   923.8920  1101.3911
     70  Cl   Isotropic =   910.8215   Anisotropy =   538.6219
   XX=   903.0689   YX=   260.2183   ZX=   -82.5123
   XY=   286.3817   YY=  1062.2987   ZY=    17.5303
   XZ=   -99.7627   YZ=    30.7393   ZZ=   767.0968
   Eigenvalues:   637.9640   824.5976  1269.9027
     71  H    Isotropic =    27.4829   Anisotropy =     6.2062
   XX=    29.8881   YX=     0.1271   ZX=     0.5361
   XY=    -2.4983   YY=    29.6643   ZY=     0.2676
   XZ=    -3.1581   YZ=     3.8877   ZZ=    22.8963
   Eigenvalues:    22.1905    28.6379    31.6204
     72  C    Isotropic =    51.0705   Anisotropy =   196.8141
   XX=   174.4534   YX=   -18.4346   ZX=   -40.5685
   XY=   -20.1148   YY=    11.6542   ZY=   -31.1007
   XZ=   -35.8089   YZ=   -37.8100   ZZ=   -32.8962
   Eigenvalues:   -59.4656    30.3972   182.2799
     73  C    Isotropic =    48.6673   Anisotropy =   195.8276
   XX=   174.6645   YX=     0.1819   ZX=   -31.2404
   XY=    -6.1733   YY=     5.1627   ZY=    40.1178
   XZ=   -28.0427   YZ=    38.6090   ZZ=   -33.8253
   Eigenvalues:   -60.6624    27.4453   179.2190
     74  C    Isotropic =    43.6219   Anisotropy =   171.5737
   XX=   156.0630   YX=   -13.3203   ZX=    -5.9932
   XY=   -13.0991   YY=   -56.8123   ZY=     3.4192
   XZ=   -17.5353   YZ=     2.4204   ZZ=    31.6149
   Eigenvalues:   -57.6829    30.5442   158.0043
     75  C    Isotropic =    37.1356   Anisotropy =   198.6909
   XX=   164.6168   YX=   -11.0982   ZX=   -30.5759
   XY=   -17.3468   YY=   -14.2066   ZY=   -30.8421
   XZ=   -30.7226   YZ=   -37.3528   ZZ=   -39.0033
   Eigenvalues:   -67.6594     9.4701   169.5962
     76  C    Isotropic =    38.7276   Anisotropy =   187.3707
   XX=   158.1713   YX=   -24.2084   ZX=   -18.1761
   XY=   -12.7760   YY=    -7.6849   ZY=    33.1039
   XZ=   -25.7755   YZ=    36.7810   ZZ=   -34.3036
   Eigenvalues:   -58.6652    11.2066   163.6414
     77  C    Isotropic =    47.8916   Anisotropy =   200.7786
   XX=   175.1288   YX=   -25.6709   ZX=   -25.4391
   XY=   -25.8150   YY=   -57.0122   ZY=     0.3176
   XZ=   -23.9603   YZ=    -4.2622   ZZ=    25.5581
   Eigenvalues:   -60.0927    22.0235   181.7440
     78  H    Isotropic =    24.6963   Anisotropy =     4.0940
   XX=    23.5758   YX=    -1.0020   ZX=    -1.9727
   XY=    -0.7736   YY=    25.0392   ZY=    -1.0803
   XZ=    -1.0204   YZ=    -3.0677   ZZ=    25.4740
   Eigenvalues:    21.6791    24.9842    27.4257
     79  H    Isotropic =    23.5728   Anisotropy =     3.4453
   XX=    22.9575   YX=     2.5144   ZX=    -0.3442
   XY=     1.2548   YY=    23.4199   ZY=     1.7694
   XZ=     0.1982   YZ=     1.0660   ZZ=    24.3409
   Eigenvalues:    20.9730    23.8757    25.8696
     80  H    Isotropic =    22.5618   Anisotropy =     7.4962
   XX=    19.9555   YX=     3.6438   ZX=     0.6890
   XY=     2.0536   YY=    20.9469   ZY=     1.9234
   XZ=     1.0702   YZ=     1.2853   ZZ=    26.7830
   Eigenvalues:    17.5448    22.5813    27.5592
     81  H    Isotropic =    24.7439   Anisotropy =     7.6417
   XX=    21.9863   YX=    -3.5801   ZX=     2.9133
   XY=     0.3995   YY=    23.3511   ZY=    -1.2144
   XZ=    -0.9414   YZ=    -2.8840   ZZ=    28.8942
   Eigenvalues:    20.9239    23.4693    29.8383
     82  C    Isotropic =    15.6192   Anisotropy =   137.7281
   XX=    30.4250   YX=   -48.5724   ZX=    38.4672
   XY=   -45.8881   YY=   -44.9587   ZY=   -30.9045
   XZ=    40.0731   YZ=   -34.2767   ZZ=    61.3915
   Eigenvalues:   -69.0712     8.4909   107.4380
     83  C    Isotropic =    43.9760   Anisotropy =   177.1782
   XX=    27.9273   YX=   -39.7775   ZX=    90.9090
   XY=   -48.1269   YY=    20.1627   ZY=   -24.4972
   XZ=    79.1358   YZ=   -31.3140   ZZ=    83.8380
   Eigenvalues:   -41.2005    11.0337   162.0948
     84  C    Isotropic =    35.1287   Anisotropy =   151.7646
   XX=    52.9048   YX=    10.1763   ZX=    75.9237
   XY=     6.9037   YY=    10.1024   ZY=   -60.5393
   XZ=    81.4750   YZ=   -54.8617   ZZ=    42.3789
   Eigenvalues:   -64.6103    33.6913   136.3051
     85  C    Isotropic =    51.5782   Anisotropy =   166.7332
   XX=    71.3502   YX=   -54.1592   ZX=    53.7361
   XY=   -46.5347   YY=   -10.0995   ZY=   -29.7601
   XZ=    62.7859   YZ=   -42.5481   ZZ=    93.4838
   Eigenvalues:   -34.7435    26.7445   162.7337
     86  C    Isotropic =    42.4051   Anisotropy =   168.9429
   XX=     4.1014   YX=   -37.1326   ZX=    93.0583
   XY=   -39.1435   YY=    39.6037   ZY=   -18.4899
   XZ=    88.2264   YZ=   -20.7395   ZZ=    83.5102
   Eigenvalues:   -59.9929    32.1745   155.0337
     87  C    Isotropic =    45.6088   Anisotropy =   176.7776
   XX=    50.1833   YX=   -17.0859   ZX=    76.3597
   XY=    -4.7199   YY=     4.0848   ZY=   -62.3084
   XZ=    80.1643   YZ=   -52.9823   ZZ=    82.5585
   Eigenvalues:   -39.8736    13.2396   163.4605
     88  H    Isotropic =    21.6074   Anisotropy =    15.7224
   XX=    19.4849   YX=     6.2303   ZX=    -0.0737
   XY=     6.1576   YY=    29.0413   ZY=    -0.6598
   XZ=    -1.4665   YZ=     0.9297   ZZ=    16.2958
   Eigenvalues:    15.6124    17.1207    32.0889
     89  H    Isotropic =    24.6538   Anisotropy =    13.3524
   XX=    22.0344   YX=    -2.7125   ZX=     0.9045
   XY=     1.3359   YY=    30.7608   ZY=     6.2303
   XZ=     2.7055   YZ=     5.5327   ZZ=    21.1662
   Eigenvalues:    17.5470    22.8590    33.5554
     90  Pd   Isotropic =  -166.4843   Anisotropy =   230.3687
   XX=  -145.2589   YX=  -191.0522   ZX=    40.2007
   XY=  -208.2765   YY=  -334.0624   ZY=    48.5090
   XZ=    18.1064   YZ=    47.4653   ZZ=   -20.1317
   Eigenvalues:  -467.5608   -18.9869   -12.9052
     91  C    Isotropic =   169.5656   Anisotropy =    28.6290
   XX=   165.4025   YX=    -5.2701   ZX=     8.9411
   XY=   -11.7875   YY=   165.5382   ZY=   -10.9228
   XZ=     6.2318   YZ=    -9.4550   ZZ=   177.7561
   Eigenvalues:   156.6732   163.3720   188.6516
     92  H    Isotropic =    29.2402   Anisotropy =     6.4005
   XX=    30.4824   YX=    -2.5354   ZX=    -0.6438
   XY=    -2.9077   YY=    24.6855   ZY=    -1.7655
   XZ=    -2.5793   YZ=    -2.6968   ZZ=    32.5529
   Eigenvalues:    22.8691    31.3444    33.5072
     93  H    Isotropic =    28.8236   Anisotropy =     8.5458
   XX=    33.2255   YX=     1.2190   ZX=     1.6875
   XY=     0.0588   YY=    24.2180   ZY=    -1.7073
   XZ=     3.6159   YZ=    -2.5184   ZZ=    29.0273
   Eigenvalues:    23.1687    28.7813    34.5208
     94  H    Isotropic =    29.4224   Anisotropy =     8.8032
   XX=    28.2164   YX=    -1.6119   ZX=     0.3024
   XY=    -2.8498   YY=    34.4251   ZY=    -1.8458
   XZ=     0.3400   YZ=    -0.4571   ZZ=    25.6256
   Eigenvalues:    25.4769    27.4990    35.2912
     95  C    Isotropic =   167.3985   Anisotropy =    28.3650
   XX=   171.7672   YX=     6.8876   ZX=    -9.4192
   XY=     4.5319   YY=   164.1588   ZY=   -12.4468
   XZ=   -11.0349   YZ=   -11.5053   ZZ=   166.2694
   Eigenvalues:   152.6654   163.2215   186.3085
     96  H    Isotropic =    29.8591   Anisotropy =     6.7078
   XX=    32.9584   YX=    -1.1061   ZX=    -0.7336
   XY=    -3.1413   YY=    28.5687   ZY=    -4.6076
   XZ=     0.0066   YZ=    -4.3441   ZZ=    28.0501
   Eigenvalues:    23.5062    31.7401    34.3309
     97  H    Isotropic =    29.1961   Anisotropy =     9.4750
   XX=    30.5232   YX=    -3.1485   ZX=    -3.2586
   XY=    -3.8446   YY=    27.1480   ZY=     0.5338
   XZ=    -5.1825   YZ=     0.4735   ZZ=    29.9171
   Eigenvalues:    24.1391    27.9365    35.5128
     98  H    Isotropic =    28.7700   Anisotropy =     8.7047
   XX=    32.6081   YX=     2.5433   ZX=     2.1848
   XY=     4.0827   YY=    28.3382   ZY=    -1.4233
   XZ=     1.5279   YZ=    -0.4361   ZZ=    25.3636
   Eigenvalues:    24.0547    27.6821    34.5731
     99  O    Isotropic =   255.6816   Anisotropy =   112.6083
   XX=   280.3009   YX=    26.7625   ZX=    28.2784
   XY=    38.9116   YY=   240.5582   ZY=    35.9161
   XZ=    38.6146   YZ=    51.6088   ZZ=   246.1858
   Eigenvalues:   199.4985   236.7925   330.7539
    100  C    Isotropic =   126.5867   Anisotropy =    84.6616
   XX=   116.9231   YX=   -27.7957   ZX=   -12.1570
   XY=   -32.3735   YY=   152.6635   ZY=    28.0610
   XZ=   -12.7958   YZ=    29.1515   ZZ=   110.1736
   Eigenvalues:    95.0120   101.7204   183.0278
    101  H    Isotropic =    28.1646   Anisotropy =     8.8751
   XX=    26.2261   YX=    -2.8012   ZX=    -1.9468
   XY=    -4.4018   YY=    28.6693   ZY=     4.0997
   XZ=    -2.5221   YZ=     1.4591   ZZ=    29.5984
   Eigenvalues:    23.6357    26.7768    34.0814
    102  H    Isotropic =    27.7309   Anisotropy =     8.2479
   XX=    26.5672   YX=    -2.8065   ZX=    -1.7889
   XY=    -3.1007   YY=    31.7909   ZY=    -1.9011
   XZ=    -3.0215   YZ=     1.7406   ZZ=    24.8345
   Eigenvalues:    22.7561    27.2069    33.2295
    103  H    Isotropic =    27.6125   Anisotropy =    10.8678
   XX=    32.3811   YX=    -2.6478   ZX=    -0.3128
   XY=    -6.0875   YY=    26.5105   ZY=     0.1627
   XZ=    -2.1227   YZ=     0.6987   ZZ=    23.9459
   Eigenvalues:    23.7179    24.2619    34.8577
    104  C    Isotropic =   167.0685   Anisotropy =    27.2133
   XX=   171.5453   YX=     7.0473   ZX=   -12.8333
   XY=     6.1339   YY=   162.1028   ZY=    -2.8036
   XZ=   -14.8550   YZ=    -0.8493   ZZ=   167.5573
   Eigenvalues:   154.2494   161.7453   185.2107
    105  H    Isotropic =    28.9291   Anisotropy =     9.7680
   XX=    26.9138   YX=    -0.6893   ZX=    -5.3286
   XY=    -0.1675   YY=    32.1133   ZY=     2.3748
   XZ=    -5.1335   YZ=     4.7900   ZZ=    27.7600
   Eigenvalues:    21.6283    29.7178    35.4410
    106  H    Isotropic =    28.9731   Anisotropy =     5.9314
   XX=    30.7676   YX=     3.7696   ZX=     0.3521
   XY=     1.4194   YY=    28.3356   ZY=     1.5926
   XZ=     0.7212   YZ=     2.5373   ZZ=    27.8160
   Eigenvalues:    25.5680    28.4239    32.9273
    107  H    Isotropic =    28.5928   Anisotropy =     9.9402
   XX=    24.1235   YX=     0.0649   ZX=    -1.3972
   XY=    -0.1051   YY=    32.4836   ZY=    -3.5219
   XZ=    -3.0948   YZ=    -4.3103   ZZ=    29.1712
   Eigenvalues:    23.0059    27.5528    35.2196
    108  C    Isotropic =   169.0939   Anisotropy =    30.7353
   XX=   170.4657   YX=    -7.9298   ZX=    -7.3895
   XY=   -11.4450   YY=   172.7941   ZY=    10.0566
   XZ=    -5.5099   YZ=    16.7456   ZZ=   164.0220
   Eigenvalues:   154.2885   163.4091   189.5841
    109  H    Isotropic =    28.6442   Anisotropy =     8.7532
   XX=    27.7320   YX=    -2.4120   ZX=    -2.8168
   XY=     0.0518   YY=    34.2708   ZY=    -0.8647
   XZ=    -1.5397   YZ=    -0.2055   ZZ=    23.9297
   Eigenvalues:    22.8554    28.5975    34.4796
    110  H    Isotropic =    29.7637   Anisotropy =     7.6404
   XX=    34.4678   YX=     0.3847   ZX=    -2.2426
   XY=    -0.5617   YY=    29.9938   ZY=     3.3330
   XZ=    -1.2236   YZ=     2.5784   ZZ=    24.8294
   Eigenvalues:    23.2731    31.1606    34.8573
    111  H    Isotropic =    29.2263   Anisotropy =     7.9860
   XX=    26.8914   YX=    -0.4397   ZX=     0.5852
   XY=     0.2306   YY=    27.6023   ZY=     2.2838
   XZ=     0.1247   YZ=     3.8472   ZZ=    33.1853
   Eigenvalues:    26.1677    26.9610    34.5503
    112  O    Isotropic =   252.1242   Anisotropy =   121.2228
   XX=   222.5379   YX=   -21.4857   ZX=    35.1736
   XY=   -10.7217   YY=   293.3901   ZY=   -48.5152
   XZ=    18.9226   YZ=   -56.6307   ZZ=   240.4447
   Eigenvalues:   197.0933   226.3399   332.9394
    113  C    Isotropic =   126.2172   Anisotropy =    78.9209
   XX=   126.9900   YX=    11.5421   ZX=    38.4457
   XY=    10.4236   YY=   107.8110   ZY=    12.3677
   XZ=    38.3842   YZ=    13.6641   ZZ=   143.8507
   Eigenvalues:    96.0714   103.7491   178.8312
    114  H    Isotropic =    27.7331   Anisotropy =     6.8820
   XX=    26.3469   YX=     1.5077   ZX=     3.1326
   XY=     0.4321   YY=    26.1200   ZY=     1.6382
   XZ=     0.0546   YZ=     3.1483   ZZ=    30.7323
   Eigenvalues:    25.0149    25.8632    32.3211
    115  H    Isotropic =    27.6325   Anisotropy =     5.5144
   XX=    29.0754   YX=    -0.1879   ZX=     1.7442
   XY=    -0.6833   YY=    27.7548   ZY=     1.1291
   XZ=     5.0022   YZ=     1.6138   ZZ=    26.0673
   Eigenvalues:    23.4308    28.1579    31.3087
    116  H    Isotropic =    27.5449   Anisotropy =    10.3816
   XX=    25.9845   YX=     4.6309   ZX=     1.5331
   XY=     2.6316   YY=    31.0939   ZY=     1.6062
   XZ=     2.3396   YZ=     4.5815   ZZ=    25.5563
   Eigenvalues:    23.8127    24.3559    34.4660
 End of Minotr F.D. properties file   721 does not exist.
 End of Minotr F.D. properties file   722 does not exist.
 End of Minotr F.D. properties file   788 does not exist.
 Hyperfine terms turned off by default for NAtoms > 100.

 **********************************************************************

            Population analysis using the SCF Density.

 **********************************************************************

 Orbital symmetries:
       Occupied  (A) (A) (A) (A) (A) (A) (A) (A) (A) (A) (A) (A)
                 (A) (A) (A) (A) (A) (A) (A) (A) (A) (A) (A) (A)
                 (A) (A) (A) (A) (A) (A) (A) (A) (A) (A) (A) (A)
                 (A) (A) (A) (A) (A) (A) (A) (A) (A) (A) (A) (A)
                 (A) (A) (A) (A) (A) (A) (A) (A) (A) (A) (A) (A)
                 (A) (A) (A) (A) (A) (A) (A) (A) (A) (A) (A) (A)
                 (A) (A) (A) (A) (A) (A) (A) (A) (A) (A) (A) (A)
                 (A) (A) (A) (A) (A) (A) (A) (A) (A) (A) (A) (A)
                 (A) (A) (A) (A) (A) (A) (A) (A) (A) (A) (A) (A)
                 (A) (A) (A) (A) (A) (A) (A) (A) (A) (A) (A) (A)
                 (A) (A) (A) (A) (A) (A) (A) (A) (A) (A) (A) (A)
                 (A) (A) (A) (A) (A) (A) (A) (A) (A) (A) (A) (A)
                 (A) (A) (A) (A) (A) (A) (A) (A) (A) (A) (A) (A)
                 (A) (A) (A) (A) (A) (A) (A) (A) (A) (A) (A) (A)
                 (A) (A) (A) (A) (A) (A) (A) (A) (A) (A) (A) (A)
                 (A) (A) (A) (A) (A) (A) (A) (A) (A) (A) (A) (A)
                 (A) (A) (A) (A) (A) (A) (A) (A) (A) (A) (A) (A)
                 (A) (A) (A) (A) (A) (A) (A) (A) (A) (A) (A) (A)
                 (A) (A) (A) (A) (A) (A) (A) (A) (A) (A) (A) (A)
                 (A) (A) (A) (A) (A) (A) (A) (A) (A) (A) (A) (A)
                 (A) (A) (A) (A) (A) (A) (A) (A) (A) (A) (A) (A)
                 (A) (A) (A) (A) (A) (A) (A) (A) (A) (A) (A) (A)
                 (A) (A) (A) (A) (A) (A) (A) (A) (A) (A) (A) (A)
                 (A) (A) (A) (A) (A) (A) (A) (A) (A) (A) (A) (A)
                 (A)
       Virtual   (A) (A) (A) (A) (A) (A) (A) (A) (A) (A) (A) (A)
                 (A) (A) (A) (A) (A) (A) (A) (A) (A) (A) (A) (A)
                 (A) (A) (A) (A) (A) (A) (A) (A) (A) (A) (A) (A)
                 (A) (A) (A) (A) (A) (A) (A) (A) (A) (A) (A) (A)
                 (A) (A) (A) (A) (A) (A) (A) (A) (A) (A) (A) (A)
                 (A) (A) (A) (A) (A) (A) (A) (A) (A) (A) (A) (A)
                 (A) (A) (A) (A) (A) (A) (A) (A) (A) (A) (A) (A)
                 (A) (A) (A) (A) (A) (A) (A) (A) (A) (A) (A) (A)
                 (A) (A) (A) (A) (A) (A) (A) (A) (A) (A) (A) (A)
                 (A) (A) (A) (A) (A) (A) (A) (A) (A) (A) (A) (A)
                 (A) (A) (A) (A) (A) (A) (A) (A) (A) (A) (A) (A)
                 (A) (A) (A) (A) (A) (A) (A) (A) (A) (A) (A) (A)
                 (A) (A) (A) (A) (A) (A) (A) (A) (A) (A) (A) (A)
                 (A) (A) (A) (A) (A) (A) (A) (A) (A) (A) (A) (A)
                 (A) (A) (A) (A) (A) (A) (A) (A) (A) (A) (A) (A)
                 (A) (A) (A) (A) (A) (A) (A) (A) (A) (A) (A) (A)
                 (A) (A) (A) (A) (A) (A) (A) (A) (A) (A) (A) (A)
                 (A) (A) (A) (A) (A) (A) (A) (A) (A) (A) (A) (A)
                 (A) (A) (A) (A) (A) (A) (A) (A) (A) (A) (A) (A)
                 (A) (A) (A) (A) (A) (A) (A) (A) (A) (A) (A) (A)
                 (A) (A) (A) (A) (A) (A) (A) (A) (A) (A) (A) (A)
                 (A) (A) (A) (A) (A) (A) (A) (A) (A) (A) (A) (A)
                 (A) (A) (A) (A) (A) (A) (A) (A) (A) (A) (A) (A)
                 (A) (A) (A) (A) (A) (A) (A) (A) (A) (A) (A) (A)
                 (A) (A) (A) (A) (A) (A) (A) (A) (A) (A) (A) (A)
                 (A) (A) (A) (A) (A) (A) (A) (A) (A) (A) (A) (A)
                 (A) (A) (A) (A) (A) (A) (A) (A) (A) (A) (A) (A)
                 (A) (A) (A) (A) (A) (A) (A) (A) (A) (A) (A) (A)
                 (A) (A) (A) (A) (A) (A) (A) (A) (A) (A) (A) (A)
                 (A) (A) (A) (A) (A) (A) (A) (A) (A) (A) (A) (A)
                 (A) (A) (A) (A) (A) (A) (A) (A) (A) (A) (A) (A)
                 (A) (A) (A) (A) (A) (A) (A) (A) (A) (A) (A) (A)
                 (A) (A) (A) (A) (A) (A) (A) (A) (A) (A) (A) (A)
                 (A) (A) (A) (A) (A) (A) (A) (A) (A) (A) (A) (A)
                 (A) (A) (A) (A) (A) (A) (A) (A) (A) (A) (A) (A)
                 (A) (A) (A) (A) (A) (A) (A) (A) (A) (A) (A) (A)
                 (A) (A) (A) (A) (A) (A) (A) (A) (A) (A) (A) (A)
                 (A) (A) (A) (A) (A) (A) (A) (A) (A) (A) (A) (A)
                 (A) (A) (A) (A) (A) (A) (A) (A) (A) (A) (A) (A)
                 (A) (A) (A) (A) (A) (A) (A) (A) (A) (A) (A) (A)
                 (A) (A) (A) (A) (A) (A) (A) (A) (A) (A) (A) (A)
                 (A) (A) (A) (A) (A) (A) (A) (A) (A) (A) (A) (A)
                 (A) (A) (A) (A) (A) (A) (A) (A) (A) (A) (A) (A)
                 (A) (A) (A) (A) (A) (A) (A) (A) (A) (A) (A) (A)
                 (A) (A) (A) (A) (A) (A) (A) (A) (A) (A) (A) (A)
                 (A) (A) (A) (A) (A) (A) (A) (A) (A) (A) (A) (A)
                 (A) (A) (A) (A) (A) (A) (A) (A) (A) (A) (A) (A)
                 (A) (A) (A) (A) (A) (A) (A) (A) (A) (A) (A) (A)
                 (A) (A) (A) (A) (A) (A) (A) (A) (A) (A) (A) (A)
                 (A) (A) (A) (A) (A) (A) (A) (A) (A) (A) (A) (A)
                 (A) (A) (A) (A) (A) (A) (A) (A) (A) (A) (A) (A)
                 (A) (A) (A) (A) (A) (A) (A) (A) (A) (A) (A) (A)
                 (A) (A) (A) (A) (A) (A) (A) (A) (A) (A) (A) (A)
                 (A) (A) (A) (A) (A) (A) (A) (A) (A) (A) (A) (A)
                 (A) (A) (A) (A) (A) (A) (A) (A) (A) (A) (A) (A)
                 (A) (A) (A) (A) (A) (A) (A) (A) (A) (A) (A) (A)
                 (A) (A) (A) (A) (A) (A) (A) (A) (A) (A) (A) (A)
                 (A) (A) (A) (A) (A) (A) (A) (A) (A) (A) (A) (A)
                 (A) (A) (A) (A) (A) (A) (A) (A) (A) (A) (A) (A)
                 (A) (A) (A) (A) (A) (A) (A) (A) (A) (A) (A) (A)
                 (A) (A) (A) (A) (A) (A) (A) (A) (A) (A) (A) (A)
                 (A) (A) (A) (A) (A) (A) (A) (A) (A) (A) (A) (A)
                 (A) (A) (A) (A) (A) (A) (A) (A) (A) (A) (A) (A)
                 (A) (A) (A) (A) (A) (A) (A) (A) (A) (A) (A) (A)
                 (A) (A) (A) (A) (A) (A) (A) (A) (A) (A) (A) (A)
                 (A) (A) (A) (A) (A) (A) (A) (A) (A) (A) (A) (A)
                 (A) (A) (A) (A) (A) (A) (A) (A) (A) (A) (A) (A)
                 (A) (A) (A) (A) (A) (A) (A) (A) (A) (A) (A) (A)
                 (A) (A) (A) (A) (A) (A) (A) (A) (A) (A) (A) (A)
                 (A) (A) (A) (A) (A) (A) (A) (A) (A) (A) (A) (A)
                 (A) (A) (A) (A) (A) (A) (A) (A) (A) (A) (A) (A)
                 (A) (A) (A) (A) (A) (A) (A) (A) (A) (A) (A) (A)
                 (A) (A) (A) (A) (A) (A) (A) (A) (A) (A) (A) (A)
                 (A) (A) (A) (A) (A) (A) (A) (A) (A) (A) (A) (A)
                 (A) (A) (A) (A) (A) (A) (A) (A) (A) (A) (A) (A)
                 (A) (A) (A) (A) (A) (A) (A) (A) (A) (A) (A) (A)
                 (A) (A) (A) (A) (A) (A) (A) (A) (A) (A) (A) (A)
                 (A) (A) (A) (A) (A) (A) (A) (A) (A) (A) (A) (A)
                 (A) (A) (A) (A) (A) (A) (A) (A) (A) (A) (A) (A)
                 (A) (A) (A) (A) (A) (A) (A) (A) (A) (A) (A) (A)
                 (A) (A) (A) (A) (A) (A) (A) (A) (A) (A) (A) (A)
                 (A) (A) (A) (A) (A) (A) (A) (A) (A) (A) (A) (A)
                 (A) (A) (A) (A) (A) (A) (A) (A) (A) (A) (A) (A)
                 (A) (A) (A) (A) (A) (A) (A) (A) (A) (A) (A) (A)
                 (A) (A) (A) (A) (A) (A) (A) (A) (A) (A) (A) (A)
                 (A) (A) (A) (A) (A) (A) (A) (A) (A) (A) (A) (A)
                 (A) (A) (A) (A) (A) (A) (A) (A) (A) (A) (A) (A)
                 (A) (A) (A) (A) (A) (A) (A) (A) (A) (A) (A) (A)
                 (A) (A) (A) (A) (A) (A) (A) (A) (A) (A) (A) (A)
                 (A) (A) (A) (A) (A) (A) (A) (A) (A) (A) (A) (A)
                 (A) (A) (A) (A) (A) (A) (A) (A) (A) (A) (A) (A)
                 (A) (A) (A) (A) (A) (A) (A) (A) (A) (A) (A) (A)
                 (A) (A) (A) (A) (A) (A) (A) (A) (A) (A) (A) (A)
                 (A) (A) (A) (A) (A) (A) (A) (A) (A) (A) (A) (A)
                 (A) (A) (A) (A) (A) (A) (A) (A) (A) (A) (A) (A)
                 (A) (A) (A) (A) (A) (A) (A) (A) (A) (A) (A) (A)
[...]
                                                    1572(r),812(r),1947(r)
                                                    2485(r),784(r),1037(r)
                                                    683(r),1727(r),1720(r)
                                                    789(r),1136(r),487(r)
                                                    1547(r),1487(r),669(r)
                                                    628(r)
  1676. RY*(   1)Cl  69                  0.00115     0.94281   
  1677. RY*(   2)Cl  69                  0.00112     0.77945   
  1678. RY*(   3)Cl  69                  0.00099     1.01640   
  1679. RY*(   4)Cl  69                  0.00030     0.90980   
  1680. RY*(   5)Cl  69                  0.00013     0.95344   
  1681. RY*(   6)Cl  69                  0.00012     1.87168   
  1682. RY*(   7)Cl  69                  0.00009     1.64885   
  1683. RY*(   8)Cl  69                  0.00006     1.97652   
  1684. RY*(   9)Cl  69                  0.00006     1.48696   
  1685. RY*(  10)Cl  69                  0.00003     2.33354   
  1686. RY*(  11)Cl  69                  0.00001     2.15429   
  1687. RY*(  12)Cl  69                  0.00000    10.63593   
  1688. RY*(  13)Cl  69                  0.00000    24.83907   
  1689. RY*(  14)Cl  69                  0.00000    10.60747   
  1690. RY*(  15)Cl  69                  0.00001     2.01948   
  1691. RY*(  16)Cl  69                  0.00000     2.79159   
  1692. RY*(  17)Cl  69                  0.00001     1.94551   
  1693. RY*(  18)Cl  69                  0.00000    10.58362   
  1694. RY*(  19)Cl  69                  0.00001     2.01818   
  1695. RY*(  20)Cl  69                  0.00001     2.77898   
  1696. RY*(  21)Cl  69                  0.00000     2.60283   
  1697. RY*(  22)Cl  69                  0.00000     2.14696   
  1698. RY*(  23)Cl  69                  0.00000     2.22833   
  1699. RY*(  24)Cl  69                  0.00000     2.21002   
  1700. RY*(  25)Cl  69                  0.00000     2.20797   
  1701. RY*(  26)Cl  69                  0.00000     2.20210   
  1702. RY*(  27)Cl  69                  0.00000     2.18998   
  1703. RY*(  28)Cl  69                  0.00000     2.21029   
       -------------------------------
              Total Lewis   17.37848  ( 99.9764%)
        Valence non-Lewis    0.00000  (  0.0000%)
        Rydberg non-Lewis    0.00410  (  0.0236%)
       -------------------------------
            Total unit  4   17.38258  (100.0000%)
           Charge unit  4   -0.38258
 
 Molecular unit  5  (Cl)
   204. CR (   1)Cl  70                  2.00000   -99.98145  293(r),292(r)
   205. CR (   2)Cl  70                  1.99971   -10.68974  293(r),292(r),2079(r)
                                                    2428(r),294(r),2084(r)
                                                    2476(r),2082(r)
   206. CR (   3)Cl  70                  1.99997    -7.17635  293(r),292(r)
   207. CR (   4)Cl  70                  1.99997    -7.17687  293(r),294(r),292(r)
   208. CR (   5)Cl  70                  1.99995    -7.17818  293(r),2476(r)
   284. LP (   1)Cl  70                  1.95475    -0.35180  293(r),294(r),2438(r)
                                                    2428(r),2079(r),2083(r)
                                                    2082(r),2443(r),2099(r)
                                                    2098(r),1482(r),243(r)
                                                    2087(r),2094(r),1483(r)
                                                    2089(r),2085(r),2476(r)
                                                    650(r),2084(r),2442(r)
                                                    2096(r),2437(r),2427(r)
                                                    2090(r),1679(r),14(r)
                                                    1842(r),292(r),2091(r)
                                                    1841(r),1991(r),624(r)
                                                    678(r),1494(r),1968(r)
                                                    1497(r),1490(r),2081(r)
                                                    778(r),651(r)
   285. LP (   2)Cl  70                  1.95073    -0.74896  293(r),292(r),2082(r)
                                                    2100(r),2085(r),2080(r)
                                                    2098(r),2101(r),2084(r)
                                                    2081(r),2099(r),294(r)
                                                    1483(r),2086(r),2093(r)
                                                    2079(r),2088(r),2441(r)
                                                    1966(r),1482(r),2476(r)
                                                    1676(r),1971(r),651(r)
                                                    2087(r),1494(r),539(r)
                                                    1678(r),1968(r),2429(r)
   286. LP (   3)Cl  70                  1.94489    -0.34538  293(r),294(r),2428(r)
                                                    2432(r),2079(r),2081(r)
                                                    243(r),2084(r),2101(r)
                                                    2443(r),2089(r),2088(r)
                                                    2085(r),14(r),2441(r)
                                                    2087(r),292(r),1482(r)
                                                    1483(r),2094(r),2424(r)
                                                    592(r),2069(r),2083(r)
                                                    2093(r),2427(r),650(r)
                                                    1679(r),2098(r),2082(r)
                                                    2476(r),1967(r),1841(r)
                                                    2425(r)
   287. LP (   4)Cl  70                  1.56372    -0.39341  293(r),2476(r),292(r)
                                                    2094(r),2096(r),1482(r)
                                                    2089(r),650(r),2087(r)
                                                    2098(r),2428(r),2090(r)
                                                    2091(r),624(r),2080(r)
                                                    2092(r),2429(r),1483(r)
                                                    1710(g),1706(g),2083(r)
                                                    1991(r),1025(r),1489(r)
                                                    1026(r),1992(r),1035(r)
                                                    678(r),2088(r),1842(r)
                                                    662(r),2085(r),1491(r)
                                                    1588(r),1968(r),563(r)
                                                    2095(r),803(r),659(r)
                                                    1841(r),1490(r),657(r)
                                                    2082(r),1493(r),2086(r)
                                                    630(r),1589(r),1681(r)
                                                    565(r),660(r),294(r),663(r)
                                                    1565(r),1486(r),656(r)
                                                    1497(r),2069(r),832(r)
                                                    658(r),2003(r),1494(r)
                                                    1484(r),1566(r),2084(r)
                                                    1592(r),654(r),1996(r)
                                                    1055(r),651(r),1139(r)
                                                    2018(r),1974(r),1852(r)
                                                    1028(r),1817(r),1682(r)
                                                    1054(r),2079(r),568(r)
                                                    831(r),830(r),1850(r),652(r)
                                                    1995(r),462(r),1819(r)
                                                    2020(r),2081(r),1590(r)
                                                    566(r),1030(r),1676(r)
                                                    2093(r),1678(r),1618(r)
                                                    1993(r),2099(r),2100(r)
                                                    1052(r),1844(r),1690(r)
                                                    1594(r),1027(r),1040(r)
                                                    780(r),1134(r),2101(r)
                                                    636(r),1495(r),835(r)
                                                    1818(r),804(r),638(r),591(r)
                                                    695(r),1845(r),785(r)
                                                    2474(r),1595(r),802(r)
                                                    2427(r),1617(r),1502(r)
                                                    664(r),1033(r),1679(r)
                                                    829(r),1060(r),2432(r)
                                                    2022(r),1973(r),1496(r)
                                                    1843(r),1616(r),1014(r)
                                                    457(r),641(r),1876(r),242(r)
                                                    1010(r),1038(r),1041(r)
                                                    807(r),1061(r),2002(r)
                                                    1998(r),2017(r),1857(r)
                                                    665(r),833(r),668(r),633(r)
                                                    594(r),815(r),562(r),691(r)
                                                    779(r),1032(r),679(r),631(r)
                                                    590(r),1591(r),1972(r)
                                                    1487(r),2438(r),469(r)
                                                    1853(r),1135(r),2024(r)
                                                    1815(r),1029(r),2441(r)
                                                    1624(r),544(r),1851(r)
                                                    828(r),1057(r),812(r)
                                                    1577(r),805(r),567(r)
                                                    1698(r),1564(r),1547(r)
                                                    1602(r),667(r),1593(r)
                                                    461(r),999(r),1505(r)
                                                    1567(r),1053(r),1796(r)
                                                    1037(r),687(r),593(r),655(r)
                                                    1599(r),634(r),2005(r)
                                                    239(r),14(r),670(r),1598(r)
                                                    814(r),572(r),1136(r)
                                                    2419(r),1975(r),1680(r)
                                                    628(r),979(r),1575(r)
                                                    1083(r),1966(r),1855(r)
                                                    1571(r),1792(r),1942(r)
                                                    1572(r),1488(r),1700(r)
                                                    1683(r),1623(r),578(r)
                                                    1087(r),1847(r)
  1704. RY*(   1)Cl  70                  0.00120     0.82301   
  1705. RY*(   2)Cl  70                  0.00103     0.78220   
  1706. RY*(   3)Cl  70                  0.00082     0.93377   
  1707. RY*(   4)Cl  70                  0.00036     0.99577   
  1708. RY*(   5)Cl  70                  0.00028     0.91172   
  1709. RY*(   6)Cl  70                  0.00012     1.62274   
  1710. RY*(   7)Cl  70                  0.00008     1.94037   
  1711. RY*(   8)Cl  70                  0.00006     2.07541   
  1712. RY*(   9)Cl  70                  0.00007     2.60162   
  1713. RY*(  10)Cl  70                  0.00003     1.40862   
  1714. RY*(  11)Cl  70                  0.00000    10.59361   
  1715. RY*(  12)Cl  70                  0.00000    10.54479   
  1716. RY*(  13)Cl  70                  0.00001     2.06068   
  1717. RY*(  14)Cl  70                  0.00000    24.94579   
  1718. RY*(  15)Cl  70                  0.00001     2.10281   
  1719. RY*(  16)Cl  70                  0.00000     2.80301   
  1720. RY*(  17)Cl  70                  0.00001     1.89095   
  1721. RY*(  18)Cl  70                  0.00000    10.55162   
  1722. RY*(  19)Cl  70                  0.00001     1.97458   
  1723. RY*(  20)Cl  70                  0.00001     2.67410   
  1724. RY*(  21)Cl  70                  0.00000     2.52646   
  1725. RY*(  22)Cl  70                  0.00000     2.17710   
  1726. RY*(  23)Cl  70                  0.00000     2.26340   
  1727. RY*(  24)Cl  70                  0.00000     2.21711   
  1728. RY*(  25)Cl  70                  0.00000     2.16541   
  1729. RY*(  26)Cl  70                  0.00000     2.20071   
  1730. RY*(  27)Cl  70                  0.00001     2.20103   
  1731. RY*(  28)Cl  70                  0.00000     2.18270   
       -------------------------------
              Total Lewis   17.41368  ( 99.9763%)
        Valence non-Lewis    0.00000  (  0.0000%)
        Rydberg non-Lewis    0.00413  (  0.0237%)
       -------------------------------
            Total unit  5   17.41781  (100.0000%)
           Charge unit  5   -0.41781
 1\1\GINC-NOTCH078\SP\RPBE1PBE\Gen\C52H44Cl2F12Fe1O2P2Pd1\U6034117\04-M
 ar-2022\0\\# PBE1PBE gen pseudo=read int=(grid=ultrafine) empiricaldis
 persion=GD3BJ pop=nbo guess=read geom=check\\W005_1_1 title\\0,1\C,0,3
 .6509932491,-1.6124546496,5.825185797\C,0,5.0767831322,-1.4460332723,5
 .9000883514\C,0,5.6915664405,-2.6019630053,5.3093352456\C,0,4.64791186
 64,-3.4852922959,4.8721066051\C,0,3.3841005852,-2.8738873705,5.1872526
 666\H,0,5.5986328748,-0.5684347391,6.2831169749\H,0,6.7617756514,-2.75
 8208937,5.1699309764\H,0,4.7989852065,-4.4380311365,4.3635014223\H,0,2
 .3965832096,-3.2834710106,4.9685252188\H,0,2.9054985457,-0.89098883,6.
 1614637024\Fe,0,4.4744672106,-1.6536200017,3.9557890739\C,0,5.48878786
 02,-0.1829805537,2.9461029615\C,0,5.5510179604,-1.4214229024,2.2305726
 943\C,0,4.2032453892,-1.8475964272,1.9398079048\C,0,3.3028343554,-0.84
 95322767,2.5069569655\C,0,4.1145489354,0.1746786486,3.1081939645\H,0,6
 .3413246712,0.3721192645,3.3367582008\H,0,3.7411774174,1.0623774404,3.
 6150054369\C,0,1.8027352527,-0.8228009522,2.3407472533\P,0,1.544062709
 2,-0.4233372797,0.4985859701\H,0,1.4142521018,-1.8394666185,2.51437495
 99\C,0,1.0954279212,0.1635108602,3.2784359095\H,0,0.0001426714,0.07394
 97774,3.211335932\H,0,1.3970858771,-0.0569458242,4.3166908811\H,0,1.37
 45749343,1.2011217299,3.0364935204\C,0,-2.2521532853,2.0184395598,-0.6
 211403554\C,0,-1.0019288344,2.332312988,-1.1704776604\C,0,0.1477352559
 ,1.6437677846,-0.7638917489\C,0,0.0485842819,0.608965722,0.1812471959\
 C,0,-1.2063205293,0.2719416955,0.7126738153\C,0,-2.3472821125,0.989955
 1835,0.3255275974\H,0,-3.1463515047,2.5629872048,-0.9342833394\C,0,-0.
 8751002161,3.4579723819,-2.1693216661\H,0,1.1251941846,1.9119061031,-1
 .172227562\H,0,-1.3136797361,-0.5580524477,1.4170975528\C,0,-3.6973716
 997,0.5823262873,0.8624719149\C,0,-0.3552138103,-4.1741390979,-1.57670
 31387\C,0,-0.2125988832,-4.1626370537,-0.1849750643\C,0,0.3713428543,-
 3.0688298004,0.4672104476\C,0,0.8328788676,-1.96549693,-0.2674953209\C
 ,0,0.6717266873,-1.9704070643,-1.6653241604\C,0,0.0921509487,-3.069896
 4969,-2.31152822\H,0,-0.7995244823,-5.0345775027,-2.0836108402\C,0,-0.
 6598986829,-5.3734574728,0.5961901874\H,0,0.4771129989,-3.1157765238,1
 .5515642926\H,0,1.0144049285,-1.121904355,-2.2623011493\C,0,0.05155753
 57,-3.1114048051,-3.8175797969\F,0,-0.914402047,-3.945593857,-4.281967
 3174\F,0,-0.1736334167,-1.8791973202,-4.3548340911\F,0,1.2419097366,-3
 .55701109,-4.3233138195\F,0,-0.3560404723,-5.2762333626,1.9182335439\F
 ,0,-2.0003012582,-5.5699522092,0.4927732457\F,0,-0.0571002456,-6.50545
 54084,0.123459227\F,0,0.162093611,3.2469758907,-3.029601131\F,0,-2.007
 3468203,3.5907541064,-2.9143269412\F,0,-0.6528350478,4.6474435095,-1.5
 559109447\F,0,-4.262774823,-0.3889653391,0.0911536658\F,0,-3.601328969
 7,0.0816328316,2.1253660053\F,0,-4.5650336851,1.6272187501,0.893255982
 9\P,0,4.4369933796,-1.3531438313,-1.1464411006\C,0,8.9920043121,-2.127
 8387106,-1.4588857324\C,0,8.4288347949,-1.00822615,-2.1098314348\C,0,7
 .0479075319,-0.7941970055,-1.9852294115\C,0,6.2443183076,-1.6606874918
 ,-1.221146601\C,0,6.833155717,-2.7688188997,-0.5834985403\C,0,8.209957
 6199,-3.0165170455,-0.6905601825\H,0,6.5988747053,0.0789268191,-2.4647
 139168\H,0,6.2186694425,-3.4641608794,-0.0036863227\Cl,0,5.4940796525,
 1.7349643563,-0.686581786\Cl,0,2.6717792955,2.4596113401,0.9836768866\
 H,0,6.4564494627,-1.9657160636,1.9660715723\C,0,2.902498286,-5.1558367
 762,-0.5161253163\C,0,2.8768781931,-5.2581455481,0.8801124454\C,0,3.30
 66628316,-4.1800103948,1.6627099655\C,0,3.7849631147,-2.9892448706,1.0
 823723154\C,0,3.8099726657,-2.8961239794,-0.3402063752\C,0,3.363443529
 7,-3.9793869285,-1.1197812362\H,0,2.5370652804,-5.9799727633,-1.136309
 1197\H,0,2.4925857136,-6.1639717739,1.3587229591\H,0,3.274642066,-4.23
 66344592,2.7528730564\H,0,3.3383193785,-3.8877616429,-2.2095676007\C,0
 ,3.1814352994,-1.3428650926,-5.6009436089\C,0,2.6806461526,-0.34874469
 1,-4.7322650187\C,0,3.0876286388,-0.3853852904,-3.3909375161\C,0,3.955
 7052803,-1.3847486799,-2.913294218\C,0,4.481943763,-2.3282861542,-3.81
 54092915\C,0,4.0963216,-2.3291786942,-5.1650373374\H,0,2.7486163509,0.
 3950412873,-2.6964667228\H,0,5.2206206839,-3.0616166495,-3.4713807829\
 Pd,0,3.5308666216,0.531469721,-0.1776469452\C,0,9.2892794686,-0.039676
 6887,-2.8839171245\H,0,8.8644737861,0.9759935572,-2.8363094811\H,0,10.
 3128851972,-0.0161065824,-2.4768641586\H,0,9.3609422804,-0.3158055655,
 -3.9528714998\C,0,8.8553543601,-4.190144168,0.0053983886\H,0,8.1261504
 503,-4.7184972782,0.6412469137\H,0,9.2663160335,-4.9206387972,-0.71492
 77982\H,0,9.6997004441,-3.8619834235,0.6347952526\O,0,10.3612212289,-2
 .3497007857,-1.5083976348\C,0,10.7937954275,-2.9893598678,-2.715050314
 8\H,0,10.3051620997,-3.9745495805,-2.844658888\H,0,10.585910008,-2.368
 5691149,-3.6068718375\H,0,11.8809662811,-3.1309528413,-2.6168481691\C,
 0,1.7483171071,0.7209532605,-5.24335362\H,0,1.4755957727,1.4273810316,
 -4.4429979974\H,0,0.8151445434,0.2829796477,-5.6379832115\H,0,2.208904
 7153,1.2874415858,-6.0701437172\C,0,4.6585417023,-3.3384685774,-6.1350
 988078\H,0,4.7633369008,-2.8984269852,-7.1396924077\H,0,5.643131217,-3
 .7019858967,-5.7983697029\H,0,3.9980964803,-4.2207378433,-6.2307081125
 \O,0,2.823829492,-1.2864451212,-6.9377585985\C,0,1.7403397827,-2.16281
 2893,-7.2849689111\H,0,1.9910558142,-3.2211501351,-7.0847953985\H,0,0.
 8231485494,-1.9071087705,-6.7251527676\H,0,1.5695738285,-2.0228227242,
 -8.3628624745\\Version=ES64L-G16RevB.01\State=1-A\HF=-5208.9691014\RMS
 D=1.003e-09\Dipole=0.6326772,-3.9468622,-0.6312471\Quadrupole=2.808149
 3,-20.0420705,17.2339212,-15.0512169,-3.8315179,8.4060694\PG=C01 [X(C5
 2H44Cl2F12Fe1O2P2Pd1)]\\@


            THE IRISH PIG
 'TWAS AN EVENING IN NOVEMBER,
 AS I VERY WELL REMEMBER
 I WAS STROLLING DOWN THE STREET IN DRUNKEN PRIDE,
 BUT MY KNEES WERE ALL A'FLUTTER
 SO I LANDED IN THE GUTTER,
 AND A PIG CAME UP AND LAY DOWN BY MY SIDE.

 YES, I LAY THERE IN THE GUTTER
 THINKING THOUGHTS I COULD NOT UTTER
 WHEN A COLLEEN PASSING BY DID SOFTLY SAY,
 'YE CAN TELL A MAN THAT BOOZES
 BY THE COMPANY THAT HE CHOOSES.' -
 AT THAT, THE PIG GOT UP AND WALKED AWAY!
     -- THE ECONOMIST, AUGUST 23, 1986
 Job cpu time:       0 days  4 hours 50 minutes 37.0 seconds.
 Elapsed time:       0 days  0 hours  9 minutes  8.0 seconds.
 File lengths (MBytes):  RWF=   3276 Int=      0 D2E=      0 Chk=    493 Scr=      1
 Normal termination of Gaussian 16 at Fri Mar  4 05:46:46 2022.
