 Entering Gaussian System, Link 0=g09
 Input=W001_1_6_F_2_SPE_NoPd.com
 Output=W001_1_6_F_2_SPE_NoPd.log
 Initial command:
 /gstore/apps/gaussian/g09.e01-foss-2017a/g09/l1.exe "/local/22791615/Gau-10519.inp" -scrdir="/local/22791615/"
 Entering Link 1 = /gstore/apps/gaussian/g09.e01-foss-2017a/g09/l1.exe PID=     10520.
  
 Copyright (c) 1988,1990,1992,1993,1995,1998,2003,2009,2015,
            Gaussian, Inc.  All Rights Reserved.
  
 This is part of the Gaussian(R) 09 program.  It is based on
 the Gaussian(R) 03 system (copyright 2003, Gaussian, Inc.),
 the Gaussian(R) 98 system (copyright 1998, Gaussian, Inc.),
 the Gaussian(R) 94 system (copyright 1995, Gaussian, Inc.),
 the Gaussian 92(TM) system (copyright 1992, Gaussian, Inc.),
 the Gaussian 90(TM) system (copyright 1990, Gaussian, Inc.),
 the Gaussian 88(TM) system (copyright 1988, Gaussian, Inc.),
 the Gaussian 86(TM) system (copyright 1986, Carnegie Mellon
 University), and the Gaussian 82(TM) system (copyright 1983,
 Carnegie Mellon University). Gaussian is a federally registered
 trademark of Gaussian, Inc.
  
 This software contains proprietary and confidential information,
 including trade secrets, belonging to Gaussian, Inc.
  
 This software is provided under written license and may be
 used, copied, transmitted, or stored only in accord with that
 written license.
  
 The following legend is applicable only to US Government
 contracts under FAR:
  
                    RESTRICTED RIGHTS LEGEND
  
 Use, reproduction and disclosure by the US Government is
 subject to restrictions as set forth in subparagraphs (a)
 and (c) of the Commercial Computer Software - Restricted
 Rights clause in FAR 52.227-19.
  
 Gaussian, Inc.
 340 Quinnipiac St., Bldg. 40, Wallingford CT 06492
  
  
 ---------------------------------------------------------------
 Warning -- This program may not be used in any manner that
 competes with the business of Gaussian, Inc. or will provide
 assistance to any competitor of Gaussian, Inc.  The licensee
 of this program is prohibited from giving any competitor of
 Gaussian, Inc. access to this program.  By using this program,
 the user acknowledges that Gaussian, Inc. is engaged in the
 business of creating and licensing software in the field of
 computational chemistry and represents and warrants to the
 licensee that it is not a competitor of Gaussian, Inc. and that
 it will not use this program in any manner prohibited above.
 ---------------------------------------------------------------
  

 Cite this work as:
 Gaussian 09, Revision E.01,
 M. J. Frisch, G. W. Trucks, H. B. Schlegel, G. E. Scuseria, 
 M. A. Robb, J. R. Cheeseman, G. Scalmani, V. Barone, B. Mennucci, 
 G. A. Petersson, H. Nakatsuji, M. Caricato, X. Li, H. P. Hratchian, 
 A. F. Izmaylov, J. Bloino, G. Zheng, J. L. Sonnenberg, M. Hada, 
 M. Ehara, K. Toyota, R. Fukuda, J. Hasegawa, M. Ishida, T. Nakajima, 
 Y. Honda, O. Kitao, H. Nakai, T. Vreven, J. A. Montgomery, Jr., 
 J. E. Peralta, F. Ogliaro, M. Bearpark, J. J. Heyd, E. Brothers, 
 K. N. Kudin, V. N. Staroverov, T. Keith, R. Kobayashi, J. Normand, 
 K. Raghavachari, A. Rendell, J. C. Burant, S. S. Iyengar, J. Tomasi, 
 M. Cossi, N. Rega, J. M. Millam, M. Klene, J. E. Knox, J. B. Cross, 
 V. Bakken, C. Adamo, J. Jaramillo, R. Gomperts, R. E. Stratmann, 
 O. Yazyev, A. J. Austin, R. Cammi, C. Pomelli, J. W. Ochterski, 
 R. L. Martin, K. Morokuma, V. G. Zakrzewski, G. A. Voth, 
 P. Salvador, J. J. Dannenberg, S. Dapprich, A. D. Daniels, 
 O. Farkas, J. B. Foresman, J. V. Ortiz, J. Cioslowski, 
 and D. J. Fox, Gaussian, Inc., Wallingford CT, 2013.
 
 ******************************************
 Gaussian 09:  ES64L-G09RevE.01 30-Nov-2015
                 6-Dec-2021 
 ******************************************
 %nprocs=14
 Will use up to   14 processors via shared memory.
 %mem=128GB
 %chk=W001_1_6_F_2_SPE_NoPd.chk
 ----------------------------------------------------------------------
 # PBE1PBE gen pseudo=read int=(grid=ultrafine) empiricaldispersion=GD3
 BJ nmr=giao
 ----------------------------------------------------------------------
 1/38=1/1;
 2/12=2,17=6,18=5,40=1/2;
 3/5=7,11=2,16=1,17=8,25=1,30=1,74=-13,75=-5,124=41/1,2,8,3;
 4//1;
 5/5=2,38=5/2;
 8/6=1,10=90,11=11/1;
 10/13=100,45=16/2;
 6/7=2,8=2,9=2,10=2,28=1/1;
 99/9=1/99;
 ------------------
 W001_1_6_F_2 title
 ------------------
 Symbolic Z-matrix:
 Charge =  0 Multiplicity = 1
 C                     0.10932  -3.91748   4.14323 
 C                     0.08736  -3.34389   5.46014 
 C                     1.41111  -3.44483   6.01042 
 C                     2.25236  -4.07836   5.03256 
 C                     1.44398  -4.37393   3.87826 
 H                    -0.77003  -2.86774   5.93714 
 H                     1.73336  -3.05918   6.97819 
 H                     3.32023  -4.27249   5.13993 
 H                     1.78102  -4.84712   2.95452 
 H                    -0.73337  -3.97064   3.45266 
 Fe                    1.43807  -2.35672   4.27903 
 C                     1.70764  -0.41399   4.86457 
 C                     2.87516  -0.91646   4.21198 
 C                     2.51971  -1.32423   2.87327 
 C                     1.08298  -1.10814   2.72145 
 C                     0.6113   -0.51851   3.95204 
 H                     1.65157  -0.05641   5.89284 
 H                    -0.42072  -0.24836   4.16903 
 C                     0.18131  -1.48826   1.56276 
 P                     0.66677  -0.47901   0.05147 
 H                     0.34391  -2.55225   1.31692 
 C                    -1.3086   -1.27684   1.88721 
 H                    -1.95186  -1.68469   1.09353 
 H                    -1.54964  -1.79913   2.82776 
 H                    -1.53962  -0.20456   1.99672 
 C                    -2.79478  -0.60985  -3.06488 
 C                    -2.17621   0.60713  -2.75751 
 C                    -1.16059   0.67294  -1.79091 
 C                    -0.75514  -0.49576  -1.12909 
 C                    -1.35481  -1.72553  -1.45604 
 C                    -2.37907  -1.7773   -2.40932 
 H                    -3.58891  -0.65143  -3.81418 
 C                    -2.64201   1.88167  -3.42414 
 H                    -0.70048   1.63124  -1.53861 
 H                    -1.0262   -2.65417  -0.97887 
 C                    -2.97577  -3.11034  -2.78936 
 C                     3.30655  -3.11354  -2.76377 
 C                     2.8331   -3.66513  -1.56678 
 C                     2.05992  -2.90043  -0.684 
 C                     1.75541  -1.56466  -0.98511 
 C                     2.21312  -1.01647  -2.19672 
 C                     2.98886  -1.78527  -3.07469 
 H                     3.91282  -3.71151  -3.44916 
 C                     3.14453  -5.1094   -1.25547 
 H                     1.72616  -3.36035   0.24672 
 H                     1.95358   0.0134   -2.46401 
 C                     3.54716  -1.15313  -4.32685 
 F                     4.76482  -0.57637  -4.07509 
 F                     3.73896  -2.06627  -5.31206 
 F                     2.73708  -0.17627  -4.8053 
 F                     4.47339  -5.3715   -1.40898 
 F                     2.80467  -5.44719   0.02028 
 F                     2.47628  -5.94923  -2.08955 
 F                    -1.61056   2.74275  -3.61988 
 F                    -3.21001   1.62962  -4.63674 
 F                    -3.57102   2.5211   -2.66755 
 F                    -2.27972  -3.69162  -3.80586 
 F                    -2.95539  -3.98227  -1.74248 
 F                    -4.2638   -2.98597  -3.20234 
 P                     3.66964   0.96773   0.9997 
 C                     5.29301   1.98611   5.23546 
 C                     4.02612   2.4494    4.85562 
 C                     3.52088   2.16888   3.57842 
 C                     4.2903    1.4173    2.67412 
 C                     5.56497   0.94833   3.05672 
 C                     6.06442   1.23737   4.33235 
 H                     5.68326   2.20874   6.23402 
 H                     3.42042   3.03436   5.55502 
 H                     2.53705   2.53632   3.27731 
 H                     6.16286   0.35167   2.35988 
 H                     7.05692   0.87615   4.62104 
 H                     3.88218  -0.96712   4.62564 
 C                     5.61011  -2.59985   0.13468 
 C                     5.08523  -3.48525   1.08056 
 C                     4.07074  -3.05238   1.94228 
 C                     3.55449  -1.7446    1.88828 
 C                     4.13566  -0.82889   0.95941 
 C                     5.1466   -1.27831   0.08846 
 H                     6.38905  -2.92612  -0.56154 
 H                     5.44507  -4.51681   1.13474 
 H                     3.64926  -3.73256   2.68411 
 H                     5.59425  -0.5826   -0.62535 
 C                     6.3901    3.18643  -2.03943 
 C                     5.53011   2.16693  -2.47346 
 C                     4.72644   1.49252  -1.54826 
 C                     4.7941    1.80935  -0.17747 
 C                     5.65342   2.83692   0.253 
 C                     6.4453    3.52042  -0.67942 
 H                     7.01141   3.72446  -2.76241 
 H                     5.47483   1.89212  -3.53097 
 H                     4.05443   0.70458  -1.89499 
 H                     5.69025   3.11194   1.30984 
 H                     7.10401   4.3252   -0.33769 
 
 Stoichiometry    C46H32F12FeP2
 Framework group  C1[X(C46H32F12FeP2)]
 Deg. of freedom   273
 Full point group                 C1      NOp   1
 Largest Abelian subgroup         C1      NOp   1
 Largest concise Abelian subgroup C1      NOp   1
                         Standard orientation:                         
 ---------------------------------------------------------------------
 Center     Atomic      Atomic             Coordinates (Angstroms)
 Number     Number       Type             X           Y           Z
 ---------------------------------------------------------------------
      1          6           0       -2.129148   -4.757992    0.230967
      2          6           0       -3.194100   -5.112861   -0.665522
      3          6           0       -4.419344   -4.586620   -0.129673
      4          6           0       -4.111590   -3.903855    1.096860
      5          6           0       -2.693515   -4.014061    1.320884
      6          1           0       -3.084357   -5.642171   -1.612705
      7          1           0       -5.401776   -4.647490   -0.599004
      8          1           0       -4.825678   -3.373101    1.727689
      9          1           0       -2.135185   -3.595951    2.160076
     10          1           0       -1.071682   -4.987555    0.093447
     11         26           0       -3.081341   -3.077551   -0.468629
     12          6           0       -3.778774   -2.097336   -2.124675
     13          6           0       -3.930761   -1.292358   -0.954049
     14          6           0       -2.629748   -1.078152   -0.365612
     15          6           0       -1.661534   -1.814057   -1.174898
     16          6           0       -2.390472   -2.408899   -2.270040
     17          1           0       -4.584082   -2.450911   -2.768740
     18          1           0       -1.960951   -3.037181   -3.048447
     19          6           0       -0.181605   -2.030672   -0.923987
     20         15           0        0.709804   -0.379113   -1.050478
     21          1           0       -0.044114   -2.403425    0.106104
     22          6           0        0.435617   -3.044533   -1.904247
     23          1           0        1.469638   -3.293146   -1.623071
     24          1           0       -0.159077   -3.972668   -1.883769
     25          1           0        0.448052   -2.642707   -2.930663
     26          6           0        5.275337   -1.131149   -1.599507
     27          6           0        4.619021   -0.194401   -2.405660
     28          6           0        3.236551    0.015369   -2.283579
     29          6           0        2.503933   -0.717375   -1.337745
     30          6           0        3.165199   -1.639179   -0.505971
     31          6           0        4.541610   -1.853349   -0.647886
     32          1           0        6.350757   -1.292862   -1.705139
     33          6           0        5.387725    0.561472   -3.465651
     34          1           0        2.727522    0.730260   -2.934362
     35          1           0        2.618381   -2.192608    0.263933
     36          6           0        5.247325   -2.804899    0.286999
     37          6           0        1.494248    1.269066    3.251031
     38          6           0        0.832562    0.043474    3.105178
     39          6           0        0.556261   -0.472622    1.832707
     40          6           0        0.933294    0.238181    0.683677
     41          6           0        1.616210    1.458996    0.829477
     42          6           0        1.887256    1.972001    2.105027
     43          1           0        1.705366    1.671237    4.245302
     44          6           0        0.446948   -0.729461    4.343604
     45          1           0        0.022406   -1.420798    1.761101
     46          1           0        1.949839    2.008659   -0.057077
     47          6           0        2.540107    3.326347    2.241999
     48          9           0        1.594511    4.318374    2.263581
     49          9           0        3.249240    3.431726    3.394076
     50          9           0        3.372359    3.594382    1.205220
     51          9           0       -0.210231    0.064485    5.235741
     52          9           0       -0.364756   -1.786779    4.060124
     53          9           0        1.543107   -1.218662    4.981314
     54          9           0        4.902628    1.819558   -3.625520
     55          9           0        6.708329    0.661834   -3.145514
     56          9           0        5.309727   -0.063243   -4.668973
     57          9           0        5.670608   -2.167497    1.414031
     58          9           0        4.423856   -3.814722    0.685476
     59          9           0        6.340214   -3.364004   -0.294416
     60         15           0       -1.886035    1.915701   -1.120221
     61          6           0       -6.289483    1.408505   -2.522550
     62          6           0       -5.247422    1.038433   -3.383414
     63          6           0       -3.911213    1.196162   -2.989871
     64          6           0       -3.615840    1.728121   -1.723218
     65          6           0       -4.664543    2.098638   -0.854873
     66          6           0       -5.996345    1.942775   -1.257670
     67          1           0       -7.331460    1.283971   -2.835210
     68          1           0       -5.469689    0.622187   -4.371107
     69          1           0       -3.097318    0.916214   -3.662780
     70          1           0       -4.439288    2.501886    0.137959
     71          1           0       -6.805619    2.238157   -0.581884
     72          1           0       -4.859770   -0.874719   -0.566366
     73          6           0       -2.221305    1.594490    3.005999
     74          6           0       -2.639173    0.273198    3.189585
     75          6           0       -2.743778   -0.577307    2.082870
     76          6           0       -2.438566   -0.145060    0.779139
     77          6           0       -2.068850    1.221440    0.591862
     78          6           0       -1.954148    2.064927    1.713426
     79          1           0       -2.113406    2.268447    3.861603
     80          1           0       -2.861094   -0.104446    4.191923
     81          1           0       -3.066157   -1.611914    2.210499
     82          1           0       -1.670376    3.111194    1.576576
     83          6           0       -1.136264    6.479245   -0.705868
     84          6           0       -0.241496    5.561273   -0.136597
     85          6           0       -0.484351    4.188533   -0.251994
     86          6           0       -1.637025    3.719294   -0.911673
     87          6           0       -2.528809    4.643206   -1.486782
     88          6           0       -2.273456    6.017071   -1.382174
     89          1           0       -0.942878    7.553834   -0.627937
     90          1           0        0.650632    5.904052    0.395870
     91          1           0        0.220625    3.479983    0.188040
     92          1           0       -3.409440    4.288874   -2.027944
     93          1           0       -2.967082    6.729034   -1.840794
 ---------------------------------------------------------------------
 Rotational constants (GHZ):      0.0435016      0.0322808      0.0285753
 General basis read from cards:  (5D, 7F)
 ======================================================================================================
                                       Pseudopotential Parameters
 ======================================================================================================
  Center     Atomic      Valence      Angular      Power
  Number     Number     Electrons     Momentum     of R      Exponent        Coefficient   SO-Coeffient
 ======================================================================================================
    1          6
                                   No pseudopotential on this center.
    2          6
                                   No pseudopotential on this center.
    3          6
                                   No pseudopotential on this center.
    4          6
                                   No pseudopotential on this center.
    5          6
                                   No pseudopotential on this center.
    6          1
                                   No pseudopotential on this center.
    7          1
                                   No pseudopotential on this center.
    8          1
                                   No pseudopotential on this center.
    9          1
                                   No pseudopotential on this center.
   10          1
                                   No pseudopotential on this center.
   11         26           16
                                      F and up 
                                                     2        1.0000000        0.00000000    0.00000000
                                      S - F
                                                     2       20.9300000      253.74958800    0.00000000
                                                     2        9.4450000       37.92284500    0.00000000
                                      P - F
                                                     2       21.7600000      161.03681200    0.00000000
                                                     2        9.1780000       27.65129800    0.00000000
                                      D - F
                                                     2       25.9000000      -24.43127600    0.00000000
                                                     2        8.8350000       -1.43425100    0.00000000
   12          6
                                   No pseudopotential on this center.
   13          6
                                   No pseudopotential on this center.
   14          6
                                   No pseudopotential on this center.
   15          6
                                   No pseudopotential on this center.
   16          6
                                   No pseudopotential on this center.
   17          1
                                   No pseudopotential on this center.
   18          1
                                   No pseudopotential on this center.
   19          6
                                   No pseudopotential on this center.
   20         15
                                   No pseudopotential on this center.
   21          1
                                   No pseudopotential on this center.
   22          6
                                   No pseudopotential on this center.
   23          1
                                   No pseudopotential on this center.
   24          1
                                   No pseudopotential on this center.
   25          1
                                   No pseudopotential on this center.
   26          6
                                   No pseudopotential on this center.
   27          6
                                   No pseudopotential on this center.
   28          6
                                   No pseudopotential on this center.
   29          6
                                   No pseudopotential on this center.
   30          6
                                   No pseudopotential on this center.
   31          6
                                   No pseudopotential on this center.
   32          1
                                   No pseudopotential on this center.
   33          6
                                   No pseudopotential on this center.
   34          1
                                   No pseudopotential on this center.
   35          1
                                   No pseudopotential on this center.
   36          6
                                   No pseudopotential on this center.
   37          6
                                   No pseudopotential on this center.
   38          6
                                   No pseudopotential on this center.
   39          6
                                   No pseudopotential on this center.
   40          6
                                   No pseudopotential on this center.
   41          6
                                   No pseudopotential on this center.
   42          6
                                   No pseudopotential on this center.
   43          1
                                   No pseudopotential on this center.
   44          6
                                   No pseudopotential on this center.
   45          1
                                   No pseudopotential on this center.
   46          1
                                   No pseudopotential on this center.
   47          6
                                   No pseudopotential on this center.
   48          9
                                   No pseudopotential on this center.
   49          9
                                   No pseudopotential on this center.
   50          9
                                   No pseudopotential on this center.
   51          9
                                   No pseudopotential on this center.
   52          9
                                   No pseudopotential on this center.
   53          9
                                   No pseudopotential on this center.
   54          9
                                   No pseudopotential on this center.
   55          9
                                   No pseudopotential on this center.
   56          9
                                   No pseudopotential on this center.
   57          9
                                   No pseudopotential on this center.
   58          9
                                   No pseudopotential on this center.
   59          9
                                   No pseudopotential on this center.
   60         15
                                   No pseudopotential on this center.
   61          6
                                   No pseudopotential on this center.
   62          6
                                   No pseudopotential on this center.
   63          6
                                   No pseudopotential on this center.
   64          6
                                   No pseudopotential on this center.
   65          6
                                   No pseudopotential on this center.
   66          6
                                   No pseudopotential on this center.
   67          1
                                   No pseudopotential on this center.
   68          1
                                   No pseudopotential on this center.
   69          1
                                   No pseudopotential on this center.
   70          1
                                   No pseudopotential on this center.
   71          1
                                   No pseudopotential on this center.
   72          1
                                   No pseudopotential on this center.
   73          6
                                   No pseudopotential on this center.
   74          6
                                   No pseudopotential on this center.
   75          6
                                   No pseudopotential on this center.
   76          6
                                   No pseudopotential on this center.
   77          6
                                   No pseudopotential on this center.
   78          6
                                   No pseudopotential on this center.
   79          1
                                   No pseudopotential on this center.
   80          1
                                   No pseudopotential on this center.
   81          1
                                   No pseudopotential on this center.
   82          1
                                   No pseudopotential on this center.
   83          6
                                   No pseudopotential on this center.
   84          6
                                   No pseudopotential on this center.
   85          6
                                   No pseudopotential on this center.
   86          6
                                   No pseudopotential on this center.
   87          6
                                   No pseudopotential on this center.
   88          6
                                   No pseudopotential on this center.
   89          1
                                   No pseudopotential on this center.
   90          1
                                   No pseudopotential on this center.
   91          1
                                   No pseudopotential on this center.
   92          1
                                   No pseudopotential on this center.
   93          1
                                   No pseudopotential on this center.
 ======================================================================================================
 There are  2413 symmetry adapted cartesian basis functions of A   symmetry.
 There are  2107 symmetry adapted basis functions of A   symmetry.
  2107 basis functions,  3427 primitive gaussians,  2413 cartesian basis functions
   231 alpha electrons      231 beta electrons
       nuclear repulsion energy     10716.5501201199 Hartrees.
 NAtoms=   93 NActive=   93 NUniq=   93 SFac= 1.00D+00 NAtFMM=   60 NAOKFM=T Big=T
 Integral buffers will be    131072 words long.
 Raffenetti 2 integral format.
 Two-electron integral symmetry is turned on.
 Nuclear repulsion after empirical dispersion term =    10716.3911618032 Hartrees.
 One-electron integrals computed using PRISM.
   1 Symmetry operations used in ECPInt.
 ECPInt:  NShTT=  326028 NPrTT= 1021761 LenC2=  231435 LenP2D=  463064.
 LDataN:  DoStor=T MaxTD1= 6 Len=  172
 NBasis=  2107 RedAO= T EigKep=  2.88D-06  NBF=  2107
 NBsUse=  2107 1.00D-06 EigRej= -1.00D+00 NBFU=  2107
 ExpMin= 1.00D-02 ExpMax= 5.24D+04 ExpMxC= 1.79D+03 IAcc=3 IRadAn=         5 AccDes= 0.00D+00
 Harris functional with IExCor= 1009 and IRadAn=       5 diagonalized for initial guess.
 HarFok:  IExCor= 1009 AccDes= 0.00D+00 IRadAn=         5 IDoV= 1 UseB2=F ITyADJ=14
 ICtDFT=  3500011 ScaDFX=  1.000000  1.000000  1.000000  1.000000
 FoFCou: FMM=F IPFlag=           0 FMFlag=      100000 FMFlg1=        2001
         NFxFlg=           0 DoJE=T BraDBF=F KetDBF=T FulRan=T
         wScrn=  0.000000 ICntrl=     500 IOpCl=  0 I1Cent=   200000004 NGrid=           0
         NMat0=    1 NMatS0=      1 NMatT0=    0 NMatD0=    1 NMtDS0=    0 NMtDT0=    0
 Petite list used in FoFCou.
 Requested convergence on RMS density matrix=1.00D-08 within 128 cycles.
 Requested convergence on MAX density matrix=1.00D-06.
 Requested convergence on             energy=1.00D-06.
 No special actions if energy rises.
 EnCoef did     1 forward-backward iterations
 EnCoef did     4 forward-backward iterations
 EnCoef did    10 forward-backward iterations
 Restarting incremental Fock formation.
 SCF Done:  E(RPBE1PBE) =  -3774.74870048     A.U. after   26 cycles
            NFock= 26  Conv=0.32D-08     -V/T= 2.0184
 DoSCS=F DFT=T ScalE2(SS,OS)=  1.000000  1.000000
 Range of M.O.s used for correlation:     1  2107
 NBasis=  2107 NAE=   231 NBE=   231 NFC=     0 NFV=     0
 NROrb=   2107 NOA=   231 NOB=   231 NVA=  1876 NVB=  1876

 **** Warning!!: The largest alpha MO coefficient is  0.42565968D+02

          Differentiating once with respect to magnetic field using GIAOs.
          Electric field/nuclear overlap derivatives assumed to be zero.
 FoFCou: FMM=F IPFlag=           0 FMFlag=      100000 FMFlg1=        2001
         NFxFlg=           0 DoJE=F BraDBF=F KetDBF=T FulRan=T
         wScrn=  0.000000 ICntrl=    6100 IOpCl=  0 I1Cent=           7 NGrid=          93
         NMat0=    1 NMatS0=      1 NMatT0=    0 NMatD0=    1 NMtDS0=    0 NMtDT0=    0
 Symmetry not used in FoFCou.
   1 Symmetry operations used in ECPInt.
 ECPInt:  NShTT=  326028 NPrTT= 1021761 LenC2=  326029 LenP2D= 1021761.
 LDataN:  DoStor=T MaxTD1= 7 Len=  274
 FoFJK:  IHMeth= 1 ICntrl=    6127 DoSepK=F KAlg= 0 I1Cent=   0 FoldK=F
 IRaf=         1 NMat=   1 IRICut=       1 DoRegI=T DoRafI=F ISym2E= 0.
          There are     3 degrees of freedom in the 1st order CPHF.  IDoFFX=0 NUNeed=     3.
      3 vectors produced by pass  0 Test12= 1.44D-11 3.33D-08 XBig12= 3.10D+02 2.29D+00.
 AX will form     3 AO Fock derivatives at one time.
      3 vectors produced by pass  1 Test12= 1.44D-11 3.33D-08 XBig12= 1.77D+00 5.17D-01.
      3 vectors produced by pass  2 Test12= 1.44D-11 3.33D-08 XBig12= 9.26D-02 9.29D-02.
      3 vectors produced by pass  3 Test12= 1.44D-11 3.33D-08 XBig12= 1.17D-03 7.41D-03.
      3 vectors produced by pass  4 Test12= 1.44D-11 3.33D-08 XBig12= 2.58D-05 1.76D-03.
      3 vectors produced by pass  5 Test12= 1.44D-11 3.33D-08 XBig12= 7.08D-07 1.46D-04.
      3 vectors produced by pass  6 Test12= 1.44D-11 3.33D-08 XBig12= 4.38D-09 1.74D-05.
      3 vectors produced by pass  7 Test12= 1.44D-11 3.33D-08 XBig12= 4.44D-11 2.73D-06.
      3 vectors produced by pass  8 Test12= 1.44D-11 3.33D-08 XBig12= 2.47D-12 6.26D-07.
 InvSVY:  IOpt=1 It=  1 EMax= 7.11D-15
 Solved reduced A of dimension    27 with     3 vectors.
 Calculating GIAO nuclear magnetic shielding tensors.
 SCF GIAO Magnetic shielding tensor (ppm):
      1  C    Isotropic =   108.0256   Anisotropy =    96.5727
   XX=    68.6100   YX=    32.5060   ZX=    -5.5150
   XY=    45.2974   YY=   137.1265   ZY=   -31.2435
   XZ=   -12.1768   YZ=   -28.5683   ZZ=   118.3403
   Eigenvalues:    50.7228   100.9467   172.4075
      2  C    Isotropic =   112.0765   Anisotropy =    89.4078
   XX=   114.2930   YX=     9.5671   ZX=    -5.8333
   XY=    12.7021   YY=   115.8979   ZY=   -66.8025
   XZ=    -3.6609   YZ=   -49.6593   ZZ=   106.0386
   Eigenvalues:    52.2614   112.2865   171.6817
      3  C    Isotropic =   113.1509   Anisotropy =    86.8184
   XX=    64.1017   YX=    -9.4882   ZX=   -19.7015
   XY=   -22.6909   YY=   148.7848   ZY=   -33.3888
   XZ=   -14.0620   YZ=   -29.2629   ZZ=   126.5663
   Eigenvalues:    53.5442   114.8787   171.0299
      4  C    Isotropic =   112.3588   Anisotropy =    89.0691
   XX=    84.3862   YX=    19.4041   ZX=    25.5914
   XY=    10.8980   YY=   159.8005   ZY=   -23.3532
   XZ=    27.1304   YZ=   -37.1721   ZZ=    92.8895
   Eigenvalues:    52.6363   112.7018   171.7382
      5  C    Isotropic =   110.0956   Anisotropy =    93.0253
   XX=    96.6457   YX=     8.0079   ZX=   -24.7133
   XY=     9.4450   YY=   160.5643   ZY=   -20.8366
   XZ=   -29.0625   YZ=   -34.3546   ZZ=    73.0768
   Eigenvalues:    52.1566   106.0177   172.1124
      6  H    Isotropic =    27.4304   Anisotropy =     6.1395
   XX=    26.0578   YX=     0.9009   ZX=    -0.2273
   XY=     0.3569   YY=    28.1606   ZY=     3.7492
   XZ=    -0.2093   YZ=     3.0316   ZZ=    28.0728
   Eigenvalues:    24.4958    26.2720    31.5234
      7  H    Isotropic =    27.6428   Anisotropy =     7.0461
   XX=    31.0081   YX=     1.8022   ZX=     2.1625
   XY=     2.0846   YY=    26.0616   ZY=     1.0572
   XZ=     1.6131   YZ=     0.6753   ZZ=    25.8589
   Eigenvalues:    25.0800    25.5083    32.3402
      8  H    Isotropic =    27.2843   Anisotropy =     4.6159
   XX=    28.4487   YX=     0.6543   ZX=    -2.3299
   XY=     0.0042   YY=    25.9721   ZY=     0.9477
   XZ=    -2.1341   YZ=     2.1944   ZZ=    27.4320
   Eigenvalues:    24.3294    27.1620    30.3615
      9  H    Isotropic =    26.9444   Anisotropy =     6.0292
   XX=    25.6414   YX=     1.2115   ZX=     1.8896
   XY=     1.6712   YY=    26.5588   ZY=     1.3725
   XZ=     2.1169   YZ=     2.5746   ZZ=    28.6332
   Eigenvalues:    24.4682    25.4012    30.9639
     10  H    Isotropic =    27.6342   Anisotropy =     3.4560
   XX=    29.6639   YX=    -0.4207   ZX=    -1.2611
   XY=    -0.6299   YY=    27.4458   ZY=     0.4920
   XZ=    -0.3143   YZ=    -0.1618   ZZ=    25.7930
   Eigenvalues:    25.6367    27.3278    29.9383
     11  Fe   Isotropic = -6218.3329   Anisotropy =  8341.0325
   XX= -8833.4897   YX=   961.4730   ZX=  -483.3879
   XY=   931.4853   YY= -3119.2716   ZY= -3713.6210
   XZ=  -496.0066   YZ= -3695.8292   ZZ= -6702.2373
   Eigenvalues: -9090.1525 -8907.2016  -657.6445
     12  C    Isotropic =   113.8930   Anisotropy =    90.5435
   XX=    91.6847   YX=     5.0778   ZX=   -31.9613
   XY=    15.2607   YY=   158.8041   ZY=   -20.6930
   XZ=   -43.1326   YZ=   -31.2796   ZZ=    91.1903
   Eigenvalues:    52.5898   114.8339   174.2554
     13  C    Isotropic =   103.5766   Anisotropy =    89.2180
   XX=    62.1779   YX=    46.9645   ZX=    11.6713
   XY=    47.0362   YY=   118.7524   ZY=   -32.8412
   XZ=   -10.8116   YZ=   -22.1502   ZZ=   129.7994
   Eigenvalues:    33.4906   114.1838   163.0552
     14  C    Isotropic =    89.8997   Anisotropy =    96.4193
   XX=    66.5087   YX=     5.6471   ZX=    -6.6316
   XY=     4.6895   YY=    87.9271   ZY=   -57.4647
   XZ=    -5.7093   YZ=   -42.5603   ZZ=   115.2632
   Eigenvalues:    49.7404    65.7795   154.1792
     15  C    Isotropic =    93.7647   Anisotropy =    78.4707
   XX=    58.7310   YX=     3.7705   ZX=     0.3733
   XY=   -15.9467   YY=   121.2526   ZY=   -32.4157
   XZ=    20.0417   YZ=   -31.3779   ZZ=   101.3105
   Eigenvalues:    56.3802    78.8354   146.0785
     16  C    Isotropic =   113.8529   Anisotropy =    82.9759
   XX=   113.7456   YX=     9.6842   ZX=    15.9400
   XY=    -2.4796   YY=   152.7601   ZY=   -32.6250
   XZ=    24.9029   YZ=   -44.8820   ZZ=    75.0530
   Eigenvalues:    52.3350   120.0535   169.1702
     17  H    Isotropic =    28.1899   Anisotropy =     6.6534
   XX=    29.5881   YX=     1.3761   ZX=     3.9102
   XY=     0.4957   YY=    28.2549   ZY=     1.9459
   XZ=     3.3839   YZ=     0.7882   ZZ=    26.7268
   Eigenvalues:    24.1446    27.7996    32.6255
     18  H    Isotropic =    27.4132   Anisotropy =     3.4200
   XX=    29.2810   YX=    -0.8529   ZX=     0.7649
   XY=    -1.1495   YY=    25.8449   ZY=     3.0540
   XZ=     1.0977   YZ=     3.1113   ZZ=    27.1136
   Eigenvalues:    23.0339    29.5124    29.6932
     19  C    Isotropic =   154.9647   Anisotropy =    22.0040
   XX=   169.3229   YX=    -0.4910   ZX=    -4.7422
   XY=     2.4970   YY=   155.5824   ZY=    -3.5091
   XZ=     0.0930   YZ=    -4.5567   ZZ=   139.9888
   Eigenvalues:   138.8728   156.3873   169.6341
     20  P    Isotropic =   298.4926   Anisotropy =    85.3261
   XX=   265.6867   YX=   -24.5918   ZX=     0.3968
   XY=   -33.8768   YY=   345.8136   ZY=    -3.0382
   XZ=    -8.5114   YZ=    -2.7314   ZZ=   283.9777
   Eigenvalues:   255.3648   284.7364   355.3767
     21  H    Isotropic =    27.0222   Anisotropy =     4.0408
   XX=    27.0232   YX=    -0.5245   ZX=    -0.7106
   XY=     1.7537   YY=    24.6850   ZY=    -1.6556
   XZ=     0.7242   YZ=    -0.9930   ZZ=    29.3583
   Eigenvalues:    24.2094    27.1410    29.7161
     22  C    Isotropic =   168.4786   Anisotropy =    10.1810
   XX=   174.2862   YX=     0.8424   ZX=    -2.3061
   XY=    -0.2083   YY=   168.1343   ZY=     7.8635
   XZ=    -0.6452   YZ=     9.8830   ZZ=   163.0154
   Eigenvalues:   156.2358   173.9341   175.2660
     23  H    Isotropic =    30.0845   Anisotropy =    10.3198
   XX=    36.5407   YX=    -3.0199   ZX=     0.2077
   XY=     0.3484   YY=    29.6988   ZY=     1.2382
   XZ=     3.6123   YZ=     3.5256   ZZ=    24.0140
   Eigenvalues:    22.7783    30.5108    36.9643
     24  H    Isotropic =    29.2033   Anisotropy =     8.0371
   XX=    29.8975   YX=     1.4994   ZX=    -1.8143
   XY=     3.6441   YY=    32.9404   ZY=     1.5578
   XZ=     0.1111   YZ=     2.1766   ZZ=    24.7718
   Eigenvalues:    24.0069    29.0416    34.5613
     25  H    Isotropic =    30.1881   Anisotropy =     7.5634
   XX=    29.1294   YX=    -0.2554   ZX=    -2.9026
   XY=     3.0721   YY=    26.6669   ZY=     0.9189
   XZ=    -0.1238   YZ=     1.4744   ZZ=    34.7678
   Eigenvalues:    25.6962    29.6376    35.2303
     26  C    Isotropic =    55.4326   Anisotropy =   189.9807
   XX=   -33.2318   YX=    27.1342   ZX=    25.5177
   XY=    27.6373   YY=   108.9631   ZY=    72.4325
   XZ=    23.9277   YZ=    78.4509   ZZ=    90.5666
   Eigenvalues:   -39.5549    23.7663   182.0864
     27  C    Isotropic =    45.8517   Anisotropy =   162.7017
   XX=    11.3730   YX=    -5.8402   ZX=    41.2291
   XY=    -6.8846   YY=    73.6482   ZY=    87.2587
   XZ=    36.7251   YZ=    87.4185   ZZ=    52.5340
   Eigenvalues:   -45.3526    28.5882   154.3195
     28  C    Isotropic =    43.8856   Anisotropy =   183.6133
   XX=    11.9305   YX=    43.6778   ZX=   -11.5718
   XY=    48.0388   YY=    62.0524   ZY=    99.5386
   XZ=    -3.5955   YZ=   103.0510   ZZ=    57.6738
   Eigenvalues:   -61.5208    26.8830   166.2945
     29  C    Isotropic =    34.0078   Anisotropy =   213.9936
   XX=   -40.9813   YX=    28.7644   ZX=    28.5869
   XY=    30.6386   YY=    78.3981   ZY=    98.6928
   XZ=    28.2893   YZ=    95.6192   ZZ=    64.6065
   Eigenvalues:   -48.7621   -25.8847   176.6702
     30  C    Isotropic =    38.3985   Anisotropy =   198.0794
   XX=    -5.4119   YX=     5.8537   ZX=    40.1768
   XY=    -5.1160   YY=    82.9452   ZY=    98.2006
   XZ=    46.7822   YZ=   108.2967   ZZ=    37.6622
   Eigenvalues:   -65.3713    10.1154   170.4514
     31  C    Isotropic =    46.7465   Anisotropy =   162.1946
   XX=    21.4384   YX=    36.6294   ZX=    -8.0542
   XY=    39.4678   YY=    60.6835   ZY=    93.5984
   XZ=    -2.2407   YZ=    88.7546   ZZ=    58.1175
   Eigenvalues:   -46.0526    31.4157   154.8762
     32  H    Isotropic =    23.3274   Anisotropy =    10.0049
   XX=    21.7717   YX=    -0.3503   ZX=    -1.4873
   XY=    -0.3465   YY=    24.1540   ZY=    -5.7331
   XZ=    -1.0648   YZ=    -5.9461   ZZ=    24.0564
   Eigenvalues:    17.9182    22.0667    29.9973
     33  C    Isotropic =    48.9125   Anisotropy =    14.0095
   XX=    55.1449   YX=    -4.7417   ZX=     3.2449
   XY=    -4.8029   YY=    48.0539   ZY=    -0.0316
   XZ=     3.5679   YZ=    -0.7289   ZZ=    43.5387
   Eigenvalues:    42.4177    46.0676    58.2521
     34  H    Isotropic =    22.8594   Anisotropy =    12.7262
   XX=    27.6114   YX=     2.2016   ZX=    -5.9012
   XY=     2.4334   YY=    19.4453   ZY=    -0.4655
   XZ=    -5.1501   YZ=    -0.9578   ZZ=    21.5217
   Eigenvalues:    17.9552    19.2795    31.3436
     35  H    Isotropic =    23.5855   Anisotropy =    16.1949
   XX=    30.7823   YX=    -8.4910   ZX=     1.3999
   XY=    -4.6757   YY=    21.3823   ZY=     0.8634
   XZ=     2.9560   YZ=    -0.3523   ZZ=    18.5919
   Eigenvalues:    16.9557    19.4187    34.3821
     36  C    Isotropic =    48.8034   Anisotropy =    15.1480
   XX=    55.8859   YX=     1.0424   ZX=    -6.7957
   XY=     2.2574   YY=    46.1842   ZY=     0.9918
   XZ=    -6.0863   YZ=    -0.1223   ZZ=    44.3401
   Eigenvalues:    41.2279    46.2802    58.9021
     37  C    Isotropic =    57.5532   Anisotropy =   187.5147
   XX=   149.0843   YX=   -64.5288   ZX=   -14.4581
   XY=   -69.2739   YY=    48.7768   ZY=   -19.9980
   XZ=    -9.8440   YZ=   -19.7483   ZZ=   -25.2015
   Eigenvalues:   -35.7647    25.8614   182.5630
     38  C    Isotropic =    46.2695   Anisotropy =   168.7325
   XX=   125.0137   YX=   -63.6079   ZX=    23.4729
   XY=   -64.8403   YY=    36.1123   ZY=    28.8472
   XZ=    17.9768   YZ=    33.4264   ZZ=   -22.3175
   Eigenvalues:   -49.1861    29.2367   158.7578
     39  C    Isotropic =    52.3666   Anisotropy =   203.3013
   XX=   138.5639   YX=   -93.4219   ZX=     6.4535
   XY=   -99.1248   YY=    -1.1340   ZY=   -12.7108
   XZ=     0.1337   YZ=    -2.5010   ZZ=    19.6699
   Eigenvalues:   -50.6255    19.8245   187.9008
     40  C    Isotropic =    30.7318   Anisotropy =   220.7696
   XX=   131.1248   YX=   -92.0135   ZX=    -0.5214
   XY=   -86.1079   YY=     8.1920   ZY=    -3.7973
   XZ=    -0.2632   YZ=   -10.7195   ZZ=   -47.1215
   Eigenvalues:   -50.7448   -34.9714   177.9115
     41  C    Isotropic =    47.6585   Anisotropy =   189.4983
   XX=   136.5642   YX=   -62.1917   ZX=    31.6243
   XY=   -81.2974   YY=    34.4975   ZY=    30.3223
   XZ=    15.2304   YZ=    21.1348   ZZ=   -28.0861
   Eigenvalues:   -51.5014    20.4862   173.9907
     42  C    Isotropic =    47.9587   Anisotropy =   162.6526
   XX=   111.3789   YX=   -85.5038   ZX=    -2.4808
   XY=   -81.7260   YY=     1.0600   ZY=    -4.6840
   XZ=    -2.8000   YZ=    -8.2376   ZZ=    31.4371
   Eigenvalues:   -44.5841    32.0664   156.3937
     43  H    Isotropic =    23.7584   Anisotropy =     9.3208
   XX=    22.4630   YX=     5.2760   ZX=    -0.0274
   XY=     4.1571   YY=    25.8618   ZY=    -2.3208
   XZ=    -0.9667   YZ=    -2.7199   ZZ=    22.9504
   Eigenvalues:    18.8449    22.4581    29.9723
     44  C    Isotropic =    48.2887   Anisotropy =    13.5287
   XX=    47.6645   YX=     2.8961   ZX=     5.5895
   XY=     3.2461   YY=    49.9211   ZY=     5.6117
   XZ=     3.6064   YZ=     5.6318   ZZ=    47.2807
   Eigenvalues:    41.9893    45.5690    57.3079
     45  H    Isotropic =    23.4596   Anisotropy =     8.9139
   XX=    23.0662   YX=    -2.6513   ZX=    -0.1553
   XY=    -1.6669   YY=    18.0115   ZY=     2.2245
   XZ=     0.4828   YZ=    -0.0809   ZZ=    29.3011
   Eigenvalues:    17.1222    23.8545    29.4022
     46  H    Isotropic =    23.7219   Anisotropy =    11.8454
   XX=    22.6160   YX=     2.7602   ZX=     1.3983
   XY=     0.8854   YY=    26.9148   ZY=     5.5254
   XZ=    -0.0339   YZ=     7.3218   ZZ=    21.6351
   Eigenvalues:    17.2904    22.2565    31.6189
     47  C    Isotropic =    48.5656   Anisotropy =    11.9734
   XX=    47.3083   YX=     1.2105   ZX=     0.5387
   XY=     0.9570   YY=    41.8656   ZY=    -0.2459
   XZ=     0.3473   YZ=    -0.3218   ZZ=    56.5230
   Eigenvalues:    41.6489    47.5000    56.5479
     48  F    Isotropic =   217.9138   Anisotropy =   152.5286
   XX=   187.3073   YX=   -90.5287   ZX=   -10.4862
   XY=   -88.7787   YY=   258.6208   ZY=    -2.4504
   XZ=    -8.8300   YZ=    -0.7318   ZZ=   207.8133
   Eigenvalues:   125.5195   208.6224   319.5995
     49  F    Isotropic =   247.0463   Anisotropy =   137.4195
   XX=   266.1115   YX=   -20.0988   ZX=    59.1388
   XY=    -4.1535   YY=   181.2203   ZY=    40.3862
   XZ=    49.6660   YZ=    28.0186   ZZ=   293.8071
   Eigenvalues:   163.5129   238.9667   338.6593
     50  F    Isotropic =   248.1154   Anisotropy =   132.9165
   XX=   281.4118   YX=    -7.9206   ZX=   -59.8910
   XY=     6.8680   YY=   195.0766   ZY=   -52.4074
   XZ=   -49.1210   YZ=   -41.3070   ZZ=   267.8576
   Eigenvalues:   165.9469   241.6728   336.7264
     51  F    Isotropic =   229.8089   Anisotropy =   145.6087
   XX=   237.6593   YX=   -32.1127   ZX=   -30.5424
   XY=   -28.4007   YY=   200.1446   ZY=    68.2096
   XZ=   -39.4544   YZ=    77.3669   ZZ=   251.6229
   Eigenvalues:   148.4106   214.1348   326.8813
     52  F    Isotropic =   251.4574   Anisotropy =   116.8293
   XX=   286.5963   YX=    29.4526   ZX=    21.0457
   XY=    35.9831   YY=   297.8660   ZY=    27.0789
   XZ=     4.3022   YZ=    16.8275   ZZ=   169.9099
   Eigenvalues:   165.7962   259.2324   329.3436
     53  F    Isotropic =   222.7897   Anisotropy =   150.9280
   XX=   228.8262   YX=   -44.0144   ZX=    81.0092
   XY=   -46.0681   YY=   221.8587   ZY=   -13.2939
   XZ=    83.9434   YZ=   -12.2255   ZZ=   217.6841
   Eigenvalues:   134.6325   210.3282   323.4084
     54  F    Isotropic =   244.0393   Anisotropy =   137.5718
   XX=   202.5868   YX=   -26.0172   ZX=    35.5975
   XY=   -41.7159   YY=   324.4600   ZY=    -1.7085
   XZ=    36.7607   YZ=   -15.8904   ZZ=   205.0711
   Eigenvalues:   165.3676   230.9965   335.7538
     55  F    Isotropic =   247.8456   Anisotropy =   139.8496
   XX=   334.4850   YX=     6.4526   ZX=    32.3298
   XY=    16.2329   YY=   216.3471   ZY=    45.7469
   XZ=    15.4802   YZ=    33.1634   ZZ=   192.7046
   Eigenvalues:   162.4084   240.0497   341.0787
     56  F    Isotropic =   223.0633   Anisotropy =   143.4323
   XX=   192.1561   YX=   -36.5753   ZX=     4.6581
   XY=   -37.5909   YY=   173.4365   ZY=    46.0752
   XZ=     5.6280   YZ=    46.3682   ZZ=   303.5973
   Eigenvalues:   134.8503   215.6547   318.6849
     57  F    Isotropic =   219.5201   Anisotropy =   147.8710
   XX=   219.9057   YX=    33.9991   ZX=    30.6214
   XY=    34.1769   YY=   147.8645   ZY=    42.4562
   XZ=    31.0594   YZ=    41.8064   ZZ=   290.7899
   Eigenvalues:   128.9189   211.5406   318.1007
     58  F    Isotropic =   245.8932   Anisotropy =   138.9311
   XX=   219.4206   YX=    54.3792   ZX=   -40.5154
   XY=    75.0829   YY=   290.5523   ZY=    -6.6471
   XZ=   -45.7268   YZ=   -16.2318   ZZ=   227.7068
   Eigenvalues:   164.0943   235.0714   338.5140
     59  F    Isotropic =   247.6562   Anisotropy =   138.6506
   XX=   301.9500   YX=   -32.2624   ZX=   -41.7325
   XY=   -38.0538   YY=   240.6960   ZY=    60.5199
   XZ=   -29.7597   YZ=    42.3148   ZZ=   200.3225
   Eigenvalues:   164.4529   238.4257   340.0899
     60  P    Isotropic =   288.4167   Anisotropy =    37.9131
   XX=   291.6826   YX=    -2.4344   ZX=   -19.7546
   XY=   -21.5196   YY=   282.6965   ZY=    16.7389
   XZ=    14.2098   YZ=    27.1507   ZZ=   290.8712
   Eigenvalues:   262.4269   289.1312   313.6921
     61  C    Isotropic =    50.7091   Anisotropy =   190.8907
   XX=   -49.8201   YX=   -11.7819   ZX=   -26.3021
   XY=    -9.0573   YY=   154.9505   ZY=   -54.1039
   XZ=   -26.5768   YZ=   -55.7071   ZZ=    46.9970
   Eigenvalues:   -59.4924    33.6502   177.9696
     62  C    Isotropic =    52.3874   Anisotropy =   187.4900
   XX=    33.7959   YX=    -8.9549   ZX=   -17.5346
   XY=   -11.1042   YY=   143.0464   ZY=   -80.2486
   XZ=   -16.3702   YZ=   -84.1144   ZZ=   -19.6801
   Eigenvalues:   -58.1040    37.8854   177.3807
     63  C    Isotropic =    40.0068   Anisotropy =   196.1339
   XX=   -30.5538   YX=    19.0675   ZX=    50.4218
   XY=    15.8443   YY=   139.9493   ZY=   -73.2340
   XZ=    49.8304   YZ=   -67.0084   ZZ=    10.6249
   Eigenvalues:   -78.5386    27.7963   170.7627
     64  C    Isotropic =    39.7811   Anisotropy =   207.7063
   XX=   -45.9382   YX=    -5.0654   ZX=   -19.9874
   XY=    -4.3901   YY=   148.9726   ZY=   -69.3484
   XZ=   -17.1388   YZ=   -68.2642   ZZ=    16.3088
   Eigenvalues:   -54.5816    -4.3271   178.2519
     65  C    Isotropic =    37.9452   Anisotropy =   199.8768
   XX=    18.9890   YX=    -3.1349   ZX=    -8.7992
   XY=   -16.8762   YY=   135.5304   ZY=   -85.8571
   XZ=   -18.1067   YZ=   -87.6782   ZZ=   -40.6837
   Eigenvalues:   -78.9314    21.5706   171.1964
     66  C    Isotropic =    51.2211   Anisotropy =   186.9219
   XX=   -11.7302   YX=    20.4172   ZX=    48.6695
   XY=    19.6305   YY=   146.5889   ZY=   -68.8308
   XZ=    45.3808   YZ=   -66.7066   ZZ=    18.8048
   Eigenvalues:   -62.2004    40.0281   175.8357
     67  H    Isotropic =    23.8753   Anisotropy =     2.8124
   XX=    24.7920   YX=    -1.1323   ZX=     0.5086
   XY=    -1.7874   YY=    21.7534   ZY=     1.5279
   XZ=     0.1910   YZ=     1.4987   ZZ=    25.0804
   Eigenvalues:    20.6346    25.2409    25.7502
     68  H    Isotropic =    23.9871   Anisotropy =     5.5398
   XX=    26.8875   YX=    -0.9141   ZX=     1.2390
   XY=    -1.8452   YY=    21.3899   ZY=    -0.6953
   XZ=     1.3689   YZ=    -0.1344   ZZ=    23.6839
   Eigenvalues:    21.0585    23.2225    27.6803
     69  H    Isotropic =    23.9103   Anisotropy =     7.3307
   XX=    22.3781   YX=     0.8126   ZX=     4.6899
   XY=     0.6551   YY=    23.8665   ZY=    -1.9876
   XZ=     4.3316   YZ=    -0.7006   ZZ=    25.4862
   Eigenvalues:    18.7843    24.1491    28.7974
     70  H    Isotropic =    24.4638   Anisotropy =    13.4456
   XX=    32.5528   YX=    -3.5654   ZX=     2.9564
   XY=    -2.1731   YY=    21.9258   ZY=    -0.8696
   XZ=    -0.7049   YZ=    -2.2001   ZZ=    18.9130
   Eigenvalues:    18.2683    21.6956    33.4276
     71  H    Isotropic =    24.1471   Anisotropy =     6.8852
   XX=    27.4240   YX=    -0.2985   ZX=     3.1499
   XY=    -0.9720   YY=    21.8606   ZY=     1.3591
   XZ=     2.2627   YZ=     0.9810   ZZ=    23.1566
   Eigenvalues:    20.5221    23.1820    28.7372
     72  H    Isotropic =    29.3565   Anisotropy =     6.0629
   XX=    29.3951   YX=     0.8823   ZX=     1.9726
   XY=    -2.7866   YY=    31.8192   ZY=    -3.3821
   XZ=     0.5572   YZ=    -1.7821   ZZ=    26.8553
   Eigenvalues:    25.5801    29.0910    33.3985
     73  C    Isotropic =    51.0603   Anisotropy =   193.4462
   XX=   167.1877   YX=   -35.9084   ZX=    13.2246
   XY=   -46.7683   YY=    10.5523   ZY=   -46.5886
   XZ=     8.5436   YZ=   -51.8470   ZZ=   -24.5591
   Eigenvalues:   -60.3076    33.4640   180.0244
     74  C    Isotropic =    51.0922   Anisotropy =   190.5567
   XX=   161.1159   YX=   -42.2327   ZX=    35.1007
   XY=   -45.7238   YY=    33.8842   ZY=    19.9075
   XZ=    33.8624   YZ=    22.9293   ZZ=   -41.7236
   Eigenvalues:   -56.9902    32.1368   178.1300
     75  C    Isotropic =    43.0027   Anisotropy =   170.3531
   XX=   136.9209   YX=   -60.2582   ZX=    10.9615
   XY=   -59.2513   YY=   -39.1054   ZY=    11.7903
   XZ=    21.1689   YZ=     6.7163   ZZ=    31.1926
   Eigenvalues:   -59.5187    31.9554   156.5714
     76  C    Isotropic =    40.5541   Anisotropy =   193.3259
   XX=   156.0970   YX=   -46.5683   ZX=    -1.2895
   XY=   -45.4305   YY=    -9.9680   ZY=   -35.3632
   XZ=    14.2775   YZ=   -45.8369   ZZ=   -24.4667
   Eigenvalues:   -61.4824    13.7067   169.4381
     77  C    Isotropic =    29.8802   Anisotropy =   211.0571
   XX=   161.8877   YX=   -37.7865   ZX=    13.5560
   XY=   -41.6997   YY=   -20.0759   ZY=    12.5213
   XZ=    11.6578   YZ=    16.6642   ZZ=   -52.1712
   Eigenvalues:   -61.2097   -19.7345   170.5849
     78  C    Isotropic =    51.0693   Anisotropy =   200.5534
   XX=   170.5408   YX=   -48.2856   ZX=     2.3504
   XY=   -66.1712   YY=   -48.8897   ZY=     9.5851
   XZ=    11.9471   YZ=     2.0172   ZZ=    31.5567
   Eigenvalues:   -63.4853    31.9216   184.7716
     79  H    Isotropic =    24.4865   Anisotropy =     3.7046
   XX=    23.4503   YX=     0.4169   ZX=    -2.5172
   XY=    -0.8904   YY=    24.9324   ZY=    -0.5799
   XZ=    -1.3727   YZ=    -2.2183   ZZ=    25.0768
   Eigenvalues:    21.8261    24.6772    26.9562
     80  H    Isotropic =    23.8339   Anisotropy =     2.9529
   XX=    23.8758   YX=     1.6675   ZX=    -1.2058
   XY=     0.0673   YY=    23.9692   ZY=     2.0672
   XZ=     0.0094   YZ=     1.8347   ZZ=    23.6567
   Eigenvalues:    21.4228    24.2764    25.8025
     81  H    Isotropic =    22.8874   Anisotropy =     7.5653
   XX=    20.3846   YX=     1.4817   ZX=     0.4329
   XY=     0.0651   YY=    21.9618   ZY=     3.0362
   XZ=     0.5148   YZ=     2.9782   ZZ=    26.3157
   Eigenvalues:    19.8909    20.8403    27.9309
     82  H    Isotropic =    24.1667   Anisotropy =     8.5263
   XX=    21.7344   YX=     1.5255   ZX=    -0.5739
   XY=    -0.5175   YY=    21.8737   ZY=    -0.8599
   XZ=    -0.2474   YZ=    -4.5499   ZZ=    28.8919
   Eigenvalues:    20.8177    21.8315    29.8509
     83  C    Isotropic =    53.4527   Anisotropy =   183.9346
   XX=    74.1702   YX=   -20.2044   ZX=   -60.8120
   XY=   -17.1802   YY=   -50.8853   ZY=    -2.6735
   XZ=   -64.8168   YZ=    -4.4354   ZZ=   137.0731
   Eigenvalues:   -54.5961    38.8784   176.0758
     84  C    Isotropic =    52.1638   Anisotropy =   187.3992
   XX=     9.0262   YX=   -26.6029   ZX=  -100.6826
   XY=   -28.5396   YY=    28.3781   ZY=   -14.7321
   XZ=   -96.7799   YZ=   -15.1681   ZZ=   119.0872
   Eigenvalues:   -60.0827    39.4775   177.0967
     85  C    Isotropic =    46.9639   Anisotropy =   188.1074
   XX=    19.2740   YX=    37.5814   ZX=   -91.6673
   XY=    32.9005   YY=    -4.0854   ZY=    20.1649
   XZ=   -76.5633   YZ=    35.9675   ZZ=   125.7032
   Eigenvalues:   -61.5265    30.0495   172.3689
     86  C    Isotropic =    41.5121   Anisotropy =   192.2591
   XX=    50.4609   YX=   -14.6606   ZX=   -66.1628
   XY=   -11.6235   YY=   -45.5396   ZY=     7.6999
   XZ=   -86.9371   YZ=     3.4644   ZZ=   119.6150
   Eigenvalues:   -47.5072     2.3587   169.6849
     87  C    Isotropic =    48.5251   Anisotropy =   187.5533
   XX=     2.4633   YX=   -23.7759   ZX=  -105.1583
   XY=   -18.4308   YY=    28.2398   ZY=    -7.6955
   XZ=   -95.1740   YZ=   -11.7953   ZZ=   114.8722
   Eigenvalues:   -62.1148    34.1295   173.5606
     88  C    Isotropic =    50.8653   Anisotropy =   185.3924
   XX=    33.1911   YX=    37.3747   ZX=   -87.5985
   XY=    40.7790   YY=    -1.8993   ZY=    29.9709
   XZ=   -85.2946   YZ=    30.8994   ZZ=   121.3040
   Eigenvalues:   -60.9180    39.0536   174.4602
     89  H    Isotropic =    23.9850   Anisotropy =     4.5657
   XX=    24.7040   YX=    -1.1375   ZX=     3.0169
   XY=    -0.3779   YY=    25.3165   ZY=    -0.5565
   XZ=     2.5508   YZ=    -0.8414   ZZ=    21.9345
   Eigenvalues:    20.2023    24.7239    27.0288
     90  H    Isotropic =    23.5869   Anisotropy =     9.2086
   XX=    21.1580   YX=    -2.0036   ZX=     2.2347
   XY=    -1.2984   YY=    28.8037   ZY=    -2.0129
   XZ=     1.8318   YZ=    -1.7210   ZZ=    20.7991
   Eigenvalues:    18.9292    22.1055    29.7260
     91  H    Isotropic =    23.7469   Anisotropy =     8.6939
   XX=    24.1657   YX=     2.1633   ZX=     5.2485
   XY=     2.9084   YY=    27.8005   ZY=     0.4498
   XZ=     1.5545   YZ=     0.5541   ZZ=    19.2745
   Eigenvalues:    17.4781    24.2198    29.5429
     92  H    Isotropic =    24.7112   Anisotropy =    14.9761
   XX=    20.9343   YX=    -1.3290   ZX=     2.1332
   XY=     2.1265   YY=    34.2931   ZY=    -1.2998
   XZ=    -0.3254   YZ=    -3.7097   ZZ=    18.9062
   Eigenvalues:    18.1773    21.2611    34.6953
     93  H    Isotropic =    24.0864   Anisotropy =     6.6797
   XX=    23.0638   YX=     1.4161   ZX=     2.0823
   XY=     1.9674   YY=    27.9145   ZY=     0.6348
   XZ=     1.8171   YZ=    -0.1999   ZZ=    21.2809
   Eigenvalues:    19.9564    23.7633    28.5396
 End of Minotr F.D. properties file   721 does not exist.
 End of Minotr F.D. properties file   722 does not exist.
 End of Minotr F.D. properties file   788 does not exist.

 **********************************************************************

            Population analysis using the SCF density.

 **********************************************************************

 Orbital symmetries:
       Occupied  (A) (A) (A) (A) (A) (A) (A) (A) (A) (A) (A) (A)
                 (A) (A) (A) (A) (A) (A) (A) (A) (A) (A) (A) (A)
                 (A) (A) (A) (A) (A) (A) (A) (A) (A) (A) (A) (A)
                 (A) (A) (A) (A) (A) (A) (A) (A) (A) (A) (A) (A)
                 (A) (A) (A) (A) (A) (A) (A) (A) (A) (A) (A) (A)
                 (A) (A) (A) (A) (A) (A) (A) (A) (A) (A) (A) (A)
                 (A) (A) (A) (A) (A) (A) (A) (A) (A) (A) (A) (A)
                 (A) (A) (A) (A) (A) (A) (A) (A) (A) (A) (A) (A)
                 (A) (A) (A) (A) (A) (A) (A) (A) (A) (A) (A) (A)
                 (A) (A) (A) (A) (A) (A) (A) (A) (A) (A) (A) (A)
                 (A) (A) (A) (A) (A) (A) (A) (A) (A) (A) (A) (A)
                 (A) (A) (A) (A) (A) (A) (A) (A) (A) (A) (A) (A)
                 (A) (A) (A) (A) (A) (A) (A) (A) (A) (A) (A) (A)
                 (A) (A) (A) (A) (A) (A) (A) (A) (A) (A) (A) (A)
                 (A) (A) (A) (A) (A) (A) (A) (A) (A) (A) (A) (A)
                 (A) (A) (A) (A) (A) (A) (A) (A) (A) (A) (A) (A)
                 (A) (A) (A) (A) (A) (A) (A) (A) (A) (A) (A) (A)
                 (A) (A) (A) (A) (A) (A) (A) (A) (A) (A) (A) (A)
                 (A) (A) (A) (A) (A) (A) (A) (A) (A) (A) (A) (A)
                 (A) (A) (A)
       Virtual   (A) (A) (A) (A) (A) (A) (A) (A) (A) (A) (A) (A)
                 (A) (A) (A) (A) (A) (A) (A) (A) (A) (A) (A) (A)
                 (A) (A) (A) (A) (A) (A) (A) (A) (A) (A) (A) (A)
                 (A) (A) (A) (A) (A) (A) (A) (A) (A) (A) (A) (A)
                 (A) (A) (A) (A) (A) (A) (A) (A) (A) (A) (A) (A)
                 (A) (A) (A) (A) (A) (A) (A) (A) (A) (A) (A) (A)
                 (A) (A) (A) (A) (A) (A) (A) (A) (A) (A) (A) (A)
                 (A) (A) (A) (A) (A) (A) (A) (A) (A) (A) (A) (A)
                 (A) (A) (A) (A) (A) (A) (A) (A) (A) (A) (A) (A)
                 (A) (A) (A) (A) (A) (A) (A) (A) (A) (A) (A) (A)
                 (A) (A) (A) (A) (A) (A) (A) (A) (A) (A) (A) (A)
                 (A) (A) (A) (A) (A) (A) (A) (A) (A) (A) (A) (A)
                 (A) (A) (A) (A) (A) (A) (A) (A) (A) (A) (A) (A)
                 (A) (A) (A) (A) (A) (A) (A) (A) (A) (A) (A) (A)
                 (A) (A) (A) (A) (A) (A) (A) (A) (A) (A) (A) (A)
                 (A) (A) (A) (A) (A) (A) (A) (A) (A) (A) (A) (A)
                 (A) (A) (A) (A) (A) (A) (A) (A) (A) (A) (A) (A)
                 (A) (A) (A) (A) (A) (A) (A) (A) (A) (A) (A) (A)
                 (A) (A) (A) (A) (A) (A) (A) (A) (A) (A) (A) (A)
                 (A) (A) (A) (A) (A) (A) (A) (A) (A) (A) (A) (A)
                 (A) (A) (A) (A) (A) (A) (A) (A) (A) (A) (A) (A)
                 (A) (A) (A) (A) (A) (A) (A) (A) (A) (A) (A) (A)
                 (A) (A) (A) (A) (A) (A) (A) (A) (A) (A) (A) (A)
                 (A) (A) (A) (A) (A) (A) (A) (A) (A) (A) (A) (A)
                 (A) (A) (A) (A) (A) (A) (A) (A) (A) (A) (A) (A)
                 (A) (A) (A) (A) (A) (A) (A) (A) (A) (A) (A) (A)
                 (A) (A) (A) (A) (A) (A) (A) (A) (A) (A) (A) (A)
                 (A) (A) (A) (A) (A) (A) (A) (A) (A) (A) (A) (A)
                 (A) (A) (A) (A) (A) (A) (A) (A) (A) (A) (A) (A)
                 (A) (A) (A) (A) (A) (A) (A) (A) (A) (A) (A) (A)
                 (A) (A) (A) (A) (A) (A) (A) (A) (A) (A) (A) (A)
                 (A) (A) (A) (A) (A) (A) (A) (A) (A) (A) (A) (A)
                 (A) (A) (A) (A) (A) (A) (A) (A) (A) (A) (A) (A)
                 (A) (A) (A) (A) (A) (A) (A) (A) (A) (A) (A) (A)
                 (A) (A) (A) (A) (A) (A) (A) (A) (A) (A) (A) (A)
                 (A) (A) (A) (A) (A) (A) (A) (A) (A) (A) (A) (A)
                 (A) (A) (A) (A) (A) (A) (A) (A) (A) (A) (A) (A)
                 (A) (A) (A) (A) (A) (A) (A) (A) (A) (A) (A) (A)
                 (A) (A) (A) (A) (A) (A) (A) (A) (A) (A) (A) (A)
                 (A) (A) (A) (A) (A) (A) (A) (A) (A) (A) (A) (A)
                 (A) (A) (A) (A) (A) (A) (A) (A) (A) (A) (A) (A)
                 (A) (A) (A) (A) (A) (A) (A) (A) (A) (A) (A) (A)
                 (A) (A) (A) (A) (A) (A) (A) (A) (A) (A) (A) (A)
                 (A) (A) (A) (A) (A) (A) (A) (A) (A) (A) (A) (A)
                 (A) (A) (A) (A) (A) (A) (A) (A) (A) (A) (A) (A)
                 (A) (A) (A) (A) (A) (A) (A) (A) (A) (A) (A) (A)
                 (A) (A) (A) (A) (A) (A) (A) (A) (A) (A) (A) (A)
                 (A) (A) (A) (A) (A) (A) (A) (A) (A) (A) (A) (A)
                 (A) (A) (A) (A) (A) (A) (A) (A) (A) (A) (A) (A)
                 (A) (A) (A) (A) (A) (A) (A) (A) (A) (A) (A) (A)
                 (A) (A) (A) (A) (A) (A) (A) (A) (A) (A) (A) (A)
                 (A) (A) (A) (A) (A) (A) (A) (A) (A) (A) (A) (A)
                 (A) (A) (A) (A) (A) (A) (A) (A) (A) (A) (A) (A)
                 (A) (A) (A) (A) (A) (A) (A) (A) (A) (A) (A) (A)
                 (A) (A) (A) (A) (A) (A) (A) (A) (A) (A) (A) (A)
                 (A) (A) (A) (A) (A) (A) (A) (A) (A) (A) (A) (A)
                 (A) (A) (A) (A) (A) (A) (A) (A) (A) (A) (A) (A)
                 (A) (A) (A) (A) (A) (A) (A) (A) (A) (A) (A) (A)
                 (A) (A) (A) (A) (A) (A) (A) (A) (A) (A) (A) (A)
                 (A) (A) (A) (A) (A) (A) (A) (A) (A) (A) (A) (A)
                 (A) (A) (A) (A) (A) (A) (A) (A) (A) (A) (A) (A)
                 (A) (A) (A) (A) (A) (A) (A) (A) (A) (A) (A) (A)
                 (A) (A) (A) (A) (A) (A) (A) (A) (A) (A) (A) (A)
                 (A) (A) (A) (A) (A) (A) (A) (A) (A) (A) (A) (A)
                 (A) (A) (A) (A) (A) (A) (A) (A) (A) (A) (A) (A)
                 (A) (A) (A) (A) (A) (A) (A) (A) (A) (A) (A) (A)
                 (A) (A) (A) (A) (A) (A) (A) (A) (A) (A) (A) (A)
                 (A) (A) (A) (A) (A) (A) (A) (A) (A) (A) (A) (A)
                 (A) (A) (A) (A) (A) (A) (A) (A) (A) (A) (A) (A)
                 (A) (A) (A) (A) (A) (A) (A) (A) (A) (A) (A) (A)
                 (A) (A) (A) (A) (A) (A) (A) (A) (A) (A) (A) (A)
                 (A) (A) (A) (A) (A) (A) (A) (A) (A) (A) (A) (A)
                 (A) (A) (A) (A) (A) (A) (A) (A) (A) (A) (A) (A)
                 (A) (A) (A) (A) (A) (A) (A) (A) (A) (A) (A) (A)
                 (A) (A) (A) (A) (A) (A) (A) (A) (A) (A) (A) (A)
                 (A) (A) (A) (A) (A) (A) (A) (A) (A) (A) (A) (A)
                 (A) (A) (A) (A) (A) (A) (A) (A) (A) (A) (A) (A)
                 (A) (A) (A) (A) (A) (A) (A) (A) (A) (A) (A) (A)
                 (A) (A) (A) (A) (A) (A) (A) (A) (A) (A) (A) (A)
                 (A) (A) (A) (A) (A) (A) (A) (A) (A) (A) (A) (A)
                 (A) (A) (A) (A) (A) (A) (A) (A) (A) (A) (A) (A)
                 (A) (A) (A) (A) (A) (A) (A) (A) (A) (A) (A) (A)
                 (A) (A) (A) (A) (A) (A) (A) (A) (A) (A) (A) (A)
                 (A) (A) (A) (A) (A) (A) (A) (A) (A) (A) (A) (A)
                 (A) (A) (A) (A) (A) (A) (A) (A) (A) (A) (A) (A)
                 (A) (A) (A) (A) (A) (A) (A) (A) (A) (A) (A) (A)
                 (A) (A) (A) (A) (A) (A) (A) (A) (A) (A) (A) (A)
                 (A) (A) (A) (A) (A) (A) (A) (A) (A) (A) (A) (A)
                 (A) (A) (A) (A) (A) (A) (A) (A) (A) (A) (A) (A)
                 (A) (A) (A) (A) (A) (A) (A) (A) (A) (A) (A) (A)
                 (A) (A) (A) (A) (A) (A) (A) (A) (A) (A) (A) (A)
                 (A) (A) (A) (A) (A) (A) (A) (A) (A) (A) (A) (A)
                 (A) (A) (A) (A) (A) (A) (A) (A) (A) (A) (A) (A)
                 (A) (A) (A) (A) (A) (A) (A) (A) (A) (A) (A) (A)
                 (A) (A) (A) (A) (A) (A) (A) (A) (A) (A) (A) (A)
                 (A) (A) (A) (A) (A) (A) (A) (A) (A) (A) (A) (A)
                 (A) (A) (A) (A) (A) (A) (A) (A) (A) (A) (A) (A)
                 (A) (A) (A) (A) (A) (A) (A) (A) (A) (A) (A) (A)
                 (A) (A) (A) (A) (A) (A) (A) (A) (A) (A) (A) (A)
                 (A) (A) (A) (A) (A) (A) (A) (A) (A) (A) (A) (A)
                 (A) (A) (A) (A) (A) (A) (A) (A) (A) (A) (A) (A)
                 (A) (A) (A) (A) (A) (A) (A) (A) (A) (A) (A) (A)
                 (A) (A) (A) (A) (A) (A) (A) (A) (A) (A) (A) (A)
                 (A) (A) (A) (A) (A) (A) (A) (A) (A) (A) (A) (A)
                 (A) (A) (A) (A) (A) (A) (A) (A) (A) (A) (A) (A)
                 (A) (A) (A) (A) (A) (A) (A) (A) (A) (A) (A) (A)
                 (A) (A) (A) (A) (A) (A) (A) (A) (A) (A) (A) (A)
                 (A) (A) (A) (A) (A) (A) (A) (A) (A) (A) (A) (A)
                 (A) (A) (A) (A) (A) (A) (A) (A) (A) (A) (A) (A)
                 (A) (A) (A) (A) (A) (A) (A) (A) (A) (A) (A) (A)
                 (A) (A) (A) (A) (A) (A) (A) (A) (A) (A) (A) (A)
                 (A) (A) (A) (A) (A) (A) (A) (A) (A) (A) (A) (A)
                 (A) (A) (A) (A) (A) (A) (A) (A) (A) (A) (A) (A)
                 (A) (A) (A) (A) (A) (A) (A) (A) (A) (A) (A) (A)
                 (A) (A) (A) (A) (A) (A) (A) (A) (A) (A) (A) (A)
                 (A) (A) (A) (A) (A) (A) (A) (A) (A) (A) (A) (A)
                 (A) (A) (A) (A) (A) (A) (A) (A) (A) (A) (A) (A)
                 (A) (A) (A) (A) (A) (A) (A) (A) (A) (A) (A) (A)
                 (A) (A) (A) (A) (A) (A) (A) (A) (A) (A) (A) (A)
                 (A) (A) (A) (A) (A) (A) (A) (A) (A) (A) (A) (A)
                 (A) (A) (A) (A) (A) (A) (A) (A) (A) (A) (A) (A)
                 (A) (A) (A) (A) (A) (A) (A) (A) (A) (A) (A) (A)
                 (A) (A) (A) (A) (A) (A) (A) (A) (A) (A) (A) (A)
                 (A) (A) (A) (A) (A) (A) (A) (A) (A) (A) (A) (A)
                 (A) (A) (A) (A) (A) (A) (A) (A) (A) (A) (A) (A)
                 (A) (A) (A) (A) (A) (A) (A) (A) (A) (A) (A) (A)
                 (A) (A) (A) (A) (A) (A) (A) (A) (A) (A) (A) (A)
                 (A) (A) (A) (A) (A) (A) (A) (A) (A) (A) (A) (A)
                 (A) (A) (A) (A) (A) (A) (A) (A) (A) (A) (A) (A)
                 (A) (A) (A) (A) (A) (A) (A) (A) (A) (A) (A) (A)
                 (A) (A) (A) (A) (A) (A) (A) (A) (A) (A) (A) (A)
                 (A) (A) (A) (A) (A) (A) (A) (A) (A) (A) (A) (A)
                 (A) (A) (A) (A) (A) (A) (A) (A) (A) (A) (A) (A)
                 (A) (A) (A) (A) (A) (A) (A) (A) (A) (A) (A) (A)
                 (A) (A) (A) (A) (A) (A) (A) (A) (A) (A) (A) (A)
                 (A) (A) (A) (A) (A) (A) (A) (A) (A) (A) (A) (A)
                 (A) (A) (A) (A) (A) (A) (A) (A) (A) (A) (A) (A)
                 (A) (A) (A) (A) (A) (A) (A) (A) (A) (A) (A) (A)
                 (A) (A) (A) (A) (A) (A) (A) (A) (A) (A) (A) (A)
                 (A) (A) (A) (A) (A) (A) (A) (A) (A) (A) (A) (A)
                 (A) (A) (A) (A) (A) (A) (A) (A) (A) (A) (A) (A)
                 (A) (A) (A) (A) (A) (A) (A) (A) (A) (A) (A) (A)
                 (A) (A) (A) (A) (A) (A) (A) (A) (A) (A) (A) (A)
                 (A) (A) (A) (A) (A) (A) (A) (A) (A) (A) (A) (A)
                 (A) (A) (A) (A) (A) (A) (A) (A) (A) (A) (A) (A)
                 (A) (A) (A) (A) (A) (A) (A) (A) (A) (A) (A) (A)
                 (A) (A) (A) (A) (A) (A) (A) (A) (A) (A) (A) (A)
                 (A) (A) (A) (A) (A) (A) (A) (A) (A) (A) (A) (A)
                 (A) (A) (A) (A) (A) (A) (A) (A) (A) (A) (A) (A)
                 (A) (A) (A) (A) (A) (A) (A) (A) (A) (A) (A) (A)
                 (A) (A) (A) (A) (A) (A) (A) (A) (A) (A) (A) (A)
                 (A) (A) (A) (A) (A) (A) (A) (A) (A) (A) (A) (A)
                 (A) (A) (A) (A) (A) (A) (A) (A) (A) (A) (A) (A)
                 (A) (A) (A) (A) (A) (A) (A) (A) (A) (A) (A) (A)
                 (A) (A) (A) (A) (A) (A) (A) (A) (A) (A) (A) (A)
                 (A) (A) (A) (A) (A) (A) (A) (A) (A) (A) (A) (A)
                 (A) (A) (A) (A)
 The electronic state is 1-A.
 Alpha  occ. eigenvalues --  -77.22204 -77.20676 -24.81566 -24.81565 -24.81543
 Alpha  occ. eigenvalues --  -24.81529 -24.81460 -24.81380 -24.81276 -24.81171
 Alpha  occ. eigenvalues --  -24.81149 -24.81072 -24.81066 -24.81005 -10.49101
 Alpha  occ. eigenvalues --  -10.48995 -10.48988 -10.48940 -10.28537 -10.28512
 Alpha  occ. eigenvalues --  -10.28135 -10.28072 -10.27973 -10.27625 -10.27606
 Alpha  occ. eigenvalues --  -10.27460 -10.27426 -10.27288 -10.27059 -10.26968
 Alpha  occ. eigenvalues --  -10.26879 -10.26184 -10.25627 -10.25565 -10.25268
 Alpha  occ. eigenvalues --  -10.24723 -10.24676 -10.24655 -10.24640 -10.24600
 Alpha  occ. eigenvalues --  -10.24599 -10.24588 -10.24556 -10.24383 -10.24356
 Alpha  occ. eigenvalues --  -10.24208 -10.24166 -10.24056 -10.24039 -10.23981
 Alpha  occ. eigenvalues --  -10.23879 -10.23802 -10.23691 -10.23662 -10.23631
 Alpha  occ. eigenvalues --  -10.23556 -10.23442 -10.23397 -10.23380 -10.23311
 Alpha  occ. eigenvalues --   -6.61804  -6.60279  -4.75412  -4.75354  -4.74920
 Alpha  occ. eigenvalues --   -4.73876  -4.73856  -4.73418  -3.60995  -2.25598
 Alpha  occ. eigenvalues --   -2.21279  -2.21224  -1.35001  -1.34962  -1.34949
 Alpha  occ. eigenvalues --   -1.34861  -1.26815  -1.26753  -1.26576  -1.26568
 Alpha  occ. eigenvalues --   -1.26377  -1.26297  -1.26219  -1.26157  -0.93337
 Alpha  occ. eigenvalues --   -0.93006  -0.92697  -0.90997  -0.89084  -0.88471
 Alpha  occ. eigenvalues --   -0.88062  -0.84863  -0.84533  -0.84458  -0.82034
 Alpha  occ. eigenvalues --   -0.81637  -0.80203  -0.79514  -0.77665  -0.77431
 Alpha  occ. eigenvalues --   -0.76804  -0.76770  -0.75019  -0.74772  -0.74216
 Alpha  occ. eigenvalues --   -0.74170  -0.74161  -0.73955  -0.73326  -0.73103
 Alpha  occ. eigenvalues --   -0.70263  -0.67296  -0.67270  -0.67100  -0.66810
 Alpha  occ. eigenvalues --   -0.66209  -0.64099  -0.63353  -0.63075  -0.62651
 Alpha  occ. eigenvalues --   -0.62354  -0.62245  -0.62241  -0.62190  -0.61953
 Alpha  occ. eigenvalues --   -0.61919  -0.61906  -0.61835  -0.61770  -0.61554
 Alpha  occ. eigenvalues --   -0.60345  -0.58255  -0.57528  -0.57039  -0.56686
 Alpha  occ. eigenvalues --   -0.56329  -0.56291  -0.56027  -0.55745  -0.54928
 Alpha  occ. eigenvalues --   -0.54616  -0.54351  -0.53658  -0.53047  -0.52277
 Alpha  occ. eigenvalues --   -0.51702  -0.51340  -0.50388  -0.49873  -0.49842
 Alpha  occ. eigenvalues --   -0.49681  -0.49631  -0.49587  -0.49568  -0.49285
 Alpha  occ. eigenvalues --   -0.49195  -0.48616  -0.48104  -0.47440  -0.47293
 Alpha  occ. eigenvalues --   -0.46809  -0.46746  -0.46607  -0.46439  -0.46389
 Alpha  occ. eigenvalues --   -0.46169  -0.46141  -0.46065  -0.45808  -0.45639
 Alpha  occ. eigenvalues --   -0.45579  -0.45409  -0.45145  -0.44325  -0.44301
 Alpha  occ. eigenvalues --   -0.44213  -0.44149  -0.44131  -0.43989  -0.43910
 Alpha  occ. eigenvalues --   -0.43819  -0.43758  -0.43577  -0.43372  -0.43119
 Alpha  occ. eigenvalues --   -0.42862  -0.42726  -0.42664  -0.42328  -0.42161
 Alpha  occ. eigenvalues --   -0.41917  -0.41739  -0.41470  -0.40909  -0.40035
 Alpha  occ. eigenvalues --   -0.39998  -0.39657  -0.39527  -0.39405  -0.39226
 Alpha  occ. eigenvalues --   -0.39017  -0.38792  -0.38159  -0.37600  -0.37297
 Alpha  occ. eigenvalues --   -0.36512  -0.36386  -0.36295  -0.35964  -0.35582
 Alpha  occ. eigenvalues --   -0.34122  -0.33846  -0.32392  -0.31103  -0.30641
 Alpha  occ. eigenvalues --   -0.30186  -0.29298  -0.29014  -0.28798  -0.28131
 Alpha  occ. eigenvalues --   -0.27824  -0.27348  -0.26974  -0.26625  -0.26392
 Alpha  occ. eigenvalues --   -0.26269  -0.25952  -0.25411  -0.23023  -0.22927
 Alpha  occ. eigenvalues --   -0.20790
 Alpha virt. eigenvalues --   -0.06934  -0.06669  -0.05845  -0.04901  -0.03799
 Alpha virt. eigenvalues --   -0.03181  -0.02773  -0.01938  -0.01235  -0.01061
 Alpha virt. eigenvalues --   -0.00951  -0.00640  -0.00545   0.01207   0.01785
 Alpha virt. eigenvalues --    0.02388   0.03076   0.03812   0.03903   0.04700
 Alpha virt. eigenvalues --    0.04982   0.05053   0.05326   0.05474   0.05962
 Alpha virt. eigenvalues --    0.06108   0.06540   0.06676   0.06746   0.07076
 Alpha virt. eigenvalues --    0.07552   0.07733   0.08292   0.08384   0.08592
 Alpha virt. eigenvalues --    0.08712   0.08945   0.09157   0.09340   0.09600
 Alpha virt. eigenvalues --    0.09909   0.10003   0.10555   0.10609   0.10830
 Alpha virt. eigenvalues --    0.10950   0.11105   0.11355   0.11424   0.11701
 Alpha virt. eigenvalues --    0.11764   0.12122   0.12316   0.12560   0.12748
 Alpha virt. eigenvalues --    0.12981   0.13007   0.13158   0.13253   0.13461
 Alpha virt. eigenvalues --    0.13640   0.13897   0.14192   0.14510   0.14603
 Alpha virt. eigenvalues --    0.15099   0.15159   0.15227   0.15525   0.15867
 Alpha virt. eigenvalues --    0.16223   0.16500   0.16686   0.16969   0.17133
 Alpha virt. eigenvalues --    0.17190   0.17566   0.18060   0.18340   0.18460
 Alpha virt. eigenvalues --    0.18743   0.19016   0.19279   0.19392   0.19693
 Alpha virt. eigenvalues --    0.19792   0.19973   0.20095   0.20273   0.20393
 Alpha virt. eigenvalues --    0.20536   0.20803   0.20985   0.21065   0.21461
 Alpha virt. eigenvalues --    0.21551   0.21800   0.21891   0.22104   0.22287
 Alpha virt. eigenvalues --    0.22338   0.22700   0.22820   0.23019   0.23151
 Alpha virt. eigenvalues --    0.23293   0.23389   0.23456   0.23665   0.23719
 Alpha virt. eigenvalues --    0.23947   0.24007   0.24067   0.24158   0.24425
 Alpha virt. eigenvalues --    0.24702   0.24809   0.24987   0.25135   0.25246
 Alpha virt. eigenvalues --    0.25331   0.25521   0.25736   0.25802   0.26221
 Alpha virt. eigenvalues --    0.26481   0.26579   0.26788   0.26926   0.27026
 Alpha virt. eigenvalues --    0.27463   0.27729   0.27769   0.27957   0.28203
 Alpha virt. eigenvalues --    0.28559   0.28637   0.28804   0.28936   0.29180
 Alpha virt. eigenvalues --    0.29630   0.29888   0.30171   0.30400   0.30569
 Alpha virt. eigenvalues --    0.30671   0.31003   0.31262   0.31382   0.31583
 Alpha virt. eigenvalues --    0.31707   0.32122   0.32249   0.32500   0.32830
 Alpha virt. eigenvalues --    0.32877   0.32962   0.33336   0.33377   0.33886
 Alpha virt. eigenvalues --    0.33971   0.34118   0.34434   0.34538   0.34590
 Alpha virt. eigenvalues --    0.34777   0.34993   0.35338   0.35347   0.35672
 Alpha virt. eigenvalues --    0.35856   0.35952   0.36200   0.36246   0.36336
 Alpha virt. eigenvalues --    0.36680   0.36901   0.37182   0.37476   0.37610
 Alpha virt. eigenvalues --    0.37876   0.38086   0.38295   0.38395   0.38841
 Alpha virt. eigenvalues --    0.38866   0.39114   0.39338   0.39465   0.39672
 Alpha virt. eigenvalues --    0.39949   0.40057   0.40260   0.40523   0.40619
 Alpha virt. eigenvalues --    0.40933   0.41099   0.41319   0.41383   0.41704
 Alpha virt. eigenvalues --    0.41907   0.41969   0.42208   0.42317   0.42611
 Alpha virt. eigenvalues --    0.42664   0.42953   0.42978   0.43215   0.43357
 Alpha virt. eigenvalues --    0.43483   0.43697   0.43832   0.43884   0.44162
 Alpha virt. eigenvalues --    0.44214   0.44547   0.44757   0.44840   0.45064
 Alpha virt. eigenvalues --    0.45148   0.45359   0.45926   0.45961   0.45980
 Alpha virt. eigenvalues --    0.46266   0.46600   0.46823   0.46948   0.47196
 Alpha virt. eigenvalues --    0.47502   0.47747   0.47828   0.47908   0.47971
 Alpha virt. eigenvalues --    0.48268   0.48603   0.48772   0.48936   0.48963
 Alpha virt. eigenvalues --    0.49177   0.49591   0.49701   0.49800   0.50056
 Alpha virt. eigenvalues --    0.50379   0.50617   0.50792   0.51081   0.51245
 Alpha virt. eigenvalues --    0.51474   0.51630   0.52021   0.52322   0.52462
 Alpha virt. eigenvalues --    0.52620   0.52907   0.53084   0.53540   0.53585
 Alpha virt. eigenvalues --    0.53737   0.54004   0.54337   0.54644   0.54944
 Alpha virt. eigenvalues --    0.54983   0.55271   0.55360   0.55726   0.55989
 Alpha virt. eigenvalues --    0.56098   0.56386   0.56779   0.56991   0.57136
 Alpha virt. eigenvalues --    0.57425   0.57510   0.57733   0.58086   0.58189
 Alpha virt. eigenvalues --    0.58551   0.58655   0.58854   0.59071   0.59317
 Alpha virt. eigenvalues --    0.59404   0.59507   0.59925   0.60046   0.60330
 Alpha virt. eigenvalues --    0.60595   0.60766   0.61021   0.61238   0.61513
 Alpha virt. eigenvalues --    0.61744   0.61942   0.62138   0.62333   0.62622
 Alpha virt. eigenvalues --    0.62872   0.63273   0.63359   0.63461   0.63786
 Alpha virt. eigenvalues --    0.64169   0.64527   0.64675   0.64782   0.64934
 Alpha virt. eigenvalues --    0.65127   0.65349   0.65548   0.65842   0.65971
 Alpha virt. eigenvalues --    0.66140   0.66424   0.66953   0.67179   0.67294
 Alpha virt. eigenvalues --    0.67577   0.67800   0.68034   0.68162   0.68395
 Alpha virt. eigenvalues --    0.68715   0.68852   0.69076   0.69237   0.69292
 Alpha virt. eigenvalues --    0.69700   0.69853   0.70236   0.70265   0.70691
 Alpha virt. eigenvalues --    0.70744   0.70896   0.71222   0.71459   0.71525
 Alpha virt. eigenvalues --    0.71818   0.72014   0.72122   0.72352   0.72484
 Alpha virt. eigenvalues --    0.72733   0.72968   0.73438   0.73556   0.73666
 Alpha virt. eigenvalues --    0.73919   0.74074   0.74244   0.74564   0.75172
 Alpha virt. eigenvalues --    0.75278   0.75368   0.75443   0.75679   0.75965
 Alpha virt. eigenvalues --    0.76170   0.76376   0.76486   0.76874   0.76984
 Alpha virt. eigenvalues --    0.77176   0.77635   0.77780   0.77998   0.78203
 Alpha virt. eigenvalues --    0.78296   0.78627   0.78786   0.79155   0.79300
 Alpha virt. eigenvalues --    0.79503   0.79775   0.79875   0.80008   0.80296
 Alpha virt. eigenvalues --    0.80531   0.80674   0.80793   0.81016   0.81338
 Alpha virt. eigenvalues --    0.81404   0.81749   0.82130   0.82199   0.82368
 Alpha virt. eigenvalues --    0.82645   0.82736   0.83203   0.83400   0.83570
 Alpha virt. eigenvalues --    0.83819   0.84193   0.84681   0.84788   0.85121
 Alpha virt. eigenvalues --    0.85166   0.85366   0.85596   0.85686   0.85874
 Alpha virt. eigenvalues --    0.86382   0.86513   0.86754   0.86839   0.87005
 Alpha virt. eigenvalues --    0.87785   0.88022   0.88674   0.88841   0.89224
 Alpha virt. eigenvalues --    0.89253   0.89391   0.89885   0.90058   0.90410
 Alpha virt. eigenvalues --    0.90622   0.90843   0.91171   0.91390   0.91847
 Alpha virt. eigenvalues --    0.92053   0.92412   0.92795   0.92934   0.93192
 Alpha virt. eigenvalues --    0.93449   0.93497   0.93720   0.93794   0.94041
 Alpha virt. eigenvalues --    0.94220   0.94301   0.94555   0.94754   0.94940
 Alpha virt. eigenvalues --    0.95350   0.95575   0.95730   0.95910   0.96517
 Alpha virt. eigenvalues --    0.96752   0.96829   0.97265   0.97454   0.98001
 Alpha virt. eigenvalues --    0.98350   0.98696   0.98915   0.99049   0.99547
 Alpha virt. eigenvalues --    0.99959   1.00419   1.00472   1.00957   1.01037
 Alpha virt. eigenvalues --    1.01393   1.01560   1.01724   1.01906   1.02523
 Alpha virt. eigenvalues --    1.02778   1.02985   1.03251   1.03582   1.04011
 Alpha virt. eigenvalues --    1.04277   1.04641   1.04964   1.05253   1.05457
 Alpha virt. eigenvalues --    1.05699   1.05905   1.06378   1.06667   1.06851
 Alpha virt. eigenvalues --    1.07399   1.07685   1.08130   1.08588   1.08842
 Alpha virt. eigenvalues --    1.08970   1.09425   1.09784   1.09932   1.10157
 Alpha virt. eigenvalues --    1.10624   1.10939   1.11074   1.11380   1.12073
 Alpha virt. eigenvalues --    1.12569   1.12784   1.13107   1.13437   1.13561
 Alpha virt. eigenvalues --    1.13668   1.14074   1.14181   1.14835   1.15029
 Alpha virt. eigenvalues --    1.15245   1.15414   1.15812   1.16165   1.16545
 Alpha virt. eigenvalues --    1.16613   1.17293   1.17490   1.17936   1.18600
 Alpha virt. eigenvalues --    1.18674   1.19030   1.19643   1.19909   1.20096
 Alpha virt. eigenvalues --    1.20354   1.20681   1.21173   1.21391   1.21581
 Alpha virt. eigenvalues --    1.21866   1.22007   1.22289   1.22453   1.22816
 Alpha virt. eigenvalues --    1.23080   1.23229   1.23305   1.23816   1.24198
 Alpha virt. eigenvalues --    1.24323   1.24639   1.24806   1.25203   1.25314
 Alpha virt. eigenvalues --    1.25812   1.26096   1.26414   1.26713   1.26876
 Alpha virt. eigenvalues --    1.26998   1.27349   1.27540   1.27646   1.28299
 Alpha virt. eigenvalues --    1.28518   1.28633   1.29158   1.29265   1.29496
 Alpha virt. eigenvalues --    1.29675   1.29967   1.30221   1.30580   1.30900
 Alpha virt. eigenvalues --    1.31254   1.31454   1.31812   1.32125   1.32234
[...]
  1912. RY*(  24) C  86                  0.00001     3.70188   
  1913. RY*(  25) C  86                  0.00000    20.47902   
  1914. RY*(  26) C  86                  0.00001     3.43811   
  1915. RY*(   1) C  87                  0.00558     1.63387   
  1916. RY*(   2) C  87                  0.00175     1.34627   
  1917. RY*(   3) C  87                  0.00156     0.78595   
  1918. RY*(   4) C  87                  0.00114     1.75393   
  1919. RY*(   5) C  87                  0.00080     1.64529   
  1920. RY*(   6) C  87                  0.00037     2.05310   
  1921. RY*(   7) C  87                  0.00032     2.64479   
  1922. RY*(   8) C  87                  0.00017     1.76442   
  1923. RY*(   9) C  87                  0.00012     1.86467   
  1924. RY*(  10) C  87                  0.00007     2.15802   
  1925. RY*(  11) C  87                  0.00007     2.48239   
  1926. RY*(  12) C  87                  0.00003     2.55536   
  1927. RY*(  13) C  87                  0.00004     3.22205   
  1928. RY*(  14) C  87                  0.00003     1.58143   
  1929. RY*(  15) C  87                  0.00001     1.48485   
  1930. RY*(  16) C  87                  0.00001     2.08720   
  1931. RY*(  17) C  87                  0.00000     3.31788   
  1932. RY*(  18) C  87                  0.00000    21.21440   
  1933. RY*(  19) C  87                  0.00000     3.24915   
  1934. RY*(  20) C  87                  0.00000     3.38920   
  1935. RY*(  21) C  87                  0.00000     3.21764   
  1936. RY*(  22) C  87                  0.00000     3.43850   
  1937. RY*(  23) C  87                  0.00000     3.62460   
  1938. RY*(  24) C  87                  0.00000     3.55631   
  1939. RY*(  25) C  87                  0.00000     3.50291   
  1940. RY*(  26) C  87                  0.00000     3.62043   
  1941. RY*(   1) C  88                  0.00485     1.54999   
  1942. RY*(   2) C  88                  0.00187     1.49730   
  1943. RY*(   3) C  88                  0.00111     0.56912   
  1944. RY*(   4) C  88                  0.00068     1.36004   
  1945. RY*(   5) C  88                  0.00049     1.78773   
  1946. RY*(   6) C  88                  0.00036     3.13756   
  1947. RY*(   7) C  88                  0.00012     2.51545   
  1948. RY*(   8) C  88                  0.00013     1.80780   
  1949. RY*(   9) C  88                  0.00007     3.14804   
  1950. RY*(  10) C  88                  0.00004     1.81781   
  1951. RY*(  11) C  88                  0.00003     1.59768   
  1952. RY*(  12) C  88                  0.00002     2.65703   
  1953. RY*(  13) C  88                  0.00002     1.97228   
  1954. RY*(  14) C  88                  0.00001     2.03152   
  1955. RY*(  15) C  88                  0.00000    20.72039   
  1956. RY*(  16) C  88                  0.00000     2.47387   
  1957. RY*(  17) C  88                  0.00000     3.15470   
  1958. RY*(  18) C  88                  0.00001     2.03503   
  1959. RY*(  19) C  88                  0.00000     2.92600   
  1960. RY*(  20) C  88                  0.00000     3.47945   
  1961. RY*(  21) C  88                  0.00000     3.32677   
  1962. RY*(  22) C  88                  0.00000     3.31575   
  1963. RY*(  23) C  88                  0.00000     3.30156   
  1964. RY*(  24) C  88                  0.00000     3.35513   
  1965. RY*(  25) C  88                  0.00000     3.28875   
  1966. RY*(  26) C  88                  0.00000     3.70823   
  1967. RY*(   1) H  89                  0.00032     0.88858   
  1968. RY*(   2) H  89                  0.00020     1.83628   
  1969. RY*(   3) H  89                  0.00011     2.15410   
  1970. RY*(   4) H  89                  0.00009     2.75441   
  1971. RY*(   5) H  89                  0.00002     3.10026   
  1972. RY*(   1) H  90                  0.00042     1.07875   
  1973. RY*(   2) H  90                  0.00020     1.85001   
  1974. RY*(   3) H  90                  0.00011     2.69199   
  1975. RY*(   4) H  90                  0.00011     2.18422   
  1976. RY*(   5) H  90                  0.00002     3.12030   
  1977. RY*(   1) H  91                  0.00065     1.15405   
  1978. RY*(   2) H  91                  0.00033     2.52160   
  1979. RY*(   3) H  91                  0.00014     2.34049   
  1980. RY*(   4) H  91                  0.00009     2.73637   
  1981. RY*(   5) H  91                  0.00003     3.34403   
  1982. RY*(   1) H  92                  0.00089     0.75133   
  1983. RY*(   2) H  92                  0.00027     2.36229   
  1984. RY*(   3) H  92                  0.00012     2.71927   
  1985. RY*(   4) H  92                  0.00012     2.22912   
  1986. RY*(   5) H  92                  0.00002     3.19620   
  1987. RY*(   1) H  93                  0.00038     0.94973   
  1988. RY*(   2) H  93                  0.00019     1.87053   
  1989. RY*(   3) H  93                  0.00011     2.66228   
  1990. RY*(   4) H  93                  0.00011     2.22222   
  1991. RY*(   5) H  93                  0.00002     3.09516   
  2004. BD*(   1) C  12 - C  13          0.03208     0.43882   
  2005. BD*(   2) C  12 - C  13          0.43496     0.03979  2011(v),199(v),2004(g)
                                                    194(r),196(r),1994(r)
                                                    2088(r),2074(r),426(g)
                                                    2009(g),453(g),2007(g)
                                                    452(g),2008(g),197(r)
                                                    1997(r),193(r),395(r),198(r)
                                                    189(r),407(r),404(r),394(r)
                                                    402(r),408(r),413(r),405(r)
                                                    411(r)
  2006. BD*(   1) C  12 - C  16          0.02910     0.44484   
  2007. BD*(   1) C  12 - H  17          0.01485     0.40008   
  2008. BD*(   1) C  13 - C  14          0.02504     0.44382   
  2009. BD*(   1) C  13 - H  72          0.01518     0.41374   
  2010. BD*(   1) C  14 - C  15          0.05935     0.41077   
  2011. BD*(   2) C  14 - C  15          0.48787     0.03699  2005(v),2088(v),199(v)
                                                    1997(r),2010(g),196(r)
                                                    1994(r),193(r),194(r)
                                                    2017(v),2016(v),2090(v)
                                                    2087(v),2074(r),2012(g)
                                                    480(g),507(g),530(v),189(r)
                                                    197(r),198(r),402(r),395(r)
                                                    414(r),405(r),195(r),408(r)
                                                    397(r)
  2012. BD*(   1) C  14 - C  76          0.03296     0.43164   
  2013. BD*(   1) C  15 - C  16          0.04353     0.42643   
  2014. BD*(   1) C  15 - C  19          0.03051     0.36422   
  2015. BD*(   1) C  16 - H  18          0.01688     0.40380   
  2016. BD*(   1) C  19 - P  20          0.04094     0.17198   
  2017. BD*(   1) C  19 - H  21          0.03244     0.34974   
  2018. BD*(   1) C  19 - C  22          0.00884     0.32206   
  2019. BD*(   1) P  20 - C  29          0.04326     0.20059   
  2020. BD*(   1) P  20 - C  40          0.03670     0.19360   
  2021. BD*(   1) C  22 - H  23          0.00654     0.37092   
  2022. BD*(   1) C  22 - H  24          0.00973     0.36300   
  2023. BD*(   1) C  22 - H  25          0.01062     0.35498   
  2024. BD*(   1) C  26 - C  27          0.01930     0.49619   
  2025. BD*(   1) C  26 - C  31          0.01973     0.49217   
  2026. BD*(   2) C  26 - C  31          0.35410    -0.01152  2029(v),2034(v),2041(v)
                                                    665(g),2043(v),2042(v)
  2027. BD*(   1) C  26 - H  32          0.01208     0.37701   
  2028. BD*(   1) C  27 - C  28          0.02235     0.48975   
  2029. BD*(   2) C  27 - C  28          0.34961    -0.00876  2034(v),2026(v),2040(v)
                                                    2038(v),717(g),2039(v)
  2030. BD*(   1) C  27 - C  33          0.06702     0.29668   
  2031. BD*(   1) C  28 - C  29          0.02342     0.49985   
  2032. BD*(   1) C  28 - H  34          0.01520     0.37976   
  2033. BD*(   1) C  29 - C  30          0.03263     0.49283   
  2034. BD*(   2) C  29 - C  30          0.34132    -0.00803  2029(v),2026(v),2020(v)
                                                    2016(v),769(g),744(g)
  2035. BD*(   1) C  30 - C  31          0.02467     0.49820   
  2036. BD*(   1) C  30 - H  35          0.01594     0.38096   
  2037. BD*(   1) C  31 - C  36          0.06676     0.29808   
  2038. BD*(   1) C  33 - F  54          0.09098     0.20248   
  2039. BD*(   1) C  33 - F  55          0.09142     0.19770   
  2040. BD*(   1) C  33 - F  56          0.09816     0.20298   
  2041. BD*(   1) C  36 - F  57          0.09882     0.19822   
  2042. BD*(   1) C  36 - F  58          0.09182     0.19570   
  2043. BD*(   1) C  36 - F  59          0.09038     0.20031   
  2044. BD*(   1) C  37 - C  38          0.01983     0.50272   
  2045. BD*(   1) C  37 - C  42          0.01976     0.50032   
  2046. BD*(   2) C  37 - C  42          0.35436    -0.00557  2054(v),2049(v),2061(v)
                                                    888(g),2062(v),2063(v)
  2047. BD*(   1) C  37 - H  43          0.01212     0.37958   
  2048. BD*(   1) C  38 - C  39          0.02455     0.50555   
  2049. BD*(   2) C  38 - C  39          0.34619     0.00081  2054(v),2046(v),2060(v)
                                                    2058(v),939(g),914(g)
  2050. BD*(   1) C  38 - C  44          0.06637     0.30411   
  2051. BD*(   1) C  39 - C  40          0.02956     0.50972   
  2052. BD*(   1) C  39 - H  45          0.01884     0.40022   
  2053. BD*(   1) C  40 - C  41          0.02246     0.50043   
  2054. BD*(   2) C  40 - C  41          0.34946    -0.00054  2049(v),2046(v),991(g)
                                                    2092(r),2019(v),967(g)
  2055. BD*(   1) C  41 - C  42          0.02308     0.50153   
  2056. BD*(   1) C  41 - H  46          0.01633     0.38293   
  2057. BD*(   1) C  42 - C  47          0.06607     0.30158   
  2058. BD*(   1) C  44 - F  51          0.09495     0.19756   
  2059. BD*(   1) C  44 - F  52          0.08926     0.19551   
  2060. BD*(   1) C  44 - F  53          0.09617     0.20324   
  2061. BD*(   1) C  47 - F  48          0.10326     0.18904  2046(v),1089(g)
  2062. BD*(   1) C  47 - F  49          0.08931     0.20289   
  2063. BD*(   1) C  47 - F  50          0.08917     0.20314   
  2064. BD*(   1) P  60 - C  64          0.03546     0.22757   
  2065. BD*(   1) P  60 - C  77          0.04388     0.21571   
  2066. BD*(   1) P  60 - C  86          0.03797     0.23215   
  2067. BD*(   1) C  61 - C  62          0.01472     0.53050   
  2068. BD*(   2) C  61 - C  62          0.32409     0.01860  2074(v),2078(v),1451(g)
                                                    1477(g)
  2069. BD*(   1) C  61 - C  66          0.01486     0.52671   
  2070. BD*(   1) C  61 - H  67          0.01309     0.39803   
  2071. BD*(   1) C  62 - C  63          0.01602     0.53322   
  2072. BD*(   1) C  62 - H  68          0.01355     0.39786   
  2073. BD*(   1) C  63 - C  64          0.02508     0.52794   
  2074. BD*(   2) C  63 - C  64          0.35212     0.02130  2078(v),2068(v),2092(r)
                                                    1503(g),2066(v),2005(r)
                                                    2104(r),2011(r),2065(v)
  2075. BD*(   1) C  63 - H  69          0.01600     0.40525   
  2076. BD*(   1) C  64 - C  65          0.03179     0.51323   
  2077. BD*(   1) C  65 - C  66          0.01786     0.53730   
  2078. BD*(   2) C  65 - C  66          0.30649     0.02287  2074(v),2068(v),2092(r)
                                                    2104(r),1581(g)
  2079. BD*(   1) C  65 - H  70          0.01601     0.41186   
  2080. BD*(   1) C  66 - H  71          0.01420     0.39797   
  2081. BD*(   1) C  73 - C  74          0.01500     0.53946   
  2082. BD*(   2) C  73 - C  74          0.32850     0.02468  2092(v),2088(v),1637(g)
                                                    1663(g)
  2083. BD*(   1) C  73 - C  78          0.01783     0.54056   
  2084. BD*(   1) C  73 - H  79          0.01414     0.40543   
  2085. BD*(   1) C  74 - C  75          0.01518     0.54592   
  2086. BD*(   1) C  74 - H  80          0.01374     0.40811   
  2087. BD*(   1) C  75 - C  76          0.02824     0.52497   
  2088. BD*(   2) C  75 - C  76          0.34096     0.02947  2082(v),2092(v),2011(v)
                                                    1689(g),2008(v),2005(r)
                                                    2010(v),1994(r),1714(g)
  2089. BD*(   1) C  75 - H  81          0.01497     0.42626   
  2090. BD*(   1) C  76 - C  77          0.03509     0.50049   
  2091. BD*(   1) C  77 - C  78          0.02568     0.52426   
  2092. BD*(   2) C  77 - C  78          0.35934     0.02249  2082(v),2088(v),2078(r)
                                                    2074(r),2104(r),1766(g)
                                                    2054(r),2064(v)
  2093. BD*(   1) C  78 - H  82          0.01879     0.42132   
  2094. BD*(   1) C  83 - C  84          0.01471     0.53771   
  2095. BD*(   1) C  83 - C  88          0.01453     0.53809   
  2096. BD*(   2) C  83 - C  88          0.32996     0.02628  2099(v),2104(v),1813(g)
                                                    1943(g)
  2097. BD*(   1) C  83 - H  89          0.01307     0.40464   
  2098. BD*(   1) C  84 - C  85          0.01625     0.54328   
  2099. BD*(   2) C  84 - C  85          0.32113     0.02785  2096(v),2104(v),1839(g)
                                                    1865(g)
  2100. BD*(   1) C  84 - H  90          0.01346     0.40865   
  2101. BD*(   1) C  85 - C  86          0.02350     0.52287   
  2102. BD*(   1) C  85 - H  91          0.01803     0.41760   
  2103. BD*(   1) C  86 - C  87          0.02501     0.52779   
  2104. BD*(   2) C  86 - C  87          0.37688     0.02263  2096(v),2099(v),2078(r)
                                                    2092(r),1917(g),2065(v)
                                                    2074(r)
  2105. BD*(   1) C  87 - C  88          0.01579     0.54244   
  2106. BD*(   1) C  87 - H  92          0.01552     0.41270   
  2107. BD*(   1) C  88 - H  93          0.01351     0.40375   
       -------------------------------
              Total Lewis  401.04837  ( 97.6106%)
        Valence non-Lewis    9.00020  (  2.1905%)
        Rydberg non-Lewis    0.81683  (  0.1988%)
       -------------------------------
            Total unit  3  410.86540  (100.0000%)
           Charge unit  3    0.13460
 1\1\GINC-NC077\SP\RPBE1PBE\Gen\C46H32F12Fe1P2\MACKK4\06-Dec-2021\0\\# 
 PBE1PBE gen pseudo=read int=(grid=ultrafine) empiricaldispersion=GD3BJ
  pop=nbo guess=read geom=check\\W001_1_6_F_2 title\\0,1\C,0,0.10932227
 49,-3.917480125,4.1432312141\C,0,0.0873616624,-3.3438947335,5.46014496
 46\C,0,1.4111067422,-3.4448296612,6.0104178482\C,0,2.2523575338,-4.078
 3613846,5.0325637995\C,0,1.4439767853,-4.3739340833,3.8782572335\H,0,-
 0.770032047,-2.8677433371,5.9371404972\H,0,1.7333620193,-3.059183207,6
 .9781870168\H,0,3.3202313428,-4.272488852,5.1399286283\H,0,1.781021559
 6,-4.8471204923,2.9545216889\H,0,-0.7333741537,-3.9706366951,3.4526644
 923\Fe,0,1.4380680851,-2.3567169838,4.2790266178\C,0,1.7076407305,-0.4
 139894044,4.8645698906\C,0,2.8751600987,-0.9164626437,4.2119801009\C,0
 ,2.5197129982,-1.3242325191,2.8732650312\C,0,1.0829827458,-1.108141251
 6,2.7214460868\C,0,0.6113033501,-0.5185059652,3.9520432816\H,0,1.65156
 78915,-0.0564058624,5.8928432417\H,0,-0.4207246064,-0.2483632985,4.169
 0334787\C,0,0.1813055531,-1.4882625515,1.5627583627\P,0,0.6667711529,-
 0.4790050323,0.0514746236\H,0,0.3439068296,-2.5522450327,1.3169170668\
 C,0,-1.3085986107,-1.2768383487,1.887214157\H,0,-1.9518606498,-1.68469
 43762,1.0935291115\H,0,-1.5496402733,-1.7991331369,2.8277574769\H,0,-1
 .5396189245,-0.2045578872,1.9967226902\C,0,-2.7947776073,-0.6098485045
 ,-3.0648763738\C,0,-2.1762088238,0.6071269769,-2.7575099299\C,0,-1.160
 5911642,0.6729400494,-1.7909076329\C,0,-0.7551360542,-0.4957573091,-1.
 1290937046\C,0,-1.3548101257,-1.7255293387,-1.4560415084\C,0,-2.379065
 9242,-1.777298085,-2.4093173092\H,0,-3.5889103606,-0.6514327037,-3.814
 1825001\C,0,-2.6420090743,1.8816735868,-3.4241365172\H,0,-0.7004849923
 ,1.6312441174,-1.5386108808\H,0,-1.0261998573,-2.6541680688,-0.9788735
 5\C,0,-2.975772004,-3.1103403785,-2.789357975\C,0,3.3065520258,-3.1135
 428297,-2.763767148\C,0,2.8331020526,-3.6651283387,-1.5667814088\C,0,2
 .0599224136,-2.9004256426,-0.6839994706\C,0,1.755413333,-1.5646595066,
 -0.9851088812\C,0,2.2131159077,-1.0164661971,-2.1967245326\C,0,2.98886
 16422,-1.7852738228,-3.0746884849\H,0,3.9128198796,-3.711513002,-3.449
 1572707\C,0,3.1445267564,-5.1094022645,-1.2554703853\H,0,1.7261649115,
 -3.3603525247,0.246720876\H,0,1.9535841826,0.0133975104,-2.4640054988\
 C,0,3.5471606359,-1.153125637,-4.326854518\F,0,4.7648230894,-0.5763679
 868,-4.0750936239\F,0,3.7389625181,-2.0662709191,-5.3120606502\F,0,2.7
 370758015,-0.1762662408,-4.8052955306\F,0,4.4733925767,-5.3714999368,-
 1.4089774098\F,0,2.8046740446,-5.4471891337,0.0202823746\F,0,2.4762848
 433,-5.9492347515,-2.0895518095\F,0,-1.6105574915,2.7427482764,-3.6198
 80881\F,0,-3.2100053028,1.6296209241,-4.6367385765\F,0,-3.5710176163,2
 .5210959165,-2.6675531021\F,0,-2.2797150881,-3.6916221317,-3.805856127
 5\F,0,-2.9553856579,-3.9822660269,-1.7424780557\F,0,-4.2638033362,-2.9
 859654809,-3.2023371754\P,0,3.6696447635,0.9677317447,0.9996964852\C,0
 ,5.2930076556,1.9861077258,5.2354639239\C,0,4.0261172856,2.4493982344,
 4.8556210058\C,0,3.5208819631,2.1688775203,3.5784154815\C,0,4.29030413
 72,1.4172983224,2.6741188117\C,0,5.5649669739,0.9483286035,3.056723341
 2\C,0,6.0644244285,1.2373744687,4.3323524524\H,0,5.6832609644,2.208742
 6111,6.2340218639\H,0,3.4204232719,3.0343606049,5.55501748\H,0,2.53704
 98699,2.5363216851,3.2773135799\H,0,6.1628551641,0.351668188,2.3598803
 31\H,0,7.0569154965,0.8761476042,4.6210363485\H,0,3.8821832952,-0.9671
 170456,4.6256427359\C,0,5.6101126979,-2.5998456874,0.1346806202\C,0,5.
 0852288361,-3.4852499997,1.0805592258\C,0,4.0707407306,-3.0523768358,1
 .9422755783\C,0,3.5544897054,-1.7446020619,1.8882814251\C,0,4.13566160
 28,-0.8288913667,0.9594112136\C,0,5.1466016225,-1.2783128294,0.0884619
 685\H,0,6.3890495304,-2.9261199614,-0.5615380215\H,0,5.4450713195,-4.5
 168134127,1.1347435295\H,0,3.6492557845,-3.732563679,2.6841140016\H,0,
 5.5942549535,-0.5826022028,-0.6253466581\C,0,6.3901037795,3.1864293137
 ,-2.0394250716\C,0,5.5301128044,2.166927945,-2.4734582149\C,0,4.726442
 3275,1.4925164161,-1.548259665\C,0,4.7940983113,1.8093501963,-0.177472
 6932\C,0,5.6534225274,2.8369213696,0.2529954444\C,0,6.4452999358,3.520
 4235983,-0.67942431\H,0,7.0114119917,3.7244615646,-2.7624120614\H,0,5.
 474827328,1.8921242259,-3.5309729557\H,0,4.054428391,0.7045848144,-1.8
 949942722\H,0,5.6902479868,3.1119426863,1.3098423055\H,0,7.1040071758,
 4.3252011711,-0.3376948048\\Version=ES64L-G09RevE.01\State=1-A\HF=-377
 4.7487005\RMSD=5.249e-09\Dipole=0.552889,0.3631997,2.1336549\Quadrupol
 e=3.2902902,-10.72466,7.4343698,1.6137064,-4.0331485,5.7614958\PG=C01 
 [X(C46H32F12Fe1P2)]\\@


 A MAN BEGINS CUTTING HIS WISDOM TEETH THE 1ST
 TIME HE BITES OFF MORE THAN HE CAN CHEW.
 Job cpu time:       0 days  6 hours 49 minutes  9.7 seconds.
 File lengths (MBytes):  RWF=   2275 Int=      0 D2E=      0 Chk=    320 Scr=      1
 Normal termination of Gaussian 09 at Mon Dec  6 16:34:28 2021.
