 Entering Gaussian System, Link 0=g09
 Input=W001_1_6_F_1_SPE_NoPd.com
 Output=W001_1_6_F_1_SPE_NoPd.log
 Initial command:
 /gstore/apps/gaussian/g09.e01-foss-2017a/g09/l1.exe "/local/22791613/Gau-644.inp" -scrdir="/local/22791613/"
 Entering Link 1 = /gstore/apps/gaussian/g09.e01-foss-2017a/g09/l1.exe PID=       645.
  
 Copyright (c) 1988,1990,1992,1993,1995,1998,2003,2009,2015,
            Gaussian, Inc.  All Rights Reserved.
  
 This is part of the Gaussian(R) 09 program.  It is based on
 the Gaussian(R) 03 system (copyright 2003, Gaussian, Inc.),
 the Gaussian(R) 98 system (copyright 1998, Gaussian, Inc.),
 the Gaussian(R) 94 system (copyright 1995, Gaussian, Inc.),
 the Gaussian 92(TM) system (copyright 1992, Gaussian, Inc.),
 the Gaussian 90(TM) system (copyright 1990, Gaussian, Inc.),
 the Gaussian 88(TM) system (copyright 1988, Gaussian, Inc.),
 the Gaussian 86(TM) system (copyright 1986, Carnegie Mellon
 University), and the Gaussian 82(TM) system (copyright 1983,
 Carnegie Mellon University). Gaussian is a federally registered
 trademark of Gaussian, Inc.
  
 This software contains proprietary and confidential information,
 including trade secrets, belonging to Gaussian, Inc.
  
 This software is provided under written license and may be
 used, copied, transmitted, or stored only in accord with that
 written license.
  
 The following legend is applicable only to US Government
 contracts under FAR:
  
                    RESTRICTED RIGHTS LEGEND
  
 Use, reproduction and disclosure by the US Government is
 subject to restrictions as set forth in subparagraphs (a)
 and (c) of the Commercial Computer Software - Restricted
 Rights clause in FAR 52.227-19.
  
 Gaussian, Inc.
 340 Quinnipiac St., Bldg. 40, Wallingford CT 06492
  
  
 ---------------------------------------------------------------
 Warning -- This program may not be used in any manner that
 competes with the business of Gaussian, Inc. or will provide
 assistance to any competitor of Gaussian, Inc.  The licensee
 of this program is prohibited from giving any competitor of
 Gaussian, Inc. access to this program.  By using this program,
 the user acknowledges that Gaussian, Inc. is engaged in the
 business of creating and licensing software in the field of
 computational chemistry and represents and warrants to the
 licensee that it is not a competitor of Gaussian, Inc. and that
 it will not use this program in any manner prohibited above.
 ---------------------------------------------------------------
  

 Cite this work as:
 Gaussian 09, Revision E.01,
 M. J. Frisch, G. W. Trucks, H. B. Schlegel, G. E. Scuseria, 
 M. A. Robb, J. R. Cheeseman, G. Scalmani, V. Barone, B. Mennucci, 
 G. A. Petersson, H. Nakatsuji, M. Caricato, X. Li, H. P. Hratchian, 
 A. F. Izmaylov, J. Bloino, G. Zheng, J. L. Sonnenberg, M. Hada, 
 M. Ehara, K. Toyota, R. Fukuda, J. Hasegawa, M. Ishida, T. Nakajima, 
 Y. Honda, O. Kitao, H. Nakai, T. Vreven, J. A. Montgomery, Jr., 
 J. E. Peralta, F. Ogliaro, M. Bearpark, J. J. Heyd, E. Brothers, 
 K. N. Kudin, V. N. Staroverov, T. Keith, R. Kobayashi, J. Normand, 
 K. Raghavachari, A. Rendell, J. C. Burant, S. S. Iyengar, J. Tomasi, 
 M. Cossi, N. Rega, J. M. Millam, M. Klene, J. E. Knox, J. B. Cross, 
 V. Bakken, C. Adamo, J. Jaramillo, R. Gomperts, R. E. Stratmann, 
 O. Yazyev, A. J. Austin, R. Cammi, C. Pomelli, J. W. Ochterski, 
 R. L. Martin, K. Morokuma, V. G. Zakrzewski, G. A. Voth, 
 P. Salvador, J. J. Dannenberg, S. Dapprich, A. D. Daniels, 
 O. Farkas, J. B. Foresman, J. V. Ortiz, J. Cioslowski, 
 and D. J. Fox, Gaussian, Inc., Wallingford CT, 2013.
 
 ******************************************
 Gaussian 09:  ES64L-G09RevE.01 30-Nov-2015
                 6-Dec-2021 
 ******************************************
 %nprocs=14
 Will use up to   14 processors via shared memory.
 %mem=128GB
 %chk=W001_1_6_F_1_SPE_NoPd.chk
 ----------------------------------------------------------------------
 # PBE1PBE gen pseudo=read int=(grid=ultrafine) empiricaldispersion=GD3
 BJ nmr=giao
 ----------------------------------------------------------------------
 1/38=1/1;
 2/12=2,17=6,18=5,40=1/2;
 3/5=7,11=2,16=1,17=8,25=1,30=1,74=-13,75=-5,124=41/1,2,8,3;
 4//1;
 5/5=2,38=5/2;
 8/6=1,10=90,11=11/1;
 10/13=100,45=16/2;
 6/7=2,8=2,9=2,10=2,28=1/1;
 99/9=1/99;
 ------------------
 W001_1_6_F_1 title
 ------------------
 Symbolic Z-matrix:
 Charge =  0 Multiplicity = 1
 C                    -0.19719  -3.55513   5.22858 
 C                     0.41892  -2.86893   6.33151 
 C                     1.83119  -3.12719   6.28387 
 C                     2.08889  -3.97567   5.15511 
 C                     0.83635  -4.23891   4.49817 
 H                    -0.08966  -2.21879   7.04415 
 H                     2.5821   -2.71309   6.95747 
 H                     3.07161  -4.33284   4.84574 
 H                     0.69401  -4.83783   3.5972 
 H                    -1.25702  -3.52927   4.97287 
 Fe                    1.19635  -2.22288   4.55435 
 C                     1.12424  -0.18205   4.71254 
 C                     2.4137   -0.60844   4.25669 
 C                     2.23924  -1.34849   3.02946 
 C                     0.81015  -1.38665   2.74748 
 C                     0.14121  -0.64845   3.78487 
 H                     0.92188   0.36595   5.63262 
 H                    -0.93275  -0.48959   3.85888 
 C                     0.18284  -1.96043   1.50257 
 P                     0.66898  -0.74303   0.12293 
 H                     0.67576  -2.92033   1.27345 
 C                    -1.33196  -2.16737   1.62842 
 H                    -1.74845  -2.70102   0.76084 
 H                    -1.52953  -2.76867   2.53232 
 H                    -1.8516   -1.20058   1.72252 
 C                    -2.55798  -0.41839  -3.22342 
 C                    -1.97816   0.73534  -2.68182 
 C                    -1.04233   0.64601  -1.64146 
 C                    -0.67015  -0.6127   -1.14293 
 C                    -1.22332  -1.77362  -1.70894 
 C                    -2.17558  -1.67347  -2.73197 
 H                    -3.29403  -0.3415   -4.0272 
 C                    -2.40456   2.09954  -3.17197 
 H                    -0.61416   1.55208  -1.20666 
 H                    -0.91317  -2.76641  -1.3704 
 C                    -2.72354  -2.93169  -3.35901 
 C                     3.52876  -2.85857  -2.91258 
 C                     2.83296  -3.63634  -1.97958 
 C                     2.00348  -3.03651  -1.02177 
 C                     1.85437  -1.64115  -0.9901 
 C                     2.54339  -0.86261  -1.93664 
 C                     3.38287  -1.46663  -2.88066 
 H                     4.17749  -3.33006  -3.65524 
 C                     3.05017  -5.12945  -1.97658 
 H                     1.48703  -3.68035  -0.30729 
 H                     2.43829   0.22537  -1.93223 
 C                     4.21558  -0.60067  -3.79358 
 F                     4.58096  -1.25947  -4.92474 
 F                     3.55728   0.52846  -4.1623 
 F                     5.3657   -0.21203  -3.1657 
 F                     4.30632  -5.44083  -1.53229 
 F                     2.16762  -5.7766   -1.17103 
 F                     2.93804  -5.65119  -3.22552 
 F                    -1.36896   2.98064  -3.1438 
 F                    -2.86919   2.04692  -4.45148 
 F                    -3.3973    2.61432  -2.40197 
 F                    -3.9675   -2.74065  -3.87001 
 F                    -1.92947  -3.3632   -4.37876 
 F                    -2.79543  -3.94782  -2.4538 
 P                     3.5687    0.84754   1.26415 
 C                     6.36806   2.35467   4.67303 
 C                     5.59874   3.26085   3.92906 
 C                     4.73294   2.80448   2.92819 
 C                     4.62082   1.4227    2.66955 
 C                     5.41122   0.51619   3.40459 
 C                     6.27727   0.98259   4.40351 
 H                     7.04337   2.71757   5.45469 
 H                     5.66911   4.33513   4.12698 
 H                     4.12746   3.51231   2.35871 
 H                     5.36258  -0.5554    3.19361 
 H                     6.88589   0.2669    4.96608 
 H                     3.36252  -0.43079   4.76009 
 C                     5.18545  -2.83917   0.24812 
 C                     4.52522  -3.71739   1.11602 
 C                     3.58318  -3.2187    2.02314 
 C                     3.28647  -1.84442   2.09818 
 C                     3.9625   -0.9584    1.20931 
 C                     4.9027   -1.46866   0.29459 
 H                     5.89914  -3.22305  -0.48694 
 H                     4.72279  -4.79216   1.06559 
 H                     3.04626  -3.89145   2.69571 
 H                     5.38684  -0.7976   -0.42017 
 C                     5.63837   2.95655  -2.31886 
 C                     6.42364   2.31676  -1.34757 
 C                     5.81631   1.67705  -0.26075 
 C                     4.41005   1.65398  -0.154 
 C                     3.6293    2.32607  -1.11344 
 C                     4.24264   2.96995  -2.19615 
 H                     6.11829   3.4579   -3.1653 
 H                     7.51518   2.32509  -1.43118 
 H                     6.43198   1.20817   0.51412 
 H                     2.54054   2.36127  -0.98019 
 H                     3.62777   3.48859  -2.93808 
 
 Stoichiometry    C46H32F12FeP2
 Framework group  C1[X(C46H32F12FeP2)]
 Deg. of freedom   273
 Full point group                 C1      NOp   1
 Largest Abelian subgroup         C1      NOp   1
 Largest concise Abelian subgroup C1      NOp   1
                         Standard orientation:                         
 ---------------------------------------------------------------------
 Center     Atomic      Atomic             Coordinates (Angstroms)
 Number     Number       Type             X           Y           Z
 ---------------------------------------------------------------------
      1          6           0       -3.177307   -5.173008   -0.396609
      2          6           0       -4.457476   -4.859370   -0.970792
      3          6           0       -5.162433   -4.010802   -0.050764
      4          6           0       -4.321448   -3.802480    1.093687
      5          6           0       -3.091169   -4.517177    0.880779
      6          1           0       -4.807331   -5.164457   -1.957559
      7          1           0       -6.143739   -3.563916   -0.213297
      8          1           0       -4.573433   -3.187407    1.958102
      9          1           0       -2.236646   -4.546386    1.558756
     10          1           0       -2.397086   -5.772934   -0.866352
     11         26           0       -3.386515   -3.153601   -0.619400
     12          6           0       -3.538605   -2.119911   -2.381103
     13          6           0       -3.828194   -1.266350   -1.267602
     14          6           0       -2.676694   -1.249874   -0.396980
     15          6           0       -1.675744   -2.128583   -0.987955
     16          6           0       -2.217292   -2.641335   -2.217759
     17          1           0       -4.224227   -2.365697   -3.191850
     18          1           0       -1.712117   -3.324972   -2.897142
     19          6           0       -0.272639   -2.322058   -0.471812
     20         15           0        0.601418   -0.673605   -0.846552
     21          1           0       -0.314793   -2.421929    0.625964
     22          6           0        0.433724   -3.539943   -1.080979
     23          1           0        1.404250   -3.736237   -0.600880
     24          1           0       -0.208827   -4.425537   -0.937811
     25          1           0        0.604119   -3.393469   -2.159436
     26          6           0        5.141988   -1.198758   -1.754381
     27          6           0        4.342926   -0.391437   -2.573130
     28          6           0        2.966881   -0.268059   -2.333558
     29          6           0        2.381919   -0.949616   -1.254342
     30          6           0        3.187629   -1.731589   -0.409686
     31          6           0        4.557471   -1.868007   -0.671132
     32          1           0        6.211835   -1.298604   -1.952355
     33          6           0        4.946754    0.308655   -3.768271
     34          1           0        2.345828    0.342944   -2.992583
     35          1           0        2.763643   -2.232964    0.465123
     36          6           0        5.414725   -2.673827    0.273487
     37          6           0        1.704008    1.473766    3.158602
     38          6           0        1.307204    0.131821    3.194212
     39          6           0        0.922351   -0.533841    2.022034
     40          6           0        0.936227    0.138758    0.790091
     41          6           0        1.348080    1.482602    0.754336
     42          6           0        1.716054    2.146535    1.930996
     43          1           0        1.999627    1.990125    4.075492
     44          6           0        1.230440   -0.564870    4.530362
     45          1           0        0.611092   -1.577501    2.097089
     46          1           0        1.370105    2.023904   -0.195015
     47          6           0        2.020479    3.623651    1.884300
     48          9           0        2.800854    4.014608    2.926039
     49          9           0        2.651693    3.975952    0.734649
     50          9           0        0.865861    4.351901    1.951770
     51          9           0        0.194065   -0.076620    5.278559
     52          9           0        1.037294   -1.903898    4.402593
     53          9           0        2.361028   -0.372074    5.257846
     54          9           0        4.346701    1.508154   -3.993491
     55          9           0        6.277969    0.537886   -3.591861
     56          9           0        4.810092   -0.432625   -4.897542
     57          9           0        6.504373   -3.191598   -0.350728
     58          9           0        5.866160   -1.909274    1.307070
     59          9           0        4.715638   -3.708178    0.819837
     60         15           0       -1.952940    1.708105   -1.054914
     61          6           0       -6.369484    2.946971   -1.884141
     62          6           0       -5.355549    3.266448   -2.798665
     63          6           0       -4.035051    2.864621   -2.565341
     64          6           0       -3.718155    2.122434   -1.408825
     65          6           0       -4.735764    1.821336   -0.481142
     66          6           0       -6.055023    2.229902   -0.722070
     67          1           0       -7.400493    3.263867   -2.072135
     68          1           0       -5.590297    3.833322   -3.705171
     69          1           0       -3.250471    3.105759   -3.285215
     70          1           0       -4.501628    1.276870    0.437507
     71          1           0       -6.835219    1.989599    0.007774
     72          1           0       -4.764418   -0.739872   -1.090020
     73          6           0       -1.852497    1.195633    3.063983
     74          6           0       -2.210398   -0.149189    3.218213
     75          6           0       -2.489596   -0.926708    2.088385
     76          6           0       -2.433175   -0.387375    0.789063
     77          6           0       -2.066172    0.982236    0.642090
     78          6           0       -1.779245    1.755379    1.782691
     79          1           0       -1.600352    1.802890    3.938447
     80          1           0       -2.243137   -0.598472    4.215106
     81          1           0       -2.753698   -1.981857    2.189050
     82          1           0       -1.451286    2.792302    1.669407
     83          6           0       -0.083728    5.949678   -0.764246
     84          6           0       -1.305838    5.689052   -0.125569
     85          6           0       -1.883708    4.416569   -0.203696
     86          6           0       -1.224134    3.386178   -0.905652
     87          6           0       -0.015357    3.662838   -1.572070
     88          6           0        0.555733    4.939956   -1.495591
     89          1           0        0.362566    6.947253   -0.702586
     90          1           0       -1.816894    6.483762    0.427390
     91          1           0       -2.854078    4.224710    0.266297
     92          1           0        0.451031    2.872204   -2.173548
     93          1           0        1.496423    5.145619   -2.015491
 ---------------------------------------------------------------------
 Rotational constants (GHZ):      0.0426874      0.0323257      0.0284121
 General basis read from cards:  (5D, 7F)
 ======================================================================================================
                                       Pseudopotential Parameters
 ======================================================================================================
  Center     Atomic      Valence      Angular      Power
  Number     Number     Electrons     Momentum     of R      Exponent        Coefficient   SO-Coeffient
 ======================================================================================================
    1          6
                                   No pseudopotential on this center.
    2          6
                                   No pseudopotential on this center.
    3          6
                                   No pseudopotential on this center.
    4          6
                                   No pseudopotential on this center.
    5          6
                                   No pseudopotential on this center.
    6          1
                                   No pseudopotential on this center.
    7          1
                                   No pseudopotential on this center.
    8          1
                                   No pseudopotential on this center.
    9          1
                                   No pseudopotential on this center.
   10          1
                                   No pseudopotential on this center.
   11         26           16
                                      F and up 
                                                     2        1.0000000        0.00000000    0.00000000
                                      S - F
                                                     2       20.9300000      253.74958800    0.00000000
                                                     2        9.4450000       37.92284500    0.00000000
                                      P - F
                                                     2       21.7600000      161.03681200    0.00000000
                                                     2        9.1780000       27.65129800    0.00000000
                                      D - F
                                                     2       25.9000000      -24.43127600    0.00000000
                                                     2        8.8350000       -1.43425100    0.00000000
   12          6
                                   No pseudopotential on this center.
   13          6
                                   No pseudopotential on this center.
   14          6
                                   No pseudopotential on this center.
   15          6
                                   No pseudopotential on this center.
   16          6
                                   No pseudopotential on this center.
   17          1
                                   No pseudopotential on this center.
   18          1
                                   No pseudopotential on this center.
   19          6
                                   No pseudopotential on this center.
   20         15
                                   No pseudopotential on this center.
   21          1
                                   No pseudopotential on this center.
   22          6
                                   No pseudopotential on this center.
   23          1
                                   No pseudopotential on this center.
   24          1
                                   No pseudopotential on this center.
   25          1
                                   No pseudopotential on this center.
   26          6
                                   No pseudopotential on this center.
   27          6
                                   No pseudopotential on this center.
   28          6
                                   No pseudopotential on this center.
   29          6
                                   No pseudopotential on this center.
   30          6
                                   No pseudopotential on this center.
   31          6
                                   No pseudopotential on this center.
   32          1
                                   No pseudopotential on this center.
   33          6
                                   No pseudopotential on this center.
   34          1
                                   No pseudopotential on this center.
   35          1
                                   No pseudopotential on this center.
   36          6
                                   No pseudopotential on this center.
   37          6
                                   No pseudopotential on this center.
   38          6
                                   No pseudopotential on this center.
   39          6
                                   No pseudopotential on this center.
   40          6
                                   No pseudopotential on this center.
   41          6
                                   No pseudopotential on this center.
   42          6
                                   No pseudopotential on this center.
   43          1
                                   No pseudopotential on this center.
   44          6
                                   No pseudopotential on this center.
   45          1
                                   No pseudopotential on this center.
   46          1
                                   No pseudopotential on this center.
   47          6
                                   No pseudopotential on this center.
   48          9
                                   No pseudopotential on this center.
   49          9
                                   No pseudopotential on this center.
   50          9
                                   No pseudopotential on this center.
   51          9
                                   No pseudopotential on this center.
   52          9
                                   No pseudopotential on this center.
   53          9
                                   No pseudopotential on this center.
   54          9
                                   No pseudopotential on this center.
   55          9
                                   No pseudopotential on this center.
   56          9
                                   No pseudopotential on this center.
   57          9
                                   No pseudopotential on this center.
   58          9
                                   No pseudopotential on this center.
   59          9
                                   No pseudopotential on this center.
   60         15
                                   No pseudopotential on this center.
   61          6
                                   No pseudopotential on this center.
   62          6
                                   No pseudopotential on this center.
   63          6
                                   No pseudopotential on this center.
   64          6
                                   No pseudopotential on this center.
   65          6
                                   No pseudopotential on this center.
   66          6
                                   No pseudopotential on this center.
   67          1
                                   No pseudopotential on this center.
   68          1
                                   No pseudopotential on this center.
   69          1
                                   No pseudopotential on this center.
   70          1
                                   No pseudopotential on this center.
   71          1
                                   No pseudopotential on this center.
   72          1
                                   No pseudopotential on this center.
   73          6
                                   No pseudopotential on this center.
   74          6
                                   No pseudopotential on this center.
   75          6
                                   No pseudopotential on this center.
   76          6
                                   No pseudopotential on this center.
   77          6
                                   No pseudopotential on this center.
   78          6
                                   No pseudopotential on this center.
   79          1
                                   No pseudopotential on this center.
   80          1
                                   No pseudopotential on this center.
   81          1
                                   No pseudopotential on this center.
   82          1
                                   No pseudopotential on this center.
   83          6
                                   No pseudopotential on this center.
   84          6
                                   No pseudopotential on this center.
   85          6
                                   No pseudopotential on this center.
   86          6
                                   No pseudopotential on this center.
   87          6
                                   No pseudopotential on this center.
   88          6
                                   No pseudopotential on this center.
   89          1
                                   No pseudopotential on this center.
   90          1
                                   No pseudopotential on this center.
   91          1
                                   No pseudopotential on this center.
   92          1
                                   No pseudopotential on this center.
   93          1
                                   No pseudopotential on this center.
 ======================================================================================================
 There are  2413 symmetry adapted cartesian basis functions of A   symmetry.
 There are  2107 symmetry adapted basis functions of A   symmetry.
  2107 basis functions,  3427 primitive gaussians,  2413 cartesian basis functions
   231 alpha electrons      231 beta electrons
       nuclear repulsion energy     10704.7532665114 Hartrees.
 NAtoms=   93 NActive=   93 NUniq=   93 SFac= 1.00D+00 NAtFMM=   60 NAOKFM=T Big=T
 Integral buffers will be    131072 words long.
 Raffenetti 2 integral format.
 Two-electron integral symmetry is turned on.
 Nuclear repulsion after empirical dispersion term =    10704.5948388350 Hartrees.
 One-electron integrals computed using PRISM.
   1 Symmetry operations used in ECPInt.
 ECPInt:  NShTT=  326028 NPrTT= 1021761 LenC2=  231189 LenP2D=  462149.
 LDataN:  DoStor=T MaxTD1= 6 Len=  172
 NBasis=  2107 RedAO= T EigKep=  3.02D-06  NBF=  2107
 NBsUse=  2107 1.00D-06 EigRej= -1.00D+00 NBFU=  2107
 ExpMin= 1.00D-02 ExpMax= 5.24D+04 ExpMxC= 1.79D+03 IAcc=3 IRadAn=         5 AccDes= 0.00D+00
 Harris functional with IExCor= 1009 and IRadAn=       5 diagonalized for initial guess.
 HarFok:  IExCor= 1009 AccDes= 0.00D+00 IRadAn=         5 IDoV= 1 UseB2=F ITyADJ=14
 ICtDFT=  3500011 ScaDFX=  1.000000  1.000000  1.000000  1.000000
 FoFCou: FMM=F IPFlag=           0 FMFlag=      100000 FMFlg1=        2001
         NFxFlg=           0 DoJE=T BraDBF=F KetDBF=T FulRan=T
         wScrn=  0.000000 ICntrl=     500 IOpCl=  0 I1Cent=   200000004 NGrid=           0
         NMat0=    1 NMatS0=      1 NMatT0=    0 NMatD0=    1 NMtDS0=    0 NMtDT0=    0
 Petite list used in FoFCou.
 Requested convergence on RMS density matrix=1.00D-08 within 128 cycles.
 Requested convergence on MAX density matrix=1.00D-06.
 Requested convergence on             energy=1.00D-06.
 No special actions if energy rises.
 Restarting incremental Fock formation.
 SCF Done:  E(RPBE1PBE) =  -3774.75014767     A.U. after   40 cycles
            NFock= 40  Conv=0.77D-08     -V/T= 2.0184
 DoSCS=F DFT=T ScalE2(SS,OS)=  1.000000  1.000000
 Range of M.O.s used for correlation:     1  2107
 NBasis=  2107 NAE=   231 NBE=   231 NFC=     0 NFV=     0
 NROrb=   2107 NOA=   231 NOB=   231 NVA=  1876 NVB=  1876

 **** Warning!!: The largest alpha MO coefficient is  0.47270450D+02

          Differentiating once with respect to magnetic field using GIAOs.
          Electric field/nuclear overlap derivatives assumed to be zero.
 FoFCou: FMM=F IPFlag=           0 FMFlag=      100000 FMFlg1=        2001
         NFxFlg=           0 DoJE=F BraDBF=F KetDBF=T FulRan=T
         wScrn=  0.000000 ICntrl=    6100 IOpCl=  0 I1Cent=           7 NGrid=          93
         NMat0=    1 NMatS0=      1 NMatT0=    0 NMatD0=    1 NMtDS0=    0 NMtDT0=    0
 Symmetry not used in FoFCou.
   1 Symmetry operations used in ECPInt.
 ECPInt:  NShTT=  326028 NPrTT= 1021761 LenC2=  326029 LenP2D= 1021761.
 LDataN:  DoStor=T MaxTD1= 7 Len=  274
 FoFJK:  IHMeth= 1 ICntrl=    6127 DoSepK=F KAlg= 0 I1Cent=   0 FoldK=F
 IRaf=         1 NMat=   1 IRICut=       1 DoRegI=T DoRafI=F ISym2E= 0.
          There are     3 degrees of freedom in the 1st order CPHF.  IDoFFX=0 NUNeed=     3.
      3 vectors produced by pass  0 Test12= 1.44D-11 3.33D-08 XBig12= 2.93D+02 1.57D+00.
 AX will form     3 AO Fock derivatives at one time.
      3 vectors produced by pass  1 Test12= 1.44D-11 3.33D-08 XBig12= 1.49D+00 3.56D-01.
      3 vectors produced by pass  2 Test12= 1.44D-11 3.33D-08 XBig12= 8.37D-02 8.52D-02.
      3 vectors produced by pass  3 Test12= 1.44D-11 3.33D-08 XBig12= 1.07D-03 6.59D-03.
      3 vectors produced by pass  4 Test12= 1.44D-11 3.33D-08 XBig12= 2.10D-05 1.94D-03.
      3 vectors produced by pass  5 Test12= 1.44D-11 3.33D-08 XBig12= 6.22D-07 1.68D-04.
      3 vectors produced by pass  6 Test12= 1.44D-11 3.33D-08 XBig12= 3.62D-09 8.80D-06.
      3 vectors produced by pass  7 Test12= 1.44D-11 3.33D-08 XBig12= 2.63D-11 1.43D-06.
      3 vectors produced by pass  8 Test12= 1.44D-11 3.33D-08 XBig12= 1.15D-12 4.20D-07.
 InvSVY:  IOpt=1 It=  1 EMax= 1.78D-14
 Solved reduced A of dimension    27 with     3 vectors.
 Calculating GIAO nuclear magnetic shielding tensors.
 SCF GIAO Magnetic shielding tensor (ppm):
      1  C    Isotropic =   112.1055   Anisotropy =    88.3935
   XX=   111.1878   YX=    42.3739   ZX=    -1.1320
   XY=    53.6487   YY=   107.5584   ZY=   -37.8715
   XZ=    -3.9826   YZ=   -31.0107   ZZ=   117.5702
   Eigenvalues:    52.3254   112.9566   171.0345
      2  C    Isotropic =   113.2146   Anisotropy =    88.2543
   XX=   108.5736   YX=     3.7857   ZX=   -34.2671
   XY=     0.9114   YY=   131.0946   ZY=   -55.0898
   XZ=   -26.4881   YZ=   -39.6474   ZZ=    99.9757
   Eigenvalues:    54.9161   112.6769   172.0508
      3  C    Isotropic =   111.9805   Anisotropy =    90.1994
   XX=    58.8325   YX=    32.3840   ZX=   -10.7113
   XY=    16.0555   YY=   155.2610   ZY=   -21.6891
   XZ=    -7.1485   YZ=   -22.6003   ZZ=   121.8480
   Eigenvalues:    52.8902   110.9380   172.1135
      4  C    Isotropic =   109.5735   Anisotropy =    93.2477
   XX=   109.7804   YX=    32.5764   ZX=    12.7184
   XY=    29.1925   YY=   148.8620   ZY=   -25.6580
   XZ=     6.6723   YZ=   -38.7518   ZZ=    70.0781
   Eigenvalues:    51.3177   105.6642   171.7386
      5  C    Isotropic =   112.3970   Anisotropy =    90.9368
   XX=   102.2056   YX=    30.7295   ZX=   -32.3966
   XY=    39.4584   YY=   147.0426   ZY=    -1.5857
   XZ=   -40.6747   YZ=    -9.8996   ZZ=    87.9429
   Eigenvalues:    53.9066   110.2630   173.0216
      6  H    Isotropic =    27.5694   Anisotropy =     7.2335
   XX=    26.8316   YX=     1.4823   ZX=     2.8392
   XY=     1.3764   YY=    26.8488   ZY=     2.6343
   XZ=     2.4816   YZ=     2.5772   ZZ=    29.0279
   Eigenvalues:    24.9037    25.4128    32.3918
      7  H    Isotropic =    27.5067   Anisotropy =     6.6569
   XX=    31.7709   YX=    -0.8529   ZX=     1.0131
   XY=    -0.8751   YY=    26.0272   ZY=    -0.0590
   XZ=     0.2446   YZ=     0.6506   ZZ=    24.7219
   Eigenvalues:    24.5656    26.0099    31.9446
      8  H    Isotropic =    27.1909   Anisotropy =     4.3719
   XX=    27.0474   YX=     2.0763   ZX=    -1.2851
   XY=     0.0864   YY=    25.8470   ZY=     1.7987
   XZ=    -0.7229   YZ=     3.0365   ZZ=    28.6784
   Eigenvalues:    23.8178    27.6495    30.1056
      9  H    Isotropic =    27.1312   Anisotropy =     4.0087
   XX=    27.5988   YX=     0.3988   ZX=     1.8312
   XY=    -0.0732   YY=    26.1005   ZY=    -0.5387
   XZ=     2.4820   YZ=     0.2267   ZZ=    27.6943
   Eigenvalues:    25.4152    26.1747    29.8037
     10  H    Isotropic =    27.3361   Anisotropy =     4.9962
   XX=    28.1238   YX=    -1.0714   ZX=    -0.9566
   XY=    -1.8009   YY=    28.6885   ZY=     2.0610
   XZ=    -0.6628   YZ=     1.9584   ZZ=    25.1961
   Eigenvalues:    24.2740    27.0674    30.6669
     11  Fe   Isotropic = -6153.8918   Anisotropy =  8222.2870
   XX= -7625.7302   YX=  2601.1272   ZX= -1616.5030
   XY=  2591.1841   YY= -3752.7378   ZY= -2969.8379
   XZ= -1600.3781   YZ= -2970.0026   ZZ= -7083.2074
   Eigenvalues: -8994.3299 -8794.9783  -672.3671
     12  C    Isotropic =   114.6732   Anisotropy =    86.8371
   XX=   117.1914   YX=    19.1320   ZX=   -26.6280
   XY=    26.7517   YY=   152.7012   ZY=    -8.0143
   XZ=   -41.2319   YZ=   -20.5906   ZZ=    74.1271
   Eigenvalues:    55.4489   116.0062   172.5646
     13  C    Isotropic =   107.5070   Anisotropy =    89.8007
   XX=    87.4496   YX=    46.2417   ZX=   -10.2785
   XY=    59.2939   YY=   106.1139   ZY=   -25.6693
   XZ=   -31.2062   YZ=    -6.0282   ZZ=   128.9574
   Eigenvalues:    42.7885   112.3584   167.3741
     14  C    Isotropic =    91.5367   Anisotropy =    94.1863
   XX=    74.0928   YX=    13.6326   ZX=   -21.4506
   XY=     9.0193   YY=    87.0472   ZY=   -58.8796
   XZ=   -11.5172   YZ=   -35.6867   ZZ=   113.4701
   Eigenvalues:    51.1175    69.1650   154.3276
     15  C    Isotropic =    87.1702   Anisotropy =    89.1233
   XX=    44.5810   YX=    15.2309   ZX=   -16.7135
   XY=     3.6913   YY=   119.6529   ZY=   -35.4717
   XZ=     7.0121   YZ=   -35.1477   ZZ=    97.2769
   Eigenvalues:    43.4012    71.5238   146.5858
     16  C    Isotropic =   116.8329   Anisotropy =    91.2361
   XX=   104.8270   YX=    26.7400   ZX=    16.0884
   XY=     7.1368   YY=   159.3134   ZY=   -30.4025
   XZ=    25.7221   YZ=   -49.4254   ZZ=    86.3581
   Eigenvalues:    55.0981   117.7436   177.6569
     17  H    Isotropic =    27.7837   Anisotropy =     7.5801
   XX=    27.7655   YX=     0.9284   ZX=     4.0312
   XY=     0.1440   YY=    26.5871   ZY=     1.7856
   XZ=     3.6363   YZ=     2.2311   ZZ=    28.9983
   Eigenvalues:    24.1082    26.4057    32.8371
     18  H    Isotropic =    27.7103   Anisotropy =     4.1928
   XX=    28.6332   YX=    -1.8042   ZX=     0.3538
   XY=    -1.6139   YY=    26.6689   ZY=     3.0402
   XZ=     0.9784   YZ=     2.8892   ZZ=    27.8289
   Eigenvalues:    23.6165    29.0089    30.5055
     19  C    Isotropic =   156.1108   Anisotropy =    20.5922
   XX=   167.8904   YX=     2.3994   ZX=    -3.2052
   XY=     5.2175   YY=   159.0645   ZY=    -3.4787
   XZ=    -2.6631   YZ=    -2.9499   ZZ=   141.3776
   Eigenvalues:   140.6227   157.8708   169.8389
     20  P    Isotropic =   292.8097   Anisotropy =   115.1535
   XX=   256.5996   YX=   -41.4287   ZX=    -3.3602
   XY=   -29.7332   YY=   350.6167   ZY=   -25.7455
   XZ=    -7.9956   YZ=   -32.9941   ZZ=   271.2128
   Eigenvalues:   237.0948   271.7556   369.5787
     21  H    Isotropic =    27.3363   Anisotropy =     4.8983
   XX=    26.8104   YX=    -1.6804   ZX=    -0.4265
   XY=     1.1894   YY=    24.6858   ZY=     0.5572
   XZ=    -0.0772   YZ=     0.7168   ZZ=    30.5127
   Eigenvalues:    24.5956    26.8115    30.6018
     22  C    Isotropic =   169.5788   Anisotropy =    11.4829
   XX=   174.3231   YX=    -0.3111   ZX=     0.5406
   XY=    -1.2717   YY=   174.7733   ZY=     6.0728
   XZ=    -2.4405   YZ=     5.8708   ZZ=   159.6400
   Eigenvalues:   157.5430   173.9593   177.2341
     23  H    Isotropic =    29.8252   Anisotropy =    10.5875
   XX=    35.6044   YX=    -3.7478   ZX=     2.0786
   XY=    -0.5275   YY=    30.0056   ZY=    -1.2019
   XZ=     3.6751   YZ=     1.5118   ZZ=    23.8657
   Eigenvalues:    23.1372    29.4549    36.8836
     24  H    Isotropic =    29.3281   Anisotropy =     8.7637
   XX=    30.3650   YX=     1.2433   ZX=    -1.2331
   XY=     3.6162   YY=    33.9419   ZY=    -0.1198
   XZ=     0.0937   YZ=     0.7609   ZZ=    23.6774
   Eigenvalues:    23.6003    29.2135    35.1706
     25  H    Isotropic =    30.4188   Anisotropy =     6.9446
   XX=    30.2419   YX=    -1.7038   ZX=    -3.4706
   XY=     2.2806   YY=    27.9557   ZY=     2.3145
   XZ=    -0.9606   YZ=     3.1867   ZZ=    33.0589
   Eigenvalues:    26.3672    29.8406    35.0486
     26  C    Isotropic =    55.6156   Anisotropy =   189.4517
   XX=   -31.7273   YX=    26.3101   ZX=    28.4435
   XY=    26.1808   YY=   126.9967   ZY=    68.0135
   XZ=    27.0313   YZ=    73.7370   ZZ=    71.5774
   Eigenvalues:   -39.2670    24.1971   181.9167
     27  C    Isotropic =    46.3498   Anisotropy =   161.8143
   XX=    20.3644   YX=     1.4094   ZX=    36.6621
   XY=    -0.0421   YY=    90.2380   ZY=    86.2098
   XZ=    32.7957   YZ=    86.3101   ZZ=    28.4468
   Eigenvalues:   -44.7414    29.5647   154.2260
     28  C    Isotropic =    43.7698   Anisotropy =   182.3736
   XX=     3.6168   YX=    46.0647   ZX=   -19.6455
   XY=    51.9933   YY=    87.8267   ZY=    90.0103
   XZ=   -11.9874   YZ=    95.8332   ZZ=    39.8659
   Eigenvalues:   -61.5859    27.5432   165.3523
     29  C    Isotropic =    35.2299   Anisotropy =   209.5803
   XX=   -38.4381   YX=    28.5871   ZX=    29.2049
   XY=    33.2265   YY=   100.2944   ZY=    94.8519
   XZ=    27.9500   YZ=    85.8997   ZZ=    43.8333
   Eigenvalues:   -47.4983   -21.7621   174.9500
     30  C    Isotropic =    38.1286   Anisotropy =   196.6714
   XX=     2.7950   YX=    14.3347   ZX=    35.4377
   XY=     1.7270   YY=   103.8781   ZY=    94.5212
   XZ=    38.7597   YZ=   101.4835   ZZ=     7.7126
   Eigenvalues:   -64.8499     9.9928   169.2428
     31  C    Isotropic =    46.9816   Anisotropy =   161.2048
   XX=    14.0534   YX=    39.8998   ZX=   -15.0746
   XY=    43.4716   YY=    84.0197   ZY=    85.5393
   XZ=    -9.4080   YZ=    81.9270   ZZ=    42.8717
   Eigenvalues:   -45.1324    31.6257   154.4515
     32  H    Isotropic =    23.4025   Anisotropy =    10.1790
   XX=    21.8684   YX=    -1.3498   ZX=    -0.7339
   XY=    -1.1891   YY=    22.9497   ZY=    -5.7065
   XZ=    -0.2028   YZ=    -6.0338   ZZ=    25.3894
   Eigenvalues:    17.7723    22.2467    30.1885
     33  C    Isotropic =    48.7707   Anisotropy =    14.2053
   XX=    56.4174   YX=    -3.9948   ZX=     1.9878
   XY=    -3.9176   YY=    47.1761   ZY=     0.1097
   XZ=     2.8213   YZ=    -0.7497   ZZ=    42.7187
   Eigenvalues:    42.2770    45.7942    58.2409
     34  H    Isotropic =    22.8475   Anisotropy =    13.2785
   XX=    26.5097   YX=     1.8816   ZX=    -7.3884
   XY=     2.0894   YY=    19.7692   ZY=    -0.6249
   XZ=    -5.6333   YZ=    -1.9225   ZZ=    22.2636
   Eigenvalues:    17.5284    19.3143    31.6998
     35  H    Isotropic =    23.5493   Anisotropy =    15.7535
   XX=    31.4700   YX=    -8.1854   ZX=     1.1794
   XY=    -3.3868   YY=    20.5427   ZY=     1.0729
   XZ=     1.9186   YZ=     0.2719   ZZ=    18.6351
   Eigenvalues:    17.0456    19.5506    34.0516
     36  C    Isotropic =    48.7855   Anisotropy =    15.1693
   XX=    54.3146   YX=     0.5305   ZX=    -7.7920
   XY=     2.2581   YY=    46.2698   ZY=    -0.0072
   XZ=    -7.3521   YZ=    -0.8776   ZZ=    45.7722
   Eigenvalues:    41.3284    46.1298    58.8984
     37  C    Isotropic =    57.3590   Anisotropy =   188.6908
   XX=   165.1128   YX=   -45.4961   ZX=   -30.2921
   XY=   -50.2087   YY=    23.6953   ZY=   -22.6530
   XZ=   -36.3221   YZ=   -19.8624   ZZ=   -16.7311
   Eigenvalues:   -38.7007    27.6249   183.1529
     38  C    Isotropic =    46.7940   Anisotropy =   167.7530
   XX=   147.2733   YX=   -30.9669   ZX=   -10.9232
   XY=   -38.4401   YY=    20.9087   ZY=    36.1355
   XZ=   -14.0033   YZ=    35.6186   ZZ=   -27.8000
   Eigenvalues:   -46.9612    28.7138   158.6294
     39  C    Isotropic =    54.3796   Anisotropy =   198.7045
   XX=   167.2660   YX=   -59.1026   ZX=    -6.2441
   XY=   -66.1211   YY=   -30.8449   ZY=     9.0213
   XZ=   -19.1430   YZ=    12.9591   ZZ=    26.7177
   Eigenvalues:   -49.6292    25.9187   186.8492
     40  C    Isotropic =    31.8231   Anisotropy =   222.9188
   XX=   158.8265   YX=   -59.4644   ZX=   -37.6947
   XY=   -57.3794   YY=   -21.6344   ZY=     3.5423
   XZ=   -27.2265   YZ=    -4.1251   ZZ=   -41.7228
   Eigenvalues:   -52.5285   -32.4378   180.4356
     41  C    Isotropic =    46.4420   Anisotropy =   193.2831
   XX=   165.3985   YX=   -23.9896   ZX=   -10.1274
   XY=   -47.6007   YY=     7.2983   ZY=    38.6265
   XZ=   -19.4878   YZ=    23.9004   ZZ=   -33.3707
   Eigenvalues:   -50.4147    14.4434   175.2974
     42  C    Isotropic =    47.9843   Anisotropy =   164.7225
   XX=   142.4033   YX=   -51.1620   ZX=   -13.8942
   XY=   -49.0139   YY=   -32.9170   ZY=     8.7027
   XZ=   -15.7260   YZ=     5.0016   ZZ=    34.4665
   Eigenvalues:   -46.3179    32.4714   157.7993
     43  H    Isotropic =    23.9463   Anisotropy =     9.4448
   XX=    20.6539   YX=     3.0301   ZX=     1.9500
   XY=     2.0511   YY=    27.1819   ZY=    -3.7693
   XZ=     0.2793   YZ=    -4.4608   ZZ=    24.0030
   Eigenvalues:    18.4418    23.1541    30.2428
     44  C    Isotropic =    48.3748   Anisotropy =    12.0421
   XX=    46.7057   YX=     1.5687   ZX=     4.8801
   XY=     1.9829   YY=    53.3887   ZY=     4.7754
   XZ=     3.9598   YZ=     3.6385   ZZ=    45.0300
   Eigenvalues:    40.9539    47.7677    56.4028
     45  H    Isotropic =    23.7920   Anisotropy =    10.0650
   XX=    23.1406   YX=    -2.8888   ZX=     3.0561
   XY=    -1.2888   YY=    18.5713   ZY=     1.9861
   XZ=     1.8097   YZ=     0.6330   ZZ=    29.6641
   Eigenvalues:    17.3858    23.4882    30.5020
     46  H    Isotropic =    23.7765   Anisotropy =     7.9227
   XX=    22.8259   YX=     0.4499   ZX=     0.4054
   XY=    -0.5728   YY=    28.5431   ZY=     3.5681
   XZ=     2.7497   YZ=     0.6944   ZZ=    19.9605
   Eigenvalues:    18.8543    23.4170    29.0583
     47  C    Isotropic =    49.6631   Anisotropy =    15.3214
   XX=    47.8920   YX=     1.7164   ZX=     2.5814
   XY=     1.9412   YY=    42.2067   ZY=    -0.1175
   XZ=     4.2754   YZ=    -0.2846   ZZ=    58.8907
   Eigenvalues:    41.5841    47.5280    59.8774
     48  F    Isotropic =   250.9669   Anisotropy =   138.1651
   XX=   283.0375   YX=    11.8510   ZX=    47.4865
   XY=    27.7732   YY=   191.5412   ZY=    60.8923
   XZ=    40.1956   YZ=    47.9787   ZZ=   278.3218
   Eigenvalues:   165.3050   244.5187   343.0769
     49  F    Isotropic =   244.4862   Anisotropy =   127.2014
   XX=   260.7986   YX=     9.3631   ZX=   -41.3242
   XY=    19.1566   YY=   188.0872   ZY=   -58.7563
   XZ=   -30.5206   YZ=   -45.8915   ZZ=   284.5729
   Eigenvalues:   165.1385   239.0330   329.2871
     50  F    Isotropic =   219.1923   Anisotropy =   146.8261
   XX=   227.3443   YX=   -94.9516   ZX=     4.3352
   XY=   -94.7076   YY=   216.8591   ZY=     4.4273
   XZ=     7.6475   YZ=     7.6779   ZZ=   213.3737
   Eigenvalues:   126.2948   214.2058   317.0764
     51  F    Isotropic =   220.5418   Anisotropy =   148.0356
   XX=   244.9535   YX=    -5.6014   ZX=   -68.3588
   XY=    -8.8229   YY=   195.1119   ZY=    52.1692
   XZ=   -72.9467   YZ=    56.7551   ZZ=   221.5599
   Eigenvalues:   134.7696   207.6236   319.2322
     52  F    Isotropic =   255.4262   Anisotropy =   123.6363
   XX=   261.6316   YX=     3.1110   ZX=    -6.2990
   XY=     6.8455   YY=   337.4447   ZY=    14.9201
   XZ=    -5.7340   YZ=    -6.7320   ZZ=   167.2022
   Eigenvalues:   166.7068   261.7214   337.8504
     53  F    Isotropic =   234.9921   Anisotropy =   147.9568
   XX=   276.6404   YX=    -5.0076   ZX=    69.4359
   XY=   -14.4270   YY=   197.3383   ZY=    28.9356
   XZ=    81.7906   YZ=    32.1157   ZZ=   230.9976
   Eigenvalues:   153.5685   217.7778   333.6300
     54  F    Isotropic =   243.5211   Anisotropy =   139.7794
   XX=   214.8954   YX=   -33.5464   ZX=    37.7353
   XY=   -48.1736   YY=   317.0682   ZY=    -5.8514
   XZ=    41.8663   YZ=   -21.9365   ZZ=   198.5995
   Eigenvalues:   164.4133   229.4426   336.7073
     55  F    Isotropic =   247.8292   Anisotropy =   140.0709
   XX=   334.4291   YX=    20.4864   ZX=    13.2062
   XY=    30.3472   YY=   226.7018   ZY=    42.0962
   XZ=    -2.9687   YZ=    28.7317   ZZ=   182.3566
   Eigenvalues:   162.3743   239.9034   341.2098
     56  F    Isotropic =   222.8334   Anisotropy =   143.4511
   XX=   199.0074   YX=   -29.2005   ZX=    13.3913
   XY=   -30.1151   YY=   177.9121   ZY=    61.4363
   XZ=    14.5120   YZ=    61.4924   ZZ=   291.5808
   Eigenvalues:   134.4134   215.6194   318.4675
     57  F    Isotropic =   248.4310   Anisotropy =   137.9233
   XX=   301.2944   YX=   -27.6126   ZX=   -52.1941
   XY=   -30.4805   YY=   244.7104   ZY=    56.2128
   XZ=   -38.2653   YZ=    38.7349   ZZ=   199.2882
   Eigenvalues:   164.8540   240.0591   340.3799
     58  F    Isotropic =   219.4397   Anisotropy =   148.1902
   XX=   217.8683   YX=    45.3427   ZX=    28.8388
   XY=    45.9433   YY=   162.4523   ZY=    52.7920
   XZ=    28.9085   YZ=    52.2635   ZZ=   277.9984
   Eigenvalues:   128.8652   211.2206   318.2331
     59  F    Isotropic =   244.5356   Anisotropy =   139.2988
   XX=   201.3692   YX=    41.4440   ZX=   -41.3207
   XY=    62.6630   YY=   295.6226   ZY=   -21.7430
   XZ=   -48.3225   YZ=   -30.6811   ZZ=   236.6149
   Eigenvalues:   163.3817   232.8236   337.4014
     60  P    Isotropic =   299.7692   Anisotropy =    28.1574
   XX=   295.6321   YX=     9.8440   ZX=    10.2255
   XY=   -40.0038   YY=   288.6344   ZY=     0.9114
   XZ=   -11.2935   YZ=    15.0798   ZZ=   315.0412
   Eigenvalues:   275.7374   305.0294   318.5408
     61  C    Isotropic =    53.7957   Anisotropy =   183.2753
   XX=   -40.1891   YX=    44.7570   ZX=    -1.3483
   XY=    47.6094   YY=   130.7958   ZY=    62.9632
   XZ=    -0.8485   YZ=    59.4089   ZZ=    70.7803
   Eigenvalues:   -54.2698    39.6777   175.9792
     62  C    Isotropic =    52.3019   Anisotropy =   184.5536
   XX=    40.5990   YX=    31.6783   ZX=    -5.5965
   XY=    30.3307   YY=   111.9917   ZY=    99.1278
   XZ=    -3.7662   YZ=    99.0297   ZZ=     4.3151
   Eigenvalues:   -58.6905    40.2586   175.3376
     63  C    Isotropic =    47.8579   Anisotropy =   188.0270
   XX=   -12.1514   YX=     9.2424   ZX=    54.1908
   XY=   -10.0676   YY=   132.6966   ZY=    70.3851
   XZ=    56.6222   YZ=    77.0097   ZZ=    23.0284
   Eigenvalues:   -64.0544    34.4188   173.2092
     64  C    Isotropic =    31.4929   Anisotropy =   211.1521
   XX=   -48.4698   YX=    25.7934   ZX=    10.9543
   XY=    35.0204   YY=   128.3518   ZY=    77.8553
   XZ=     9.1216   YZ=    77.4216   ZZ=    14.5967
   Eigenvalues:   -53.7882   -23.9941   172.2609
     65  C    Isotropic =    45.2982   Anisotropy =   193.3669
   XX=    32.1833   YX=    27.3427   ZX=    -1.0688
   XY=    22.7774   YY=   121.7903   ZY=    87.8458
   XZ=    -7.3976   YZ=   105.7239   ZZ=   -18.0791
   Eigenvalues:   -69.8479    31.5329   174.2094
     66  C    Isotropic =    52.9876   Anisotropy =   181.6260
   XX=    -5.0700   YX=     5.0076   ZX=    61.3669
   XY=     5.4004   YY=   137.7603   ZY=    63.2690
   XZ=    59.7865   YZ=    68.9130   ZZ=    26.2724
   Eigenvalues:   -59.5549    44.4460   174.0716
     67  H    Isotropic =    24.0801   Anisotropy =     3.7728
   XX=    24.8003   YX=    -0.6646   ZX=    -0.1997
   XY=    -1.1233   YY=    22.4977   ZY=    -2.6391
   XZ=    -0.2086   YZ=    -2.4439   ZZ=    24.9423
   Eigenvalues:    20.7158    24.9292    26.5953
     68  H    Isotropic =    24.0956   Anisotropy =     5.6202
   XX=    27.5007   YX=    -0.9240   ZX=     0.1430
   XY=    -1.6557   YY=    21.7575   ZY=    -1.7394
   XZ=     0.3280   YZ=    -1.2364   ZZ=    23.0285
   Eigenvalues:    20.6397    23.8047    27.8424
     69  H    Isotropic =    24.2011   Anisotropy =    11.4236
   XX=    25.4104   YX=    -1.5489   ZX=     5.8400
   XY=    -2.9651   YY=    22.0999   ZY=    -3.1494
   XZ=     5.0895   YZ=    -1.5792   ZZ=    25.0930
   Eigenvalues:    19.7734    21.0130    31.8168
     70  H    Isotropic =    24.3977   Anisotropy =    15.6065
   XX=    33.4164   YX=    -3.6772   ZX=     4.0286
   XY=    -4.2229   YY=    22.1456   ZY=    -0.1692
   XZ=    -0.7098   YZ=     0.4222   ZZ=    17.6311
   Eigenvalues:    17.3837    21.0074    34.8020
     71  H    Isotropic =    24.1145   Anisotropy =     8.2475
   XX=    27.2877   YX=    -2.7531   ZX=     2.0998
   XY=    -3.1809   YY=    22.5335   ZY=    -1.9541
   XZ=     1.7184   YZ=    -1.7033   ZZ=    22.5223
   Eigenvalues:    20.5467    22.1839    29.6128
     72  H    Isotropic =    27.4640   Anisotropy =     7.7849
   XX=    28.2904   YX=    -0.3357   ZX=     1.9347
   XY=    -3.0417   YY=    31.8374   ZY=    -0.7009
   XZ=    -0.4395   YZ=     3.8657   ZZ=    22.2642
   Eigenvalues:    21.8462    27.8918    32.6539
     73  C    Isotropic =    49.0030   Anisotropy =   199.3586
   XX=   164.7403   YX=   -50.7295   ZX=   -32.5373
   XY=   -52.2473   YY=    11.4224   ZY=   -33.9518
   XZ=   -26.3402   YZ=   -41.0163   ZZ=   -29.1537
   Eigenvalues:   -63.6315    28.7317   181.9087
     74  C    Isotropic =    51.2100   Anisotropy =   191.1038
   XX=   169.8263   YX=   -31.4743   ZX=    -9.4836
   XY=   -36.8070   YY=    24.1535   ZY=    36.1069
   XZ=    -7.1901   YZ=    34.7601   ZZ=   -40.3499
   Eigenvalues:   -56.1904    31.2078   178.6125
     75  C    Isotropic =    45.7741   Anisotropy =   168.6749
   XX=   146.4001   YX=   -47.4890   ZX=     7.0187
   XY=   -49.5089   YY=   -41.2727   ZY=    10.2283
   XZ=    -5.5111   YZ=    12.8441   ZZ=    32.1949
   Eigenvalues:   -54.5600    33.6584   158.2240
     76  C    Isotropic =    40.0757   Anisotropy =   192.3551
   XX=   157.0490   YX=   -36.4366   ZX=   -23.8450
   XY=   -48.0011   YY=    -4.0754   ZY=   -35.0159
   XZ=   -20.5376   YZ=   -37.0132   ZZ=   -32.7465
   Eigenvalues:   -65.3465    17.2612   168.3125
     77  C    Isotropic =    38.2064   Anisotropy =   201.2933
   XX=   156.4125   YX=   -59.0801   ZX=     0.6994
   XY=   -42.3431   YY=     5.0678   ZY=    24.6373
   XZ=    -7.6275   YZ=    28.7583   ZZ=   -46.8612
   Eigenvalues:   -59.6123     1.8294   172.4019
     78  C    Isotropic =    45.7441   Anisotropy =   204.2213
   XX=   162.0440   YX=   -62.9796   ZX=   -11.4130
   XY=   -68.4062   YY=   -47.1767   ZY=    11.8123
   XZ=   -10.0628   YZ=     1.6801   ZZ=    22.3649
   Eigenvalues:   -66.2334    21.5740   181.8916
     79  H    Isotropic =    24.6979   Anisotropy =     3.8791
   XX=    23.9647   YX=    -0.9517   ZX=    -2.1958
   XY=    -0.7156   YY=    24.8171   ZY=    -0.9352
   XZ=    -1.7315   YZ=    -2.7561   ZZ=    25.3119
   Eigenvalues:    21.5593    25.2504    27.2839
     80  H    Isotropic =    23.7577   Anisotropy =     3.9648
   XX=    23.8260   YX=     2.6221   ZX=    -0.2081
   XY=     1.3799   YY=    23.3792   ZY=     2.1432
   XZ=     0.3517   YZ=     1.4432   ZZ=    24.0678
   Eigenvalues:    20.9846    23.8876    26.4009
     81  H    Isotropic =    22.8301   Anisotropy =     7.5553
   XX=    21.4627   YX=     3.7208   ZX=     0.3942
   XY=     2.0114   YY=    20.6873   ZY=     2.9547
   XZ=     0.8622   YZ=     2.3616   ZZ=    26.3404
   Eigenvalues:    17.8542    22.7691    27.8670
     82  H    Isotropic =    24.8012   Anisotropy =     7.8375
   XX=    22.0713   YX=    -3.2607   ZX=     3.5638
   XY=     0.3612   YY=    23.2410   ZY=    -1.2337
   XZ=    -1.5635   YZ=    -2.9958   ZZ=    29.0914
   Eigenvalues:    21.0731    23.3044    30.0262
     83  C    Isotropic =    48.6135   Anisotropy =   194.1809
   XX=    49.7403   YX=   -56.9044   ZX=    58.7844
   XY=   -56.4025   YY=   -33.3910   ZY=   -37.2922
   XZ=    58.4984   YZ=   -38.3760   ZZ=   129.4913
   Eigenvalues:   -62.4247    30.1978   178.0675
     84  C    Isotropic =    50.1478   Anisotropy =   189.2078
   XX=    48.0708   YX=    14.9243   ZX=    80.6913
   XY=    14.8745   YY=    -2.6224   ZY=   -68.0776
   XZ=    83.2566   YZ=   -66.6535   ZZ=   104.9949
   Eigenvalues:   -62.3709    36.5278   176.2863
     85  C    Isotropic =    38.2250   Anisotropy =   199.9263
   XX=   -18.8606   YX=   -28.7305   ZX=    98.8165
   XY=   -29.9505   YY=    25.3809   ZY=   -30.9341
   XZ=    98.9175   YZ=   -21.0646   ZZ=   108.1547
   Eigenvalues:   -74.7309    17.8968   171.5092
     86  C    Isotropic =    39.9861   Anisotropy =   203.7453
   XX=    36.1089   YX=   -50.8108   ZX=    74.9981
   XY=   -39.4297   YY=   -25.4179   ZY=   -40.0854
   XZ=    76.7187   YZ=   -48.5182   ZZ=   109.2674
   Eigenvalues:   -49.4213    -6.4367   175.8163
     87  C    Isotropic =    41.0802   Anisotropy =   182.2260
   XX=    47.2176   YX=    18.6994   ZX=    80.6088
   XY=    13.9065   YY=    -9.5317   ZY=   -70.4119
   XZ=    82.3111   YZ=   -67.6402   ZZ=    85.5545
   Eigenvalues:   -73.3828    34.0592   162.5641
     88  C    Isotropic =    50.5710   Anisotropy =   189.3588
   XX=    -0.6101   YX=   -35.6740   ZX=    98.5384
   XY=   -36.4799   YY=    43.3176   ZY=   -23.7109
   XZ=    96.7241   YZ=   -20.8758   ZZ=   109.0056
   Eigenvalues:   -61.7574    36.6603   176.8102
     89  H    Isotropic =    23.6944   Anisotropy =     3.4818
   XX=    23.7556   YX=    -0.8668   ZX=    -2.2101
   XY=    -0.4621   YY=    25.0439   ZY=     0.3354
   XZ=    -2.1394   YZ=     0.6418   ZZ=    22.2837
   Eigenvalues:    20.7237    24.3439    26.0156
     90  H    Isotropic =    23.9482   Anisotropy =     5.7832
   XX=    24.1715   YX=     1.2712   ZX=    -0.7807
   XY=     2.3374   YY=    26.8885   ZY=     0.1169
   XZ=    -0.6942   YZ=    -0.1046   ZZ=    20.7844
   Eigenvalues:    20.6052    23.4357    27.8037
     91  H    Isotropic =    24.2266   Anisotropy =    11.8465
   XX=    21.2997   YX=    -1.7750   ZX=     2.1970
   XY=     2.1741   YY=    31.0155   ZY=     4.6959
   XZ=     2.6799   YZ=     2.2535   ZZ=    20.3646
   Eigenvalues:    17.8150    22.7406    32.1242
     92  H    Isotropic =    22.6813   Anisotropy =     8.6211
   XX=    22.8649   YX=     3.5392   ZX=    -1.4979
   XY=     3.4266   YY=    24.4336   ZY=    -2.9825
   XZ=    -2.1646   YZ=    -1.8943   ZZ=    20.7455
   Eigenvalues:    19.5229    20.0924    28.4287
     93  H    Isotropic =    23.5910   Anisotropy =     6.2011
   XX=    20.9413   YX=     0.8754   ZX=    -0.9213
   XY=     0.7679   YY=    27.5982   ZY=     0.2789
   XZ=    -1.0502   YZ=     0.7247   ZZ=    22.2334
   Eigenvalues:    20.2824    22.7655    27.7250
 End of Minotr F.D. properties file   721 does not exist.
 End of Minotr F.D. properties file   722 does not exist.
 End of Minotr F.D. properties file   788 does not exist.

 **********************************************************************

            Population analysis using the SCF density.

 **********************************************************************

 Orbital symmetries:
       Occupied  (A) (A) (A) (A) (A) (A) (A) (A) (A) (A) (A) (A)
                 (A) (A) (A) (A) (A) (A) (A) (A) (A) (A) (A) (A)
                 (A) (A) (A) (A) (A) (A) (A) (A) (A) (A) (A) (A)
                 (A) (A) (A) (A) (A) (A) (A) (A) (A) (A) (A) (A)
                 (A) (A) (A) (A) (A) (A) (A) (A) (A) (A) (A) (A)
                 (A) (A) (A) (A) (A) (A) (A) (A) (A) (A) (A) (A)
                 (A) (A) (A) (A) (A) (A) (A) (A) (A) (A) (A) (A)
                 (A) (A) (A) (A) (A) (A) (A) (A) (A) (A) (A) (A)
                 (A) (A) (A) (A) (A) (A) (A) (A) (A) (A) (A) (A)
                 (A) (A) (A) (A) (A) (A) (A) (A) (A) (A) (A) (A)
                 (A) (A) (A) (A) (A) (A) (A) (A) (A) (A) (A) (A)
                 (A) (A) (A) (A) (A) (A) (A) (A) (A) (A) (A) (A)
                 (A) (A) (A) (A) (A) (A) (A) (A) (A) (A) (A) (A)
                 (A) (A) (A) (A) (A) (A) (A) (A) (A) (A) (A) (A)
                 (A) (A) (A) (A) (A) (A) (A) (A) (A) (A) (A) (A)
                 (A) (A) (A) (A) (A) (A) (A) (A) (A) (A) (A) (A)
                 (A) (A) (A) (A) (A) (A) (A) (A) (A) (A) (A) (A)
                 (A) (A) (A) (A) (A) (A) (A) (A) (A) (A) (A) (A)
                 (A) (A) (A) (A) (A) (A) (A) (A) (A) (A) (A) (A)
                 (A) (A) (A)
       Virtual   (A) (A) (A) (A) (A) (A) (A) (A) (A) (A) (A) (A)
                 (A) (A) (A) (A) (A) (A) (A) (A) (A) (A) (A) (A)
                 (A) (A) (A) (A) (A) (A) (A) (A) (A) (A) (A) (A)
                 (A) (A) (A) (A) (A) (A) (A) (A) (A) (A) (A) (A)
                 (A) (A) (A) (A) (A) (A) (A) (A) (A) (A) (A) (A)
                 (A) (A) (A) (A) (A) (A) (A) (A) (A) (A) (A) (A)
                 (A) (A) (A) (A) (A) (A) (A) (A) (A) (A) (A) (A)
                 (A) (A) (A) (A) (A) (A) (A) (A) (A) (A) (A) (A)
                 (A) (A) (A) (A) (A) (A) (A) (A) (A) (A) (A) (A)
                 (A) (A) (A) (A) (A) (A) (A) (A) (A) (A) (A) (A)
                 (A) (A) (A) (A) (A) (A) (A) (A) (A) (A) (A) (A)
                 (A) (A) (A) (A) (A) (A) (A) (A) (A) (A) (A) (A)
                 (A) (A) (A) (A) (A) (A) (A) (A) (A) (A) (A) (A)
                 (A) (A) (A) (A) (A) (A) (A) (A) (A) (A) (A) (A)
                 (A) (A) (A) (A) (A) (A) (A) (A) (A) (A) (A) (A)
                 (A) (A) (A) (A) (A) (A) (A) (A) (A) (A) (A) (A)
                 (A) (A) (A) (A) (A) (A) (A) (A) (A) (A) (A) (A)
                 (A) (A) (A) (A) (A) (A) (A) (A) (A) (A) (A) (A)
                 (A) (A) (A) (A) (A) (A) (A) (A) (A) (A) (A) (A)
                 (A) (A) (A) (A) (A) (A) (A) (A) (A) (A) (A) (A)
                 (A) (A) (A) (A) (A) (A) (A) (A) (A) (A) (A) (A)
                 (A) (A) (A) (A) (A) (A) (A) (A) (A) (A) (A) (A)
                 (A) (A) (A) (A) (A) (A) (A) (A) (A) (A) (A) (A)
                 (A) (A) (A) (A) (A) (A) (A) (A) (A) (A) (A) (A)
                 (A) (A) (A) (A) (A) (A) (A) (A) (A) (A) (A) (A)
                 (A) (A) (A) (A) (A) (A) (A) (A) (A) (A) (A) (A)
                 (A) (A) (A) (A) (A) (A) (A) (A) (A) (A) (A) (A)
                 (A) (A) (A) (A) (A) (A) (A) (A) (A) (A) (A) (A)
                 (A) (A) (A) (A) (A) (A) (A) (A) (A) (A) (A) (A)
                 (A) (A) (A) (A) (A) (A) (A) (A) (A) (A) (A) (A)
                 (A) (A) (A) (A) (A) (A) (A) (A) (A) (A) (A) (A)
                 (A) (A) (A) (A) (A) (A) (A) (A) (A) (A) (A) (A)
                 (A) (A) (A) (A) (A) (A) (A) (A) (A) (A) (A) (A)
                 (A) (A) (A) (A) (A) (A) (A) (A) (A) (A) (A) (A)
                 (A) (A) (A) (A) (A) (A) (A) (A) (A) (A) (A) (A)
                 (A) (A) (A) (A) (A) (A) (A) (A) (A) (A) (A) (A)
                 (A) (A) (A) (A) (A) (A) (A) (A) (A) (A) (A) (A)
                 (A) (A) (A) (A) (A) (A) (A) (A) (A) (A) (A) (A)
                 (A) (A) (A) (A) (A) (A) (A) (A) (A) (A) (A) (A)
                 (A) (A) (A) (A) (A) (A) (A) (A) (A) (A) (A) (A)
                 (A) (A) (A) (A) (A) (A) (A) (A) (A) (A) (A) (A)
                 (A) (A) (A) (A) (A) (A) (A) (A) (A) (A) (A) (A)
                 (A) (A) (A) (A) (A) (A) (A) (A) (A) (A) (A) (A)
                 (A) (A) (A) (A) (A) (A) (A) (A) (A) (A) (A) (A)
                 (A) (A) (A) (A) (A) (A) (A) (A) (A) (A) (A) (A)
                 (A) (A) (A) (A) (A) (A) (A) (A) (A) (A) (A) (A)
                 (A) (A) (A) (A) (A) (A) (A) (A) (A) (A) (A) (A)
                 (A) (A) (A) (A) (A) (A) (A) (A) (A) (A) (A) (A)
                 (A) (A) (A) (A) (A) (A) (A) (A) (A) (A) (A) (A)
                 (A) (A) (A) (A) (A) (A) (A) (A) (A) (A) (A) (A)
                 (A) (A) (A) (A) (A) (A) (A) (A) (A) (A) (A) (A)
                 (A) (A) (A) (A) (A) (A) (A) (A) (A) (A) (A) (A)
                 (A) (A) (A) (A) (A) (A) (A) (A) (A) (A) (A) (A)
                 (A) (A) (A) (A) (A) (A) (A) (A) (A) (A) (A) (A)
                 (A) (A) (A) (A) (A) (A) (A) (A) (A) (A) (A) (A)
                 (A) (A) (A) (A) (A) (A) (A) (A) (A) (A) (A) (A)
                 (A) (A) (A) (A) (A) (A) (A) (A) (A) (A) (A) (A)
                 (A) (A) (A) (A) (A) (A) (A) (A) (A) (A) (A) (A)
                 (A) (A) (A) (A) (A) (A) (A) (A) (A) (A) (A) (A)
                 (A) (A) (A) (A) (A) (A) (A) (A) (A) (A) (A) (A)
                 (A) (A) (A) (A) (A) (A) (A) (A) (A) (A) (A) (A)
                 (A) (A) (A) (A) (A) (A) (A) (A) (A) (A) (A) (A)
                 (A) (A) (A) (A) (A) (A) (A) (A) (A) (A) (A) (A)
                 (A) (A) (A) (A) (A) (A) (A) (A) (A) (A) (A) (A)
                 (A) (A) (A) (A) (A) (A) (A) (A) (A) (A) (A) (A)
                 (A) (A) (A) (A) (A) (A) (A) (A) (A) (A) (A) (A)
                 (A) (A) (A) (A) (A) (A) (A) (A) (A) (A) (A) (A)
                 (A) (A) (A) (A) (A) (A) (A) (A) (A) (A) (A) (A)
                 (A) (A) (A) (A) (A) (A) (A) (A) (A) (A) (A) (A)
                 (A) (A) (A) (A) (A) (A) (A) (A) (A) (A) (A) (A)
                 (A) (A) (A) (A) (A) (A) (A) (A) (A) (A) (A) (A)
                 (A) (A) (A) (A) (A) (A) (A) (A) (A) (A) (A) (A)
                 (A) (A) (A) (A) (A) (A) (A) (A) (A) (A) (A) (A)
                 (A) (A) (A) (A) (A) (A) (A) (A) (A) (A) (A) (A)
                 (A) (A) (A) (A) (A) (A) (A) (A) (A) (A) (A) (A)
                 (A) (A) (A) (A) (A) (A) (A) (A) (A) (A) (A) (A)
                 (A) (A) (A) (A) (A) (A) (A) (A) (A) (A) (A) (A)
                 (A) (A) (A) (A) (A) (A) (A) (A) (A) (A) (A) (A)
                 (A) (A) (A) (A) (A) (A) (A) (A) (A) (A) (A) (A)
                 (A) (A) (A) (A) (A) (A) (A) (A) (A) (A) (A) (A)
                 (A) (A) (A) (A) (A) (A) (A) (A) (A) (A) (A) (A)
                 (A) (A) (A) (A) (A) (A) (A) (A) (A) (A) (A) (A)
                 (A) (A) (A) (A) (A) (A) (A) (A) (A) (A) (A) (A)
                 (A) (A) (A) (A) (A) (A) (A) (A) (A) (A) (A) (A)
                 (A) (A) (A) (A) (A) (A) (A) (A) (A) (A) (A) (A)
                 (A) (A) (A) (A) (A) (A) (A) (A) (A) (A) (A) (A)
                 (A) (A) (A) (A) (A) (A) (A) (A) (A) (A) (A) (A)
                 (A) (A) (A) (A) (A) (A) (A) (A) (A) (A) (A) (A)
                 (A) (A) (A) (A) (A) (A) (A) (A) (A) (A) (A) (A)
                 (A) (A) (A) (A) (A) (A) (A) (A) (A) (A) (A) (A)
                 (A) (A) (A) (A) (A) (A) (A) (A) (A) (A) (A) (A)
                 (A) (A) (A) (A) (A) (A) (A) (A) (A) (A) (A) (A)
                 (A) (A) (A) (A) (A) (A) (A) (A) (A) (A) (A) (A)
                 (A) (A) (A) (A) (A) (A) (A) (A) (A) (A) (A) (A)
                 (A) (A) (A) (A) (A) (A) (A) (A) (A) (A) (A) (A)
                 (A) (A) (A) (A) (A) (A) (A) (A) (A) (A) (A) (A)
                 (A) (A) (A) (A) (A) (A) (A) (A) (A) (A) (A) (A)
                 (A) (A) (A) (A) (A) (A) (A) (A) (A) (A) (A) (A)
                 (A) (A) (A) (A) (A) (A) (A) (A) (A) (A) (A) (A)
                 (A) (A) (A) (A) (A) (A) (A) (A) (A) (A) (A) (A)
                 (A) (A) (A) (A) (A) (A) (A) (A) (A) (A) (A) (A)
                 (A) (A) (A) (A) (A) (A) (A) (A) (A) (A) (A) (A)
                 (A) (A) (A) (A) (A) (A) (A) (A) (A) (A) (A) (A)
                 (A) (A) (A) (A) (A) (A) (A) (A) (A) (A) (A) (A)
                 (A) (A) (A) (A) (A) (A) (A) (A) (A) (A) (A) (A)
                 (A) (A) (A) (A) (A) (A) (A) (A) (A) (A) (A) (A)
                 (A) (A) (A) (A) (A) (A) (A) (A) (A) (A) (A) (A)
                 (A) (A) (A) (A) (A) (A) (A) (A) (A) (A) (A) (A)
                 (A) (A) (A) (A) (A) (A) (A) (A) (A) (A) (A) (A)
                 (A) (A) (A) (A) (A) (A) (A) (A) (A) (A) (A) (A)
                 (A) (A) (A) (A) (A) (A) (A) (A) (A) (A) (A) (A)
                 (A) (A) (A) (A) (A) (A) (A) (A) (A) (A) (A) (A)
                 (A) (A) (A) (A) (A) (A) (A) (A) (A) (A) (A) (A)
                 (A) (A) (A) (A) (A) (A) (A) (A) (A) (A) (A) (A)
                 (A) (A) (A) (A) (A) (A) (A) (A) (A) (A) (A) (A)
                 (A) (A) (A) (A) (A) (A) (A) (A) (A) (A) (A) (A)
                 (A) (A) (A) (A) (A) (A) (A) (A) (A) (A) (A) (A)
                 (A) (A) (A) (A) (A) (A) (A) (A) (A) (A) (A) (A)
                 (A) (A) (A) (A) (A) (A) (A) (A) (A) (A) (A) (A)
                 (A) (A) (A) (A) (A) (A) (A) (A) (A) (A) (A) (A)
                 (A) (A) (A) (A) (A) (A) (A) (A) (A) (A) (A) (A)
                 (A) (A) (A) (A) (A) (A) (A) (A) (A) (A) (A) (A)
                 (A) (A) (A) (A) (A) (A) (A) (A) (A) (A) (A) (A)
                 (A) (A) (A) (A) (A) (A) (A) (A) (A) (A) (A) (A)
                 (A) (A) (A) (A) (A) (A) (A) (A) (A) (A) (A) (A)
                 (A) (A) (A) (A) (A) (A) (A) (A) (A) (A) (A) (A)
                 (A) (A) (A) (A) (A) (A) (A) (A) (A) (A) (A) (A)
                 (A) (A) (A) (A) (A) (A) (A) (A) (A) (A) (A) (A)
                 (A) (A) (A) (A) (A) (A) (A) (A) (A) (A) (A) (A)
                 (A) (A) (A) (A) (A) (A) (A) (A) (A) (A) (A) (A)
                 (A) (A) (A) (A) (A) (A) (A) (A) (A) (A) (A) (A)
                 (A) (A) (A) (A) (A) (A) (A) (A) (A) (A) (A) (A)
                 (A) (A) (A) (A) (A) (A) (A) (A) (A) (A) (A) (A)
                 (A) (A) (A) (A) (A) (A) (A) (A) (A) (A) (A) (A)
                 (A) (A) (A) (A) (A) (A) (A) (A) (A) (A) (A) (A)
                 (A) (A) (A) (A) (A) (A) (A) (A) (A) (A) (A) (A)
                 (A) (A) (A) (A) (A) (A) (A) (A) (A) (A) (A) (A)
                 (A) (A) (A) (A) (A) (A) (A) (A) (A) (A) (A) (A)
                 (A) (A) (A) (A) (A) (A) (A) (A) (A) (A) (A) (A)
                 (A) (A) (A) (A) (A) (A) (A) (A) (A) (A) (A) (A)
                 (A) (A) (A) (A) (A) (A) (A) (A) (A) (A) (A) (A)
                 (A) (A) (A) (A) (A) (A) (A) (A) (A) (A) (A) (A)
                 (A) (A) (A) (A) (A) (A) (A) (A) (A) (A) (A) (A)
                 (A) (A) (A) (A) (A) (A) (A) (A) (A) (A) (A) (A)
                 (A) (A) (A) (A) (A) (A) (A) (A) (A) (A) (A) (A)
                 (A) (A) (A) (A) (A) (A) (A) (A) (A) (A) (A) (A)
                 (A) (A) (A) (A) (A) (A) (A) (A) (A) (A) (A) (A)
                 (A) (A) (A) (A) (A) (A) (A) (A) (A) (A) (A) (A)
                 (A) (A) (A) (A) (A) (A) (A) (A) (A) (A) (A) (A)
                 (A) (A) (A) (A) (A) (A) (A) (A) (A) (A) (A) (A)
                 (A) (A) (A) (A) (A) (A) (A) (A) (A) (A) (A) (A)
                 (A) (A) (A) (A) (A) (A) (A) (A) (A) (A) (A) (A)
                 (A) (A) (A) (A) (A) (A) (A) (A) (A) (A) (A) (A)
                 (A) (A) (A) (A) (A) (A) (A) (A) (A) (A) (A) (A)
                 (A) (A) (A) (A) (A) (A) (A) (A) (A) (A) (A) (A)
                 (A) (A) (A) (A) (A) (A) (A) (A) (A) (A) (A) (A)
                 (A) (A) (A) (A)
 The electronic state is 1-A.
 Alpha  occ. eigenvalues --  -77.22197 -77.20471 -24.81679 -24.81559 -24.81516
 Alpha  occ. eigenvalues --  -24.81469 -24.81379 -24.81268 -24.81209 -24.81097
 Alpha  occ. eigenvalues --  -24.81063 -24.81009 -24.80977 -24.80498 -10.49102
 Alpha  occ. eigenvalues --  -10.49083 -10.48930 -10.48560 -10.28549 -10.28508
 Alpha  occ. eigenvalues --  -10.27996 -10.27954 -10.27831 -10.27633 -10.27620
 Alpha  occ. eigenvalues --  -10.27492 -10.27303 -10.27167 -10.26981 -10.26728
 Alpha  occ. eigenvalues --  -10.26674 -10.25797 -10.25569 -10.25290 -10.25236
 Alpha  occ. eigenvalues --  -10.24677 -10.24625 -10.24574 -10.24536 -10.24496
 Alpha  occ. eigenvalues --  -10.24450 -10.24367 -10.24356 -10.24325 -10.24308
 Alpha  occ. eigenvalues --  -10.24162 -10.24105 -10.24077 -10.24043 -10.24018
 Alpha  occ. eigenvalues --  -10.23995 -10.23942 -10.23935 -10.23854 -10.23799
 Alpha  occ. eigenvalues --  -10.23541 -10.23488 -10.23470 -10.23394 -10.23290
 Alpha  occ. eigenvalues --   -6.61775  -6.60064  -4.75380  -4.75332  -4.74888
 Alpha  occ. eigenvalues --   -4.73655  -4.73649  -4.73198  -3.60878  -2.25473
 Alpha  occ. eigenvalues --   -2.21160  -2.21115  -1.35028  -1.34993  -1.34901
 Alpha  occ. eigenvalues --   -1.34466  -1.26754  -1.26731  -1.26632  -1.26477
 Alpha  occ. eigenvalues --   -1.26284  -1.26283  -1.26127  -1.25716  -0.93318
 Alpha  occ. eigenvalues --   -0.92921  -0.92573  -0.90918  -0.89129  -0.88537
 Alpha  occ. eigenvalues --   -0.87958  -0.84879  -0.84324  -0.84291  -0.81972
 Alpha  occ. eigenvalues --   -0.81531  -0.80265  -0.79588  -0.77667  -0.77374
 Alpha  occ. eigenvalues --   -0.76882  -0.76715  -0.75065  -0.74605  -0.74190
 Alpha  occ. eigenvalues --   -0.74068  -0.74056  -0.73717  -0.73223  -0.73098
 Alpha  occ. eigenvalues --   -0.70158  -0.67282  -0.67227  -0.66979  -0.66711
 Alpha  occ. eigenvalues --   -0.66069  -0.64117  -0.63447  -0.63120  -0.62945
 Alpha  occ. eigenvalues --   -0.62298  -0.62236  -0.62106  -0.62025  -0.61957
 Alpha  occ. eigenvalues --   -0.61912  -0.61811  -0.61770  -0.61443  -0.61384
 Alpha  occ. eigenvalues --   -0.60262  -0.58264  -0.57413  -0.56862  -0.56545
 Alpha  occ. eigenvalues --   -0.56330  -0.56195  -0.55842  -0.55714  -0.54883
 Alpha  occ. eigenvalues --   -0.54595  -0.54228  -0.53573  -0.52845  -0.52232
 Alpha  occ. eigenvalues --   -0.51758  -0.51077  -0.50390  -0.49910  -0.49744
 Alpha  occ. eigenvalues --   -0.49679  -0.49614  -0.49492  -0.49334  -0.49257
 Alpha  occ. eigenvalues --   -0.48999  -0.48650  -0.47929  -0.47540  -0.47175
 Alpha  occ. eigenvalues --   -0.46916  -0.46721  -0.46578  -0.46440  -0.46251
 Alpha  occ. eigenvalues --   -0.46170  -0.46053  -0.45940  -0.45789  -0.45619
 Alpha  occ. eigenvalues --   -0.45465  -0.45378  -0.45060  -0.44348  -0.44237
 Alpha  occ. eigenvalues --   -0.44184  -0.44101  -0.44028  -0.43892  -0.43840
 Alpha  occ. eigenvalues --   -0.43748  -0.43602  -0.43391  -0.43331  -0.43209
 Alpha  occ. eigenvalues --   -0.43006  -0.42779  -0.42526  -0.42442  -0.42052
 Alpha  occ. eigenvalues --   -0.41929  -0.41715  -0.41438  -0.40836  -0.39991
 Alpha  occ. eigenvalues --   -0.39922  -0.39806  -0.39544  -0.39241  -0.38899
 Alpha  occ. eigenvalues --   -0.38697  -0.38556  -0.38145  -0.37735  -0.37237
 Alpha  occ. eigenvalues --   -0.36509  -0.36400  -0.36145  -0.35919  -0.35631
 Alpha  occ. eigenvalues --   -0.34022  -0.33899  -0.32082  -0.31137  -0.30703
 Alpha  occ. eigenvalues --   -0.29829  -0.29070  -0.28764  -0.28433  -0.27927
 Alpha  occ. eigenvalues --   -0.27746  -0.27496  -0.27105  -0.26675  -0.26554
 Alpha  occ. eigenvalues --   -0.26168  -0.25712  -0.25298  -0.22907  -0.22789
 Alpha  occ. eigenvalues --   -0.21170
 Alpha virt. eigenvalues --   -0.07060  -0.06694  -0.05639  -0.04716  -0.03881
 Alpha virt. eigenvalues --   -0.03327  -0.02740  -0.02007  -0.01911  -0.01012
 Alpha virt. eigenvalues --   -0.00816  -0.00617  -0.00211   0.01320   0.01830
 Alpha virt. eigenvalues --    0.02360   0.02915   0.03941   0.04266   0.04388
 Alpha virt. eigenvalues --    0.04887   0.05239   0.05438   0.05621   0.05868
 Alpha virt. eigenvalues --    0.06326   0.06553   0.06569   0.06901   0.07417
 Alpha virt. eigenvalues --    0.07535   0.07838   0.07957   0.08247   0.08532
 Alpha virt. eigenvalues --    0.08695   0.08957   0.09176   0.09590   0.09808
 Alpha virt. eigenvalues --    0.10064   0.10237   0.10486   0.10554   0.10733
 Alpha virt. eigenvalues --    0.11077   0.11321   0.11371   0.11692   0.11863
 Alpha virt. eigenvalues --    0.12010   0.12062   0.12370   0.12504   0.12642
 Alpha virt. eigenvalues --    0.12852   0.13157   0.13293   0.13511   0.13714
 Alpha virt. eigenvalues --    0.13920   0.14131   0.14260   0.14455   0.14569
 Alpha virt. eigenvalues --    0.14759   0.15254   0.15531   0.15646   0.16094
 Alpha virt. eigenvalues --    0.16355   0.16580   0.16967   0.17131   0.17336
 Alpha virt. eigenvalues --    0.17490   0.17836   0.17918   0.18136   0.18154
 Alpha virt. eigenvalues --    0.18627   0.18922   0.19153   0.19227   0.19520
 Alpha virt. eigenvalues --    0.19591   0.19744   0.20007   0.20252   0.20552
 Alpha virt. eigenvalues --    0.20683   0.20933   0.21134   0.21216   0.21276
 Alpha virt. eigenvalues --    0.21644   0.21815   0.21968   0.22124   0.22165
 Alpha virt. eigenvalues --    0.22241   0.22623   0.22865   0.22905   0.22975
 Alpha virt. eigenvalues --    0.23067   0.23218   0.23295   0.23592   0.23680
 Alpha virt. eigenvalues --    0.23819   0.24001   0.24214   0.24345   0.24424
 Alpha virt. eigenvalues --    0.24478   0.24535   0.24839   0.24991   0.25159
 Alpha virt. eigenvalues --    0.25217   0.25788   0.25828   0.26082   0.26146
 Alpha virt. eigenvalues --    0.26331   0.26849   0.27017   0.27116   0.27239
 Alpha virt. eigenvalues --    0.27324   0.27617   0.27787   0.28032   0.28195
 Alpha virt. eigenvalues --    0.28280   0.28513   0.28702   0.28977   0.29085
 Alpha virt. eigenvalues --    0.29361   0.29376   0.29734   0.30085   0.30228
 Alpha virt. eigenvalues --    0.30491   0.30745   0.30922   0.31104   0.31393
 Alpha virt. eigenvalues --    0.31635   0.32110   0.32132   0.32236   0.32624
 Alpha virt. eigenvalues --    0.32876   0.33190   0.33468   0.33554   0.33722
 Alpha virt. eigenvalues --    0.33919   0.34142   0.34294   0.34493   0.34547
 Alpha virt. eigenvalues --    0.34830   0.34955   0.35032   0.35216   0.35346
 Alpha virt. eigenvalues --    0.35707   0.35815   0.36329   0.36562   0.36712
 Alpha virt. eigenvalues --    0.36861   0.36990   0.37293   0.37487   0.37831
 Alpha virt. eigenvalues --    0.37947   0.38193   0.38327   0.38433   0.38505
 Alpha virt. eigenvalues --    0.38611   0.39056   0.39192   0.39307   0.39584
 Alpha virt. eigenvalues --    0.39783   0.39968   0.40153   0.40354   0.40650
 Alpha virt. eigenvalues --    0.40753   0.40970   0.41119   0.41266   0.41666
 Alpha virt. eigenvalues --    0.41768   0.41909   0.42242   0.42326   0.42535
 Alpha virt. eigenvalues --    0.42730   0.42756   0.42931   0.43200   0.43269
 Alpha virt. eigenvalues --    0.43417   0.43580   0.43755   0.44013   0.44053
 Alpha virt. eigenvalues --    0.44110   0.44427   0.44836   0.44952   0.44987
 Alpha virt. eigenvalues --    0.45200   0.45407   0.45672   0.45701   0.45898
 Alpha virt. eigenvalues --    0.46018   0.46277   0.46518   0.46774   0.46940
 Alpha virt. eigenvalues --    0.47168   0.47380   0.47603   0.47836   0.47993
 Alpha virt. eigenvalues --    0.48084   0.48329   0.48522   0.48725   0.48894
 Alpha virt. eigenvalues --    0.49410   0.49601   0.49941   0.50034   0.50231
 Alpha virt. eigenvalues --    0.50446   0.50641   0.51030   0.51059   0.51298
 Alpha virt. eigenvalues --    0.51657   0.51769   0.51982   0.52016   0.52221
 Alpha virt. eigenvalues --    0.52507   0.52737   0.52982   0.53381   0.53593
 Alpha virt. eigenvalues --    0.53841   0.53938   0.54408   0.54503   0.54773
 Alpha virt. eigenvalues --    0.54936   0.55171   0.55310   0.55486   0.55790
 Alpha virt. eigenvalues --    0.55919   0.56273   0.56435   0.56643   0.56810
 Alpha virt. eigenvalues --    0.57034   0.57378   0.57680   0.57804   0.58010
 Alpha virt. eigenvalues --    0.58225   0.58447   0.58492   0.58765   0.58904
 Alpha virt. eigenvalues --    0.59134   0.59505   0.59747   0.60064   0.60262
 Alpha virt. eigenvalues --    0.60434   0.60709   0.60841   0.61186   0.61480
 Alpha virt. eigenvalues --    0.61552   0.61777   0.61909   0.62125   0.62449
 Alpha virt. eigenvalues --    0.62490   0.63100   0.63342   0.63747   0.63912
 Alpha virt. eigenvalues --    0.63960   0.64052   0.64476   0.64735   0.64991
 Alpha virt. eigenvalues --    0.65223   0.65282   0.65434   0.65743   0.65875
 Alpha virt. eigenvalues --    0.66062   0.66261   0.66473   0.66958   0.67111
 Alpha virt. eigenvalues --    0.67298   0.67544   0.67853   0.68202   0.68548
 Alpha virt. eigenvalues --    0.68624   0.68840   0.69034   0.69097   0.69451
 Alpha virt. eigenvalues --    0.69591   0.70031   0.70161   0.70286   0.70490
 Alpha virt. eigenvalues --    0.70574   0.70758   0.70891   0.71247   0.71418
 Alpha virt. eigenvalues --    0.71679   0.71689   0.71782   0.72060   0.72265
 Alpha virt. eigenvalues --    0.72471   0.72705   0.73002   0.73297   0.73526
 Alpha virt. eigenvalues --    0.73632   0.74011   0.74362   0.74435   0.74591
 Alpha virt. eigenvalues --    0.74854   0.75129   0.75328   0.75645   0.75810
 Alpha virt. eigenvalues --    0.76041   0.76268   0.76318   0.76808   0.76991
 Alpha virt. eigenvalues --    0.77230   0.77401   0.77574   0.77683   0.77990
 Alpha virt. eigenvalues --    0.78002   0.78408   0.78680   0.78884   0.79106
 Alpha virt. eigenvalues --    0.79281   0.79416   0.79805   0.79906   0.79978
 Alpha virt. eigenvalues --    0.80241   0.80427   0.80512   0.80869   0.81027
 Alpha virt. eigenvalues --    0.81335   0.81711   0.82003   0.82288   0.82488
 Alpha virt. eigenvalues --    0.82578   0.82664   0.82963   0.83146   0.83563
 Alpha virt. eigenvalues --    0.83665   0.83970   0.84171   0.84550   0.84934
 Alpha virt. eigenvalues --    0.85196   0.85422   0.85479   0.85723   0.86084
 Alpha virt. eigenvalues --    0.86326   0.86591   0.86949   0.87222   0.87268
 Alpha virt. eigenvalues --    0.87647   0.88040   0.88617   0.88708   0.89014
 Alpha virt. eigenvalues --    0.89131   0.89448   0.89836   0.90014   0.90322
 Alpha virt. eigenvalues --    0.90762   0.91081   0.91422   0.91626   0.91962
 Alpha virt. eigenvalues --    0.92105   0.92215   0.92357   0.92921   0.93017
 Alpha virt. eigenvalues --    0.93343   0.93460   0.93600   0.93872   0.94040
 Alpha virt. eigenvalues --    0.94237   0.94322   0.94459   0.94738   0.94915
 Alpha virt. eigenvalues --    0.95010   0.95223   0.95705   0.96054   0.96463
 Alpha virt. eigenvalues --    0.96776   0.97120   0.97422   0.97723   0.98026
 Alpha virt. eigenvalues --    0.98419   0.98564   0.98832   0.98937   0.99103
 Alpha virt. eigenvalues --    0.99579   0.99849   1.00126   1.00487   1.00902
 Alpha virt. eigenvalues --    1.01205   1.01686   1.01830   1.02028   1.02494
 Alpha virt. eigenvalues --    1.02521   1.02950   1.03078   1.03278   1.03640
 Alpha virt. eigenvalues --    1.03831   1.04143   1.04569   1.05265   1.05408
 Alpha virt. eigenvalues --    1.05603   1.05813   1.06293   1.06570   1.07076
 Alpha virt. eigenvalues --    1.07230   1.07562   1.07710   1.08448   1.09050
 Alpha virt. eigenvalues --    1.09256   1.09559   1.09630   1.09779   1.10178
 Alpha virt. eigenvalues --    1.10464   1.11127   1.11193   1.11498   1.11684
 Alpha virt. eigenvalues --    1.12282   1.12348   1.13013   1.13238   1.13450
 Alpha virt. eigenvalues --    1.13776   1.13977   1.14437   1.14535   1.14924
 Alpha virt. eigenvalues --    1.15072   1.15763   1.16095   1.16551   1.16669
 Alpha virt. eigenvalues --    1.16898   1.17162   1.17606   1.18106   1.18344
 Alpha virt. eigenvalues --    1.18452   1.19110   1.19470   1.19494   1.19675
 Alpha virt. eigenvalues --    1.20004   1.20444   1.20747   1.21001   1.21096
 Alpha virt. eigenvalues --    1.21358   1.21709   1.22113   1.22250   1.22591
 Alpha virt. eigenvalues --    1.22724   1.23046   1.23252   1.23394   1.23719
 Alpha virt. eigenvalues --    1.24067   1.24390   1.24597   1.24735   1.25255
 Alpha virt. eigenvalues --    1.25323   1.25794   1.25917   1.26196   1.26495
 Alpha virt. eigenvalues --    1.26859   1.27107   1.27314   1.27437   1.27894
 Alpha virt. eigenvalues --    1.28223   1.28752   1.29003   1.29141   1.29593
 Alpha virt. eigenvalues --    1.29717   1.30238   1.30325   1.30445   1.30719
 Alpha virt. eigenvalues --    1.30810   1.31241   1.31526   1.31865   1.32108
 Alpha virt. eigenvalues --    1.32376   1.32659   1.32674   1.32809   1.33176
 Alpha virt. eigenvalues --    1.33601   1.33678   1.34128   1.34522   1.34715
[...]
  1908. RY*(  20) C  86                  0.00001     3.60823   
  1909. RY*(  21) C  86                  0.00001     3.34976   
  1910. RY*(  22) C  86                  0.00000     3.44764   
  1911. RY*(  23) C  86                  0.00001     3.46034   
  1912. RY*(  24) C  86                  0.00000     3.31662   
  1913. RY*(  25) C  86                  0.00001     3.77330   
  1914. RY*(  26) C  86                  0.00001     3.43807   
  1915. RY*(   1) C  87                  0.00681     1.53386   
  1916. RY*(   2) C  87                  0.00195     1.14497   
  1917. RY*(   3) C  87                  0.00146     0.99919   
  1918. RY*(   4) C  87                  0.00098     1.63432   
  1919. RY*(   5) C  87                  0.00090     1.72417   
  1920. RY*(   6) C  87                  0.00036     2.66579   
  1921. RY*(   7) C  87                  0.00027     2.15085   
  1922. RY*(   8) C  87                  0.00017     1.68243   
  1923. RY*(   9) C  87                  0.00009     1.56173   
  1924. RY*(  10) C  87                  0.00008     2.30240   
  1925. RY*(  11) C  87                  0.00007     2.39983   
  1926. RY*(  12) C  87                  0.00005     1.70688   
  1927. RY*(  13) C  87                  0.00003     1.98581   
  1928. RY*(  14) C  87                  0.00002     3.45035   
  1929. RY*(  15) C  87                  0.00003     2.34658   
  1930. RY*(  16) C  87                  0.00003     1.96979   
  1931. RY*(  17) C  87                  0.00000     3.52234   
  1932. RY*(  18) C  87                  0.00000    21.43591   
  1933. RY*(  19) C  87                  0.00000     3.32420   
  1934. RY*(  20) C  87                  0.00000     3.16690   
  1935. RY*(  21) C  87                  0.00001     3.36579   
  1936. RY*(  22) C  87                  0.00000     3.43199   
  1937. RY*(  23) C  87                  0.00000     3.63027   
  1938. RY*(  24) C  87                  0.00000     3.52878   
  1939. RY*(  25) C  87                  0.00000     3.61601   
  1940. RY*(  26) C  87                  0.00000     3.32558   
  1941. RY*(   1) C  88                  0.00501     1.52614   
  1942. RY*(   2) C  88                  0.00177     1.48528   
  1943. RY*(   3) C  88                  0.00124     0.60390   
  1944. RY*(   4) C  88                  0.00078     1.39408   
  1945. RY*(   5) C  88                  0.00056     1.80307   
  1946. RY*(   6) C  88                  0.00030     3.10032   
  1947. RY*(   7) C  88                  0.00015     1.82097   
  1948. RY*(   8) C  88                  0.00012     2.29055   
  1949. RY*(   9) C  88                  0.00007     2.67888   
  1950. RY*(  10) C  88                  0.00004     1.94608   
  1951. RY*(  11) C  88                  0.00004     2.11743   
  1952. RY*(  12) C  88                  0.00002     2.31200   
  1953. RY*(  13) C  88                  0.00002     3.00694   
  1954. RY*(  14) C  88                  0.00002     1.97939   
  1955. RY*(  15) C  88                  0.00000     1.52368   
  1956. RY*(  16) C  88                  0.00000    21.12710   
  1957. RY*(  17) C  88                  0.00000     3.33438   
  1958. RY*(  18) C  88                  0.00001     2.02286   
  1959. RY*(  19) C  88                  0.00000     2.97316   
  1960. RY*(  20) C  88                  0.00000     3.44780   
  1961. RY*(  21) C  88                  0.00000     3.26109   
  1962. RY*(  22) C  88                  0.00000     3.40006   
  1963. RY*(  23) C  88                  0.00000     3.21175   
  1964. RY*(  24) C  88                  0.00000     3.60084   
  1965. RY*(  25) C  88                  0.00000     3.66545   
  1966. RY*(  26) C  88                  0.00000     3.37205   
  1967. RY*(   1) H  89                  0.00031     0.87424   
  1968. RY*(   2) H  89                  0.00020     1.85648   
  1969. RY*(   3) H  89                  0.00012     2.14813   
  1970. RY*(   4) H  89                  0.00008     2.74779   
  1971. RY*(   5) H  89                  0.00002     3.08699   
  1972. RY*(   1) H  90                  0.00039     1.03883   
  1973. RY*(   2) H  90                  0.00019     1.78909   
  1974. RY*(   3) H  90                  0.00013     2.62585   
  1975. RY*(   4) H  90                  0.00012     2.22966   
  1976. RY*(   5) H  90                  0.00002     3.07890   
  1977. RY*(   1) H  91                  0.00138     0.72026   
  1978. RY*(   2) H  91                  0.00035     2.34158   
  1979. RY*(   3) H  91                  0.00016     2.23519   
  1980. RY*(   4) H  91                  0.00011     2.72859   
  1981. RY*(   5) H  91                  0.00003     3.17562   
  1982. RY*(   1) H  92                  0.00119     0.83631   
  1983. RY*(   2) H  92                  0.00033     2.30390   
  1984. RY*(   3) H  92                  0.00013     2.24346   
  1985. RY*(   4) H  92                  0.00010     2.76764   
  1986. RY*(   5) H  92                  0.00002     3.14687   
  1987. RY*(   1) H  93                  0.00036     1.04482   
  1988. RY*(   2) H  93                  0.00020     1.82825   
  1989. RY*(   3) H  93                  0.00014     2.15749   
  1990. RY*(   4) H  93                  0.00012     2.69484   
  1991. RY*(   5) H  93                  0.00002     3.10241   
  2004. BD*(   1) C  12 - C  13          0.03131     0.43545   
  2005. BD*(   2) C  12 - C  13          0.43229     0.03981  2011(v),199(v),2004(g)
                                                    194(r),197(r),2088(r),426(g)
                                                    453(g),2007(g),2009(g)
                                                    424(g),2008(g),394(r),196(r)
                                                    1999(r),410(r),198(r)
  2006. BD*(   1) C  12 - C  16          0.02803     0.44763   
  2007. BD*(   1) C  12 - H  17          0.01437     0.40036   
  2008. BD*(   1) C  13 - C  14          0.02517     0.44891   
  2009. BD*(   1) C  13 - H  72          0.01503     0.41508   
  2010. BD*(   1) C  14 - C  15          0.05714     0.41899   
  2011. BD*(   2) C  14 - C  15          0.49784     0.03188  2005(v),199(v),2010(g)
                                                    194(r),1993(r),2016(v)
                                                    196(r),197(r),193(r),2017(v)
                                                    2090(v),2087(v),1999(r)
                                                    507(g),2012(g),480(g),195(r)
                                                    189(r),422(r),395(r),415(r)
  2012. BD*(   1) C  14 - C  76          0.03282     0.43509   
  2013. BD*(   1) C  15 - C  16          0.04407     0.43775   
  2014. BD*(   1) C  15 - C  19          0.03070     0.37532   
  2015. BD*(   1) C  16 - H  18          0.01674     0.40273   
  2016. BD*(   1) C  19 - P  20          0.04539     0.16036   
  2017. BD*(   1) C  19 - H  21          0.02805     0.35515   
  2018. BD*(   1) C  19 - C  22          0.01122     0.32952   
  2019. BD*(   1) P  20 - C  29          0.04289     0.20181   
  2020. BD*(   1) P  20 - C  40          0.03596     0.19393   
  2021. BD*(   1) C  22 - H  23          0.00628     0.36649   
  2022. BD*(   1) C  22 - H  24          0.00957     0.36194   
  2023. BD*(   1) C  22 - H  25          0.01000     0.35492   
  2024. BD*(   1) C  26 - C  27          0.01939     0.49482   
  2025. BD*(   1) C  26 - C  31          0.01963     0.49318   
  2026. BD*(   2) C  26 - C  31          0.35147    -0.01127  2029(v),2034(v),2042(v)
                                                    665(g),2041(v),2043(v)
  2027. BD*(   1) C  26 - H  32          0.01206     0.37682   
  2028. BD*(   1) C  27 - C  28          0.02244     0.49143   
  2029. BD*(   2) C  27 - C  28          0.34728    -0.00866  2034(v),2026(v),2040(v)
                                                    2038(v),717(g),2039(v)
  2030. BD*(   1) C  27 - C  33          0.06674     0.29693   
  2031. BD*(   1) C  28 - C  29          0.02318     0.49677   
  2032. BD*(   1) C  28 - H  34          0.01522     0.37863   
  2033. BD*(   1) C  29 - C  30          0.03267     0.49573   
  2034. BD*(   2) C  29 - C  30          0.33738    -0.00655  2029(v),2026(v),769(g)
                                                    2016(v),2020(v),2049(r)
                                                    744(g),2054(r)
  2035. BD*(   1) C  30 - C  31          0.02459     0.49717   
  2036. BD*(   1) C  30 - H  35          0.01568     0.38070   
  2037. BD*(   1) C  31 - C  36          0.06659     0.29843   
  2038. BD*(   1) C  33 - F  54          0.09174     0.19906   
  2039. BD*(   1) C  33 - F  55          0.09115     0.19704   
  2040. BD*(   1) C  33 - F  56          0.09792     0.20240   
  2041. BD*(   1) C  36 - F  57          0.09007     0.20020   
  2042. BD*(   1) C  36 - F  58          0.09895     0.19782   
  2043. BD*(   1) C  36 - F  59          0.09208     0.19557   
  2044. BD*(   1) C  37 - C  38          0.01994     0.50469   
  2045. BD*(   1) C  37 - C  42          0.01974     0.50446   
  2046. BD*(   2) C  37 - C  42          0.35266    -0.00268  2049(v),2054(v),2063(v)
                                                    888(g),2062(v),2061(v)
  2047. BD*(   1) C  37 - H  43          0.01229     0.38263   
  2048. BD*(   1) C  38 - C  39          0.02470     0.50420   
  2049. BD*(   2) C  38 - C  39          0.35204    -0.00033  2046(v),2054(v),2058(v)
                                                    2060(v),2034(r),939(g)
                                                    914(g)
  2050. BD*(   1) C  38 - C  44          0.06592     0.30459   
  2051. BD*(   1) C  39 - C  40          0.03151     0.50869   
  2052. BD*(   1) C  39 - H  45          0.01841     0.39607   
  2053. BD*(   1) C  40 - C  41          0.02302     0.50207   
  2054. BD*(   2) C  40 - C  41          0.33943     0.00303  2049(v),2046(v),2092(r)
                                                    2019(v),992(g),991(g),967(g)
                                                    2034(r)
  2055. BD*(   1) C  41 - C  42          0.02356     0.50473   
  2056. BD*(   1) C  41 - H  46          0.01838     0.39888   
  2057. BD*(   1) C  42 - C  47          0.06600     0.30699   
  2058. BD*(   1) C  44 - F  51          0.10081     0.19209  2049(v),1053(g)
  2059. BD*(   1) C  44 - F  52          0.08794     0.19981   
  2060. BD*(   1) C  44 - F  53          0.09253     0.20348   
  2061. BD*(   1) C  47 - F  48          0.08961     0.20505   
  2062. BD*(   1) C  47 - F  49          0.09060     0.20577   
  2063. BD*(   1) C  47 - F  50          0.10093     0.19816  2046(v),1089(g)
  2064. BD*(   1) P  60 - C  64          0.04927     0.22676   
  2065. BD*(   1) P  60 - C  77          0.04172     0.22324   
  2066. BD*(   1) P  60 - C  86          0.03479     0.23178   
  2067. BD*(   1) C  61 - C  62          0.01454     0.53602   
  2068. BD*(   1) C  61 - C  66          0.01480     0.53733   
  2069. BD*(   2) C  61 - C  66          0.33400     0.02497  2077(v),2072(v),1451(g)
                                                    1581(g)
  2070. BD*(   1) C  61 - H  67          0.01307     0.40303   
  2071. BD*(   1) C  62 - C  63          0.01521     0.54137   
  2072. BD*(   2) C  62 - C  63          0.31418     0.02840  2069(v),2077(v),1477(g)
                                                    2099(r),1503(g)
  2073. BD*(   1) C  62 - H  68          0.01335     0.40339   
  2074. BD*(   1) C  63 - C  64          0.02276     0.52417   
  2075. BD*(   1) C  63 - H  69          0.01597     0.40480   
  2076. BD*(   1) C  64 - C  65          0.02732     0.52328   
  2077. BD*(   2) C  64 - C  65          0.37446     0.02340  2069(v),2072(v),2104(r)
                                                    2099(r),2066(v),1554(g)
                                                    1530(g),2088(r),1503(v)
                                                    1556(g)
  2078. BD*(   1) C  65 - C  66          0.01721     0.54273   
  2079. BD*(   1) C  65 - H  70          0.01638     0.41937   
  2080. BD*(   1) C  66 - H  71          0.01402     0.40171   
  2081. BD*(   1) C  73 - C  74          0.01500     0.53406   
  2082. BD*(   2) C  73 - C  74          0.32958     0.02193  2092(v),2088(v),1663(g)
                                                    1637(g)
  2083. BD*(   1) C  73 - C  78          0.01804     0.54096   
  2084. BD*(   1) C  73 - H  79          0.01407     0.40531   
  2085. BD*(   1) C  74 - C  75          0.01516     0.54327   
  2086. BD*(   1) C  74 - H  80          0.01367     0.40545   
  2087. BD*(   1) C  75 - C  76          0.02921     0.52263   
  2088. BD*(   2) C  75 - C  76          0.34829     0.02566  2082(v),2092(v),2010(v)
                                                    1689(g),2008(v),2005(r)
                                                    2077(r),1999(r)
  2089. BD*(   1) C  75 - H  81          0.01515     0.41846   
  2090. BD*(   1) C  76 - C  77          0.03537     0.50147   
  2091. BD*(   1) C  77 - C  78          0.02793     0.52480   
  2092. BD*(   2) C  77 - C  78          0.36326     0.02110  2082(v),2088(v),1766(g)
                                                    2054(r),2064(v),1742(g)
  2093. BD*(   1) C  78 - H  82          0.01811     0.41955   
  2094. BD*(   1) C  83 - C  84          0.01463     0.53023   
  2095. BD*(   1) C  83 - C  88          0.01457     0.53279   
  2096. BD*(   2) C  83 - C  88          0.31582     0.02250  2099(v),2104(v),1813(g)
                                                    1943(g)
  2097. BD*(   1) C  83 - H  89          0.01286     0.40090   
  2098. BD*(   1) C  84 - C  85          0.01720     0.53923   
  2099. BD*(   2) C  84 - C  85          0.30338     0.02551  2096(v),2104(v),2077(r)
                                                    1839(g),2072(r)
  2100. BD*(   1) C  84 - H  90          0.01401     0.39899   
  2101. BD*(   1) C  85 - C  86          0.03334     0.51553   
  2102. BD*(   1) C  85 - H  91          0.01583     0.40857   
  2103. BD*(   1) C  86 - C  87          0.02469     0.52017   
  2104. BD*(   2) C  86 - C  87          0.36792     0.01741  2096(v),2099(v),2077(r)
                                                    1917(g),2065(v),2064(v)
                                                    1892(g),2072(r)
  2105. BD*(   1) C  87 - C  88          0.01705     0.53509   
  2106. BD*(   1) C  87 - H  92          0.01659     0.39600   
  2107. BD*(   1) C  88 - H  93          0.01350     0.40088   
       -------------------------------
              Total Lewis  401.02733  ( 97.6067%)
        Valence non-Lewis    9.01841  (  2.1950%)
        Rydberg non-Lewis    0.81485  (  0.1983%)
       -------------------------------
            Total unit  3  410.86060  (100.0000%)
           Charge unit  3    0.13940
 1\1\GINC-NC042\SP\RPBE1PBE\Gen\C46H32F12Fe1P2\MACKK4\06-Dec-2021\0\\# 
 PBE1PBE gen pseudo=read int=(grid=ultrafine) empiricaldispersion=GD3BJ
  pop=nbo guess=read geom=check\\W001_1_6_F_1 title\\0,1\C,0,-0.1971867
 679,-3.5551277942,5.2285849396\C,0,0.4189151073,-2.8689344904,6.331511
 0787\C,0,1.8311882879,-3.1271931117,6.2838694362\C,0,2.0888867577,-3.9
 756746847,5.1551122388\C,0,0.8363504357,-4.2389072597,4.4981728274\H,0
 ,-0.0896634289,-2.2187941257,7.0441475681\H,0,2.5821012376,-2.71308882
 79,6.9574660112\H,0,3.0716110056,-4.3328420703,4.8457435652\H,0,0.6940
 059684,-4.837825916,3.5972016043\H,0,-1.2570244417,-3.5292713559,4.972
 873849\Fe,0,1.1963505998,-2.22288392,4.5543525078\C,0,1.1242381564,-0.
 1820452772,4.7125360864\C,0,2.413695972,-0.6084401149,4.2566867353\C,0
 ,2.2392443693,-1.348493788,3.0294570548\C,0,0.8101491466,-1.3866520716
 ,2.7474770956\C,0,0.1412134982,-0.6484515052,3.7848730112\H,0,0.921881
 4241,0.3659503802,5.6326187933\H,0,-0.9327546407,-0.4895864062,3.85888
 35122\C,0,0.182839697,-1.9604332382,1.5025689308\P,0,0.6689760652,-0.7
 430281586,0.1229319235\H,0,0.675759181,-2.9203287787,1.2734527476\C,0,
 -1.3319600314,-2.1673665405,1.6284155828\H,0,-1.7484498611,-2.70102179
 45,0.7608353391\H,0,-1.5295308817,-2.7686667257,2.5323243715\H,0,-1.85
 16000141,-1.2005797029,1.7225156652\C,0,-2.5579811324,-0.4183868173,-3
 .2234192054\C,0,-1.9781625138,0.7353449371,-2.6818219904\C,0,-1.042329
 0389,0.6460089156,-1.6414606634\C,0,-0.670154747,-0.612704189,-1.14292
 84789\C,0,-1.2233227492,-1.7736232229,-1.7089387175\C,0,-2.1755815534,
 -1.6734710438,-2.7319738588\H,0,-3.2940286454,-0.3414995662,-4.0271967
 799\C,0,-2.4045634242,2.0995448719,-3.1719666604\H,0,-0.6141629773,1.5
 520819045,-1.2066594858\H,0,-0.9131684586,-2.7664114216,-1.3704014761\
 C,0,-2.7235369522,-2.9316853532,-3.3590114258\C,0,3.5287575555,-2.8585
 67741,-2.9125771188\C,0,2.8329602555,-3.6363360984,-1.9795814608\C,0,2
 .0034826211,-3.0365093894,-1.0217747012\C,0,1.8543716351,-1.6411500747
 ,-0.9901025375\C,0,2.5433886918,-0.8626056877,-1.9366448154\C,0,3.3828
 693854,-1.4666342214,-2.8806592685\H,0,4.1774867989,-3.3300572753,-3.6
 55241838\C,0,3.0501668656,-5.1294465006,-1.9765818705\H,0,1.4870265529
 ,-3.6803479235,-0.3072898831\H,0,2.4382852806,0.2253710794,-1.93222871
 15\C,0,4.2155811546,-0.6006656741,-3.7935753127\F,0,4.5809627334,-1.25
 94703282,-4.9247357438\F,0,3.5572818122,0.5284618116,-4.1622999329\F,0
 ,5.3656991525,-0.2120282513,-3.1656968686\F,0,4.3063153873,-5.44082634
 32,-1.5322920863\F,0,2.1676157165,-5.7766035523,-1.1710269071\F,0,2.93
 80391294,-5.6511908376,-3.2255188447\F,0,-1.3689630785,2.9806363345,-3
 .1438037817\F,0,-2.8691891802,2.0469190843,-4.4514800739\F,0,-3.397300
 7784,2.6143236376,-2.4019657305\F,0,-3.967504935,-2.7406524417,-3.8700
 05635\F,0,-1.9294737761,-3.3631969719,-4.3787617078\F,0,-2.7954293758,
 -3.9478150594,-2.453795675\P,0,3.5687017135,0.8475425934,1.264151145\C
 ,0,6.3680577812,2.3546710429,4.6730263232\C,0,5.5987412698,3.260845869
 4,3.9290624139\C,0,4.7329387998,2.8044847944,2.9281931145\C,0,4.620816
 6906,1.422700761,2.6695519974\C,0,5.4112197749,0.516186551,3.404588476
 1\C,0,6.2772699582,0.9825930972,4.4035069708\H,0,7.043371193,2.7175711
 538,5.4546911281\H,0,5.6691092415,4.3351276578,4.1269838312\H,0,4.1274
 569454,3.5123109827,2.3587140654\H,0,5.362583592,-0.5554027262,3.19361
 35445\H,0,6.8858900277,0.2669018879,4.9660842383\H,0,3.3625155456,-0.4
 307921108,4.7600879648\C,0,5.1854529324,-2.8391677035,0.2481228629\C,0
 ,4.5252183937,-3.7173856673,1.116021826\C,0,3.5831770351,-3.218695628,
 2.0231403723\C,0,3.2864687052,-1.8444193544,2.0981765525\C,0,3.9625005
 43,-0.9584047789,1.2093089875\C,0,4.9027010673,-1.4686629681,0.2945920
 006\H,0,5.8991383737,-3.223048419,-0.486937646\H,0,4.7227926003,-4.792
 1623764,1.0655904968\H,0,3.0462604839,-3.8914484727,2.6957085044\H,0,5
 .3868370546,-0.7976017805,-0.4201725269\C,0,5.6383718212,2.9565464276,
 -2.3188573432\C,0,6.423643889,2.3167556039,-1.3475686753\C,0,5.8163067
 43,1.6770474688,-0.2607544502\C,0,4.4100499095,1.6539805063,-0.1540023
 121\C,0,3.6293023609,2.3260733015,-1.1134392517\C,0,4.2426361751,2.969
 9517143,-2.1961513777\H,0,6.1182889907,3.457900319,-3.1652977884\H,0,7
 .5151772994,2.3250855809,-1.4311835379\H,0,6.4319770205,1.2081705489,0
 .5141161695\H,0,2.540540965,2.3612701777,-0.9801882357\H,0,3.627774206
 1,3.488587991,-2.9380757197\\Version=ES64L-G09RevE.01\State=1-A\HF=-37
 74.7501477\RMSD=3.529e-09\Dipole=0.4703672,0.2862359,1.5022912\Quadrup
 ole=4.9812395,-5.6037603,0.6225207,3.3910175,-4.6590231,-0.895888\PG=C
 01 [X(C46H32F12Fe1P2)]\\@


 EVERYTHING'S GOT A MORAL, IF ONLY YOU CAN FIND IT.

                                    -- LEWIS CARROL, ALICE IN WONDERLAND
 Job cpu time:       0 days  5 hours 21 minutes 38.5 seconds.
 File lengths (MBytes):  RWF=   2275 Int=      0 D2E=      0 Chk=    320 Scr=      1
 Normal termination of Gaussian 09 at Mon Dec  6 17:25:51 2021.
