 Entering Gaussian System, Link 0=g09
 Input=W001_1_6_F_3_SPE_NoPd.com
 Output=W001_1_6_F_3_SPE_NoPd.log
 Initial command:
 /gstore/apps/gaussian/g09.e01-foss-2017a/g09/l1.exe "/local/22791617/Gau-7446.inp" -scrdir="/local/22791617/"
 Entering Link 1 = /gstore/apps/gaussian/g09.e01-foss-2017a/g09/l1.exe PID=      7447.
  
 Copyright (c) 1988,1990,1992,1993,1995,1998,2003,2009,2015,
            Gaussian, Inc.  All Rights Reserved.
  
 This is part of the Gaussian(R) 09 program.  It is based on
 the Gaussian(R) 03 system (copyright 2003, Gaussian, Inc.),
 the Gaussian(R) 98 system (copyright 1998, Gaussian, Inc.),
 the Gaussian(R) 94 system (copyright 1995, Gaussian, Inc.),
 the Gaussian 92(TM) system (copyright 1992, Gaussian, Inc.),
 the Gaussian 90(TM) system (copyright 1990, Gaussian, Inc.),
 the Gaussian 88(TM) system (copyright 1988, Gaussian, Inc.),
 the Gaussian 86(TM) system (copyright 1986, Carnegie Mellon
 University), and the Gaussian 82(TM) system (copyright 1983,
 Carnegie Mellon University). Gaussian is a federally registered
 trademark of Gaussian, Inc.
  
 This software contains proprietary and confidential information,
 including trade secrets, belonging to Gaussian, Inc.
  
 This software is provided under written license and may be
 used, copied, transmitted, or stored only in accord with that
 written license.
  
 The following legend is applicable only to US Government
 contracts under FAR:
  
                    RESTRICTED RIGHTS LEGEND
  
 Use, reproduction and disclosure by the US Government is
 subject to restrictions as set forth in subparagraphs (a)
 and (c) of the Commercial Computer Software - Restricted
 Rights clause in FAR 52.227-19.
  
 Gaussian, Inc.
 340 Quinnipiac St., Bldg. 40, Wallingford CT 06492
  
  
 ---------------------------------------------------------------
 Warning -- This program may not be used in any manner that
 competes with the business of Gaussian, Inc. or will provide
 assistance to any competitor of Gaussian, Inc.  The licensee
 of this program is prohibited from giving any competitor of
 Gaussian, Inc. access to this program.  By using this program,
 the user acknowledges that Gaussian, Inc. is engaged in the
 business of creating and licensing software in the field of
 computational chemistry and represents and warrants to the
 licensee that it is not a competitor of Gaussian, Inc. and that
 it will not use this program in any manner prohibited above.
 ---------------------------------------------------------------
  

 Cite this work as:
 Gaussian 09, Revision E.01,
 M. J. Frisch, G. W. Trucks, H. B. Schlegel, G. E. Scuseria, 
 M. A. Robb, J. R. Cheeseman, G. Scalmani, V. Barone, B. Mennucci, 
 G. A. Petersson, H. Nakatsuji, M. Caricato, X. Li, H. P. Hratchian, 
 A. F. Izmaylov, J. Bloino, G. Zheng, J. L. Sonnenberg, M. Hada, 
 M. Ehara, K. Toyota, R. Fukuda, J. Hasegawa, M. Ishida, T. Nakajima, 
 Y. Honda, O. Kitao, H. Nakai, T. Vreven, J. A. Montgomery, Jr., 
 J. E. Peralta, F. Ogliaro, M. Bearpark, J. J. Heyd, E. Brothers, 
 K. N. Kudin, V. N. Staroverov, T. Keith, R. Kobayashi, J. Normand, 
 K. Raghavachari, A. Rendell, J. C. Burant, S. S. Iyengar, J. Tomasi, 
 M. Cossi, N. Rega, J. M. Millam, M. Klene, J. E. Knox, J. B. Cross, 
 V. Bakken, C. Adamo, J. Jaramillo, R. Gomperts, R. E. Stratmann, 
 O. Yazyev, A. J. Austin, R. Cammi, C. Pomelli, J. W. Ochterski, 
 R. L. Martin, K. Morokuma, V. G. Zakrzewski, G. A. Voth, 
 P. Salvador, J. J. Dannenberg, S. Dapprich, A. D. Daniels, 
 O. Farkas, J. B. Foresman, J. V. Ortiz, J. Cioslowski, 
 and D. J. Fox, Gaussian, Inc., Wallingford CT, 2013.
 
 ******************************************
 Gaussian 09:  ES64L-G09RevE.01 30-Nov-2015
                 6-Dec-2021 
 ******************************************
 %nprocs=14
 Will use up to   14 processors via shared memory.
 %mem=128GB
 %chk=W001_1_6_F_3_SPE_NoPd.chk
 ----------------------------------------------------------------------
 # PBE1PBE gen pseudo=read int=(grid=ultrafine) empiricaldispersion=GD3
 BJ nmr=giao
 ----------------------------------------------------------------------
 1/38=1/1;
 2/12=2,17=6,18=5,40=1/2;
 3/5=7,11=2,16=1,17=8,25=1,30=1,74=-13,75=-5,124=41/1,2,8,3;
 4//1;
 5/5=2,38=5/2;
 8/6=1,10=90,11=11/1;
 10/13=100,45=16/2;
 6/7=2,8=2,9=2,10=2,28=1/1;
 99/9=1/99;
 ------------------
 W001_1_6_F_3 title
 ------------------
 Symbolic Z-matrix:
 Charge =  0 Multiplicity = 1
 C                     0.21307  -4.0204    4.12397 
 C                     0.18714  -3.45313   5.44353 
 C                     1.51852  -3.51766   5.9807 
 C                     2.36837  -4.12234   4.9921 
 C                     1.55783  -4.43662   3.84426 
 H                    -0.67909  -3.00414   5.93078 
 H                     1.8387   -3.12668   6.94702 
 H                     3.44246  -4.28558   5.08834 
 H                     1.89958  -4.89602   2.91531 
 H                    -0.63438  -4.09536   3.44129 
 Fe                    1.4971   -2.42202   4.25388 
 C                     1.71563  -0.47473   4.84543 
 C                     2.89101  -0.94037   4.17976 
 C                     2.5349   -1.35282   2.84265 
 C                     1.09109  -1.17799   2.70524 
 C                     0.6142   -0.60732   3.94275 
 H                     1.65893  -0.12306   5.87571 
 H                    -0.42315  -0.36822   4.1705 
 C                     0.18987  -1.57929   1.55336 
 P                     0.63153  -0.55004   0.04216 
 H                     0.38094  -2.63706   1.30129 
 C                    -1.3024   -1.41269   1.89272 
 H                    -1.94105  -1.83583   1.10333 
 H                    -1.51916  -1.94566   2.83319 
 H                    -1.56346  -0.34805   2.00909 
 C                    -2.85414  -0.76786  -3.04226 
 C                    -2.26812   0.46521  -2.73521 
 C                    -1.24571   0.55629  -1.77786 
 C                    -0.80038  -0.60298  -1.12516 
 C                    -1.36732  -1.84819  -1.45203 
 C                    -2.39866  -1.92555  -2.3959 
 H                    -3.65381  -0.82923  -3.78428 
 C                    -2.77685   1.72856  -3.39169 
 H                    -0.81113   1.52643  -1.52556 
 H                    -1.00748  -2.76894  -0.98215 
 C                    -2.96013  -3.27371  -2.77629 
 C                     3.31986  -3.0953   -2.8091 
 C                     2.87377  -3.66531  -1.61024 
 C                     2.08713  -2.92696  -0.71699 
 C                     1.74132  -1.59933  -1.00937 
 C                     2.17162  -1.0331   -2.22273 
 C                     2.96102  -1.7755   -3.1112 
 H                     3.93671  -3.67262  -3.5027 
 C                     3.22973  -5.10122  -1.30812 
 H                     1.77558  -3.40023   0.21474 
 H                     1.87998  -0.01007  -2.48305 
 C                     3.48921  -1.12228  -4.36561 
 F                     3.69759  -2.0253   -5.35676 
 F                     2.64719  -0.16681  -4.83199 
 F                     4.6923   -0.51217  -4.12258 
 F                     4.56409  -5.32413  -1.4751 
 F                     2.91182  -5.45385  -0.03068 
 F                     2.57818  -5.95666  -2.13953 
 F                    -1.77254   2.61983  -3.59341 
 F                    -3.34902   1.46531  -4.59994 
 F                    -3.71652   2.33777  -2.62345 
 F                    -4.25482  -3.18489  -3.17742 
 F                    -2.25669  -3.83071  -3.80127 
 F                    -2.90533  -4.1488   -1.73328 
 P                     3.60017   0.9792    0.96855 
 C                     5.2341    2.02661   5.19316 
 C                     6.01814   1.30437   4.27941 
 C                     5.515     1.00629   3.00732 
 C                     4.22364   1.43967   2.63897 
 C                     3.44152   2.1648    3.55389 
 C                     3.95071   2.45452   4.82747 
 H                     5.62735   2.25629   6.18895 
 H                     7.02342   0.97089   4.55703 
 H                     6.12317   0.43013   2.30218 
 H                     2.4446    2.50479   3.26381 
 H                     3.33508   3.01872   5.5352 
 H                     3.90297  -0.96348   4.58373 
 C                     5.63493  -2.52694   0.06974 
 C                     5.14489  -3.43109   1.01657 
 C                     4.12648  -3.03139   1.88961 
 C                     3.57204  -1.73894   1.84619 
 C                     4.11764  -0.80294   0.91597 
 C                     5.13291  -1.21923   0.03367 
 H                     6.41638  -2.82759  -0.63515 
 H                     5.53497  -4.45199   1.06288 
 H                     3.73193  -3.72658   2.63235 
 H                     5.55349  -0.50787  -0.68118 
 C                     6.22527   3.28908  -2.08644 
 C                     5.39182   2.24622  -2.51672 
 C                     4.61723   1.54465  -1.58691 
 C                     4.68834   1.85802  -0.21551 
 C                     5.52088   2.90893   0.21125 
 C                     6.28336   3.61924  -0.72562 
 H                     6.82351   3.84815  -2.81291 
 H                     5.33474   1.97401  -3.57481 
 H                     3.96566   0.73847  -1.93068 
 H                     5.55949   3.18079   1.26885 
 H                     6.92114   4.44185  -0.38667 
 
 Stoichiometry    C46H32F12FeP2
 Framework group  C1[X(C46H32F12FeP2)]
 Deg. of freedom   273
 Full point group                 C1      NOp   1
 Largest Abelian subgroup         C1      NOp   1
 Largest concise Abelian subgroup C1      NOp   1
                         Standard orientation:                         
 ---------------------------------------------------------------------
 Center     Atomic      Atomic             Coordinates (Angstroms)
 Number     Number       Type             X           Y           Z
 ---------------------------------------------------------------------
      1          6           0       -2.129693   -4.758122    0.230421
      2          6           0       -3.194659   -5.112706   -0.666149
      3          6           0       -4.419812   -4.586153   -0.130399
      4          6           0       -4.111989   -3.903489    1.096152
      5          6           0       -2.693952   -4.014053    1.320291
      6          1           0       -3.084995   -5.642009   -1.613344
      7          1           0       -5.402186   -4.646735   -0.599889
      8          1           0       -4.825943   -3.372449    1.726891
      9          1           0       -2.135607   -3.596143    2.159574
     10          1           0       -1.072290   -4.988040    0.093018
     11         26           0       -3.081398   -3.077309   -0.469257
     12          6           0       -3.778517   -2.096944   -2.125319
     13          6           0       -3.930614   -1.292080   -0.954625
     14          6           0       -2.629673   -1.078038   -0.365948
     15          6           0       -1.661393   -1.813971   -1.175176
     16          6           0       -2.390221   -2.408591   -2.270511
     17          1           0       -4.583728   -2.450330   -2.769610
     18          1           0       -1.960568   -3.036818   -3.048889
     19          6           0       -0.181488   -2.030666   -0.924170
     20         15           0        0.709930   -0.379136   -1.050454
     21          1           0       -0.044117   -2.403510    0.105900
     22          6           0        0.435744   -3.044547   -1.904399
     23          1           0        1.469698   -3.293302   -1.623091
     24          1           0       -0.159081   -3.972599   -1.884038
     25          1           0        0.448390   -2.642662   -2.930785
     26          6           0        5.275483   -1.130968   -1.599544
     27          6           0        4.619139   -0.194128   -2.405576
     28          6           0        3.236668    0.015592   -2.283462
     29          6           0        2.504075   -0.717283   -1.337704
     30          6           0        3.165363   -1.639174   -0.506054
     31          6           0        4.541781   -1.853303   -0.648014
     32          1           0        6.350902   -1.292649   -1.705212
     33          6           0        5.387803    0.561916   -3.465472
     34          1           0        2.727613    0.730549   -2.934150
     35          1           0        2.618555   -2.192701    0.263786
     36          6           0        5.247454   -2.804989    0.286764
     37          6           0        1.493858    1.268375    3.251442
     38          6           0        0.832284    0.042762    3.105263
     39          6           0        0.556172   -0.473083    1.832655
     40          6           0        0.933292    0.237960    0.683803
     41          6           0        1.616097    1.458793    0.829922
     42          6           0        1.886937    1.971568    2.105616
     43          1           0        1.704828    1.670376    4.245816
     44          6           0        0.446496   -0.730454    4.343459
     45          1           0        0.022364   -1.421270    1.760846
     46          1           0        1.949773    2.008684   -0.056471
     47          6           0        2.539541    3.325996    2.242994
     48          9           0        3.248973    3.431043    3.394910
     49          9           0        3.371443    3.594716    1.206094
     50          9           0        1.593729    4.317794    2.265287
     51          9           0       -0.210789    0.063259    5.235687
     52          9           0       -0.365225   -1.787705    4.059571
     53          9           0        1.542542   -1.219881    4.981178
     54          9           0        4.902813    1.820103   -3.624962
     55          9           0        6.708455    0.662065   -3.145474
     56          9           0        5.309587   -0.062472   -4.668942
     57          9           0        6.340828   -3.363416   -0.294377
     58          9           0        5.669946   -2.167932    1.414292
     59          9           0        4.424180   -3.815306    0.684409
     60         15           0       -1.885789    1.915855   -1.120009
     61          6           0       -6.289345    1.409534   -2.522331
     62          6           0       -5.996083    1.943640   -1.257406
     63          6           0       -4.664250    2.099254   -0.854630
     64          6           0       -3.615629    1.728651   -1.723045
     65          6           0       -3.911123    1.196855   -2.989733
     66          6           0       -5.247371    1.039372   -3.383253
     67          1           0       -7.331353    1.285191   -2.834964
     68          1           0       -6.805297    2.239082   -0.581574
     69          1           0       -4.438906    2.502347    0.138243
     70          1           0       -3.097288    0.916841   -3.662690
     71          1           0       -5.469721    0.623248   -4.370979
     72          1           0       -4.859628   -0.874421   -0.566969
     73          6           0       -2.221524    1.594110    3.006118
     74          6           0       -2.639455    0.272805    3.189459
     75          6           0       -2.743956   -0.577537    2.082610
     76          6           0       -2.438562   -0.145132    0.778969
     77          6           0       -2.068787    1.221388    0.591950
     78          6           0       -1.954210    2.064720    1.713642
     79          1           0       -2.113699    2.267945    3.861828
     80          1           0       -2.861528   -0.104978    4.191711
     81          1           0       -3.066387   -1.612143    2.210070
     82          1           0       -1.670446    3.111012    1.576971
     83          6           0       -1.134987    6.479234   -0.705851
     84          6           0       -0.240858    5.561122   -0.135804
     85          6           0       -0.484079    4.188429   -0.251010
     86          6           0       -1.636479    3.719387   -0.911303
     87          6           0       -2.527636    4.643441   -1.487168
     88          6           0       -2.271926    6.017248   -1.382718
     89          1           0       -0.941303    7.553781   -0.628089
     90          1           0        0.651055    5.903738    0.397132
     91          1           0        0.220389    3.479778    0.189668
     92          1           0       -3.408048    4.289242   -2.028773
     93          1           0       -2.965057    6.729321   -1.841915
 ---------------------------------------------------------------------
 Rotational constants (GHZ):      0.0435009      0.0322809      0.0285758
 General basis read from cards:  (5D, 7F)
 ======================================================================================================
                                       Pseudopotential Parameters
 ======================================================================================================
  Center     Atomic      Valence      Angular      Power
  Number     Number     Electrons     Momentum     of R      Exponent        Coefficient   SO-Coeffient
 ======================================================================================================
    1          6
                                   No pseudopotential on this center.
    2          6
                                   No pseudopotential on this center.
    3          6
                                   No pseudopotential on this center.
    4          6
                                   No pseudopotential on this center.
    5          6
                                   No pseudopotential on this center.
    6          1
                                   No pseudopotential on this center.
    7          1
                                   No pseudopotential on this center.
    8          1
                                   No pseudopotential on this center.
    9          1
                                   No pseudopotential on this center.
   10          1
                                   No pseudopotential on this center.
   11         26           16
                                      F and up 
                                                     2        1.0000000        0.00000000    0.00000000
                                      S - F
                                                     2       20.9300000      253.74958800    0.00000000
                                                     2        9.4450000       37.92284500    0.00000000
                                      P - F
                                                     2       21.7600000      161.03681200    0.00000000
                                                     2        9.1780000       27.65129800    0.00000000
                                      D - F
                                                     2       25.9000000      -24.43127600    0.00000000
                                                     2        8.8350000       -1.43425100    0.00000000
   12          6
                                   No pseudopotential on this center.
   13          6
                                   No pseudopotential on this center.
   14          6
                                   No pseudopotential on this center.
   15          6
                                   No pseudopotential on this center.
   16          6
                                   No pseudopotential on this center.
   17          1
                                   No pseudopotential on this center.
   18          1
                                   No pseudopotential on this center.
   19          6
                                   No pseudopotential on this center.
   20         15
                                   No pseudopotential on this center.
   21          1
                                   No pseudopotential on this center.
   22          6
                                   No pseudopotential on this center.
   23          1
                                   No pseudopotential on this center.
   24          1
                                   No pseudopotential on this center.
   25          1
                                   No pseudopotential on this center.
   26          6
                                   No pseudopotential on this center.
   27          6
                                   No pseudopotential on this center.
   28          6
                                   No pseudopotential on this center.
   29          6
                                   No pseudopotential on this center.
   30          6
                                   No pseudopotential on this center.
   31          6
                                   No pseudopotential on this center.
   32          1
                                   No pseudopotential on this center.
   33          6
                                   No pseudopotential on this center.
   34          1
                                   No pseudopotential on this center.
   35          1
                                   No pseudopotential on this center.
   36          6
                                   No pseudopotential on this center.
   37          6
                                   No pseudopotential on this center.
   38          6
                                   No pseudopotential on this center.
   39          6
                                   No pseudopotential on this center.
   40          6
                                   No pseudopotential on this center.
   41          6
                                   No pseudopotential on this center.
   42          6
                                   No pseudopotential on this center.
   43          1
                                   No pseudopotential on this center.
   44          6
                                   No pseudopotential on this center.
   45          1
                                   No pseudopotential on this center.
   46          1
                                   No pseudopotential on this center.
   47          6
                                   No pseudopotential on this center.
   48          9
                                   No pseudopotential on this center.
   49          9
                                   No pseudopotential on this center.
   50          9
                                   No pseudopotential on this center.
   51          9
                                   No pseudopotential on this center.
   52          9
                                   No pseudopotential on this center.
   53          9
                                   No pseudopotential on this center.
   54          9
                                   No pseudopotential on this center.
   55          9
                                   No pseudopotential on this center.
   56          9
                                   No pseudopotential on this center.
   57          9
                                   No pseudopotential on this center.
   58          9
                                   No pseudopotential on this center.
   59          9
                                   No pseudopotential on this center.
   60         15
                                   No pseudopotential on this center.
   61          6
                                   No pseudopotential on this center.
   62          6
                                   No pseudopotential on this center.
   63          6
                                   No pseudopotential on this center.
   64          6
                                   No pseudopotential on this center.
   65          6
                                   No pseudopotential on this center.
   66          6
                                   No pseudopotential on this center.
   67          1
                                   No pseudopotential on this center.
   68          1
                                   No pseudopotential on this center.
   69          1
                                   No pseudopotential on this center.
   70          1
                                   No pseudopotential on this center.
   71          1
                                   No pseudopotential on this center.
   72          1
                                   No pseudopotential on this center.
   73          6
                                   No pseudopotential on this center.
   74          6
                                   No pseudopotential on this center.
   75          6
                                   No pseudopotential on this center.
   76          6
                                   No pseudopotential on this center.
   77          6
                                   No pseudopotential on this center.
   78          6
                                   No pseudopotential on this center.
   79          1
                                   No pseudopotential on this center.
   80          1
                                   No pseudopotential on this center.
   81          1
                                   No pseudopotential on this center.
   82          1
                                   No pseudopotential on this center.
   83          6
                                   No pseudopotential on this center.
   84          6
                                   No pseudopotential on this center.
   85          6
                                   No pseudopotential on this center.
   86          6
                                   No pseudopotential on this center.
   87          6
                                   No pseudopotential on this center.
   88          6
                                   No pseudopotential on this center.
   89          1
                                   No pseudopotential on this center.
   90          1
                                   No pseudopotential on this center.
   91          1
                                   No pseudopotential on this center.
   92          1
                                   No pseudopotential on this center.
   93          1
                                   No pseudopotential on this center.
 ======================================================================================================
 There are  2413 symmetry adapted cartesian basis functions of A   symmetry.
 There are  2107 symmetry adapted basis functions of A   symmetry.
  2107 basis functions,  3427 primitive gaussians,  2413 cartesian basis functions
   231 alpha electrons      231 beta electrons
       nuclear repulsion energy     10716.5598714867 Hartrees.
 NAtoms=   93 NActive=   93 NUniq=   93 SFac= 1.00D+00 NAtFMM=   60 NAOKFM=T Big=T
 Integral buffers will be    131072 words long.
 Raffenetti 2 integral format.
 Two-electron integral symmetry is turned on.
 Nuclear repulsion after empirical dispersion term =    10716.4009131740 Hartrees.
 One-electron integrals computed using PRISM.
   1 Symmetry operations used in ECPInt.
 ECPInt:  NShTT=  326028 NPrTT= 1021761 LenC2=  231439 LenP2D=  463072.
 LDataN:  DoStor=T MaxTD1= 6 Len=  172
 NBasis=  2107 RedAO= T EigKep=  2.88D-06  NBF=  2107
 NBsUse=  2107 1.00D-06 EigRej= -1.00D+00 NBFU=  2107
 ExpMin= 1.00D-02 ExpMax= 5.24D+04 ExpMxC= 1.79D+03 IAcc=3 IRadAn=         5 AccDes= 0.00D+00
 Harris functional with IExCor= 1009 and IRadAn=       5 diagonalized for initial guess.
 HarFok:  IExCor= 1009 AccDes= 0.00D+00 IRadAn=         5 IDoV= 1 UseB2=F ITyADJ=14
 ICtDFT=  3500011 ScaDFX=  1.000000  1.000000  1.000000  1.000000
 FoFCou: FMM=F IPFlag=           0 FMFlag=      100000 FMFlg1=        2001
         NFxFlg=           0 DoJE=T BraDBF=F KetDBF=T FulRan=T
         wScrn=  0.000000 ICntrl=     500 IOpCl=  0 I1Cent=   200000004 NGrid=           0
         NMat0=    1 NMatS0=      1 NMatT0=    0 NMatD0=    1 NMtDS0=    0 NMtDT0=    0
 Petite list used in FoFCou.
 Requested convergence on RMS density matrix=1.00D-08 within 128 cycles.
 Requested convergence on MAX density matrix=1.00D-06.
 Requested convergence on             energy=1.00D-06.
 No special actions if energy rises.
 EnCoef did     1 forward-backward iterations
 EnCoef did     4 forward-backward iterations
 EnCoef did    10 forward-backward iterations
 Restarting incremental Fock formation.
 SCF Done:  E(RPBE1PBE) =  -3774.74869623     A.U. after   25 cycles
            NFock= 25  Conv=0.78D-08     -V/T= 2.0184
 DoSCS=F DFT=T ScalE2(SS,OS)=  1.000000  1.000000
 Range of M.O.s used for correlation:     1  2107
 NBasis=  2107 NAE=   231 NBE=   231 NFC=     0 NFV=     0
 NROrb=   2107 NOA=   231 NOB=   231 NVA=  1876 NVB=  1876

 **** Warning!!: The largest alpha MO coefficient is  0.42548765D+02

          Differentiating once with respect to magnetic field using GIAOs.
          Electric field/nuclear overlap derivatives assumed to be zero.
 FoFCou: FMM=F IPFlag=           0 FMFlag=      100000 FMFlg1=        2001
         NFxFlg=           0 DoJE=F BraDBF=F KetDBF=T FulRan=T
         wScrn=  0.000000 ICntrl=    6100 IOpCl=  0 I1Cent=           7 NGrid=          93
         NMat0=    1 NMatS0=      1 NMatT0=    0 NMatD0=    1 NMtDS0=    0 NMtDT0=    0
 Symmetry not used in FoFCou.
   1 Symmetry operations used in ECPInt.
 ECPInt:  NShTT=  326028 NPrTT= 1021761 LenC2=  326029 LenP2D= 1021761.
 LDataN:  DoStor=T MaxTD1= 7 Len=  274
 FoFJK:  IHMeth= 1 ICntrl=    6127 DoSepK=F KAlg= 0 I1Cent=   0 FoldK=F
 IRaf=         1 NMat=   1 IRICut=       1 DoRegI=T DoRafI=F ISym2E= 0.
          There are     3 degrees of freedom in the 1st order CPHF.  IDoFFX=0 NUNeed=     3.
      3 vectors produced by pass  0 Test12= 1.44D-11 3.33D-08 XBig12= 3.10D+02 2.29D+00.
 AX will form     3 AO Fock derivatives at one time.
      3 vectors produced by pass  1 Test12= 1.44D-11 3.33D-08 XBig12= 1.77D+00 5.17D-01.
      3 vectors produced by pass  2 Test12= 1.44D-11 3.33D-08 XBig12= 9.26D-02 9.29D-02.
      3 vectors produced by pass  3 Test12= 1.44D-11 3.33D-08 XBig12= 1.17D-03 7.41D-03.
      3 vectors produced by pass  4 Test12= 1.44D-11 3.33D-08 XBig12= 2.58D-05 1.76D-03.
      3 vectors produced by pass  5 Test12= 1.44D-11 3.33D-08 XBig12= 7.08D-07 1.46D-04.
      3 vectors produced by pass  6 Test12= 1.44D-11 3.33D-08 XBig12= 4.38D-09 1.74D-05.
      3 vectors produced by pass  7 Test12= 1.44D-11 3.33D-08 XBig12= 4.44D-11 2.73D-06.
      3 vectors produced by pass  8 Test12= 1.44D-11 3.33D-08 XBig12= 2.47D-12 6.26D-07.
 InvSVY:  IOpt=1 It=  1 EMax= 1.42D-14
 Solved reduced A of dimension    27 with     3 vectors.
 Calculating GIAO nuclear magnetic shielding tensors.
 SCF GIAO Magnetic shielding tensor (ppm):
      1  C    Isotropic =   108.0225   Anisotropy =    96.5792
   XX=    68.6219   YX=    32.5298   ZX=    -5.5245
   XY=    45.3142   YY=   137.1112   ZY=   -31.2398
   XZ=   -12.1819   YZ=   -28.5656   ZZ=   118.3344
   Eigenvalues:    50.7149   100.9439   172.4086
      2  C    Isotropic =   112.0705   Anisotropy =    89.4110
   XX=   114.2929   YX=     9.5692   ZX=    -5.8540
   XY=    12.7119   YY=   115.8959   ZY=   -66.8014
   XZ=    -3.6765   YZ=   -49.6558   ZZ=   106.0226
   Eigenvalues:    52.2554   112.2782   171.6778
      3  C    Isotropic =   113.1430   Anisotropy =    86.8230
   XX=    64.0890   YX=    -9.4580   ZX=   -19.7224
   XY=   -22.6486   YY=   148.7895   ZY=   -33.3884
   XZ=   -14.0830   YZ=   -29.2629   ZZ=   126.5504
   Eigenvalues:    53.5372   114.8668   171.0249
      4  C    Isotropic =   112.3567   Anisotropy =    89.0689
   XX=    84.3876   YX=    19.4353   ZX=    25.5858
   XY=    10.9291   YY=   159.7894   ZY=   -23.3552
   XZ=    27.1095   YZ=   -37.1801   ZZ=    92.8932
   Eigenvalues:    52.6358   112.6984   171.7360
      5  C    Isotropic =   110.0893   Anisotropy =    93.0283
   XX=    96.6490   YX=     8.0300   ZX=   -24.7178
   XY=     9.4634   YY=   160.5518   ZY=   -20.8379
   XZ=   -29.0690   YZ=   -34.3471   ZZ=    73.0671
   Eigenvalues:    52.1498   106.0099   172.1081
      6  H    Isotropic =    27.4300   Anisotropy =     6.1399
   XX=    26.0573   YX=     0.9002   ZX=    -0.2268
   XY=     0.3569   YY=    28.1604   ZY=     3.7492
   XZ=    -0.2086   YZ=     3.0320   ZZ=    28.0723
   Eigenvalues:    24.4958    26.2710    31.5233
      7  H    Isotropic =    27.6419   Anisotropy =     7.0448
   XX=    31.0064   YX=     1.8006   ZX=     2.1636
   XY=     2.0838   YY=    26.0609   ZY=     1.0567
   XZ=     1.6134   YZ=     0.6751   ZZ=    25.8583
   Eigenvalues:    25.0797    25.5076    32.3384
      8  H    Isotropic =    27.2838   Anisotropy =     4.6129
   XX=    28.4478   YX=     0.6550   ZX=    -2.3281
   XY=     0.0039   YY=    25.9727   ZY=     0.9476
   XZ=    -2.1329   YZ=     2.1946   ZZ=    27.4307
   Eigenvalues:    24.3295    27.1627    30.3590
      9  H    Isotropic =    26.9438   Anisotropy =     6.0286
   XX=    25.6411   YX=     1.2112   ZX=     1.8900
   XY=     1.6706   YY=    26.5575   ZY=     1.3714
   XZ=     2.1177   YZ=     2.5741   ZZ=    28.6327
   Eigenvalues:    24.4677    25.4007    30.9629
     10  H    Isotropic =    27.6334   Anisotropy =     3.4564
   XX=    29.6629   YX=    -0.4219   ZX=    -1.2600
   XY=    -0.6325   YY=    27.4465   ZY=     0.4923
   XZ=    -0.3130   YZ=    -0.1614   ZZ=    25.7908
   Eigenvalues:    25.6350    27.3275    29.9376
     11  Fe   Isotropic = -6218.8006   Anisotropy =  8341.7081
   XX= -8833.9684   YX=   962.8105   ZX=  -484.3984
   XY=   932.7204   YY= -3119.3339   ZY= -3713.4761
   XZ=  -496.9332   YZ= -3695.6637   ZZ= -6703.0996
   Eigenvalues: -9090.6030 -8908.1370  -657.6619
     12  C    Isotropic =   113.8980   Anisotropy =    90.5442
   XX=    91.7093   YX=     5.1017   ZX=   -31.9592
   XY=    15.2842   YY=   158.8147   ZY=   -20.6741
   XZ=   -43.1251   YZ=   -31.2638   ZZ=    91.1700
   Eigenvalues:    52.6016   114.8317   174.2608
     13  C    Isotropic =   103.5824   Anisotropy =    89.2132
   XX=    62.1994   YX=    46.9720   ZX=    11.6635
   XY=    47.0498   YY=   118.7465   ZY=   -32.8376
   XZ=   -10.8180   YZ=   -22.1416   ZZ=   129.8012
   Eigenvalues:    33.4981   114.1912   163.0578
     14  C    Isotropic =    89.9094   Anisotropy =    96.4072
   XX=    66.5320   YX=     5.6487   ZX=    -6.6413
   XY=     4.6897   YY=    87.9335   ZY=   -57.4645
   XZ=    -5.7069   YZ=   -42.5581   ZZ=   115.2627
   Eigenvalues:    49.7455    65.8018   154.1809
     15  C    Isotropic =    93.7613   Anisotropy =    78.4700
   XX=    58.7201   YX=     3.7762   ZX=     0.3728
   XY=   -15.9384   YY=   121.2623   ZY=   -32.4089
   XZ=    20.0252   YZ=   -31.3763   ZZ=   101.3015
   Eigenvalues:    56.3731    78.8362   146.0746
     16  C    Isotropic =   113.8592   Anisotropy =    82.9799
   XX=   113.7443   YX=     9.6913   ZX=    15.9480
   XY=    -2.4846   YY=   152.7812   ZY=   -32.6091
   XZ=    24.9106   YZ=   -44.8732   ZZ=    75.0522
   Eigenvalues:    52.3398   120.0587   169.1791
     17  H    Isotropic =    28.1899   Anisotropy =     6.6549
   XX=    29.5876   YX=     1.3760   ZX=     3.9104
   XY=     0.4952   YY=    28.2535   ZY=     1.9472
   XZ=     3.3849   YZ=     0.7898   ZZ=    26.7287
   Eigenvalues:    24.1449    27.7985    32.6265
     18  H    Isotropic =    27.4138   Anisotropy =     3.4210
   XX=    29.2821   YX=    -0.8541   ZX=     0.7657
   XY=    -1.1507   YY=    25.8450   ZY=     3.0546
   XZ=     1.0987   YZ=     3.1120   ZZ=    27.1144
   Eigenvalues:    23.0331    29.5139    29.6944
     19  C    Isotropic =   154.9668   Anisotropy =    22.0042
   XX=   169.3253   YX=    -0.4888   ZX=    -4.7386
   XY=     2.4983   YY=   155.5828   ZY=    -3.5057
   XZ=     0.0936   YZ=    -4.5524   ZZ=   139.9924
   Eigenvalues:   138.8783   156.3860   169.6363
     20  P    Isotropic =   298.4994   Anisotropy =    85.3364
   XX=   265.7037   YX=   -24.5990   ZX=     0.3886
   XY=   -33.8990   YY=   345.8175   ZY=    -3.0292
   XZ=    -8.5135   YZ=    -2.7346   ZZ=   283.9770
   Eigenvalues:   255.3703   284.7375   355.3903
     21  H    Isotropic =    27.0220   Anisotropy =     4.0429
   XX=    27.0218   YX=    -0.5258   ZX=    -0.7112
   XY=     1.7526   YY=    24.6844   ZY=    -1.6550
   XZ=     0.7237   YZ=    -0.9929   ZZ=    29.3598
   Eigenvalues:    24.2095    27.1392    29.7173
     22  C    Isotropic =   168.4805   Anisotropy =    10.1804
   XX=   174.2868   YX=     0.8406   ZX=    -2.3021
   XY=    -0.2099   YY=   168.1366   ZY=     7.8644
   XZ=    -0.6426   YZ=     9.8834   ZZ=   163.0182
   Eigenvalues:   156.2383   173.9358   175.2675
     23  H    Isotropic =    30.0844   Anisotropy =    10.3192
   XX=    36.5393   YX=    -3.0221   ZX=     0.2088
   XY=     0.3458   YY=    29.6991   ZY=     1.2378
   XZ=     3.6129   YZ=     3.5253   ZZ=    24.0149
   Eigenvalues:    22.7788    30.5106    36.9639
     24  H    Isotropic =    29.2029   Anisotropy =     8.0374
   XX=    29.8976   YX=     1.4991   ZX=    -1.8130
   XY=     3.6441   YY=    32.9399   ZY=     1.5585
   XZ=     0.1122   YZ=     2.1779   ZZ=    24.7712
   Eigenvalues:    24.0064    29.0411    34.5612
     25  H    Isotropic =    30.1883   Anisotropy =     7.5635
   XX=    29.1299   YX=    -0.2559   ZX=    -2.9035
   XY=     3.0719   YY=    26.6672   ZY=     0.9186
   XZ=    -0.1244   YZ=     1.4745   ZZ=    34.7679
   Eigenvalues:    25.6967    29.6376    35.2307
     26  C    Isotropic =    55.4356   Anisotropy =   189.9784
   XX=   -33.2277   YX=    27.1282   ZX=    25.5217
   XY=    27.6334   YY=   108.9457   ZY=    72.4346
   XZ=    23.9300   YZ=    78.4526   ZZ=    90.5889
   Eigenvalues:   -39.5503    23.7694   182.0879
     27  C    Isotropic =    45.8530   Anisotropy =   162.7000
   XX=    11.3793   YX=    -5.8463   ZX=    41.2252
   XY=    -6.8885   YY=    73.6256   ZY=    87.2624
   XZ=    36.7189   YZ=    87.4242   ZZ=    52.5542
   Eigenvalues:   -45.3504    28.5897   154.3196
     28  C    Isotropic =    43.8832   Anisotropy =   183.6157
   XX=    11.9275   YX=    43.6778   ZX=   -11.5686
   XY=    48.0359   YY=    62.0289   ZY=    99.5396
   XZ=    -3.5910   YZ=   103.0553   ZZ=    57.6932
   Eigenvalues:   -61.5239    26.8799   166.2937
     29  C    Isotropic =    34.0108   Anisotropy =   213.9889
   XX=   -40.9831   YX=    28.7530   ZX=    28.5899
   XY=    30.6298   YY=    78.3781   ZY=    98.6935
   XZ=    28.2923   YZ=    95.6151   ZZ=    64.6375
   Eigenvalues:   -48.7620   -25.8756   176.6701
     30  C    Isotropic =    38.3959   Anisotropy =   198.0798
   XX=    -5.4131   YX=     5.8456   ZX=    40.1807
   XY=    -5.1245   YY=    82.9158   ZY=    98.2097
   XZ=    46.7762   YZ=   108.3029   ZZ=    37.6848
   Eigenvalues:   -65.3761    10.1146   170.4491
     31  C    Isotropic =    46.7473   Anisotropy =   162.1928
   XX=    21.4397   YX=    36.6320   ZX=    -8.0511
   XY=    39.4658   YY=    60.6615   ZY=    93.5970
   XZ=    -2.2332   YZ=    88.7544   ZZ=    58.1407
   Eigenvalues:   -46.0505    31.4165   154.8758
     32  H    Isotropic =    23.3274   Anisotropy =    10.0052
   XX=    21.7721   YX=    -0.3507   ZX=    -1.4870
   XY=    -0.3469   YY=    24.1552   ZY=    -5.7337
   XZ=    -1.0646   YZ=    -5.9466   ZZ=    24.0548
   Eigenvalues:    17.9174    22.0672    29.9975
     33  C    Isotropic =    48.9124   Anisotropy =    14.0103
   XX=    55.1461   YX=    -4.7423   ZX=     3.2433
   XY=    -4.8033   YY=    48.0533   ZY=    -0.0305
   XZ=     3.5665   YZ=    -0.7277   ZZ=    43.5377
   Eigenvalues:    42.4174    46.0672    58.2526
     34  H    Isotropic =    22.8596   Anisotropy =    12.7263
   XX=    27.6118   YX=     2.2018   ZX=    -5.9010
   XY=     2.4338   YY=    19.4457   ZY=    -0.4657
   XZ=    -5.1500   YZ=    -0.9578   ZZ=    21.5213
   Eigenvalues:    17.9553    19.2797    31.3438
     35  H    Isotropic =    23.5855   Anisotropy =    16.1951
   XX=    30.7827   YX=    -8.4911   ZX=     1.3987
   XY=    -4.6761   YY=    21.3819   ZY=     0.8643
   XZ=     2.9552   YZ=    -0.3518   ZZ=    18.5919
   Eigenvalues:    16.9554    19.4189    34.3822
     36  C    Isotropic =    48.8031   Anisotropy =    15.1481
   XX=    55.8882   YX=     1.0415   ZX=    -6.7937
   XY=     2.2567   YY=    46.1832   ZY=     0.9935
   XZ=    -6.0842   YZ=    -0.1201   ZZ=    44.3380
   Eigenvalues:    41.2275    46.2801    58.9018
     37  C    Isotropic =    57.5508   Anisotropy =   187.5181
   XX=   149.0999   YX=   -64.5125   ZX=   -14.4382
   XY=   -69.2633   YY=    48.7683   ZY=   -19.9975
   XZ=    -9.8368   YZ=   -19.7457   ZZ=   -25.2159
   Eigenvalues:   -35.7696    25.8590   182.5629
     38  C    Isotropic =    46.2695   Anisotropy =   168.7337
   XX=   125.0146   YX=   -63.6136   ZX=    23.4796
   XY=   -64.8422   YY=    36.0967   ZY=    28.8483
   XZ=    17.9850   YZ=    33.4349   ZZ=   -22.3029
   Eigenvalues:   -49.1889    29.2387   158.7586
     39  C    Isotropic =    52.3634   Anisotropy =   203.3071
   XX=   138.5698   YX=   -93.4212   ZX=     6.4541
   XY=   -99.1188   YY=    -1.1415   ZY=   -12.7266
   XZ=     0.1293   YZ=    -2.5123   ZZ=    19.6620
   Eigenvalues:   -50.6296    19.8184   187.9015
     40  C    Isotropic =    30.7330   Anisotropy =   220.7714
   XX=   131.1358   YX=   -92.0087   ZX=    -0.5201
   XY=   -86.1023   YY=     8.1827   ZY=    -3.7930
   XZ=    -0.2612   YZ=   -10.7178   ZZ=   -47.1196
   Eigenvalues:   -50.7407   -34.9743   177.9139
     41  C    Isotropic =    47.6602   Anisotropy =   189.5017
   XX=   136.5753   YX=   -62.1919   ZX=    31.6194
   XY=   -81.2968   YY=    34.4753   ZY=    30.3266
   XZ=    15.2318   YZ=    21.1379   ZZ=   -28.0700
   Eigenvalues:   -51.4968    20.4828   173.9946
     42  C    Isotropic =    47.9587   Anisotropy =   162.6522
   XX=   111.4002   YX=   -85.4900   ZX=    -2.4877
   XY=   -81.7097   YY=     1.0413   ZY=    -4.7057
   XZ=    -2.8063   YZ=    -8.2565   ZZ=    31.4346
   Eigenvalues:   -44.5851    32.0677   156.3935
     43  H    Isotropic =    23.7583   Anisotropy =     9.3203
   XX=    22.4629   YX=     5.2757   ZX=    -0.0256
   XY=     4.1568   YY=    25.8631   ZY=    -2.3203
   XZ=    -0.9658   YZ=    -2.7190   ZZ=    22.9490
   Eigenvalues:    18.8451    22.4580    29.9719
     44  C    Isotropic =    48.2875   Anisotropy =    13.5324
   XX=    47.6612   YX=     2.8954   ZX=     5.5912
   XY=     3.2454   YY=    49.9170   ZY=     5.6137
   XZ=     3.6090   YZ=     5.6342   ZZ=    47.2845
   Eigenvalues:    41.9873    45.5662    57.3091
     45  H    Isotropic =    23.4590   Anisotropy =     8.9168
   XX=    23.0641   YX=    -2.6510   ZX=    -0.1569
   XY=    -1.6670   YY=    18.0101   ZY=     2.2231
   XZ=     0.4816   YZ=    -0.0827   ZZ=    29.3027
   Eigenvalues:    17.1211    23.8523    29.4035
     46  H    Isotropic =    23.7221   Anisotropy =    11.8451
   XX=    22.6151   YX=     2.7581   ZX=     1.3990
   XY=     0.8844   YY=    26.9131   ZY=     5.5257
   XZ=    -0.0344   YZ=     7.3231   ZZ=    21.6379
   Eigenvalues:    17.2912    22.2561    31.6188
     47  C    Isotropic =    48.5646   Anisotropy =    11.9725
   XX=    47.3076   YX=     1.2123   ZX=     0.5368
   XY=     0.9608   YY=    41.8649   ZY=    -0.2511
   XZ=     0.3442   YZ=    -0.3267   ZZ=    56.5215
   Eigenvalues:    41.6469    47.5007    56.5463
     48  F    Isotropic =   247.0332   Anisotropy =   137.4305
   XX=   266.1295   YX=   -20.0813   ZX=    59.1360
   XY=    -4.1329   YY=   181.1744   ZY=    40.3471
   XZ=    49.6710   YZ=    27.9847   ZZ=   293.7956
   Eigenvalues:   163.5095   238.9365   338.6535
     49  F    Isotropic =   248.1258   Anisotropy =   132.9163
   XX=   281.4040   YX=    -7.8947   ZX=   -59.8858
   XY=     6.8826   YY=   195.1230   ZY=   -52.4654
   XZ=   -49.1079   YZ=   -41.3593   ZZ=   267.8503
   Eigenvalues:   165.9401   241.7005   336.7367
     50  F    Isotropic =   217.9129   Anisotropy =   152.5217
   XX=   187.3348   YX=   -90.5328   ZX=   -10.5395
   XY=   -88.7838   YY=   258.5864   ZY=    -2.4049
   XZ=    -8.8836   YZ=    -0.6892   ZZ=   207.8174
   Eigenvalues:   125.5192   208.6254   319.5940
     51  F    Isotropic =   229.8193   Anisotropy =   145.5750
   XX=   237.6851   YX=   -32.1063   ZX=   -30.5382
   XY=   -28.3937   YY=   200.1213   ZY=    68.1810
   XZ=   -39.4521   YZ=    77.3408   ZZ=   251.6515
   Eigenvalues:   148.4297   214.1589   326.8693
     52  F    Isotropic =   251.4391   Anisotropy =   116.8719
   XX=   286.5780   YX=    29.4655   ZX=    21.0815
   XY=    35.9990   YY=   297.8435   ZY=    27.1221
   XZ=     4.3360   YZ=    16.8700   ZZ=   169.8958
   Eigenvalues:   165.7653   259.1984   329.3537
     53  F    Isotropic =   222.7929   Anisotropy =   150.9182
   XX=   228.7994   YX=   -44.0352   ZX=    80.9965
   XY=   -46.0867   YY=   221.8814   ZY=   -13.2999
   XZ=    83.9287   YZ=   -12.2299   ZZ=   217.6978
   Eigenvalues:   134.6339   210.3397   323.4050
     54  F    Isotropic =   244.0263   Anisotropy =   137.5925
   XX=   202.5758   YX=   -26.0218   ZX=    35.5873
   XY=   -41.7182   YY=   324.4680   ZY=    -1.6871
   XZ=    36.7453   YZ=   -15.8694   ZZ=   205.0351
   Eigenvalues:   165.3546   230.9697   335.7546
     55  F    Isotropic =   247.8527   Anisotropy =   139.8411
   XX=   334.4948   YX=     6.4341   ZX=    32.3176
   XY=    16.2210   YY=   216.3382   ZY=    45.7529
   XZ=    15.4689   YZ=    33.1727   ZZ=   192.7249
   Eigenvalues:   162.4117   240.0662   341.0800
     56  F    Isotropic =   223.0670   Anisotropy =   143.4253
   XX=   192.1587   YX=   -36.5688   ZX=     4.6694
   XY=   -37.5847   YY=   173.4219   ZY=    46.0426
   XZ=     5.6402   YZ=    46.3375   ZZ=   303.6204
   Eigenvalues:   134.8575   215.6596   318.6838
     57  F    Isotropic =   247.6788   Anisotropy =   138.6256
   XX=   302.0252   YX=   -32.2248   ZX=   -41.7123
   XY=   -38.0296   YY=   240.6529   ZY=    60.5211
   XZ=   -29.7320   YZ=    42.3191   ZZ=   200.3582
   Eigenvalues:   164.4649   238.4756   340.0958
     58  F    Isotropic =   219.5177   Anisotropy =   147.8755
   XX=   219.8467   YX=    33.9753   ZX=    30.5837
   XY=    34.1577   YY=   147.8441   ZY=    42.4268
   XZ=    31.0189   YZ=    41.7798   ZZ=   290.8623
   Eigenvalues:   128.9159   211.5358   318.1014
     59  F    Isotropic =   245.8679   Anisotropy =   138.9607
   XX=   219.3984   YX=    54.3828   ZX=   -40.4920
   XY=    75.0814   YY=   290.5906   ZY=    -6.6269
   XZ=   -45.6911   YZ=   -16.2205   ZZ=   227.6146
   Eigenvalues:   164.0808   235.0145   338.5083
     60  P    Isotropic =   288.4118   Anisotropy =    37.9205
   XX=   291.6693   YX=    -2.4509   ZX=   -19.7451
   XY=   -21.5167   YY=   282.7175   ZY=    16.7211
   XZ=    14.2110   YZ=    27.1762   ZZ=   290.8485
   Eigenvalues:   262.4233   289.1198   313.6921
     61  C    Isotropic =    50.7097   Anisotropy =   190.8889
   XX=   -49.8236   YX=   -11.7488   ZX=   -26.3087
   XY=    -9.0252   YY=   154.9629   ZY=   -54.0899
   XZ=   -26.5841   YZ=   -55.6923   ZZ=    46.9899
   Eigenvalues:   -59.4913    33.6515   177.9690
     62  C    Isotropic =    51.2199   Anisotropy =   186.9214
   XX=   -11.7208   YX=    20.4362   ZX=    48.6638
   XY=    19.6485   YY=   146.5935   ZY=   -68.8276
   XZ=    45.3743   YZ=   -66.7026   ZZ=    18.7869
   Eigenvalues:   -62.2032    40.0286   175.8341
     63  C    Isotropic =    37.9463   Anisotropy =   199.8724
   XX=    18.9833   YX=    -3.1164   ZX=    -8.8161
   XY=   -16.8596   YY=   135.5512   ZY=   -85.8350
   XZ=   -18.1204   YZ=   -87.6520   ZZ=   -40.6958
   Eigenvalues:   -78.9244    21.5687   171.1945
     64  C    Isotropic =    39.7769   Anisotropy =   207.7085
   XX=   -45.9408   YX=    -5.0304   ZX=   -19.9991
   XY=    -4.3575   YY=   148.9879   ZY=   -69.3289
   XZ=   -17.1446   YZ=   -68.2486   ZZ=    16.2837
   Eigenvalues:   -54.5819    -4.3366   178.2492
     65  C    Isotropic =    40.0060   Anisotropy =   196.1363
   XX=   -30.5493   YX=    19.0873   ZX=    50.4146
   XY=    15.8672   YY=   139.9578   ZY=   -73.2299
   XZ=    49.8217   YZ=   -67.0050   ZZ=    10.6095
   Eigenvalues:   -78.5411    27.7957   170.7635
     66  C    Isotropic =    52.3900   Anisotropy =   187.4845
   XX=    33.7943   YX=    -8.9389   ZX=   -17.5515
   XY=   -11.0874   YY=   143.0630   ZY=   -80.2313
   XZ=   -16.3881   YZ=   -84.0941   ZZ=   -19.6874
   Eigenvalues:   -58.0987    37.8889   177.3797
     67  H    Isotropic =    23.8754   Anisotropy =     2.8124
   XX=    24.7918   YX=    -1.1324   ZX=     0.5089
   XY=    -1.7875   YY=    21.7534   ZY=     1.5276
   XZ=     0.1909   YZ=     1.4982   ZZ=    25.0809
   Eigenvalues:    20.6348    25.2410    25.7503
     68  H    Isotropic =    24.1473   Anisotropy =     6.8859
   XX=    27.4244   YX=    -0.2993   ZX=     3.1503
   XY=    -0.9729   YY=    21.8600   ZY=     1.3584
   XZ=     2.2630   YZ=     0.9803   ZZ=    23.1574
   Eigenvalues:    20.5223    23.1817    28.7379
     69  H    Isotropic =    24.4640   Anisotropy =    13.4467
   XX=    32.5525   YX=    -3.5675   ZX=     2.9559
   XY=    -2.1751   YY=    21.9251   ZY=    -0.8695
   XZ=    -0.7034   YZ=    -2.1995   ZZ=    18.9143
   Eigenvalues:    18.2696    21.6939    33.4284
     70  H    Isotropic =    23.9104   Anisotropy =     7.3309
   XX=    22.3777   YX=     0.8123   ZX=     4.6900
   XY=     0.6546   YY=    23.8676   ZY=    -1.9881
   XZ=     4.3321   YZ=    -0.7022   ZZ=    25.4857
   Eigenvalues:    18.7836    24.1499    28.7976
     71  H    Isotropic =    23.9872   Anisotropy =     5.5397
   XX=    26.8871   YX=    -0.9149   ZX=     1.2389
   XY=    -1.8461   YY=    21.3905   ZY=    -0.6952
   XZ=     1.3686   YZ=    -0.1348   ZZ=    23.6840
   Eigenvalues:    21.0587    23.2226    27.6803
     72  H    Isotropic =    29.3574   Anisotropy =     6.0620
   XX=    29.3957   YX=     0.8839   ZX=     1.9734
   XY=    -2.7865   YY=    31.8211   ZY=    -3.3800
   XZ=     0.5579   YZ=    -1.7813   ZZ=    26.8554
   Eigenvalues:    25.5808    29.0926    33.3987
     73  C    Isotropic =    51.0603   Anisotropy =   193.4474
   XX=   167.1853   YX=   -35.9024   ZX=    13.2447
   XY=   -46.7687   YY=    10.5659   ZY=   -46.5894
   XZ=     8.5574   YZ=   -51.8434   ZZ=   -24.5701
   Eigenvalues:   -60.3064    33.4622   180.0252
     74  C    Isotropic =    51.0912   Anisotropy =   190.5576
   XX=   161.1030   YX=   -42.2445   ZX=    35.1249
   XY=   -45.7357   YY=    33.8813   ZY=    19.9093
   XZ=    33.8841   YZ=    22.9348   ZZ=   -41.7108
   Eigenvalues:   -56.9929    32.1369   178.1296
     75  C    Isotropic =    43.0016   Anisotropy =   170.3594
   XX=   136.9133   YX=   -60.2710   ZX=    10.9729
   XY=   -59.2641   YY=   -39.1027   ZY=    11.7709
   XZ=    21.1737   YZ=     6.6915   ZZ=    31.1943
   Eigenvalues:   -59.5187    31.9490   156.5746
     76  C    Isotropic =    40.5533   Anisotropy =   193.3267
   XX=   156.0915   YX=   -46.5682   ZX=    -1.2774
   XY=   -45.4372   YY=    -9.9538   ZY=   -35.3678
   XZ=    14.2883   YZ=   -45.8421   ZZ=   -24.4779
   Eigenvalues:   -61.4851    13.7072   169.4377
     77  C    Isotropic =    29.8830   Anisotropy =   211.0657
   XX=   161.8905   YX=   -37.7989   ZX=    13.5662
   XY=   -41.7108   YY=   -20.0790   ZY=    12.5204
   XZ=    11.6806   YZ=    16.6693   ZZ=   -52.1627
   Eigenvalues:   -61.2103   -19.7343   170.5934
     78  C    Isotropic =    51.0726   Anisotropy =   200.5582
   XX=   170.5448   YX=   -48.2915   ZX=     2.3439
   XY=   -66.1764   YY=   -48.8886   ZY=     9.5734
   XZ=    11.9516   YZ=     2.0011   ZZ=    31.5616
   Eigenvalues:   -63.4844    31.9242   184.7781
     79  H    Isotropic =    24.4862   Anisotropy =     3.7047
   XX=    23.4508   YX=     0.4179   ZX=    -2.5179
   XY=    -0.8895   YY=    24.9324   ZY=    -0.5798
   XZ=    -1.3731   YZ=    -2.2179   ZZ=    25.0753
   Eigenvalues:    21.8260    24.6766    26.9560
     80  H    Isotropic =    23.8338   Anisotropy =     2.9532
   XX=    23.8759   YX=     1.6673   ZX=    -1.2054
   XY=     0.0669   YY=    23.9688   ZY=     2.0673
   XZ=     0.0098   YZ=     1.8353   ZZ=    23.6568
   Eigenvalues:    21.4228    24.2761    25.8026
     81  H    Isotropic =    22.8873   Anisotropy =     7.5649
   XX=    20.3852   YX=     1.4821   ZX=     0.4326
   XY=     0.0649   YY=    21.9610   ZY=     3.0360
   XZ=     0.5151   YZ=     2.9780   ZZ=    26.3158
   Eigenvalues:    19.8909    20.8404    27.9306
     82  H    Isotropic =    24.1643   Anisotropy =     8.5236
   XX=    21.7342   YX=     1.5280   ZX=    -0.5741
   XY=    -0.5152   YY=    21.8708   ZY=    -0.8600
   XZ=    -0.2493   YZ=    -4.5481   ZZ=    28.8878
   Eigenvalues:    20.8141    21.8320    29.8467
     83  C    Isotropic =    53.4554   Anisotropy =   183.9299
   XX=    74.2339   YX=   -20.2617   ZX=   -60.8448
   XY=   -17.2342   YY=   -50.8686   ZY=    -2.6141
   XZ=   -64.8482   YZ=    -4.3730   ZZ=   137.0008
   Eigenvalues:   -54.5898    38.8806   176.0753
     84  C    Isotropic =    52.1646   Anisotropy =   187.3985
   XX=     9.1301   YX=   -26.6145   ZX=  -100.7491
   XY=   -28.5502   YY=    28.3883   ZY=   -14.6944
   XZ=   -96.8413   YZ=   -15.1296   ZZ=   118.9752
   Eigenvalues:   -60.0817    39.4785   177.0969
     85  C    Isotropic =    46.9670   Anisotropy =   188.1078
   XX=    19.4125   YX=    37.5372   ZX=   -91.7367
   XY=    32.8510   YY=    -4.0951   ZY=    20.2397
   XZ=   -76.6326   YZ=    36.0211   ZZ=   125.5835
   Eigenvalues:   -61.5147    30.0435   172.3722
     86  C    Isotropic =    41.5065   Anisotropy =   192.2533
   XX=    50.5428   YX=   -14.7068   ZX=   -66.2053
   XY=   -11.6627   YY=   -45.5297   ZY=     7.7386
   XZ=   -86.9716   YZ=     3.5281   ZZ=   119.5064
   Eigenvalues:   -47.5058     2.3499   169.6754
     87  C    Isotropic =    48.5284   Anisotropy =   187.5475
   XX=     2.5808   YX=   -23.7804   ZX=  -105.2165
   XY=   -18.4383   YY=    28.2530   ZY=    -7.6578
   XZ=   -95.2492   YZ=   -11.7831   ZZ=   114.7513
   Eigenvalues:   -62.1113    34.1364   173.5600
     88  C    Isotropic =    50.8652   Anisotropy =   185.3929
   XX=    33.3208   YX=    37.3243   ZX=   -87.6495
   XY=    40.7275   YY=    -1.9083   ZY=    30.0515
   XZ=   -85.3528   YZ=    30.9793   ZZ=   121.1831
   Eigenvalues:   -60.9179    39.0530   174.4604
     89  H    Isotropic =    23.9852   Anisotropy =     4.5656
   XX=    24.7003   YX=    -1.1366   ZX=     3.0185
   XY=    -0.3770   YY=    25.3170   ZY=    -0.5579
   XZ=     2.5524   YZ=    -0.8429   ZZ=    21.9383
   Eigenvalues:    20.2025    24.7241    27.0289
     90  H    Isotropic =    23.5868   Anisotropy =     9.2093
   XX=    21.1550   YX=    -2.0015   ZX=     2.2347
   XY=    -1.2960   YY=    28.8041   ZY=    -2.0148
   XZ=     1.8321   YZ=    -1.7233   ZZ=    20.8014
   Eigenvalues:    18.9288    22.1053    29.7264
     91  H    Isotropic =    23.7471   Anisotropy =     8.6937
   XX=    24.1656   YX=     2.1625   ZX=     5.2509
   XY=     2.9080   YY=    27.7995   ZY=     0.4517
   XZ=     1.5579   YZ=     0.5550   ZZ=    19.2762
   Eigenvalues:    17.4772    24.2213    29.5429
     92  H    Isotropic =    24.7117   Anisotropy =    14.9752
   XX=    20.9336   YX=    -1.3254   ZX=     2.1338
   XY=     2.1311   YY=    34.2916   ZY=    -1.3055
   XZ=    -0.3262   YZ=    -3.7114   ZZ=    18.9098
   Eigenvalues:    18.1790    21.2609    34.6952
     93  H    Isotropic =    24.0866   Anisotropy =     6.6793
   XX=    23.0630   YX=     1.4173   ZX=     2.0830
   XY=     1.9689   YY=    27.9136   ZY=     0.6337
   XZ=     1.8173   YZ=    -0.1999   ZZ=    21.2831
   Eigenvalues:    19.9569    23.7633    28.5394
 End of Minotr F.D. properties file   721 does not exist.
 End of Minotr F.D. properties file   722 does not exist.
 End of Minotr F.D. properties file   788 does not exist.

 **********************************************************************

            Population analysis using the SCF density.

 **********************************************************************

 Orbital symmetries:
       Occupied  (A) (A) (A) (A) (A) (A) (A) (A) (A) (A) (A) (A)
                 (A) (A) (A) (A) (A) (A) (A) (A) (A) (A) (A) (A)
                 (A) (A) (A) (A) (A) (A) (A) (A) (A) (A) (A) (A)
                 (A) (A) (A) (A) (A) (A) (A) (A) (A) (A) (A) (A)
                 (A) (A) (A) (A) (A) (A) (A) (A) (A) (A) (A) (A)
                 (A) (A) (A) (A) (A) (A) (A) (A) (A) (A) (A) (A)
                 (A) (A) (A) (A) (A) (A) (A) (A) (A) (A) (A) (A)
                 (A) (A) (A) (A) (A) (A) (A) (A) (A) (A) (A) (A)
                 (A) (A) (A) (A) (A) (A) (A) (A) (A) (A) (A) (A)
                 (A) (A) (A) (A) (A) (A) (A) (A) (A) (A) (A) (A)
                 (A) (A) (A) (A) (A) (A) (A) (A) (A) (A) (A) (A)
                 (A) (A) (A) (A) (A) (A) (A) (A) (A) (A) (A) (A)
                 (A) (A) (A) (A) (A) (A) (A) (A) (A) (A) (A) (A)
                 (A) (A) (A) (A) (A) (A) (A) (A) (A) (A) (A) (A)
                 (A) (A) (A) (A) (A) (A) (A) (A) (A) (A) (A) (A)
                 (A) (A) (A) (A) (A) (A) (A) (A) (A) (A) (A) (A)
                 (A) (A) (A) (A) (A) (A) (A) (A) (A) (A) (A) (A)
                 (A) (A) (A) (A) (A) (A) (A) (A) (A) (A) (A) (A)
                 (A) (A) (A) (A) (A) (A) (A) (A) (A) (A) (A) (A)
                 (A) (A) (A)
       Virtual   (A) (A) (A) (A) (A) (A) (A) (A) (A) (A) (A) (A)
                 (A) (A) (A) (A) (A) (A) (A) (A) (A) (A) (A) (A)
                 (A) (A) (A) (A) (A) (A) (A) (A) (A) (A) (A) (A)
                 (A) (A) (A) (A) (A) (A) (A) (A) (A) (A) (A) (A)
                 (A) (A) (A) (A) (A) (A) (A) (A) (A) (A) (A) (A)
                 (A) (A) (A) (A) (A) (A) (A) (A) (A) (A) (A) (A)
                 (A) (A) (A) (A) (A) (A) (A) (A) (A) (A) (A) (A)
                 (A) (A) (A) (A) (A) (A) (A) (A) (A) (A) (A) (A)
                 (A) (A) (A) (A) (A) (A) (A) (A) (A) (A) (A) (A)
                 (A) (A) (A) (A) (A) (A) (A) (A) (A) (A) (A) (A)
                 (A) (A) (A) (A) (A) (A) (A) (A) (A) (A) (A) (A)
                 (A) (A) (A) (A) (A) (A) (A) (A) (A) (A) (A) (A)
                 (A) (A) (A) (A) (A) (A) (A) (A) (A) (A) (A) (A)
                 (A) (A) (A) (A) (A) (A) (A) (A) (A) (A) (A) (A)
                 (A) (A) (A) (A) (A) (A) (A) (A) (A) (A) (A) (A)
                 (A) (A) (A) (A) (A) (A) (A) (A) (A) (A) (A) (A)
                 (A) (A) (A) (A) (A) (A) (A) (A) (A) (A) (A) (A)
                 (A) (A) (A) (A) (A) (A) (A) (A) (A) (A) (A) (A)
                 (A) (A) (A) (A) (A) (A) (A) (A) (A) (A) (A) (A)
                 (A) (A) (A) (A) (A) (A) (A) (A) (A) (A) (A) (A)
                 (A) (A) (A) (A) (A) (A) (A) (A) (A) (A) (A) (A)
                 (A) (A) (A) (A) (A) (A) (A) (A) (A) (A) (A) (A)
                 (A) (A) (A) (A) (A) (A) (A) (A) (A) (A) (A) (A)
                 (A) (A) (A) (A) (A) (A) (A) (A) (A) (A) (A) (A)
                 (A) (A) (A) (A) (A) (A) (A) (A) (A) (A) (A) (A)
                 (A) (A) (A) (A) (A) (A) (A) (A) (A) (A) (A) (A)
                 (A) (A) (A) (A) (A) (A) (A) (A) (A) (A) (A) (A)
                 (A) (A) (A) (A) (A) (A) (A) (A) (A) (A) (A) (A)
                 (A) (A) (A) (A) (A) (A) (A) (A) (A) (A) (A) (A)
                 (A) (A) (A) (A) (A) (A) (A) (A) (A) (A) (A) (A)
                 (A) (A) (A) (A) (A) (A) (A) (A) (A) (A) (A) (A)
                 (A) (A) (A) (A) (A) (A) (A) (A) (A) (A) (A) (A)
                 (A) (A) (A) (A) (A) (A) (A) (A) (A) (A) (A) (A)
                 (A) (A) (A) (A) (A) (A) (A) (A) (A) (A) (A) (A)
                 (A) (A) (A) (A) (A) (A) (A) (A) (A) (A) (A) (A)
                 (A) (A) (A) (A) (A) (A) (A) (A) (A) (A) (A) (A)
                 (A) (A) (A) (A) (A) (A) (A) (A) (A) (A) (A) (A)
                 (A) (A) (A) (A) (A) (A) (A) (A) (A) (A) (A) (A)
                 (A) (A) (A) (A) (A) (A) (A) (A) (A) (A) (A) (A)
                 (A) (A) (A) (A) (A) (A) (A) (A) (A) (A) (A) (A)
                 (A) (A) (A) (A) (A) (A) (A) (A) (A) (A) (A) (A)
                 (A) (A) (A) (A) (A) (A) (A) (A) (A) (A) (A) (A)
                 (A) (A) (A) (A) (A) (A) (A) (A) (A) (A) (A) (A)
                 (A) (A) (A) (A) (A) (A) (A) (A) (A) (A) (A) (A)
                 (A) (A) (A) (A) (A) (A) (A) (A) (A) (A) (A) (A)
                 (A) (A) (A) (A) (A) (A) (A) (A) (A) (A) (A) (A)
                 (A) (A) (A) (A) (A) (A) (A) (A) (A) (A) (A) (A)
                 (A) (A) (A) (A) (A) (A) (A) (A) (A) (A) (A) (A)
                 (A) (A) (A) (A) (A) (A) (A) (A) (A) (A) (A) (A)
                 (A) (A) (A) (A) (A) (A) (A) (A) (A) (A) (A) (A)
                 (A) (A) (A) (A) (A) (A) (A) (A) (A) (A) (A) (A)
                 (A) (A) (A) (A) (A) (A) (A) (A) (A) (A) (A) (A)
                 (A) (A) (A) (A) (A) (A) (A) (A) (A) (A) (A) (A)
                 (A) (A) (A) (A) (A) (A) (A) (A) (A) (A) (A) (A)
                 (A) (A) (A) (A) (A) (A) (A) (A) (A) (A) (A) (A)
                 (A) (A) (A) (A) (A) (A) (A) (A) (A) (A) (A) (A)
                 (A) (A) (A) (A) (A) (A) (A) (A) (A) (A) (A) (A)
                 (A) (A) (A) (A) (A) (A) (A) (A) (A) (A) (A) (A)
                 (A) (A) (A) (A) (A) (A) (A) (A) (A) (A) (A) (A)
                 (A) (A) (A) (A) (A) (A) (A) (A) (A) (A) (A) (A)
                 (A) (A) (A) (A) (A) (A) (A) (A) (A) (A) (A) (A)
                 (A) (A) (A) (A) (A) (A) (A) (A) (A) (A) (A) (A)
                 (A) (A) (A) (A) (A) (A) (A) (A) (A) (A) (A) (A)
                 (A) (A) (A) (A) (A) (A) (A) (A) (A) (A) (A) (A)
                 (A) (A) (A) (A) (A) (A) (A) (A) (A) (A) (A) (A)
                 (A) (A) (A) (A) (A) (A) (A) (A) (A) (A) (A) (A)
                 (A) (A) (A) (A) (A) (A) (A) (A) (A) (A) (A) (A)
                 (A) (A) (A) (A) (A) (A) (A) (A) (A) (A) (A) (A)
                 (A) (A) (A) (A) (A) (A) (A) (A) (A) (A) (A) (A)
                 (A) (A) (A) (A) (A) (A) (A) (A) (A) (A) (A) (A)
                 (A) (A) (A) (A) (A) (A) (A) (A) (A) (A) (A) (A)
                 (A) (A) (A) (A) (A) (A) (A) (A) (A) (A) (A) (A)
                 (A) (A) (A) (A) (A) (A) (A) (A) (A) (A) (A) (A)
                 (A) (A) (A) (A) (A) (A) (A) (A) (A) (A) (A) (A)
                 (A) (A) (A) (A) (A) (A) (A) (A) (A) (A) (A) (A)
                 (A) (A) (A) (A) (A) (A) (A) (A) (A) (A) (A) (A)
                 (A) (A) (A) (A) (A) (A) (A) (A) (A) (A) (A) (A)
                 (A) (A) (A) (A) (A) (A) (A) (A) (A) (A) (A) (A)
                 (A) (A) (A) (A) (A) (A) (A) (A) (A) (A) (A) (A)
                 (A) (A) (A) (A) (A) (A) (A) (A) (A) (A) (A) (A)
                 (A) (A) (A) (A) (A) (A) (A) (A) (A) (A) (A) (A)
                 (A) (A) (A) (A) (A) (A) (A) (A) (A) (A) (A) (A)
                 (A) (A) (A) (A) (A) (A) (A) (A) (A) (A) (A) (A)
                 (A) (A) (A) (A) (A) (A) (A) (A) (A) (A) (A) (A)
                 (A) (A) (A) (A) (A) (A) (A) (A) (A) (A) (A) (A)
                 (A) (A) (A) (A) (A) (A) (A) (A) (A) (A) (A) (A)
                 (A) (A) (A) (A) (A) (A) (A) (A) (A) (A) (A) (A)
                 (A) (A) (A) (A) (A) (A) (A) (A) (A) (A) (A) (A)
                 (A) (A) (A) (A) (A) (A) (A) (A) (A) (A) (A) (A)
                 (A) (A) (A) (A) (A) (A) (A) (A) (A) (A) (A) (A)
                 (A) (A) (A) (A) (A) (A) (A) (A) (A) (A) (A) (A)
                 (A) (A) (A) (A) (A) (A) (A) (A) (A) (A) (A) (A)
                 (A) (A) (A) (A) (A) (A) (A) (A) (A) (A) (A) (A)
                 (A) (A) (A) (A) (A) (A) (A) (A) (A) (A) (A) (A)
                 (A) (A) (A) (A) (A) (A) (A) (A) (A) (A) (A) (A)
                 (A) (A) (A) (A) (A) (A) (A) (A) (A) (A) (A) (A)
                 (A) (A) (A) (A) (A) (A) (A) (A) (A) (A) (A) (A)
                 (A) (A) (A) (A) (A) (A) (A) (A) (A) (A) (A) (A)
                 (A) (A) (A) (A) (A) (A) (A) (A) (A) (A) (A) (A)
                 (A) (A) (A) (A) (A) (A) (A) (A) (A) (A) (A) (A)
                 (A) (A) (A) (A) (A) (A) (A) (A) (A) (A) (A) (A)
                 (A) (A) (A) (A) (A) (A) (A) (A) (A) (A) (A) (A)
                 (A) (A) (A) (A) (A) (A) (A) (A) (A) (A) (A) (A)
                 (A) (A) (A) (A) (A) (A) (A) (A) (A) (A) (A) (A)
                 (A) (A) (A) (A) (A) (A) (A) (A) (A) (A) (A) (A)
                 (A) (A) (A) (A) (A) (A) (A) (A) (A) (A) (A) (A)
                 (A) (A) (A) (A) (A) (A) (A) (A) (A) (A) (A) (A)
                 (A) (A) (A) (A) (A) (A) (A) (A) (A) (A) (A) (A)
                 (A) (A) (A) (A) (A) (A) (A) (A) (A) (A) (A) (A)
                 (A) (A) (A) (A) (A) (A) (A) (A) (A) (A) (A) (A)
                 (A) (A) (A) (A) (A) (A) (A) (A) (A) (A) (A) (A)
                 (A) (A) (A) (A) (A) (A) (A) (A) (A) (A) (A) (A)
                 (A) (A) (A) (A) (A) (A) (A) (A) (A) (A) (A) (A)
                 (A) (A) (A) (A) (A) (A) (A) (A) (A) (A) (A) (A)
                 (A) (A) (A) (A) (A) (A) (A) (A) (A) (A) (A) (A)
                 (A) (A) (A) (A) (A) (A) (A) (A) (A) (A) (A) (A)
                 (A) (A) (A) (A) (A) (A) (A) (A) (A) (A) (A) (A)
                 (A) (A) (A) (A) (A) (A) (A) (A) (A) (A) (A) (A)
                 (A) (A) (A) (A) (A) (A) (A) (A) (A) (A) (A) (A)
                 (A) (A) (A) (A) (A) (A) (A) (A) (A) (A) (A) (A)
                 (A) (A) (A) (A) (A) (A) (A) (A) (A) (A) (A) (A)
                 (A) (A) (A) (A) (A) (A) (A) (A) (A) (A) (A) (A)
                 (A) (A) (A) (A) (A) (A) (A) (A) (A) (A) (A) (A)
                 (A) (A) (A) (A) (A) (A) (A) (A) (A) (A) (A) (A)
                 (A) (A) (A) (A) (A) (A) (A) (A) (A) (A) (A) (A)
                 (A) (A) (A) (A) (A) (A) (A) (A) (A) (A) (A) (A)
                 (A) (A) (A) (A) (A) (A) (A) (A) (A) (A) (A) (A)
                 (A) (A) (A) (A) (A) (A) (A) (A) (A) (A) (A) (A)
                 (A) (A) (A) (A) (A) (A) (A) (A) (A) (A) (A) (A)
                 (A) (A) (A) (A) (A) (A) (A) (A) (A) (A) (A) (A)
                 (A) (A) (A) (A) (A) (A) (A) (A) (A) (A) (A) (A)
                 (A) (A) (A) (A) (A) (A) (A) (A) (A) (A) (A) (A)
                 (A) (A) (A) (A) (A) (A) (A) (A) (A) (A) (A) (A)
                 (A) (A) (A) (A) (A) (A) (A) (A) (A) (A) (A) (A)
                 (A) (A) (A) (A) (A) (A) (A) (A) (A) (A) (A) (A)
                 (A) (A) (A) (A) (A) (A) (A) (A) (A) (A) (A) (A)
                 (A) (A) (A) (A) (A) (A) (A) (A) (A) (A) (A) (A)
                 (A) (A) (A) (A) (A) (A) (A) (A) (A) (A) (A) (A)
                 (A) (A) (A) (A) (A) (A) (A) (A) (A) (A) (A) (A)
                 (A) (A) (A) (A) (A) (A) (A) (A) (A) (A) (A) (A)
                 (A) (A) (A) (A) (A) (A) (A) (A) (A) (A) (A) (A)
                 (A) (A) (A) (A) (A) (A) (A) (A) (A) (A) (A) (A)
                 (A) (A) (A) (A) (A) (A) (A) (A) (A) (A) (A) (A)
                 (A) (A) (A) (A) (A) (A) (A) (A) (A) (A) (A) (A)
                 (A) (A) (A) (A) (A) (A) (A) (A) (A) (A) (A) (A)
                 (A) (A) (A) (A) (A) (A) (A) (A) (A) (A) (A) (A)
                 (A) (A) (A) (A) (A) (A) (A) (A) (A) (A) (A) (A)
                 (A) (A) (A) (A) (A) (A) (A) (A) (A) (A) (A) (A)
                 (A) (A) (A) (A) (A) (A) (A) (A) (A) (A) (A) (A)
                 (A) (A) (A) (A) (A) (A) (A) (A) (A) (A) (A) (A)
                 (A) (A) (A) (A) (A) (A) (A) (A) (A) (A) (A) (A)
                 (A) (A) (A) (A) (A) (A) (A) (A) (A) (A) (A) (A)
                 (A) (A) (A) (A) (A) (A) (A) (A) (A) (A) (A) (A)
                 (A) (A) (A) (A) (A) (A) (A) (A) (A) (A) (A) (A)
                 (A) (A) (A) (A) (A) (A) (A) (A) (A) (A) (A) (A)
                 (A) (A) (A) (A) (A) (A) (A) (A) (A) (A) (A) (A)
                 (A) (A) (A) (A)
 The electronic state is 1-A.
 Alpha  occ. eigenvalues --  -77.22204 -77.20676 -24.81566 -24.81564 -24.81544
 Alpha  occ. eigenvalues --  -24.81528 -24.81461 -24.81379 -24.81276 -24.81171
 Alpha  occ. eigenvalues --  -24.81150 -24.81073 -24.81066 -24.81005 -10.49101
 Alpha  occ. eigenvalues --  -10.48995 -10.48988 -10.48941 -10.28537 -10.28512
 Alpha  occ. eigenvalues --  -10.28135 -10.28072 -10.27973 -10.27625 -10.27606
 Alpha  occ. eigenvalues --  -10.27460 -10.27427 -10.27288 -10.27059 -10.26968
 Alpha  occ. eigenvalues --  -10.26878 -10.26184 -10.25627 -10.25565 -10.25268
 Alpha  occ. eigenvalues --  -10.24723 -10.24676 -10.24655 -10.24640 -10.24600
 Alpha  occ. eigenvalues --  -10.24599 -10.24588 -10.24556 -10.24383 -10.24356
 Alpha  occ. eigenvalues --  -10.24208 -10.24167 -10.24056 -10.24038 -10.23980
 Alpha  occ. eigenvalues --  -10.23878 -10.23802 -10.23691 -10.23662 -10.23631
 Alpha  occ. eigenvalues --  -10.23556 -10.23442 -10.23397 -10.23380 -10.23310
 Alpha  occ. eigenvalues --   -6.61804  -6.60279  -4.75412  -4.75354  -4.74920
 Alpha  occ. eigenvalues --   -4.73876  -4.73856  -4.73418  -3.60995  -2.25598
 Alpha  occ. eigenvalues --   -2.21279  -2.21224  -1.35001  -1.34962  -1.34949
 Alpha  occ. eigenvalues --   -1.34861  -1.26815  -1.26753  -1.26575  -1.26568
 Alpha  occ. eigenvalues --   -1.26378  -1.26297  -1.26220  -1.26158  -0.93337
 Alpha  occ. eigenvalues --   -0.93006  -0.92697  -0.90997  -0.89084  -0.88471
 Alpha  occ. eigenvalues --   -0.88062  -0.84863  -0.84534  -0.84458  -0.82034
 Alpha  occ. eigenvalues --   -0.81637  -0.80203  -0.79514  -0.77665  -0.77431
 Alpha  occ. eigenvalues --   -0.76804  -0.76770  -0.75019  -0.74772  -0.74216
 Alpha  occ. eigenvalues --   -0.74170  -0.74161  -0.73955  -0.73326  -0.73103
 Alpha  occ. eigenvalues --   -0.70264  -0.67296  -0.67270  -0.67100  -0.66810
 Alpha  occ. eigenvalues --   -0.66209  -0.64099  -0.63353  -0.63074  -0.62651
 Alpha  occ. eigenvalues --   -0.62354  -0.62245  -0.62241  -0.62190  -0.61953
 Alpha  occ. eigenvalues --   -0.61919  -0.61906  -0.61835  -0.61771  -0.61554
 Alpha  occ. eigenvalues --   -0.60345  -0.58255  -0.57529  -0.57039  -0.56686
 Alpha  occ. eigenvalues --   -0.56329  -0.56291  -0.56027  -0.55745  -0.54928
 Alpha  occ. eigenvalues --   -0.54616  -0.54351  -0.53658  -0.53047  -0.52277
 Alpha  occ. eigenvalues --   -0.51702  -0.51340  -0.50388  -0.49873  -0.49843
 Alpha  occ. eigenvalues --   -0.49681  -0.49631  -0.49587  -0.49567  -0.49285
 Alpha  occ. eigenvalues --   -0.49195  -0.48616  -0.48104  -0.47439  -0.47293
 Alpha  occ. eigenvalues --   -0.46809  -0.46746  -0.46607  -0.46439  -0.46389
 Alpha  occ. eigenvalues --   -0.46169  -0.46141  -0.46065  -0.45808  -0.45639
 Alpha  occ. eigenvalues --   -0.45579  -0.45409  -0.45145  -0.44325  -0.44301
 Alpha  occ. eigenvalues --   -0.44212  -0.44149  -0.44132  -0.43989  -0.43910
 Alpha  occ. eigenvalues --   -0.43819  -0.43758  -0.43577  -0.43372  -0.43119
 Alpha  occ. eigenvalues --   -0.42862  -0.42726  -0.42664  -0.42328  -0.42160
 Alpha  occ. eigenvalues --   -0.41917  -0.41739  -0.41470  -0.40910  -0.40035
 Alpha  occ. eigenvalues --   -0.39999  -0.39657  -0.39527  -0.39405  -0.39226
 Alpha  occ. eigenvalues --   -0.39017  -0.38792  -0.38158  -0.37600  -0.37297
 Alpha  occ. eigenvalues --   -0.36512  -0.36386  -0.36296  -0.35964  -0.35582
 Alpha  occ. eigenvalues --   -0.34121  -0.33846  -0.32392  -0.31103  -0.30642
 Alpha  occ. eigenvalues --   -0.30186  -0.29298  -0.29014  -0.28797  -0.28131
 Alpha  occ. eigenvalues --   -0.27823  -0.27348  -0.26973  -0.26625  -0.26392
 Alpha  occ. eigenvalues --   -0.26269  -0.25952  -0.25411  -0.23023  -0.22927
 Alpha  occ. eigenvalues --   -0.20790
 Alpha virt. eigenvalues --   -0.06934  -0.06669  -0.05845  -0.04901  -0.03798
 Alpha virt. eigenvalues --   -0.03181  -0.02773  -0.01937  -0.01235  -0.01061
 Alpha virt. eigenvalues --   -0.00951  -0.00641  -0.00545   0.01208   0.01785
 Alpha virt. eigenvalues --    0.02388   0.03076   0.03812   0.03903   0.04700
 Alpha virt. eigenvalues --    0.04982   0.05053   0.05326   0.05473   0.05962
 Alpha virt. eigenvalues --    0.06108   0.06540   0.06676   0.06746   0.07077
 Alpha virt. eigenvalues --    0.07552   0.07733   0.08293   0.08383   0.08592
 Alpha virt. eigenvalues --    0.08712   0.08945   0.09158   0.09340   0.09600
 Alpha virt. eigenvalues --    0.09909   0.10003   0.10555   0.10609   0.10830
 Alpha virt. eigenvalues --    0.10950   0.11105   0.11355   0.11424   0.11701
 Alpha virt. eigenvalues --    0.11764   0.12122   0.12316   0.12560   0.12749
 Alpha virt. eigenvalues --    0.12981   0.13006   0.13158   0.13253   0.13461
 Alpha virt. eigenvalues --    0.13640   0.13897   0.14192   0.14510   0.14602
 Alpha virt. eigenvalues --    0.15100   0.15160   0.15227   0.15525   0.15867
 Alpha virt. eigenvalues --    0.16223   0.16501   0.16686   0.16969   0.17134
 Alpha virt. eigenvalues --    0.17189   0.17566   0.18060   0.18340   0.18460
 Alpha virt. eigenvalues --    0.18743   0.19016   0.19279   0.19392   0.19693
 Alpha virt. eigenvalues --    0.19792   0.19973   0.20095   0.20272   0.20393
 Alpha virt. eigenvalues --    0.20536   0.20803   0.20985   0.21065   0.21461
 Alpha virt. eigenvalues --    0.21551   0.21800   0.21891   0.22103   0.22287
 Alpha virt. eigenvalues --    0.22338   0.22700   0.22820   0.23019   0.23151
 Alpha virt. eigenvalues --    0.23293   0.23389   0.23456   0.23665   0.23718
 Alpha virt. eigenvalues --    0.23947   0.24008   0.24067   0.24157   0.24425
 Alpha virt. eigenvalues --    0.24703   0.24810   0.24986   0.25136   0.25246
 Alpha virt. eigenvalues --    0.25331   0.25522   0.25736   0.25802   0.26221
 Alpha virt. eigenvalues --    0.26481   0.26579   0.26787   0.26925   0.27026
 Alpha virt. eigenvalues --    0.27462   0.27729   0.27768   0.27958   0.28203
 Alpha virt. eigenvalues --    0.28560   0.28637   0.28804   0.28935   0.29180
 Alpha virt. eigenvalues --    0.29631   0.29890   0.30171   0.30400   0.30569
 Alpha virt. eigenvalues --    0.30671   0.31003   0.31262   0.31381   0.31583
 Alpha virt. eigenvalues --    0.31708   0.32122   0.32249   0.32500   0.32830
 Alpha virt. eigenvalues --    0.32877   0.32963   0.33336   0.33378   0.33885
 Alpha virt. eigenvalues --    0.33971   0.34118   0.34434   0.34538   0.34590
 Alpha virt. eigenvalues --    0.34778   0.34993   0.35339   0.35348   0.35673
 Alpha virt. eigenvalues --    0.35856   0.35952   0.36200   0.36245   0.36336
 Alpha virt. eigenvalues --    0.36680   0.36902   0.37183   0.37477   0.37610
 Alpha virt. eigenvalues --    0.37876   0.38086   0.38295   0.38395   0.38841
 Alpha virt. eigenvalues --    0.38866   0.39114   0.39338   0.39466   0.39671
 Alpha virt. eigenvalues --    0.39949   0.40058   0.40260   0.40524   0.40618
 Alpha virt. eigenvalues --    0.40933   0.41098   0.41319   0.41384   0.41704
 Alpha virt. eigenvalues --    0.41907   0.41970   0.42208   0.42317   0.42611
 Alpha virt. eigenvalues --    0.42664   0.42953   0.42979   0.43216   0.43357
 Alpha virt. eigenvalues --    0.43482   0.43698   0.43832   0.43884   0.44162
 Alpha virt. eigenvalues --    0.44213   0.44547   0.44757   0.44841   0.45065
 Alpha virt. eigenvalues --    0.45149   0.45359   0.45926   0.45962   0.45979
 Alpha virt. eigenvalues --    0.46266   0.46600   0.46824   0.46949   0.47196
 Alpha virt. eigenvalues --    0.47502   0.47746   0.47828   0.47908   0.47972
 Alpha virt. eigenvalues --    0.48268   0.48604   0.48772   0.48937   0.48964
 Alpha virt. eigenvalues --    0.49179   0.49592   0.49701   0.49800   0.50056
 Alpha virt. eigenvalues --    0.50378   0.50616   0.50792   0.51081   0.51245
 Alpha virt. eigenvalues --    0.51473   0.51631   0.52021   0.52322   0.52464
 Alpha virt. eigenvalues --    0.52619   0.52906   0.53084   0.53538   0.53585
 Alpha virt. eigenvalues --    0.53737   0.54004   0.54336   0.54643   0.54944
 Alpha virt. eigenvalues --    0.54983   0.55271   0.55362   0.55728   0.55989
 Alpha virt. eigenvalues --    0.56099   0.56387   0.56779   0.56992   0.57136
 Alpha virt. eigenvalues --    0.57425   0.57511   0.57732   0.58086   0.58189
 Alpha virt. eigenvalues --    0.58550   0.58655   0.58853   0.59071   0.59316
 Alpha virt. eigenvalues --    0.59404   0.59506   0.59924   0.60044   0.60330
 Alpha virt. eigenvalues --    0.60595   0.60766   0.61022   0.61238   0.61512
 Alpha virt. eigenvalues --    0.61744   0.61941   0.62138   0.62333   0.62623
 Alpha virt. eigenvalues --    0.62871   0.63273   0.63358   0.63460   0.63786
 Alpha virt. eigenvalues --    0.64170   0.64527   0.64674   0.64782   0.64936
 Alpha virt. eigenvalues --    0.65127   0.65349   0.65548   0.65841   0.65971
 Alpha virt. eigenvalues --    0.66139   0.66424   0.66954   0.67179   0.67294
 Alpha virt. eigenvalues --    0.67577   0.67800   0.68033   0.68161   0.68394
 Alpha virt. eigenvalues --    0.68714   0.68852   0.69076   0.69238   0.69293
 Alpha virt. eigenvalues --    0.69699   0.69853   0.70236   0.70266   0.70692
 Alpha virt. eigenvalues --    0.70743   0.70896   0.71223   0.71460   0.71526
 Alpha virt. eigenvalues --    0.71817   0.72015   0.72121   0.72353   0.72483
 Alpha virt. eigenvalues --    0.72733   0.72968   0.73439   0.73557   0.73667
 Alpha virt. eigenvalues --    0.73921   0.74073   0.74243   0.74563   0.75170
 Alpha virt. eigenvalues --    0.75278   0.75369   0.75443   0.75679   0.75965
 Alpha virt. eigenvalues --    0.76170   0.76377   0.76485   0.76872   0.76983
 Alpha virt. eigenvalues --    0.77178   0.77634   0.77779   0.77998   0.78204
 Alpha virt. eigenvalues --    0.78297   0.78628   0.78785   0.79155   0.79298
 Alpha virt. eigenvalues --    0.79503   0.79776   0.79875   0.80008   0.80297
 Alpha virt. eigenvalues --    0.80531   0.80674   0.80792   0.81015   0.81338
 Alpha virt. eigenvalues --    0.81404   0.81748   0.82130   0.82198   0.82369
 Alpha virt. eigenvalues --    0.82645   0.82734   0.83204   0.83399   0.83570
 Alpha virt. eigenvalues --    0.83818   0.84193   0.84681   0.84789   0.85120
 Alpha virt. eigenvalues --    0.85170   0.85366   0.85594   0.85686   0.85874
 Alpha virt. eigenvalues --    0.86382   0.86513   0.86753   0.86841   0.87005
 Alpha virt. eigenvalues --    0.87784   0.88024   0.88674   0.88843   0.89227
 Alpha virt. eigenvalues --    0.89255   0.89392   0.89884   0.90059   0.90410
 Alpha virt. eigenvalues --    0.90622   0.90842   0.91172   0.91389   0.91847
 Alpha virt. eigenvalues --    0.92054   0.92413   0.92795   0.92935   0.93194
 Alpha virt. eigenvalues --    0.93449   0.93496   0.93720   0.93795   0.94041
 Alpha virt. eigenvalues --    0.94219   0.94300   0.94556   0.94757   0.94940
 Alpha virt. eigenvalues --    0.95348   0.95573   0.95728   0.95910   0.96517
 Alpha virt. eigenvalues --    0.96753   0.96829   0.97264   0.97454   0.98000
 Alpha virt. eigenvalues --    0.98351   0.98694   0.98915   0.99047   0.99547
 Alpha virt. eigenvalues --    0.99960   1.00420   1.00472   1.00958   1.01040
 Alpha virt. eigenvalues --    1.01394   1.01561   1.01723   1.01906   1.02524
 Alpha virt. eigenvalues --    1.02777   1.02983   1.03253   1.03583   1.04012
 Alpha virt. eigenvalues --    1.04276   1.04642   1.04963   1.05253   1.05458
 Alpha virt. eigenvalues --    1.05699   1.05906   1.06378   1.06667   1.06849
 Alpha virt. eigenvalues --    1.07399   1.07686   1.08129   1.08588   1.08843
 Alpha virt. eigenvalues --    1.08970   1.09425   1.09783   1.09931   1.10157
 Alpha virt. eigenvalues --    1.10625   1.10940   1.11074   1.11381   1.12075
 Alpha virt. eigenvalues --    1.12568   1.12785   1.13106   1.13437   1.13561
 Alpha virt. eigenvalues --    1.13671   1.14073   1.14182   1.14835   1.15029
 Alpha virt. eigenvalues --    1.15244   1.15415   1.15811   1.16164   1.16543
 Alpha virt. eigenvalues --    1.16613   1.17295   1.17490   1.17938   1.18599
 Alpha virt. eigenvalues --    1.18672   1.19029   1.19643   1.19910   1.20098
 Alpha virt. eigenvalues --    1.20355   1.20681   1.21174   1.21391   1.21581
 Alpha virt. eigenvalues --    1.21867   1.22007   1.22291   1.22454   1.22817
 Alpha virt. eigenvalues --    1.23080   1.23231   1.23307   1.23816   1.24198
 Alpha virt. eigenvalues --    1.24323   1.24639   1.24805   1.25203   1.25314
 Alpha virt. eigenvalues --    1.25815   1.26095   1.26414   1.26712   1.26878
 Alpha virt. eigenvalues --    1.26999   1.27350   1.27540   1.27647   1.28299
 Alpha virt. eigenvalues --    1.28518   1.28634   1.29159   1.29263   1.29496
 Alpha virt. eigenvalues --    1.29674   1.29968   1.30222   1.30580   1.30900
 Alpha virt. eigenvalues --    1.31254   1.31453   1.31814   1.32125   1.32235
[...]
  1912. RY*(  24) C  86                  0.00001     3.70192   
  1913. RY*(  25) C  86                  0.00000    20.47731   
  1914. RY*(  26) C  86                  0.00001     3.43717   
  1915. RY*(   1) C  87                  0.00558     1.63382   
  1916. RY*(   2) C  87                  0.00175     1.34635   
  1917. RY*(   3) C  87                  0.00156     0.78595   
  1918. RY*(   4) C  87                  0.00114     1.75403   
  1919. RY*(   5) C  87                  0.00080     1.64522   
  1920. RY*(   6) C  87                  0.00037     2.05297   
  1921. RY*(   7) C  87                  0.00032     2.64465   
  1922. RY*(   8) C  87                  0.00017     1.76406   
  1923. RY*(   9) C  87                  0.00012     1.86483   
  1924. RY*(  10) C  87                  0.00007     2.15719   
  1925. RY*(  11) C  87                  0.00007     2.48315   
  1926. RY*(  12) C  87                  0.00003     2.55550   
  1927. RY*(  13) C  87                  0.00004     3.22220   
  1928. RY*(  14) C  87                  0.00003     1.58143   
  1929. RY*(  15) C  87                  0.00001     1.48518   
  1930. RY*(  16) C  87                  0.00001     2.08841   
  1931. RY*(  17) C  87                  0.00000     3.31769   
  1932. RY*(  18) C  87                  0.00000    21.21383   
  1933. RY*(  19) C  87                  0.00000     3.24893   
  1934. RY*(  20) C  87                  0.00000     3.38920   
  1935. RY*(  21) C  87                  0.00000     3.21758   
  1936. RY*(  22) C  87                  0.00000     3.43862   
  1937. RY*(  23) C  87                  0.00000     3.62468   
  1938. RY*(  24) C  87                  0.00000     3.55656   
  1939. RY*(  25) C  87                  0.00000     3.50297   
  1940. RY*(  26) C  87                  0.00000     3.61943   
  1941. RY*(   1) C  88                  0.00485     1.55002   
  1942. RY*(   2) C  88                  0.00187     1.49732   
  1943. RY*(   3) C  88                  0.00111     0.56918   
  1944. RY*(   4) C  88                  0.00068     1.36005   
  1945. RY*(   5) C  88                  0.00049     1.78775   
  1946. RY*(   6) C  88                  0.00036     3.13755   
  1947. RY*(   7) C  88                  0.00012     2.51533   
  1948. RY*(   8) C  88                  0.00013     1.80784   
  1949. RY*(   9) C  88                  0.00007     3.14790   
  1950. RY*(  10) C  88                  0.00004     1.81731   
  1951. RY*(  11) C  88                  0.00003     1.59658   
  1952. RY*(  12) C  88                  0.00002     2.65910   
  1953. RY*(  13) C  88                  0.00002     1.96740   
  1954. RY*(  14) C  88                  0.00001     2.03408   
  1955. RY*(  15) C  88                  0.00000    20.71679   
  1956. RY*(  16) C  88                  0.00000     2.47468   
  1957. RY*(  17) C  88                  0.00000     3.15482   
  1958. RY*(  18) C  88                  0.00001     2.03865   
  1959. RY*(  19) C  88                  0.00000     2.92472   
  1960. RY*(  20) C  88                  0.00000     3.47764   
  1961. RY*(  21) C  88                  0.00000     3.32713   
  1962. RY*(  22) C  88                  0.00000     3.32352   
  1963. RY*(  23) C  88                  0.00000     3.29814   
  1964. RY*(  24) C  88                  0.00000     3.35500   
  1965. RY*(  25) C  88                  0.00000     3.28928   
  1966. RY*(  26) C  88                  0.00000     3.70727   
  1967. RY*(   1) H  89                  0.00032     0.88857   
  1968. RY*(   2) H  89                  0.00020     1.83630   
  1969. RY*(   3) H  89                  0.00011     2.15410   
  1970. RY*(   4) H  89                  0.00009     2.75442   
  1971. RY*(   5) H  89                  0.00002     3.10027   
  1972. RY*(   1) H  90                  0.00042     1.07884   
  1973. RY*(   2) H  90                  0.00020     1.85004   
  1974. RY*(   3) H  90                  0.00011     2.69186   
  1975. RY*(   4) H  90                  0.00011     2.18434   
  1976. RY*(   5) H  90                  0.00002     3.12030   
  1977. RY*(   1) H  91                  0.00065     1.15423   
  1978. RY*(   2) H  91                  0.00033     2.52188   
  1979. RY*(   3) H  91                  0.00014     2.34030   
  1980. RY*(   4) H  91                  0.00009     2.73677   
  1981. RY*(   5) H  91                  0.00003     3.34399   
  1982. RY*(   1) H  92                  0.00089     0.75132   
  1983. RY*(   2) H  92                  0.00027     2.36226   
  1984. RY*(   3) H  92                  0.00012     2.71917   
  1985. RY*(   4) H  92                  0.00012     2.22924   
  1986. RY*(   5) H  92                  0.00002     3.19616   
  1987. RY*(   1) H  93                  0.00038     0.94970   
  1988. RY*(   2) H  93                  0.00019     1.87056   
  1989. RY*(   3) H  93                  0.00011     2.66217   
  1990. RY*(   4) H  93                  0.00011     2.22235   
  1991. RY*(   5) H  93                  0.00002     3.09516   
  2004. BD*(   1) C  12 - C  13          0.03208     0.43881   
  2005. BD*(   2) C  12 - C  13          0.43497     0.03980  2011(v),199(v),2004(g)
                                                    194(r),196(r),1994(r)
                                                    2088(r),2077(r),426(g)
                                                    2009(g),453(g),2007(g)
                                                    452(g),2008(g),197(r)
                                                    1997(r),193(r),395(r),198(r)
                                                    189(r),407(r),404(r),394(r)
                                                    402(r),408(r),413(r),405(r)
                                                    411(r)
  2006. BD*(   1) C  12 - C  16          0.02910     0.44485   
  2007. BD*(   1) C  12 - H  17          0.01485     0.40007   
  2008. BD*(   1) C  13 - C  14          0.02504     0.44381   
  2009. BD*(   1) C  13 - H  72          0.01518     0.41373   
  2010. BD*(   1) C  14 - C  15          0.05936     0.41074   
  2011. BD*(   2) C  14 - C  15          0.48790     0.03699  2005(v),2088(v),199(v)
                                                    1997(r),2010(g),196(r)
                                                    1994(r),193(r),194(r)
                                                    2017(v),2016(v),2090(v)
                                                    2087(v),2077(r),2012(g)
                                                    480(g),507(g),530(v),189(r)
                                                    197(r),198(r),402(r),395(r)
                                                    414(r),405(r),195(r),408(r)
                                                    397(r)
  2012. BD*(   1) C  14 - C  76          0.03296     0.43164   
  2013. BD*(   1) C  15 - C  16          0.04353     0.42642   
  2014. BD*(   1) C  15 - C  19          0.03051     0.36421   
  2015. BD*(   1) C  16 - H  18          0.01688     0.40379   
  2016. BD*(   1) C  19 - P  20          0.04094     0.17200   
  2017. BD*(   1) C  19 - H  21          0.03244     0.34975   
  2018. BD*(   1) C  19 - C  22          0.00884     0.32206   
  2019. BD*(   1) P  20 - C  29          0.04326     0.20059   
  2020. BD*(   1) P  20 - C  40          0.03670     0.19359   
  2021. BD*(   1) C  22 - H  23          0.00654     0.37092   
  2022. BD*(   1) C  22 - H  24          0.00973     0.36300   
  2023. BD*(   1) C  22 - H  25          0.01062     0.35499   
  2024. BD*(   1) C  26 - C  27          0.01930     0.49618   
  2025. BD*(   1) C  26 - C  31          0.01973     0.49218   
  2026. BD*(   2) C  26 - C  31          0.35409    -0.01152  2029(v),2034(v),2042(v)
                                                    665(g),2041(v),2043(v)
  2027. BD*(   1) C  26 - H  32          0.01208     0.37701   
  2028. BD*(   1) C  27 - C  28          0.02235     0.48975   
  2029. BD*(   2) C  27 - C  28          0.34959    -0.00876  2034(v),2026(v),2040(v)
                                                    2038(v),717(g),2039(v)
  2030. BD*(   1) C  27 - C  33          0.06702     0.29668   
  2031. BD*(   1) C  28 - C  29          0.02342     0.49984   
  2032. BD*(   1) C  28 - H  34          0.01520     0.37976   
  2033. BD*(   1) C  29 - C  30          0.03263     0.49283   
  2034. BD*(   2) C  29 - C  30          0.34130    -0.00802  2029(v),2026(v),2020(v)
                                                    2016(v),769(g),744(g)
  2035. BD*(   1) C  30 - C  31          0.02467     0.49819   
  2036. BD*(   1) C  30 - H  35          0.01594     0.38095   
  2037. BD*(   1) C  31 - C  36          0.06676     0.29808   
  2038. BD*(   1) C  33 - F  54          0.09099     0.20247   
  2039. BD*(   1) C  33 - F  55          0.09141     0.19770   
  2040. BD*(   1) C  33 - F  56          0.09816     0.20299   
  2041. BD*(   1) C  36 - F  57          0.09037     0.20031   
  2042. BD*(   1) C  36 - F  58          0.09882     0.19822   
  2043. BD*(   1) C  36 - F  59          0.09183     0.19569   
  2044. BD*(   1) C  37 - C  38          0.01983     0.50272   
  2045. BD*(   1) C  37 - C  42          0.01976     0.50031   
  2046. BD*(   2) C  37 - C  42          0.35437    -0.00558  2054(v),2049(v),2063(v)
                                                    888(g),2061(v),2062(v)
  2047. BD*(   1) C  37 - H  43          0.01212     0.37957   
  2048. BD*(   1) C  38 - C  39          0.02455     0.50556   
  2049. BD*(   2) C  38 - C  39          0.34619     0.00081  2054(v),2046(v),2060(v)
                                                    2058(v),939(g),914(g)
  2050. BD*(   1) C  38 - C  44          0.06637     0.30411   
  2051. BD*(   1) C  39 - C  40          0.02956     0.50972   
  2052. BD*(   1) C  39 - H  45          0.01884     0.40022   
  2053. BD*(   1) C  40 - C  41          0.02246     0.50044   
  2054. BD*(   2) C  40 - C  41          0.34946    -0.00054  2049(v),2046(v),991(g)
                                                    2092(r),2019(v),967(g)
  2055. BD*(   1) C  41 - C  42          0.02308     0.50151   
  2056. BD*(   1) C  41 - H  46          0.01633     0.38294   
  2057. BD*(   1) C  42 - C  47          0.06607     0.30158   
  2058. BD*(   1) C  44 - F  51          0.09494     0.19758   
  2059. BD*(   1) C  44 - F  52          0.08927     0.19547   
  2060. BD*(   1) C  44 - F  53          0.09616     0.20325   
  2061. BD*(   1) C  47 - F  48          0.08931     0.20289   
  2062. BD*(   1) C  47 - F  49          0.08917     0.20312   
  2063. BD*(   1) C  47 - F  50          0.10326     0.18904  2046(v),1089(g)
  2064. BD*(   1) P  60 - C  64          0.03546     0.22757   
  2065. BD*(   1) P  60 - C  77          0.04388     0.21572   
  2066. BD*(   1) P  60 - C  86          0.03796     0.23215   
  2067. BD*(   1) C  61 - C  62          0.01486     0.52671   
  2068. BD*(   1) C  61 - C  66          0.01472     0.53050   
  2069. BD*(   2) C  61 - C  66          0.32409     0.01860  2077(v),2072(v),1451(g)
                                                    1581(g)
  2070. BD*(   1) C  61 - H  67          0.01309     0.39803   
  2071. BD*(   1) C  62 - C  63          0.01786     0.53731   
  2072. BD*(   2) C  62 - C  63          0.30647     0.02288  2077(v),2069(v),2092(r)
                                                    2104(r),1477(g)
  2073. BD*(   1) C  62 - H  68          0.01420     0.39797   
  2074. BD*(   1) C  63 - C  64          0.03179     0.51322   
  2075. BD*(   1) C  63 - H  69          0.01601     0.41186   
  2076. BD*(   1) C  64 - C  65          0.02508     0.52795   
  2077. BD*(   2) C  64 - C  65          0.35212     0.02130  2072(v),2069(v),2092(r)
                                                    1555(g),2066(v),2005(r)
                                                    2104(r),2011(r),2065(v)
  2078. BD*(   1) C  65 - C  66          0.01603     0.53322   
  2079. BD*(   1) C  65 - H  70          0.01600     0.40525   
  2080. BD*(   1) C  66 - H  71          0.01355     0.39786   
  2081. BD*(   1) C  73 - C  74          0.01500     0.53946   
  2082. BD*(   2) C  73 - C  74          0.32850     0.02468  2092(v),2088(v),1637(g)
                                                    1663(g)
  2083. BD*(   1) C  73 - C  78          0.01783     0.54056   
  2084. BD*(   1) C  73 - H  79          0.01414     0.40542   
  2085. BD*(   1) C  74 - C  75          0.01518     0.54592   
  2086. BD*(   1) C  74 - H  80          0.01374     0.40811   
  2087. BD*(   1) C  75 - C  76          0.02824     0.52496   
  2088. BD*(   2) C  75 - C  76          0.34096     0.02947  2082(v),2092(v),2011(v)
                                                    1689(g),2008(v),2005(r)
                                                    2010(v),1994(r),1714(g)
  2089. BD*(   1) C  75 - H  81          0.01497     0.42627   
  2090. BD*(   1) C  76 - C  77          0.03509     0.50049   
  2091. BD*(   1) C  77 - C  78          0.02568     0.52426   
  2092. BD*(   2) C  77 - C  78          0.35934     0.02248  2082(v),2088(v),2072(r)
                                                    2077(r),2104(r),1766(g)
                                                    2054(r),2064(v)
  2093. BD*(   1) C  78 - H  82          0.01879     0.42132   
  2094. BD*(   1) C  83 - C  84          0.01471     0.53772   
  2095. BD*(   1) C  83 - C  88          0.01453     0.53809   
  2096. BD*(   2) C  83 - C  88          0.32997     0.02628  2099(v),2104(v),1813(g)
                                                    1943(g)
  2097. BD*(   1) C  83 - H  89          0.01307     0.40465   
  2098. BD*(   1) C  84 - C  85          0.01625     0.54328   
  2099. BD*(   2) C  84 - C  85          0.32114     0.02785  2096(v),2104(v),1839(g)
                                                    1865(g)
  2100. BD*(   1) C  84 - H  90          0.01346     0.40865   
  2101. BD*(   1) C  85 - C  86          0.02350     0.52288   
  2102. BD*(   1) C  85 - H  91          0.01803     0.41761   
  2103. BD*(   1) C  86 - C  87          0.02500     0.52778   
  2104. BD*(   2) C  86 - C  87          0.37690     0.02263  2096(v),2099(v),2072(r)
                                                    2092(r),1917(g),2065(v)
                                                    2077(r)
  2105. BD*(   1) C  87 - C  88          0.01579     0.54244   
  2106. BD*(   1) C  87 - H  92          0.01552     0.41270   
  2107. BD*(   1) C  88 - H  93          0.01351     0.40375   
       -------------------------------
              Total Lewis  401.04834  ( 97.6106%)
        Valence non-Lewis    9.00021  (  2.1906%)
        Rydberg non-Lewis    0.81683  (  0.1988%)
       -------------------------------
            Total unit  3  410.86538  (100.0000%)
           Charge unit  3    0.13462
 1\1\GINC-NC101\SP\RPBE1PBE\Gen\C46H32F12Fe1P2\MACKK4\06-Dec-2021\0\\# 
 PBE1PBE gen pseudo=read int=(grid=ultrafine) empiricaldispersion=GD3BJ
  pop=nbo guess=read geom=check\\W001_1_6_F_3 title\\0,1\C,0,0.21307190
 65,-4.0204012123,4.1239658019\C,0,0.1871412018,-3.4531310601,5.4435307
 826\C,0,1.5185205032,-3.5176611393,5.9807006587\C,0,2.3683728652,-4.12
 23430662,4.9921049275\C,0,1.5578292176,-4.4366183404,3.8442627006\H,0,
 -0.6790910806,-3.0041364222,5.9307805571\H,0,1.8387011967,-3.126683316
 9,6.9470179013\H,0,3.4424578294,-4.2855815544,5.088340168\H,0,1.899578
 868,-4.8960243711,2.9153134296\H,0,-0.6343817443,-4.0953552059,3.44128
 79827\Fe,0,1.4970965312,-2.4220194579,4.2538838112\C,0,1.7156306268,-0
 .4747283939,4.8454336423\C,0,2.8910122212,-0.9403661388,4.1797574595\C
 ,0,2.5348978499,-1.3528192584,2.8426465767\C,0,1.0910947498,-1.1779873
 637,2.7052369316\C,0,0.6142000572,-0.6073249729,3.9427496438\H,0,1.658
 9308051,-0.1230617004,5.8757115404\H,0,-0.4231543531,-0.3682214834,4.1
 704973524\C,0,0.1898675951,-1.5792878324,1.5533573649\P,0,0.6315330674
 ,-0.5500425507,0.0421620711\H,0,0.3809355446,-2.6370595318,1.301287003
 1\C,0,-1.3023969031,-1.4126863925,1.8927237508\H,0,-1.9410512368,-1.83
 5833305,1.1033307375\H,0,-1.51915651,-1.9456554393,2.8331868002\H,0,-1
 .5634597041,-0.348052204,2.0090900901\C,0,-2.8541392618,-0.7678563654,
 -3.0422623962\C,0,-2.2681180039,0.4652055995,-2.7352094603\C,0,-1.2457
 116678,0.5562921991,-1.7778649792\C,0,-0.8003757019,-0.6029797199,-1.1
 251631752\C,0,-1.3673196481,-1.8481938025,-1.4520308189\C,0,-2.3986569
 329,-1.9255475334,-2.3959005298\H,0,-3.6538141913,-0.8292308122,-3.784
 2770183\C,0,-2.776845689,1.7285583843,-3.3916872791\H,0,-0.811127007,1
 .526432976,-1.5255557138\H,0,-1.0074782345,-2.7689413469,-0.9821545589
 \C,0,-2.9601258293,-3.2737119236,-2.7762862676\C,0,3.3198568344,-3.095
 3024714,-2.8091019828\C,0,2.8737689734,-3.6653107595,-1.6102390688\C,0
 ,2.0871262786,-2.9269554658,-0.7169922975\C,0,1.7413216207,-1.59932679
 57,-1.009368307\C,0,2.1716218943,-1.0330998845,-2.2227255364\C,0,2.961
 0209949,-1.7754977353,-3.1111968772\H,0,3.9367117194,-3.6726240213,-3.
 5027032887\C,0,3.2297334695,-5.1012206406,-1.3081169309\H,0,1.77558321
 65,-3.4002294747,0.2147361606\H,0,1.8799802753,-0.0100720065,-2.483052
 3267\C,0,3.4892142108,-1.122280791,-4.3656124943\F,0,3.697593194,-2.02
 53008093,-5.3567591987\F,0,2.6471937091,-0.1668108797,-4.8319942254\F,
 0,4.692301213,-0.5121661293,-4.1225839994\F,0,4.5640881341,-5.32413232
 77,-1.4751002793\F,0,2.911819477,-5.4538542672,-0.0306810009\F,0,2.578
 1770173,-5.9566578713,-2.1395267092\F,0,-1.772536731,2.6198262465,-3.5
 934110023\F,0,-3.3490195592,1.4653076386,-4.5999358789\F,0,-3.71652190
 03,2.3377748659,-2.6234538267\F,0,-4.2548208868,-3.1848936145,-3.17741
 79894\F,0,-2.2566852831,-3.8307090063,-3.8012677314\F,0,-2.9053342357,
 -4.148799097,-1.7332799148\P,0,3.6001666703,0.9792038323,0.9685494088\
 C,0,5.234100746,2.0266148777,5.1931637812\C,0,6.0181449588,1.304368571
 9,4.2794125932\C,0,5.5149979803,1.0062872891,3.0073224947\C,0,4.223643
 8891,1.4396664731,2.6389667912\C,0,3.4415246037,2.1648018856,3.5538918
 828\C,0,3.9507124103,2.4545202068,4.8274723424\H,0,5.6273544705,2.2562
 925214,6.188945429\H,0,7.0234237343,0.9708930039,4.5570296148\H,0,6.12
 31676502,0.4301286746,2.3021758769\H,0,2.4445972328,2.5047946991,3.263
 8088052\H,0,3.3350842604,3.0187226658,5.5352008813\H,0,3.9029696408,-0
 .963478272,4.5837274381\C,0,5.6349341244,-2.5269377691,0.0697390919\C,
 0,5.144887515,-3.4310882758,1.016573199\C,0,4.1264756206,-3.0313907572
 ,1.889611458\C,0,3.5720364833,-1.7389393438,1.8461889204\C,0,4.1176391
 745,-0.8029396275,0.9159691165\C,0,5.1329121775,-1.2192305935,0.033669
 5402\H,0,6.4163787625,-2.8275944168,-0.6351504349\H,0,5.5349738972,-4.
 4519862699,1.0628808449\H,0,3.7319250987,-3.7265831244,2.6323462133\H,
 0,5.5534914322,-0.5078713596,-0.6811788044\C,0,6.2252665913,3.28908410
 65,-2.0864399263\C,0,5.3918154644,2.2462185621,-2.5167190329\C,0,4.617
 2281392,1.5446545171,-1.5869140839\C,0,4.6883441248,1.8580220822,-0.21
 55068563\C,0,5.5208796318,2.9089343352,0.2112520029\C,0,6.2833618673,3
 .6192413487,-0.7256203563\H,0,6.8235115669,3.8481465741,-2.8129140582\
 H,0,5.3347366778,1.9740108557,-3.5748120596\H,0,3.9656560009,0.7384700
 965,-1.9306849138\H,0,5.5594860943,3.1807885672,1.2688548404\H,0,6.921
 1431344,4.441851209,-0.386668015\\Version=ES64L-G09RevE.01\State=1-A\H
 F=-3774.7486962\RMSD=5.001e-09\Dipole=0.5620301,0.3699403,2.1298079\Qu
 adrupole=3.1028898,-10.6631558,7.560266,2.0863818,-4.1488537,5.5485384
 \PG=C01 [X(C46H32F12Fe1P2)]\\@


 I SUPPOSE A BABY LLAMA HAS A MMAMA AND A PPOPA.
     -- RICHARD AMOUR
 Job cpu time:       0 days  6 hours 48 minutes 22.8 seconds.
 File lengths (MBytes):  RWF=   2275 Int=      0 D2E=      0 Chk=    320 Scr=      1
 Normal termination of Gaussian 09 at Mon Dec  6 16:31:06 2021.
