 Entering Gaussian System, Link 0=g09
 Input=W001_1_6_F_1_SPE.com
 Output=W001_1_6_F_1_SPE.log
 Initial command:
 /gstore/apps/gaussian/g09.e01-foss-2017a/g09/l1.exe "/local/22791612/Gau-21156.inp" -scrdir="/local/22791612/"
 Entering Link 1 = /gstore/apps/gaussian/g09.e01-foss-2017a/g09/l1.exe PID=     21157.
  
 Copyright (c) 1988,1990,1992,1993,1995,1998,2003,2009,2015,
            Gaussian, Inc.  All Rights Reserved.
  
 This is part of the Gaussian(R) 09 program.  It is based on
 the Gaussian(R) 03 system (copyright 2003, Gaussian, Inc.),
 the Gaussian(R) 98 system (copyright 1998, Gaussian, Inc.),
 the Gaussian(R) 94 system (copyright 1995, Gaussian, Inc.),
 the Gaussian 92(TM) system (copyright 1992, Gaussian, Inc.),
 the Gaussian 90(TM) system (copyright 1990, Gaussian, Inc.),
 the Gaussian 88(TM) system (copyright 1988, Gaussian, Inc.),
 the Gaussian 86(TM) system (copyright 1986, Carnegie Mellon
 University), and the Gaussian 82(TM) system (copyright 1983,
 Carnegie Mellon University). Gaussian is a federally registered
 trademark of Gaussian, Inc.
  
 This software contains proprietary and confidential information,
 including trade secrets, belonging to Gaussian, Inc.
  
 This software is provided under written license and may be
 used, copied, transmitted, or stored only in accord with that
 written license.
  
 The following legend is applicable only to US Government
 contracts under FAR:
  
                    RESTRICTED RIGHTS LEGEND
  
 Use, reproduction and disclosure by the US Government is
 subject to restrictions as set forth in subparagraphs (a)
 and (c) of the Commercial Computer Software - Restricted
 Rights clause in FAR 52.227-19.
  
 Gaussian, Inc.
 340 Quinnipiac St., Bldg. 40, Wallingford CT 06492
  
  
 ---------------------------------------------------------------
 Warning -- This program may not be used in any manner that
 competes with the business of Gaussian, Inc. or will provide
 assistance to any competitor of Gaussian, Inc.  The licensee
 of this program is prohibited from giving any competitor of
 Gaussian, Inc. access to this program.  By using this program,
 the user acknowledges that Gaussian, Inc. is engaged in the
 business of creating and licensing software in the field of
 computational chemistry and represents and warrants to the
 licensee that it is not a competitor of Gaussian, Inc. and that
 it will not use this program in any manner prohibited above.
 ---------------------------------------------------------------
  

 Cite this work as:
 Gaussian 09, Revision E.01,
 M. J. Frisch, G. W. Trucks, H. B. Schlegel, G. E. Scuseria, 
 M. A. Robb, J. R. Cheeseman, G. Scalmani, V. Barone, B. Mennucci, 
 G. A. Petersson, H. Nakatsuji, M. Caricato, X. Li, H. P. Hratchian, 
 A. F. Izmaylov, J. Bloino, G. Zheng, J. L. Sonnenberg, M. Hada, 
 M. Ehara, K. Toyota, R. Fukuda, J. Hasegawa, M. Ishida, T. Nakajima, 
 Y. Honda, O. Kitao, H. Nakai, T. Vreven, J. A. Montgomery, Jr., 
 J. E. Peralta, F. Ogliaro, M. Bearpark, J. J. Heyd, E. Brothers, 
 K. N. Kudin, V. N. Staroverov, T. Keith, R. Kobayashi, J. Normand, 
 K. Raghavachari, A. Rendell, J. C. Burant, S. S. Iyengar, J. Tomasi, 
 M. Cossi, N. Rega, J. M. Millam, M. Klene, J. E. Knox, J. B. Cross, 
 V. Bakken, C. Adamo, J. Jaramillo, R. Gomperts, R. E. Stratmann, 
 O. Yazyev, A. J. Austin, R. Cammi, C. Pomelli, J. W. Ochterski, 
 R. L. Martin, K. Morokuma, V. G. Zakrzewski, G. A. Voth, 
 P. Salvador, J. J. Dannenberg, S. Dapprich, A. D. Daniels, 
 O. Farkas, J. B. Foresman, J. V. Ortiz, J. Cioslowski, 
 and D. J. Fox, Gaussian, Inc., Wallingford CT, 2013.
 
 ******************************************
 Gaussian 09:  ES64L-G09RevE.01 30-Nov-2015
                 6-Dec-2021 
 ******************************************
 %nprocs=14
 Will use up to   14 processors via shared memory.
 %mem=128GB
 %chk=W001_1_6_F_1_SPE.chk
 ----------------------------------------------------------------------
 # PBE1PBE gen pseudo=read int=(grid=ultrafine) empiricaldispersion=GD3
 BJ nmr=giao
 ----------------------------------------------------------------------
 1/38=1/1;
 2/12=2,17=6,18=5,40=1/2;
 3/5=7,11=2,16=1,17=8,25=1,30=1,74=-13,75=-5,124=41/1,2,8,3;
 4//1;
 5/5=2,38=5/2;
 8/6=1,10=90,11=11/1;
 10/13=100,45=16/2;
 6/7=2,8=2,9=2,10=2,28=1/1;
 99/9=1/99;
 ------------------
 W001_1_6_F_1 title
 ------------------
 Symbolic Z-matrix:
 Charge =  0 Multiplicity = 1
 C                    -0.19719  -3.55513   5.22858 
 C                     0.41892  -2.86893   6.33151 
 C                     1.83119  -3.12719   6.28387 
 C                     2.08889  -3.97567   5.15511 
 C                     0.83635  -4.23891   4.49817 
 H                    -0.08966  -2.21879   7.04415 
 H                     2.5821   -2.71309   6.95747 
 H                     3.07161  -4.33284   4.84574 
 H                     0.69401  -4.83783   3.5972 
 H                    -1.25702  -3.52927   4.97287 
 Fe                    1.19635  -2.22288   4.55435 
 C                     1.12424  -0.18205   4.71254 
 C                     2.4137   -0.60844   4.25669 
 C                     2.23924  -1.34849   3.02946 
 C                     0.81015  -1.38665   2.74748 
 C                     0.14121  -0.64845   3.78487 
 H                     0.92188   0.36595   5.63262 
 H                    -0.93275  -0.48959   3.85888 
 C                     0.18284  -1.96043   1.50257 
 P                     0.66898  -0.74303   0.12293 
 H                     0.67576  -2.92033   1.27345 
 C                    -1.33196  -2.16737   1.62842 
 H                    -1.74845  -2.70102   0.76084 
 H                    -1.52953  -2.76867   2.53232 
 H                    -1.8516   -1.20058   1.72252 
 C                    -2.55798  -0.41839  -3.22342 
 C                    -1.97816   0.73534  -2.68182 
 C                    -1.04233   0.64601  -1.64146 
 C                    -0.67015  -0.6127   -1.14293 
 C                    -1.22332  -1.77362  -1.70894 
 C                    -2.17558  -1.67347  -2.73197 
 H                    -3.29403  -0.3415   -4.0272 
 C                    -2.40456   2.09954  -3.17197 
 H                    -0.61416   1.55208  -1.20666 
 H                    -0.91317  -2.76641  -1.3704 
 C                    -2.72354  -2.93169  -3.35901 
 C                     3.52876  -2.85857  -2.91258 
 C                     2.83296  -3.63634  -1.97958 
 C                     2.00348  -3.03651  -1.02177 
 C                     1.85437  -1.64115  -0.9901 
 C                     2.54339  -0.86261  -1.93664 
 C                     3.38287  -1.46663  -2.88066 
 H                     4.17749  -3.33006  -3.65524 
 C                     3.05017  -5.12945  -1.97658 
 H                     1.48703  -3.68035  -0.30729 
 H                     2.43829   0.22537  -1.93223 
 C                     4.21558  -0.60067  -3.79358 
 F                     4.58096  -1.25947  -4.92474 
 F                     3.55728   0.52846  -4.1623 
 F                     5.3657   -0.21203  -3.1657 
 F                     4.30632  -5.44083  -1.53229 
 F                     2.16762  -5.7766   -1.17103 
 F                     2.93804  -5.65119  -3.22552 
 F                    -1.36896   2.98064  -3.1438 
 F                    -2.86919   2.04692  -4.45148 
 F                    -3.3973    2.61432  -2.40197 
 F                    -3.9675   -2.74065  -3.87001 
 F                    -1.92947  -3.3632   -4.37876 
 F                    -2.79543  -3.94782  -2.4538 
 P                     3.5687    0.84754   1.26415 
 C                     6.36806   2.35467   4.67303 
 C                     5.59874   3.26085   3.92906 
 C                     4.73294   2.80448   2.92819 
 C                     4.62082   1.4227    2.66955 
 C                     5.41122   0.51619   3.40459 
 C                     6.27727   0.98259   4.40351 
 H                     7.04337   2.71757   5.45469 
 H                     5.66911   4.33513   4.12698 
 H                     4.12746   3.51231   2.35871 
 H                     5.36258  -0.5554    3.19361 
 H                     6.88589   0.2669    4.96608 
 Cl                    1.60218   3.33239   2.16635 
 Cl                   -1.09405   1.48885   1.40538 
 H                     3.36252  -0.43079   4.76009 
 C                     5.18545  -2.83917   0.24812 
 C                     4.52522  -3.71739   1.11602 
 C                     3.58318  -3.2187    2.02314 
 C                     3.28647  -1.84442   2.09818 
 C                     3.9625   -0.9584    1.20931 
 C                     4.9027   -1.46866   0.29459 
 H                     5.89914  -3.22305  -0.48694 
 H                     4.72279  -4.79216   1.06559 
 H                     3.04626  -3.89145   2.69571 
 H                     5.38684  -0.7976   -0.42017 
 C                     5.63837   2.95655  -2.31886 
 C                     6.42364   2.31676  -1.34757 
 C                     5.81631   1.67705  -0.26075 
 C                     4.41005   1.65398  -0.154 
 C                     3.6293    2.32607  -1.11344 
 C                     4.24264   2.96995  -2.19615 
 H                     6.11829   3.4579   -3.1653 
 H                     7.51518   2.32509  -1.43118 
 H                     6.43198   1.20817   0.51412 
 H                     2.54054   2.36127  -0.98019 
 H                     3.62777   3.48859  -2.93808 
 Pd                    1.2839    1.21803   1.16728 
 
 Stoichiometry    C46H32Cl2F12FeP2Pd
 Framework group  C1[X(C46H32Cl2F12FeP2Pd)]
 Deg. of freedom   282
 Full point group                 C1      NOp   1
 Largest Abelian subgroup         C1      NOp   1
 Largest concise Abelian subgroup C1      NOp   1
                         Standard orientation:                         
 ---------------------------------------------------------------------
 Center     Atomic      Atomic             Coordinates (Angstroms)
 Number     Number       Type             X           Y           Z
 ---------------------------------------------------------------------
      1          6           0       -2.897284   -5.309289   -0.229218
      2          6           0       -4.221343   -4.995092   -0.692939
      3          6           0       -4.893205   -4.260222    0.342459
      4          6           0       -3.987680   -4.122999    1.447726
      5          6           0       -2.750802   -4.767733    1.095364
      6          1           0       -4.623700   -5.223797   -1.680354
      7          1           0       -5.897094   -3.838770    0.281873
      8          1           0       -4.203651   -3.598047    2.378751
      9          1           0       -1.853958   -4.824583    1.714357
     10          1           0       -2.129577   -5.834150   -0.798832
     11         26           0       -3.186674   -3.287625   -0.252376
     12          6           0       -3.485631   -2.106865   -1.899092
     13          6           0       -3.730935   -1.368335   -0.696299
     14          6           0       -2.527004   -1.385522    0.100231
     15          6           0       -1.537772   -2.168455   -0.628959
     16          6           0       -2.140120   -2.589452   -1.865302
     17          1           0       -4.213511   -2.305282   -2.685617
     18          1           0       -1.657468   -3.189452   -2.634178
     19          6           0       -0.098782   -2.353116   -0.219390
     20         15           0        0.694693   -0.645219   -0.493775
     21          1           0       -0.066957   -2.552512    0.865087
     22          6           0        0.606615   -3.483344   -0.979835
     23          1           0        1.611931   -3.684275   -0.579942
     24          1           0        0.004068   -4.402338   -0.879665
     25          1           0        0.702406   -3.234351   -2.048659
     26          6           0        5.182302   -0.911302   -1.721484
     27          6           0        4.306137   -0.065297   -2.412299
     28          6           0        2.945032   -0.017075   -2.078855
     29          6           0        2.453400   -0.814664   -1.033122
     30          6           0        3.337030   -1.637507   -0.314635
     31          6           0        4.690969   -1.696986   -0.670639
     32          1           0        6.239910   -0.951647   -1.992731
     33          6           0        4.808521    0.761855   -3.572700
     34          1           0        2.263135    0.626104   -2.639821
     35          1           0        2.986885   -2.231244    0.534663
     36          6           0        5.633219   -2.550531    0.141863
     37          6           0        1.981319    1.175542    3.616893
     38          6           0        1.631966   -0.178503    3.553238
     39          6           0        1.194638   -0.750798    2.350557
     40          6           0        1.107148    0.029525    1.187068
     41          6           0        1.471438    1.386054    1.249835
     42          6           0        1.892278    1.955575    2.457842
     43          1           0        2.318141    1.618680    4.557576
     44          6           0        1.664224   -0.994568    4.821925
     45          1           0        0.923335   -1.808216    2.348286
     46          1           0        1.414565    2.010696    0.354655
     47          6           0        2.144334    3.441576    2.528534
     48          9           0        2.976798    3.767427    3.552192
     49          9           0        2.688395    3.919576    1.379727
     50          9           0        0.973123    4.115750    2.732972
     51          9           0        0.662608   -0.615687    5.673673
     52          9           0        1.507397   -2.323211    4.583723
     53          9           0        2.832296   -0.824256    5.493665
     54          9           0        4.156111    1.952658   -3.649729
     55          9           0        6.140066    1.025553   -3.457573
     56          9           0        4.623980    0.120035   -4.754832
     57          9           0        6.696912   -2.967846   -0.592623
     58          9           0        6.124793   -1.864828    1.211815
     59          9           0        5.005099   -3.655883    0.632541
     60         15           0       -1.944709    1.645232   -0.326152
     61          6           0       -6.443775    2.782070   -0.766910
     62          6           0       -5.501795    3.221102   -1.708403
     63          6           0       -4.156530    2.851238   -1.594024
     64          6           0       -3.741694    2.021183   -0.532086
     65          6           0       -4.687097    1.599122    0.424398
     66          6           0       -6.031837    1.976421    0.303005
     67          1           0       -7.494600    3.074516   -0.861709
     68          1           0       -5.812858    3.857446   -2.542976
     69          1           0       -3.428214    3.186011   -2.335250
     70          1           0       -4.376602    0.983966    1.273136
     71          1           0       -6.755166    1.641755    1.053950
     72         17           0       -1.928086    1.590936   -3.620448
     73         17           0        0.308104   -0.908082   -3.578521
     74          1           0       -4.670608   -0.896409   -0.414287
     75          6           0       -1.562838    0.769976    3.714409
     76          6           0       -1.865667   -0.596060    3.766011
     77          6           0       -2.191216   -1.279397    2.588698
     78          6           0       -2.236221   -0.624025    1.343401
     79          6           0       -1.924663    0.766384    1.300734
     80          6           0       -1.590568    1.444698    2.487881
     81          1           0       -1.275093    1.305703    4.623928
     82          1           0       -1.819448   -1.133798    4.717550
     83          1           0       -2.413460   -2.348724    2.607945
     84          1           0       -1.304846    2.499481    2.450518
     85          6           0       -0.201161    5.912650    0.238266
     86          6           0       -1.370444    5.548875    0.923709
     87          6           0       -1.909986    4.267166    0.764445
     88          6           0       -1.263387    3.330046   -0.068144
     89          6           0       -0.109713    3.711750   -0.778871
     90          6           0        0.422808    4.997959   -0.620406
     91          1           0        0.215130    6.917162    0.363942
     92          1           0       -1.870743    6.270520    1.577494
     93          1           0       -2.841293    3.996660    1.273183
     94          1           0        0.342780    2.996785   -1.477778
     95          1           0        1.320850    5.285529   -1.175666
     96         46           0       -0.705748    0.505886   -1.917946
 ---------------------------------------------------------------------
 Rotational constants (GHZ):      0.0373994      0.0291150      0.0278985
 General basis read from cards:  (5D, 7F)
 ======================================================================================================
                                       Pseudopotential Parameters
 ======================================================================================================
  Center     Atomic      Valence      Angular      Power
  Number     Number     Electrons     Momentum     of R      Exponent        Coefficient   SO-Coeffient
 ======================================================================================================
    1          6
                                   No pseudopotential on this center.
    2          6
                                   No pseudopotential on this center.
    3          6
                                   No pseudopotential on this center.
    4          6
                                   No pseudopotential on this center.
    5          6
                                   No pseudopotential on this center.
    6          1
                                   No pseudopotential on this center.
    7          1
                                   No pseudopotential on this center.
    8          1
                                   No pseudopotential on this center.
    9          1
                                   No pseudopotential on this center.
   10          1
                                   No pseudopotential on this center.
   11         26           16
                                      F and up 
                                                     2        1.0000000        0.00000000    0.00000000
                                      S - F
                                                     2       20.9300000      253.74958800    0.00000000
                                                     2        9.4450000       37.92284500    0.00000000
                                      P - F
                                                     2       21.7600000      161.03681200    0.00000000
                                                     2        9.1780000       27.65129800    0.00000000
                                      D - F
                                                     2       25.9000000      -24.43127600    0.00000000
                                                     2        8.8350000       -1.43425100    0.00000000
   12          6
                                   No pseudopotential on this center.
   13          6
                                   No pseudopotential on this center.
   14          6
                                   No pseudopotential on this center.
   15          6
                                   No pseudopotential on this center.
   16          6
                                   No pseudopotential on this center.
   17          1
                                   No pseudopotential on this center.
   18          1
                                   No pseudopotential on this center.
   19          6
                                   No pseudopotential on this center.
   20         15
                                   No pseudopotential on this center.
   21          1
                                   No pseudopotential on this center.
   22          6
                                   No pseudopotential on this center.
   23          1
                                   No pseudopotential on this center.
   24          1
                                   No pseudopotential on this center.
   25          1
                                   No pseudopotential on this center.
   26          6
                                   No pseudopotential on this center.
   27          6
                                   No pseudopotential on this center.
   28          6
                                   No pseudopotential on this center.
   29          6
                                   No pseudopotential on this center.
   30          6
                                   No pseudopotential on this center.
   31          6
                                   No pseudopotential on this center.
   32          1
                                   No pseudopotential on this center.
   33          6
                                   No pseudopotential on this center.
   34          1
                                   No pseudopotential on this center.
   35          1
                                   No pseudopotential on this center.
   36          6
                                   No pseudopotential on this center.
   37          6
                                   No pseudopotential on this center.
   38          6
                                   No pseudopotential on this center.
   39          6
                                   No pseudopotential on this center.
   40          6
                                   No pseudopotential on this center.
   41          6
                                   No pseudopotential on this center.
   42          6
                                   No pseudopotential on this center.
   43          1
                                   No pseudopotential on this center.
   44          6
                                   No pseudopotential on this center.
   45          1
                                   No pseudopotential on this center.
   46          1
                                   No pseudopotential on this center.
   47          6
                                   No pseudopotential on this center.
   48          9
                                   No pseudopotential on this center.
   49          9
                                   No pseudopotential on this center.
   50          9
                                   No pseudopotential on this center.
   51          9
                                   No pseudopotential on this center.
   52          9
                                   No pseudopotential on this center.
   53          9
                                   No pseudopotential on this center.
   54          9
                                   No pseudopotential on this center.
   55          9
                                   No pseudopotential on this center.
   56          9
                                   No pseudopotential on this center.
   57          9
                                   No pseudopotential on this center.
   58          9
                                   No pseudopotential on this center.
   59          9
                                   No pseudopotential on this center.
   60         15
                                   No pseudopotential on this center.
   61          6
                                   No pseudopotential on this center.
   62          6
                                   No pseudopotential on this center.
   63          6
                                   No pseudopotential on this center.
   64          6
                                   No pseudopotential on this center.
   65          6
                                   No pseudopotential on this center.
   66          6
                                   No pseudopotential on this center.
   67          1
                                   No pseudopotential on this center.
   68          1
                                   No pseudopotential on this center.
   69          1
                                   No pseudopotential on this center.
   70          1
                                   No pseudopotential on this center.
   71          1
                                   No pseudopotential on this center.
   72         17
                                   No pseudopotential on this center.
   73         17
                                   No pseudopotential on this center.
   74          1
                                   No pseudopotential on this center.
   75          6
                                   No pseudopotential on this center.
   76          6
                                   No pseudopotential on this center.
   77          6
                                   No pseudopotential on this center.
   78          6
                                   No pseudopotential on this center.
   79          6
                                   No pseudopotential on this center.
   80          6
                                   No pseudopotential on this center.
   81          1
                                   No pseudopotential on this center.
   82          1
                                   No pseudopotential on this center.
   83          1
                                   No pseudopotential on this center.
   84          1
                                   No pseudopotential on this center.
   85          6
                                   No pseudopotential on this center.
   86          6
                                   No pseudopotential on this center.
   87          6
                                   No pseudopotential on this center.
   88          6
                                   No pseudopotential on this center.
   89          6
                                   No pseudopotential on this center.
   90          6
                                   No pseudopotential on this center.
   91          1
                                   No pseudopotential on this center.
   92          1
                                   No pseudopotential on this center.
   93          1
                                   No pseudopotential on this center.
   94          1
                                   No pseudopotential on this center.
   95          1
                                   No pseudopotential on this center.
   96         46           18
                                      G and up 
                                                     2        1.0000000        0.00000000    0.00000000
                                      S - G
                                                     2       12.4300000      240.22904000    0.00000000
                                                     2        6.1707590       35.17194300    0.00000000
                                      P - G
                                                     2       11.0800000      170.41727600    0.00000000
                                                     2        5.8295540       28.47213300    0.00000000
                                      D - G
                                                     2        9.5100000       69.01384500    0.00000000
                                                     2        4.1397810       11.75086200    0.00000000
                                      F - G
                                                     2       13.2700000      -31.92955400    0.00000000
                                                     2        6.6300000       -5.39821700    0.00000000
 ======================================================================================================
 There are  2536 symmetry adapted cartesian basis functions of A   symmetry.
 There are  2217 symmetry adapted basis functions of A   symmetry.
  2217 basis functions,  3630 primitive gaussians,  2536 cartesian basis functions
   257 alpha electrons      257 beta electrons
       nuclear repulsion energy     13219.2301389241 Hartrees.
 NAtoms=   96 NActive=   96 NUniq=   96 SFac= 1.00D+00 NAtFMM=   60 NAOKFM=T Big=T
 Integral buffers will be    131072 words long.
 Raffenetti 2 integral format.
 Two-electron integral symmetry is turned on.
 Nuclear repulsion after empirical dispersion term =    13219.0423197775 Hartrees.
 One-electron integrals computed using PRISM.
   1 Symmetry operations used in ECPInt.
 ECPInt:  NShTT=  359128 NPrTT= 1131794 LenC2=  258446 LenP2D=  519319.
 LDataN:  DoStor=T MaxTD1= 7 Len=  274
 NBasis=  2217 RedAO= T EigKep=  2.83D-06  NBF=  2217
 NBsUse=  2217 1.00D-06 EigRej= -1.00D+00 NBFU=  2217
 Defaulting to unpruned grid for atomic number  46.
 ExpMin= 1.00D-02 ExpMax= 6.95D+04 ExpMxC= 2.37D+03 IAcc=3 IRadAn=         5 AccDes= 0.00D+00
 Harris functional with IExCor= 1009 and IRadAn=       5 diagonalized for initial guess.
 HarFok:  IExCor= 1009 AccDes= 0.00D+00 IRadAn=         5 IDoV= 1 UseB2=F ITyADJ=14
 ICtDFT=  3500011 ScaDFX=  1.000000  1.000000  1.000000  1.000000
 Defaulting to unpruned grid for atomic number  46.
 Defaulting to unpruned grid for atomic number  46.
 Defaulting to unpruned grid for atomic number  46.
 Defaulting to unpruned grid for atomic number  46.
 Defaulting to unpruned grid for atomic number  46.
 Defaulting to unpruned grid for atomic number  46.
 Defaulting to unpruned grid for atomic number  46.
 Defaulting to unpruned grid for atomic number  46.
 Defaulting to unpruned grid for atomic number  46.
 Defaulting to unpruned grid for atomic number  46.
 Defaulting to unpruned grid for atomic number  46.
 Defaulting to unpruned grid for atomic number  46.
 Defaulting to unpruned grid for atomic number  46.
 Defaulting to unpruned grid for atomic number  46.
 FoFCou: FMM=F IPFlag=           0 FMFlag=      100000 FMFlg1=        2001
         NFxFlg=           0 DoJE=T BraDBF=F KetDBF=T FulRan=T
         wScrn=  0.000000 ICntrl=     500 IOpCl=  0 I1Cent=   200000004 NGrid=           0
         NMat0=    1 NMatS0=      1 NMatT0=    0 NMatD0=    1 NMtDS0=    0 NMtDT0=    0
 Petite list used in FoFCou.
 Requested convergence on RMS density matrix=1.00D-08 within 128 cycles.
 Requested convergence on MAX density matrix=1.00D-06.
 Requested convergence on             energy=1.00D-06.
 No special actions if energy rises.
 Defaulting to unpruned grid for atomic number  46.
 Defaulting to unpruned grid for atomic number  46.
 Defaulting to unpruned grid for atomic number  46.
 Defaulting to unpruned grid for atomic number  46.
 Defaulting to unpruned grid for atomic number  46.
 Defaulting to unpruned grid for atomic number  46.
 Defaulting to unpruned grid for atomic number  46.
 Defaulting to unpruned grid for atomic number  46.
 Defaulting to unpruned grid for atomic number  46.
 Defaulting to unpruned grid for atomic number  46.
 Defaulting to unpruned grid for atomic number  46.
 Defaulting to unpruned grid for atomic number  46.
 Defaulting to unpruned grid for atomic number  46.
 Defaulting to unpruned grid for atomic number  46.
 EnCoef did     4 forward-backward iterations
 EnCoef did   100 forward-backward iterations
 EnCoef did   100 forward-backward iterations
 EnCoef did   100 forward-backward iterations
 EnCoef did     1 forward-backward iterations
 EnCoef did     5 forward-backward iterations
 EnCoef did     2 forward-backward iterations
 Restarting incremental Fock formation.
 SCF Done:  E(RPBE1PBE) =  -4822.93870664     A.U. after   31 cycles
            NFock= 31  Conv=0.31D-08     -V/T= 2.0321
 DoSCS=F DFT=T ScalE2(SS,OS)=  1.000000  1.000000
 Range of M.O.s used for correlation:     1  2217
 NBasis=  2217 NAE=   257 NBE=   257 NFC=     0 NFV=     0
 NROrb=   2217 NOA=   257 NOB=   257 NVA=  1960 NVB=  1960

 **** Warning!!: The largest alpha MO coefficient is  0.39499217D+02

          Differentiating once with respect to magnetic field using GIAOs.
          Electric field/nuclear overlap derivatives assumed to be zero.
 Defaulting to unpruned grid for atomic number  46.
 FoFCou: FMM=F IPFlag=           0 FMFlag=      100000 FMFlg1=        2001
         NFxFlg=           0 DoJE=F BraDBF=F KetDBF=T FulRan=T
         wScrn=  0.000000 ICntrl=    6100 IOpCl=  0 I1Cent=           7 NGrid=          96
         NMat0=    1 NMatS0=      1 NMatT0=    0 NMatD0=    1 NMtDS0=    0 NMtDT0=    0
 Symmetry not used in FoFCou.
   1 Symmetry operations used in ECPInt.
 ECPInt:  NShTT=  359128 NPrTT= 1131794 LenC2=  359129 LenP2D= 1131794.
 LDataN:  DoStor=T MaxTD1= 8 Len=  415
 FoFJK:  IHMeth= 1 ICntrl=    6127 DoSepK=F KAlg= 0 I1Cent=   0 FoldK=F
 IRaf=         1 NMat=   1 IRICut=       1 DoRegI=T DoRafI=F ISym2E= 0.
 Defaulting to unpruned grid for atomic number  46.
 Defaulting to unpruned grid for atomic number  46.
 Defaulting to unpruned grid for atomic number  46.
 Defaulting to unpruned grid for atomic number  46.
 Defaulting to unpruned grid for atomic number  46.
 Defaulting to unpruned grid for atomic number  46.
 Defaulting to unpruned grid for atomic number  46.
 Defaulting to unpruned grid for atomic number  46.
 Defaulting to unpruned grid for atomic number  46.
 Defaulting to unpruned grid for atomic number  46.
 Defaulting to unpruned grid for atomic number  46.
 Defaulting to unpruned grid for atomic number  46.
 Defaulting to unpruned grid for atomic number  46.
 Defaulting to unpruned grid for atomic number  46.
          There are     3 degrees of freedom in the 1st order CPHF.  IDoFFX=0 NUNeed=     3.
      3 vectors produced by pass  0 Test12= 1.68D-11 3.33D-08 XBig12= 3.07D+02 1.41D+00.
 AX will form     3 AO Fock derivatives at one time.
      3 vectors produced by pass  1 Test12= 1.68D-11 3.33D-08 XBig12= 1.82D+00 3.70D-01.
      3 vectors produced by pass  2 Test12= 1.68D-11 3.33D-08 XBig12= 1.01D-01 8.31D-02.
      3 vectors produced by pass  3 Test12= 1.68D-11 3.33D-08 XBig12= 1.46D-03 9.88D-03.
      3 vectors produced by pass  4 Test12= 1.68D-11 3.33D-08 XBig12= 2.84D-05 1.93D-03.
      3 vectors produced by pass  5 Test12= 1.68D-11 3.33D-08 XBig12= 8.22D-07 2.84D-04.
      3 vectors produced by pass  6 Test12= 1.68D-11 3.33D-08 XBig12= 1.50D-08 3.28D-05.
      3 vectors produced by pass  7 Test12= 1.68D-11 3.33D-08 XBig12= 3.48D-10 6.48D-06.
      3 vectors produced by pass  8 Test12= 1.68D-11 3.33D-08 XBig12= 3.24D-12 5.72D-07.
      2 vectors produced by pass  9 Test12= 1.68D-11 3.33D-08 XBig12= 5.55D-14 6.53D-08.
 InvSVY:  IOpt=1 It=  1 EMax= 1.07D-14
 Solved reduced A of dimension    29 with     3 vectors.
 Calculating GIAO nuclear magnetic shielding tensors.
 SCF GIAO Magnetic shielding tensor (ppm):
      1  C    Isotropic =   111.6678   Anisotropy =    89.9982
   XX=   106.8414   YX=    40.2348   ZX=     3.6545
   XY=    51.7198   YY=   117.6741   ZY=   -42.3048
   XZ=     2.2790   YZ=   -34.1610   ZZ=   110.4878
   Eigenvalues:    51.4201   111.9166   171.6666
      2  C    Isotropic =   112.4016   Anisotropy =    89.8279
   XX=   103.6434   YX=     4.2937   ZX=   -32.7873
   XY=     0.0033   YY=   139.6172   ZY=   -52.7989
   XZ=   -25.8203   YZ=   -38.0233   ZZ=    93.9442
   Eigenvalues:    53.9134   111.0045   172.2869
      3  C    Isotropic =   112.3992   Anisotropy =    90.6837
   XX=    56.9275   YX=    28.1612   ZX=    -3.4602
   XY=    11.0284   YY=   160.9980   ZY=   -20.7337
   XZ=    -1.1587   YZ=   -21.2626   ZZ=   119.2721
   Eigenvalues:    53.3246   111.0180   172.8550
      4  C    Isotropic =   109.9690   Anisotropy =    92.9828
   XX=   109.4617   YX=    27.4860   ZX=    13.6330
   XY=    25.1276   YY=   156.5942   ZY=   -19.1601
   XZ=     7.8259   YZ=   -32.5741   ZZ=    63.8510
   Eigenvalues:    51.6825   106.2669   171.9575
      5  C    Isotropic =   112.8190   Anisotropy =    90.6495
   XX=    95.7008   YX=    30.7953   ZX=   -30.9731
   XY=    41.4575   YY=   150.5019   ZY=    -0.0344
   XZ=   -37.7956   YZ=    -7.3928   ZZ=    92.2543
   Eigenvalues:    53.7918   111.4131   173.2520
      6  H    Isotropic =    27.4888   Anisotropy =     7.0439
   XX=    26.9862   YX=     1.7185   ZX=     2.9001
   XY=     1.6902   YY=    26.6451   ZY=     2.3957
   XZ=     2.4505   YZ=     2.1197   ZZ=    28.8350
   Eigenvalues:    25.0485    25.2332    32.1847
      7  H    Isotropic =    27.5344   Anisotropy =     6.7454
   XX=    31.9997   YX=    -0.4264   ZX=     0.3075
   XY=    -0.4410   YY=    25.9318   ZY=    -0.1146
   XZ=    -0.4196   YZ=     0.6450   ZZ=    24.6716
   Eigenvalues:    24.6180    25.9538    32.0313
      8  H    Isotropic =    27.2321   Anisotropy =     4.2913
   XX=    26.7942   YX=     2.5453   ZX=    -1.2840
   XY=     0.4231   YY=    25.5577   ZY=     1.1596
   XZ=    -0.8839   YZ=     2.2796   ZZ=    29.3444
   Eigenvalues:    23.8205    27.7828    30.0930
      9  H    Isotropic =    27.1451   Anisotropy =     3.6991
   XX=    27.6143   YX=     0.3247   ZX=     1.7577
   XY=    -0.1569   YY=    26.3516   ZY=    -1.0093
   XZ=     2.2962   YZ=    -0.2086   ZZ=    27.4693
   Eigenvalues:    25.2774    26.5467    29.6112
     10  H    Isotropic =    27.2714   Anisotropy =     4.6611
   XX=    27.7696   YX=    -0.6372   ZX=    -1.3993
   XY=    -1.3498   YY=    28.5347   ZY=     2.1100
   XZ=    -1.0774   YZ=     1.9571   ZZ=    25.5098
   Eigenvalues:    24.3438    27.0915    30.3788
     11  Fe   Isotropic = -6170.3502   Anisotropy =  8226.6400
   XX= -7951.7303   YX=  2412.3293   ZX= -1238.7188
   XY=  2397.6564   YY= -3029.9032   ZY= -2795.4640
   XZ= -1217.8709   YZ= -2801.3264   ZZ= -7529.4170
   Eigenvalues: -8989.4108 -8835.7161  -685.9235
     12  C    Isotropic =   111.7375   Anisotropy =    92.6623
   XX=   108.8299   YX=    21.4392   ZX=   -27.6466
   XY=    30.2007   YY=   155.1956   ZY=    -6.1249
   XZ=   -42.1251   YZ=   -17.7503   ZZ=    71.1869
   Eigenvalues:    50.2755   111.4245   173.5124
     13  C    Isotropic =   106.2906   Anisotropy =    91.1282
   XX=    81.3860   YX=    45.8946   ZX=    -4.0964
   XY=    59.0243   YY=   113.2956   ZY=   -30.6796
   XZ=   -27.1443   YZ=    -9.0038   ZZ=   124.1903
   Eigenvalues:    42.5016   109.3275   167.0428
     14  C    Isotropic =    92.0454   Anisotropy =    95.1174
   XX=    74.5593   YX=    12.3056   ZX=   -15.4028
   XY=     6.3916   YY=    95.2542   ZY=   -62.4815
   XZ=    -7.1066   YZ=   -40.9808   ZZ=   106.3227
   Eigenvalues:    48.7484    71.9307   155.4570
     15  C    Isotropic =    87.9054   Anisotropy =    94.2111
   XX=    42.6672   YX=     9.7454   ZX=   -11.0977
   XY=    -0.6147   YY=   131.7175   ZY=   -31.6988
   XZ=    15.0041   YZ=   -36.3912   ZZ=    89.3316
   Eigenvalues:    42.0394    70.9641   150.7128
     16  C    Isotropic =   109.7833   Anisotropy =   100.3220
   XX=    99.8373   YX=    24.6125   ZX=    11.3558
   XY=     6.9547   YY=   163.4094   ZY=   -25.6278
   XZ=    23.2968   YZ=   -46.8482   ZZ=    66.1030
   Eigenvalues:    45.5367   107.1485   176.6646
     17  H    Isotropic =    27.3956   Anisotropy =     7.4780
   XX=    28.3767   YX=     2.0196   ZX=     3.7929
   XY=     1.0960   YY=    26.2340   ZY=     1.4481
   XZ=     3.2279   YZ=     2.0081   ZZ=    27.5761
   Eigenvalues:    24.3854    25.4205    32.3809
     18  H    Isotropic =    26.8567   Anisotropy =     2.8583
   XX=    27.5355   YX=     0.4001   ZX=    -1.0721
   XY=     1.0367   YY=    27.1702   ZY=     1.9883
   XZ=     0.1513   YZ=     2.1240   ZZ=    25.8645
   Eigenvalues:    24.1706    27.6373    28.7622
     19  C    Isotropic =   149.6551   Anisotropy =    25.7988
   XX=   159.5406   YX=     3.2586   ZX=    -7.6463
   XY=     7.7206   YY=   158.3234   ZY=    -8.4783
   XZ=    -4.6603   YZ=    -5.5097   ZZ=   131.1012
   Eigenvalues:   128.6615   153.4494   166.8543
     20  P    Isotropic =   211.7585   Anisotropy =   201.3006
   XX=   193.9624   YX=   -92.8398   ZX=     0.0207
   XY=   -75.3838   YY=   254.0766   ZY=   -90.3098
   XZ=    43.4037   YZ=   -53.6519   ZZ=   187.2366
   Eigenvalues:   120.6882   168.6284   345.9590
     21  H    Isotropic =    27.1489   Anisotropy =     6.0494
   XX=    25.5228   YX=    -1.9548   ZX=    -0.4895
   XY=     1.0548   YY=    24.9151   ZY=    -1.3123
   XZ=     0.4302   YZ=    -0.7679   ZZ=    31.0089
   Eigenvalues:    24.5379    25.7270    31.1819
     22  C    Isotropic =   168.9032   Anisotropy =    18.3515
   XX=   169.1230   YX=    -3.8718   ZX=    -3.0880
   XY=    -4.4701   YY=   176.2949   ZY=     6.1063
   XZ=    -5.2789   YZ=     6.7911   ZZ=   161.2917
   Eigenvalues:   158.2546   167.3174   181.1375
     23  H    Isotropic =    29.8021   Anisotropy =    10.8597
   XX=    35.4686   YX=    -4.0348   ZX=     1.2674
   XY=    -1.6344   YY=    30.4249   ZY=    -1.4344
   XZ=     3.0849   YZ=     1.3055   ZZ=    23.5127
   Eigenvalues:    23.1015    29.2628    37.0419
     24  H    Isotropic =    29.4055   Anisotropy =     9.5346
   XX=    29.3958   YX=     0.8253   ZX=    -1.4920
   XY=     3.1443   YY=    35.1427   ZY=    -0.1873
   XZ=    -0.1937   YZ=     0.8438   ZZ=    23.6780
   Eigenvalues:    23.5227    28.9319    35.7619
     25  H    Isotropic =    28.9530   Anisotropy =     5.3140
   XX=    25.8289   YX=    -2.2813   ZX=    -3.2032
   XY=     0.8319   YY=    29.1453   ZY=    -1.4218
   XZ=    -0.3399   YZ=    -0.3171   ZZ=    31.8849
   Eigenvalues:    25.1315    29.2319    32.4957
     26  C    Isotropic =    54.7488   Anisotropy =   189.7333
   XX=   -29.5679   YX=    23.5939   ZX=    34.2263
   XY=    21.4400   YY=   112.9026   ZY=    74.1149
   XZ=    31.9089   YZ=    77.2192   ZZ=    80.9117
   Eigenvalues:   -38.7321    21.7407   181.2377
     27  C    Isotropic =    46.9050   Anisotropy =   160.6598
   XX=    25.3379   YX=     2.9120   ZX=    34.2690
   XY=     2.2151   YY=    71.1473   ZY=    93.9522
   XZ=    30.6155   YZ=    88.2107   ZZ=    44.2298
   Eigenvalues:   -42.4399    29.1434   154.0115
     28  C    Isotropic =    36.7166   Anisotropy =   200.7922
   XX=    -9.3261   YX=    51.1250   ZX=     1.6352
   XY=    54.7586   YY=    72.4618   ZY=    91.6520
   XZ=     8.0948   YZ=   107.3529   ZZ=    47.0143
   Eigenvalues:   -62.4619     2.0337   170.5781
     29  C    Isotropic =    39.6490   Anisotropy =   183.2940
   XX=   -32.4475   YX=    24.1010   ZX=    33.9839
   XY=    26.4435   YY=    82.0480   ZY=    85.8959
   XZ=    33.3943   YZ=    68.1909   ZZ=    69.3466
   Eigenvalues:   -42.6432    -0.2547   161.8450
     30  C    Isotropic =    44.2753   Anisotropy =   194.4607
   XX=    11.3174   YX=    14.6322   ZX=    32.4039
   XY=     4.1716   YY=    91.5715   ZY=   100.8897
   XZ=    35.6708   YZ=   106.7841   ZZ=    29.9369
   Eigenvalues:   -55.0185    13.9286   173.9157
     31  C    Isotropic =    48.7463   Anisotropy =   158.0154
   XX=    10.9206   YX=    44.1539   ZX=   -11.3919
   XY=    46.5508   YY=    74.2861   ZY=    81.1864
   XZ=    -5.8659   YZ=    79.9136   ZZ=    61.0322
   Eigenvalues:   -41.5239    33.6729   154.0899
     32  H    Isotropic =    23.4003   Anisotropy =     9.7661
   XX=    22.4199   YX=    -1.8178   ZX=    -0.4485
   XY=    -1.7017   YY=    23.6571   ZY=    -5.6596
   XZ=     0.0869   YZ=    -6.0487   ZZ=    24.1238
   Eigenvalues:    17.6184    22.6713    29.9110
     33  C    Isotropic =    48.9098   Anisotropy =    14.9881
   XX=    57.7355   YX=    -3.8764   ZX=     1.0311
   XY=    -3.4874   YY=    46.7089   ZY=     1.6818
   XZ=     1.4858   YZ=     0.3679   ZZ=    42.2849
   Eigenvalues:    41.7636    46.0639    58.9018
     34  H    Isotropic =    21.6609   Anisotropy =    17.6499
   XX=    29.7875   YX=     5.7748   ZX=    -5.7680
   XY=     5.0048   YY=    16.4218   ZY=     0.2779
   XZ=    -4.3860   YZ=    -1.7773   ZZ=    18.7734
   Eigenvalues:    14.2087    17.3464    33.4275
     35  H    Isotropic =    23.9811   Anisotropy =    15.8538
   XX=    32.0802   YX=    -8.1908   ZX=     0.0133
   XY=    -3.5798   YY=    20.3950   ZY=     0.8216
   XZ=     1.6366   YZ=     0.3049   ZZ=    19.4680
   Eigenvalues:    17.5717    19.8212    34.5502
     36  C    Isotropic =    48.8623   Anisotropy =    14.5848
   XX=    53.3134   YX=     1.1153   ZX=    -7.8725
   XY=     2.5665   YY=    46.5426   ZY=    -0.1994
   XZ=    -7.2944   YZ=    -1.0747   ZZ=    46.7311
   Eigenvalues:    41.7061    46.2954    58.5855
     37  C    Isotropic =    55.1995   Anisotropy =   192.3369
   XX=   164.0107   YX=   -36.9752   ZX=   -43.2378
   XY=   -43.7303   YY=    19.8632   ZY=   -17.9259
   XZ=   -51.7388   YZ=   -14.3774   ZZ=   -18.2753
   Eigenvalues:   -41.4203    23.5948   183.4241
     38  C    Isotropic =    46.7398   Anisotropy =   168.1216
   XX=   146.9434   YX=   -24.1692   ZX=   -25.3331
   XY=   -29.4260   YY=    12.4684   ZY=    40.0138
   XZ=   -28.5008   YZ=    39.0338   ZZ=   -19.1924
   Eigenvalues:   -46.2373    27.6358   158.8209
     39  C    Isotropic =    53.7335   Anisotropy =   198.5821
   XX=   164.7639   YX=   -59.0479   ZX=   -25.9219
   XY=   -53.5380   YY=   -33.3333   ZY=     9.5832
   XZ=   -34.8519   YZ=     9.5737   ZZ=    29.7699
   Eigenvalues:   -48.2428    23.3217   186.1215
     40  C    Isotropic =    34.9894   Anisotropy =   208.8518
   XX=   150.0205   YX=   -44.3548   ZX=   -56.8868
   XY=   -47.3543   YY=   -12.6214   ZY=     1.1208
   XZ=   -46.5183   YZ=    -0.8796   ZZ=   -32.4308
   Eigenvalues:   -50.7000   -18.5557   174.2240
     41  C    Isotropic =    45.6578   Anisotropy =   198.8876
   XX=   165.5524   YX=   -21.6706   ZX=   -30.8525
   XY=   -36.7665   YY=    -2.1850   ZY=    44.8860
   XZ=   -37.0636   YZ=    25.8457   ZZ=   -26.3940
   Eigenvalues:   -52.2568    10.9808   178.2495
     42  C    Isotropic =    47.3404   Anisotropy =   166.0110
   XX=   143.3108   YX=   -43.3900   ZX=   -24.8227
   XY=   -40.5293   YY=   -37.7809   ZY=     4.3612
   XZ=   -26.6406   YZ=     1.3251   ZZ=    36.4914
   Eigenvalues:   -47.1257    31.1326   158.0144
     43  H    Isotropic =    23.7891   Anisotropy =     9.3165
   XX=    20.4645   YX=     2.3652   ZX=     2.7322
   XY=     1.4882   YY=    27.7410   ZY=    -3.4923
   XZ=     0.9653   YZ=    -4.2164   ZZ=    23.1616
   Eigenvalues:    18.1173    23.2498    30.0000
     44  C    Isotropic =    48.5896   Anisotropy =    12.2915
   XX=    47.7060   YX=     1.1537   ZX=     4.9971
   XY=     1.4839   YY=    52.7146   ZY=     5.7827
   XZ=     3.9744   YZ=     4.8722   ZZ=    45.3483
   Eigenvalues:    40.7463    48.2386    56.7840
     45  H    Isotropic =    23.8372   Anisotropy =    11.2423
   XX=    23.3096   YX=    -3.5151   ZX=     3.6891
   XY=    -1.1760   YY=    18.1416   ZY=     0.4402
   XZ=     2.4757   YZ=    -0.7280   ZZ=    30.0604
   Eigenvalues:    17.1543    23.0252    31.3321
     46  H    Isotropic =    23.4717   Anisotropy =     9.6011
   XX=    22.8899   YX=     1.7786   ZX=     1.6083
   XY=     0.2750   YY=    26.7584   ZY=     5.7168
   XZ=     4.4456   YZ=     3.0039   ZZ=    20.7669
   Eigenvalues:    17.4910    23.0517    29.8725
     47  C    Isotropic =    49.8059   Anisotropy =    16.5002
   XX=    48.5592   YX=     1.6111   ZX=     3.7307
   XY=     1.8842   YY=    41.8075   ZY=    -1.1900
   XZ=     5.4807   YZ=    -1.4386   ZZ=    59.0509
   Eigenvalues:    41.0284    47.5832    60.8060
     48  F    Isotropic =   249.7062   Anisotropy =   139.2820
   XX=   285.6719   YX=    14.1970   ZX=    46.8144
   XY=    31.2437   YY=   182.6595   ZY=    52.7706
   XZ=    41.5205   YZ=    40.7164   ZZ=   280.7872
   Eigenvalues:   163.7460   242.8117   342.5609
     49  F    Isotropic =   242.6263   Anisotropy =   126.4159
   XX=   254.1389   YX=    13.1597   ZX=   -35.3483
   XY=    20.3380   YY=   198.0240   ZY=   -68.9904
   XZ=   -25.5903   YZ=   -55.6127   ZZ=   275.7160
   Eigenvalues:   163.4498   237.5255   326.9036
     50  F    Isotropic =   218.8862   Anisotropy =   145.7304
   XX=   232.9176   YX=   -92.7550   ZX=    -4.7910
   XY=   -93.6378   YY=   209.0504   ZY=    10.6437
   XZ=    -1.6293   YZ=    13.9598   ZZ=   214.6907
   Eigenvalues:   126.4493   214.1695   316.0398
     51  F    Isotropic =   219.7559   Anisotropy =   148.0714
   XX=   235.9731   YX=     5.8751   ZX=   -70.8933
   XY=     4.2532   YY=   183.2079   ZY=    43.7573
   XZ=   -75.6621   YZ=    49.9542   ZZ=   240.0866
   Eigenvalues:   134.5045   206.2930   318.4701
     52  F    Isotropic =   254.5201   Anisotropy =   123.7234
   XX=   258.6925   YX=     0.9205   ZX=   -13.1050
   XY=     6.1937   YY=   334.8823   ZY=    29.2533
   XZ=   -11.0109   YZ=     7.8118   ZZ=   169.9853
   Eigenvalues:   166.2702   260.2877   337.0023
     53  F    Isotropic =   233.2298   Anisotropy =   149.4885
   XX=   285.2098   YX=    -6.1381   ZX=    65.0969
   XY=   -16.4693   YY=   188.0882   ZY=    28.4328
   XZ=    76.5914   YZ=    31.6349   ZZ=   226.3915
   Eigenvalues:   151.8887   214.9121   332.8888
     54  F    Isotropic =   243.5049   Anisotropy =   140.2246
   XX=   223.0134   YX=   -40.8326   ZX=    32.9990
   XY=   -51.3417   YY=   316.8938   ZY=     7.5496
   XZ=    37.3585   YZ=    -7.2157   ZZ=   190.6075
   Eigenvalues:   163.4578   230.0689   336.9880
     55  F    Isotropic =   248.3683   Anisotropy =   140.7535
   XX=   333.4558   YX=    25.5399   ZX=     4.0202
   XY=    38.0770   YY=   222.3714   ZY=    43.4899
   XZ=   -10.5892   YZ=    30.7382   ZZ=   189.2777
   Eigenvalues:   162.7222   240.1787   342.2040
     56  F    Isotropic =   222.2532   Anisotropy =   144.6580
   XX=   201.9818   YX=   -25.9925   ZX=    15.1342
   XY=   -28.4980   YY=   165.4794   ZY=    54.3773
   XZ=    15.1740   YZ=    53.8715   ZZ=   299.2984
   Eigenvalues:   132.6676   215.4001   318.6919
     57  F    Isotropic =   247.4352   Anisotropy =   138.5342
   XX=   295.7089   YX=   -18.7795   ZX=   -61.4939
   XY=   -21.7353   YY=   232.6951   ZY=    59.7092
   XZ=   -47.3675   YZ=    41.7681   ZZ=   213.9014
   Eigenvalues:   164.0240   238.4902   339.7913
     58  F    Isotropic =   220.2137   Anisotropy =   148.9008
   XX=   218.6074   YX=    47.2983   ZX=    35.6383
   XY=    48.5746   YY=   158.7603   ZY=    40.5093
   XZ=    35.9148   YZ=    39.4031   ZZ=   283.2735
   Eigenvalues:   129.8162   211.3440   319.4809
     59  F    Isotropic =   244.7610   Anisotropy =   139.1100
   XX=   192.6236   YX=    39.1555   ZX=   -34.0274
   XY=    61.5146   YY=   304.1946   ZY=   -21.2024
   XZ=   -38.3644   YZ=   -29.5242   ZZ=   237.4647
   Eigenvalues:   163.9167   232.8652   337.5010
     60  P    Isotropic =   241.2173   Anisotropy =   110.3124
   XX=   228.7620   YX=    -7.8142   ZX=   -12.5275
   XY=    -4.9424   YY=   232.2145   ZY=    49.2989
   XZ=   -28.7103   YZ=    72.0423   ZZ=   262.6755
   Eigenvalues:   183.4993   225.3937   314.7590
     61  C    Isotropic =    48.8923   Anisotropy =   192.0220
   XX=   -50.3795   YX=    44.5408   ZX=     7.1680
   XY=    42.4049   YY=   122.7461   ZY=    67.0614
   XZ=     7.0644   YZ=    67.2334   ZZ=    74.3101
   Eigenvalues:   -61.3336    31.1035   176.9069
     62  C    Isotropic =    51.7757   Anisotropy =   186.8755
   XX=    34.2158   YX=    35.8225   ZX=    -7.6270
   XY=    33.5606   YY=    95.8086   ZY=   107.4825
   XZ=    -5.4138   YZ=   104.1920   ZZ=    25.3027
   Eigenvalues:   -58.2733    37.2411   176.3594
     63  C    Isotropic =    36.7340   Anisotropy =   207.8165
   XX=   -15.4228   YX=     0.2863   ZX=    48.7642
   XY=    12.2846   YY=   100.6148   ZY=   100.6284
   XZ=    51.1767   YZ=    98.2013   ZZ=    25.0099
   Eigenvalues:   -71.1806     6.1043   175.2783
     64  C    Isotropic =    40.2921   Anisotropy =   174.2873
   XX=   -40.3844   YX=    28.9582   ZX=     9.0446
   XY=    33.4036   YY=   112.5984   ZY=    59.4628
   XZ=     8.6349   YZ=    67.1020   ZZ=    48.6624
   Eigenvalues:   -46.6684    11.0612   156.4836
     65  C    Isotropic =    45.3166   Anisotropy =   193.5172
   XX=    28.3817   YX=    31.7021   ZX=    -0.8086
   XY=    32.4458   YY=    99.3287   ZY=   106.3858
   XZ=    -3.0232   YZ=   106.9098   ZZ=     8.2393
   Eigenvalues:   -66.2275    27.8491   174.3280
     66  C    Isotropic =    54.8479   Anisotropy =   179.7431
   XX=     4.1848   YX=    -1.8809   ZX=    59.9595
   XY=    -1.3070   YY=   123.4256   ZY=    78.1533
   XZ=    57.8460   YZ=    78.0580   ZZ=    36.9331
   Eigenvalues:   -56.0437    45.9106   174.6766
     67  H    Isotropic =    23.8170   Anisotropy =     3.6710
   XX=    24.6958   YX=    -0.8517   ZX=    -0.3649
   XY=    -1.3909   YY=    22.6007   ZY=    -2.8411
   XZ=    -0.4893   YZ=    -2.5468   ZZ=    24.1545
   Eigenvalues:    20.2722    24.9145    26.2643
     68  H    Isotropic =    23.8706   Anisotropy =     6.9110
   XX=    28.0266   YX=    -1.4630   ZX=    -0.4563
   XY=    -2.0867   YY=    21.4950   ZY=    -1.6330
   XZ=    -0.3343   YZ=    -1.2387   ZZ=    22.0901
   Eigenvalues:    19.9887    23.1451    28.4779
     69  H    Isotropic =    22.0704   Anisotropy =    13.0715
   XX=    24.4584   YX=    -5.9945   ZX=     2.1863
   XY=    -8.7425   YY=    21.3472   ZY=    -2.3654
   XZ=     1.4991   YZ=     0.8551   ZZ=    20.4056
   Eigenvalues:    15.3041    20.1224    30.7848
     70  H    Isotropic =    24.5285   Anisotropy =    15.7631
   XX=    33.9977   YX=    -3.5313   ZX=     1.7832
   XY=    -3.8554   YY=    21.2784   ZY=     0.6413
   XZ=    -3.1896   YZ=     0.7964   ZZ=    18.3095
   Eigenvalues:    18.1429    20.4055    35.0373
     71  H    Isotropic =    24.0642   Anisotropy =     8.4045
   XX=    27.9675   YX=    -2.9957   ZX=     1.2434
   XY=    -3.4883   YY=    22.1272   ZY=    -1.5430
   XZ=     0.4069   YZ=    -1.5455   ZZ=    22.0978
   Eigenvalues:    20.0553    22.4701    29.6672
     72  Cl   Isotropic =   906.0576   Anisotropy =   506.0846
   XX=   994.7235   YX=   211.7458   ZX=    66.3535
   XY=   339.4533   YY=   905.7696   ZY=  -190.6271
   XZ=    47.8510   YZ=  -166.8139   ZZ=   817.6798
   Eigenvalues:   554.0077   920.7179  1243.4474
     73  Cl   Isotropic =   893.2372   Anisotropy =   562.1180
   XX=   994.5831   YX=   269.9240   ZX=   -98.6053
   XY=   315.9949   YY=   951.8241   ZY=    46.3346
   XZ=   -99.1182   YZ=    98.6779   ZZ=   733.3045
   Eigenvalues:   582.6923   829.0369  1267.9826
     74  H    Isotropic =    27.5623   Anisotropy =     6.4717
   XX=    29.2998   YX=     0.4369   ZX=     0.7068
   XY=    -2.5626   YY=    30.8331   ZY=    -0.1947
   XZ=    -2.2105   YZ=     4.2693   ZZ=    22.5539
   Eigenvalues:    22.0457    28.7643    31.8768
     75  C    Isotropic =    51.0091   Anisotropy =   197.2956
   XX=   164.4453   YX=   -42.9993   ZX=   -48.0356
   XY=   -42.5919   YY=    18.6096   ZY=   -24.9854
   XZ=   -42.6743   YZ=   -32.0652   ZZ=   -30.0276
   Eigenvalues:   -59.1325    29.6203   182.5395
     76  C    Isotropic =    47.9124   Anisotropy =   196.5738
   XX=   169.7782   YX=   -21.8195   ZX=   -28.5583
   XY=   -28.5138   YY=     9.7268   ZY=    43.7419
   XZ=   -25.4304   YZ=    41.3215   ZZ=   -35.7677
   Eigenvalues:   -61.7310    26.5067   178.9616
     77  C    Isotropic =    44.1885   Anisotropy =   170.2774
   XX=   148.1110   YX=   -40.7619   ZX=    -4.8846
   XY=   -41.6077   YY=   -48.2268   ZY=     5.8031
   XZ=   -18.5825   YZ=     7.1144   ZZ=    32.6814
   Eigenvalues:   -56.6981    31.5568   157.7067
     78  C    Isotropic =    37.4063   Anisotropy =   199.2278
   XX=   157.4732   YX=   -34.5876   ZX=   -35.5518
   XY=   -42.7621   YY=    -8.1661   ZY=   -26.3838
   XZ=   -36.6912   YZ=   -32.5470   ZZ=   -37.0882
   Eigenvalues:   -67.2039     9.1980   170.2248
     79  C    Isotropic =    39.6058   Anisotropy =   185.2642
   XX=   149.2660   YX=   -45.8163   ZX=   -13.1938
   XY=   -33.8202   YY=     5.5320   ZY=    35.8806
   XZ=   -21.9002   YZ=    37.8377   ZZ=   -35.9807
   Eigenvalues:   -57.6582    13.3603   163.1152
     80  C    Isotropic =    46.7630   Anisotropy =   202.2100
   XX=   162.7457   YX=   -59.6202   ZX=   -23.0042
   XY=   -56.9773   YY=   -47.3347   ZY=     5.1434
   XZ=   -25.2836   YZ=     1.2417   ZZ=    24.8781
   Eigenvalues:   -62.5317    21.2511   181.5697
     81  H    Isotropic =    24.7620   Anisotropy =     4.0528
   XX=    23.4741   YX=    -0.9214   ZX=    -2.2150
   XY=    -0.5453   YY=    25.0913   ZY=    -0.7011
   XZ=    -1.5842   YZ=    -2.7371   ZZ=    25.7208
   Eigenvalues:    21.6878    25.1344    27.4639
     82  H    Isotropic =    23.5858   Anisotropy =     3.9500
   XX=    23.3831   YX=     2.7684   ZX=    -0.0495
   XY=     1.5780   YY=    22.9405   ZY=     1.9340
   XZ=     0.3926   YZ=     1.1878   ZZ=    24.4338
   Eigenvalues:    20.6643    23.8741    26.2192
     83  H    Isotropic =    22.6175   Anisotropy =     7.5495
   XX=    20.8497   YX=     3.9705   ZX=     0.7380
   XY=     2.2469   YY=    20.0900   ZY=     1.9147
   XZ=     1.0313   YZ=     1.1869   ZZ=    26.9128
   Eigenvalues:    17.3020    22.9000    27.6505
     84  H    Isotropic =    24.7204   Anisotropy =     8.0850
   XX=    21.6661   YX=    -4.0779   ZX=     3.3243
   XY=     0.4913   YY=    23.2184   ZY=    -0.9773
   XZ=    -1.1935   YZ=    -2.8381   ZZ=    29.2766
   Eigenvalues:    20.4849    23.5658    30.1104
     85  C    Isotropic =    46.4434   Anisotropy =   197.4451
   XX=    58.2130   YX=   -62.0633   ZX=    61.2165
   XY=   -61.4434   YY=   -31.7727   ZY=   -45.9539
   XZ=    60.7176   YZ=   -47.2213   ZZ=   112.8900
   Eigenvalues:   -64.5570    25.8139   178.0735
     86  C    Isotropic =    51.1735   Anisotropy =   187.8647
   XX=    58.2183   YX=     3.9285   ZX=    86.4862
   XY=     4.3185   YY=    10.8059   ZY=   -73.4413
   XZ=    85.9647   YZ=   -71.1632   ZZ=    84.4963
   Eigenvalues:   -59.5091    36.6130   176.4166
     87  C    Isotropic =    42.2287   Anisotropy =   198.7258
   XX=    -0.9827   YX=   -40.1304   ZX=   104.0924
   XY=   -38.7148   YY=    31.0899   ZY=   -32.5234
   XZ=    99.0485   YZ=   -24.2035   ZZ=    96.5790
   Eigenvalues:   -68.5533    20.5269   174.7126
     88  C    Isotropic =    45.2858   Anisotropy =   180.5037
   XX=    59.6144   YX=   -57.6841   ZX=    58.3598
   XY=   -49.4096   YY=   -16.4198   ZY=   -37.3428
   XZ=    67.2336   YZ=   -48.1121   ZZ=    92.6628
   Eigenvalues:   -44.9576    15.1933   165.6215
     89  C    Isotropic =    36.2028   Anisotropy =   185.4746
   XX=    49.8804   YX=     3.9186   ZX=    88.1729
   XY=    -0.3766   YY=     1.0485   ZY=   -69.3823
   XZ=    92.5092   YZ=   -66.7817   ZZ=    57.6793
   Eigenvalues:   -73.3183    22.0741   159.8525
     90  C    Isotropic =    49.1783   Anisotropy =   191.3021
   XX=    13.9311   YX=   -46.7632   ZX=   102.2648
   XY=   -47.8209   YY=    41.2976   ZY=   -23.6221
   XZ=   100.0937   YZ=   -19.9243   ZZ=    92.3060
   Eigenvalues:   -62.8721    33.6939   176.7130
     91  H    Isotropic =    23.5630   Anisotropy =     3.6598
   XX=    23.1781   YX=    -0.6364   ZX=    -2.3092
   XY=    -0.1413   YY=    25.0791   ZY=     0.7389
   XZ=    -2.3118   YZ=     1.0443   ZZ=    22.4318
   Eigenvalues:    20.4240    24.2621    26.0029
     92  H    Isotropic =    23.9162   Anisotropy =     5.9413
   XX=    23.6456   YX=     1.0621   ZX=    -0.9491
   XY=     2.3307   YY=    27.1559   ZY=     0.8167
   XZ=    -0.8791   YZ=     0.9689   ZZ=    20.9472
   Eigenvalues:    20.3751    23.4965    27.8771
     93  H    Isotropic =    24.4367   Anisotropy =    12.5094
   XX=    21.6163   YX=    -2.6225   ZX=     1.3355
   XY=     1.7590   YY=    30.4019   ZY=     6.2819
   XZ=     2.3230   YZ=     4.1299   ZZ=    21.2920
   Eigenvalues:    17.9896    22.5443    32.7763
     94  H    Isotropic =    21.4719   Anisotropy =    13.7454
   XX=    19.7474   YX=     5.6683   ZX=     0.2685
   XY=     6.5917   YY=    27.1842   ZY=    -0.6633
   XZ=    -0.3030   YZ=     0.7419   ZZ=    17.4841
   Eigenvalues:    16.2952    17.4850    30.6355
     95  H    Isotropic =    23.3727   Anisotropy =     7.5290
   XX=    20.3100   YX=     1.2769   ZX=    -0.5466
   XY=     1.2254   YY=    27.9614   ZY=     1.1044
   XZ=    -0.7410   YZ=     1.5758   ZZ=    21.8466
   Eigenvalues:    19.7392    21.9868    28.3920
     96  Pd   Isotropic =  -174.4715   Anisotropy =   251.7429
   XX=  -233.3141   YX=  -233.5678   ZX=    35.1799
   XY=  -258.2080   YY=  -276.6269   ZY=    28.8601
   XZ=    19.6409   YZ=    23.8473   ZZ=   -13.4736
   Eigenvalues:  -504.7415   -12.0301    -6.6429
 End of Minotr F.D. properties file   721 does not exist.
 End of Minotr F.D. properties file   722 does not exist.
 End of Minotr F.D. properties file   788 does not exist.

 **********************************************************************

            Population analysis using the SCF density.

 **********************************************************************

 Orbital symmetries:
       Occupied  (A) (A) (A) (A) (A) (A) (A) (A) (A) (A) (A) (A)
                 (A) (A) (A) (A) (A) (A) (A) (A) (A) (A) (A) (A)
                 (A) (A) (A) (A) (A) (A) (A) (A) (A) (A) (A) (A)
                 (A) (A) (A) (A) (A) (A) (A) (A) (A) (A) (A) (A)
                 (A) (A) (A) (A) (A) (A) (A) (A) (A) (A) (A) (A)
                 (A) (A) (A) (A) (A) (A) (A) (A) (A) (A) (A) (A)
                 (A) (A) (A) (A) (A) (A) (A) (A) (A) (A) (A) (A)
                 (A) (A) (A) (A) (A) (A) (A) (A) (A) (A) (A) (A)
                 (A) (A) (A) (A) (A) (A) (A) (A) (A) (A) (A) (A)
                 (A) (A) (A) (A) (A) (A) (A) (A) (A) (A) (A) (A)
                 (A) (A) (A) (A) (A) (A) (A) (A) (A) (A) (A) (A)
                 (A) (A) (A) (A) (A) (A) (A) (A) (A) (A) (A) (A)
                 (A) (A) (A) (A) (A) (A) (A) (A) (A) (A) (A) (A)
                 (A) (A) (A) (A) (A) (A) (A) (A) (A) (A) (A) (A)
                 (A) (A) (A) (A) (A) (A) (A) (A) (A) (A) (A) (A)
                 (A) (A) (A) (A) (A) (A) (A) (A) (A) (A) (A) (A)
                 (A) (A) (A) (A) (A) (A) (A) (A) (A) (A) (A) (A)
                 (A) (A) (A) (A) (A) (A) (A) (A) (A) (A) (A) (A)
                 (A) (A) (A) (A) (A) (A) (A) (A) (A) (A) (A) (A)
                 (A) (A) (A) (A) (A) (A) (A) (A) (A) (A) (A) (A)
                 (A) (A) (A) (A) (A) (A) (A) (A) (A) (A) (A) (A)
                 (A) (A) (A) (A) (A)
       Virtual   (A) (A) (A) (A) (A) (A) (A) (A) (A) (A) (A) (A)
                 (A) (A) (A) (A) (A) (A) (A) (A) (A) (A) (A) (A)
                 (A) (A) (A) (A) (A) (A) (A) (A) (A) (A) (A) (A)
                 (A) (A) (A) (A) (A) (A) (A) (A) (A) (A) (A) (A)
                 (A) (A) (A) (A) (A) (A) (A) (A) (A) (A) (A) (A)
                 (A) (A) (A) (A) (A) (A) (A) (A) (A) (A) (A) (A)
                 (A) (A) (A) (A) (A) (A) (A) (A) (A) (A) (A) (A)
                 (A) (A) (A) (A) (A) (A) (A) (A) (A) (A) (A) (A)
                 (A) (A) (A) (A) (A) (A) (A) (A) (A) (A) (A) (A)
                 (A) (A) (A) (A) (A) (A) (A) (A) (A) (A) (A) (A)
                 (A) (A) (A) (A) (A) (A) (A) (A) (A) (A) (A) (A)
                 (A) (A) (A) (A) (A) (A) (A) (A) (A) (A) (A) (A)
                 (A) (A) (A) (A) (A) (A) (A) (A) (A) (A) (A) (A)
                 (A) (A) (A) (A) (A) (A) (A) (A) (A) (A) (A) (A)
                 (A) (A) (A) (A) (A) (A) (A) (A) (A) (A) (A) (A)
                 (A) (A) (A) (A) (A) (A) (A) (A) (A) (A) (A) (A)
                 (A) (A) (A) (A) (A) (A) (A) (A) (A) (A) (A) (A)
                 (A) (A) (A) (A) (A) (A) (A) (A) (A) (A) (A) (A)
                 (A) (A) (A) (A) (A) (A) (A) (A) (A) (A) (A) (A)
                 (A) (A) (A) (A) (A) (A) (A) (A) (A) (A) (A) (A)
                 (A) (A) (A) (A) (A) (A) (A) (A) (A) (A) (A) (A)
                 (A) (A) (A) (A) (A) (A) (A) (A) (A) (A) (A) (A)
                 (A) (A) (A) (A) (A) (A) (A) (A) (A) (A) (A) (A)
                 (A) (A) (A) (A) (A) (A) (A) (A) (A) (A) (A) (A)
                 (A) (A) (A) (A) (A) (A) (A) (A) (A) (A) (A) (A)
                 (A) (A) (A) (A) (A) (A) (A) (A) (A) (A) (A) (A)
                 (A) (A) (A) (A) (A) (A) (A) (A) (A) (A) (A) (A)
                 (A) (A) (A) (A) (A) (A) (A) (A) (A) (A) (A) (A)
                 (A) (A) (A) (A) (A) (A) (A) (A) (A) (A) (A) (A)
                 (A) (A) (A) (A) (A) (A) (A) (A) (A) (A) (A) (A)
                 (A) (A) (A) (A) (A) (A) (A) (A) (A) (A) (A) (A)
                 (A) (A) (A) (A) (A) (A) (A) (A) (A) (A) (A) (A)
                 (A) (A) (A) (A) (A) (A) (A) (A) (A) (A) (A) (A)
                 (A) (A) (A) (A) (A) (A) (A) (A) (A) (A) (A) (A)
                 (A) (A) (A) (A) (A) (A) (A) (A) (A) (A) (A) (A)
                 (A) (A) (A) (A) (A) (A) (A) (A) (A) (A) (A) (A)
                 (A) (A) (A) (A) (A) (A) (A) (A) (A) (A) (A) (A)
                 (A) (A) (A) (A) (A) (A) (A) (A) (A) (A) (A) (A)
                 (A) (A) (A) (A) (A) (A) (A) (A) (A) (A) (A) (A)
                 (A) (A) (A) (A) (A) (A) (A) (A) (A) (A) (A) (A)
                 (A) (A) (A) (A) (A) (A) (A) (A) (A) (A) (A) (A)
                 (A) (A) (A) (A) (A) (A) (A) (A) (A) (A) (A) (A)
                 (A) (A) (A) (A) (A) (A) (A) (A) (A) (A) (A) (A)
                 (A) (A) (A) (A) (A) (A) (A) (A) (A) (A) (A) (A)
                 (A) (A) (A) (A) (A) (A) (A) (A) (A) (A) (A) (A)
                 (A) (A) (A) (A) (A) (A) (A) (A) (A) (A) (A) (A)
                 (A) (A) (A) (A) (A) (A) (A) (A) (A) (A) (A) (A)
                 (A) (A) (A) (A) (A) (A) (A) (A) (A) (A) (A) (A)
                 (A) (A) (A) (A) (A) (A) (A) (A) (A) (A) (A) (A)
                 (A) (A) (A) (A) (A) (A) (A) (A) (A) (A) (A) (A)
                 (A) (A) (A) (A) (A) (A) (A) (A) (A) (A) (A) (A)
                 (A) (A) (A) (A) (A) (A) (A) (A) (A) (A) (A) (A)
                 (A) (A) (A) (A) (A) (A) (A) (A) (A) (A) (A) (A)
                 (A) (A) (A) (A) (A) (A) (A) (A) (A) (A) (A) (A)
                 (A) (A) (A) (A) (A) (A) (A) (A) (A) (A) (A) (A)
                 (A) (A) (A) (A) (A) (A) (A) (A) (A) (A) (A) (A)
                 (A) (A) (A) (A) (A) (A) (A) (A) (A) (A) (A) (A)
                 (A) (A) (A) (A) (A) (A) (A) (A) (A) (A) (A) (A)
                 (A) (A) (A) (A) (A) (A) (A) (A) (A) (A) (A) (A)
                 (A) (A) (A) (A) (A) (A) (A) (A) (A) (A) (A) (A)
                 (A) (A) (A) (A) (A) (A) (A) (A) (A) (A) (A) (A)
                 (A) (A) (A) (A) (A) (A) (A) (A) (A) (A) (A) (A)
                 (A) (A) (A) (A) (A) (A) (A) (A) (A) (A) (A) (A)
                 (A) (A) (A) (A) (A) (A) (A) (A) (A) (A) (A) (A)
                 (A) (A) (A) (A) (A) (A) (A) (A) (A) (A) (A) (A)
                 (A) (A) (A) (A) (A) (A) (A) (A) (A) (A) (A) (A)
                 (A) (A) (A) (A) (A) (A) (A) (A) (A) (A) (A) (A)
                 (A) (A) (A) (A) (A) (A) (A) (A) (A) (A) (A) (A)
                 (A) (A) (A) (A) (A) (A) (A) (A) (A) (A) (A) (A)
                 (A) (A) (A) (A) (A) (A) (A) (A) (A) (A) (A) (A)
                 (A) (A) (A) (A) (A) (A) (A) (A) (A) (A) (A) (A)
                 (A) (A) (A) (A) (A) (A) (A) (A) (A) (A) (A) (A)
                 (A) (A) (A) (A) (A) (A) (A) (A) (A) (A) (A) (A)
                 (A) (A) (A) (A) (A) (A) (A) (A) (A) (A) (A) (A)
                 (A) (A) (A) (A) (A) (A) (A) (A) (A) (A) (A) (A)
                 (A) (A) (A) (A) (A) (A) (A) (A) (A) (A) (A) (A)
                 (A) (A) (A) (A) (A) (A) (A) (A) (A) (A) (A) (A)
                 (A) (A) (A) (A) (A) (A) (A) (A) (A) (A) (A) (A)
                 (A) (A) (A) (A) (A) (A) (A) (A) (A) (A) (A) (A)
                 (A) (A) (A) (A) (A) (A) (A) (A) (A) (A) (A) (A)
                 (A) (A) (A) (A) (A) (A) (A) (A) (A) (A) (A) (A)
                 (A) (A) (A) (A) (A) (A) (A) (A) (A) (A) (A) (A)
                 (A) (A) (A) (A) (A) (A) (A) (A) (A) (A) (A) (A)
                 (A) (A) (A) (A) (A) (A) (A) (A) (A) (A) (A) (A)
                 (A) (A) (A) (A) (A) (A) (A) (A) (A) (A) (A) (A)
                 (A) (A) (A) (A) (A) (A) (A) (A) (A) (A) (A) (A)
                 (A) (A) (A) (A) (A) (A) (A) (A) (A) (A) (A) (A)
                 (A) (A) (A) (A) (A) (A) (A) (A) (A) (A) (A) (A)
                 (A) (A) (A) (A) (A) (A) (A) (A) (A) (A) (A) (A)
                 (A) (A) (A) (A) (A) (A) (A) (A) (A) (A) (A) (A)
                 (A) (A) (A) (A) (A) (A) (A) (A) (A) (A) (A) (A)
                 (A) (A) (A) (A) (A) (A) (A) (A) (A) (A) (A) (A)
                 (A) (A) (A) (A) (A) (A) (A) (A) (A) (A) (A) (A)
                 (A) (A) (A) (A) (A) (A) (A) (A) (A) (A) (A) (A)
                 (A) (A) (A) (A) (A) (A) (A) (A) (A) (A) (A) (A)
                 (A) (A) (A) (A) (A) (A) (A) (A) (A) (A) (A) (A)
                 (A) (A) (A) (A) (A) (A) (A) (A) (A) (A) (A) (A)
                 (A) (A) (A) (A) (A) (A) (A) (A) (A) (A) (A) (A)
                 (A) (A) (A) (A) (A) (A) (A) (A) (A) (A) (A) (A)
                 (A) (A) (A) (A) (A) (A) (A) (A) (A) (A) (A) (A)
                 (A) (A) (A) (A) (A) (A) (A) (A) (A) (A) (A) (A)
                 (A) (A) (A) (A) (A) (A) (A) (A) (A) (A) (A) (A)
                 (A) (A) (A) (A) (A) (A) (A) (A) (A) (A) (A) (A)
                 (A) (A) (A) (A) (A) (A) (A) (A) (A) (A) (A) (A)
                 (A) (A) (A) (A) (A) (A) (A) (A) (A) (A) (A) (A)
                 (A) (A) (A) (A) (A) (A) (A) (A) (A) (A) (A) (A)
                 (A) (A) (A) (A) (A) (A) (A) (A) (A) (A) (A) (A)
                 (A) (A) (A) (A) (A) (A) (A) (A) (A) (A) (A) (A)
                 (A) (A) (A) (A) (A) (A) (A) (A) (A) (A) (A) (A)
                 (A) (A) (A) (A) (A) (A) (A) (A) (A) (A) (A) (A)
                 (A) (A) (A) (A) (A) (A) (A) (A) (A) (A) (A) (A)
                 (A) (A) (A) (A) (A) (A) (A) (A) (A) (A) (A) (A)
                 (A) (A) (A) (A) (A) (A) (A) (A) (A) (A) (A) (A)
                 (A) (A) (A) (A) (A) (A) (A) (A) (A) (A) (A) (A)
                 (A) (A) (A) (A) (A) (A) (A) (A) (A) (A) (A) (A)
                 (A) (A) (A) (A) (A) (A) (A) (A) (A) (A) (A) (A)
                 (A) (A) (A) (A) (A) (A) (A) (A) (A) (A) (A) (A)
                 (A) (A) (A) (A) (A) (A) (A) (A) (A) (A) (A) (A)
                 (A) (A) (A) (A) (A) (A) (A) (A) (A) (A) (A) (A)
                 (A) (A) (A) (A) (A) (A) (A) (A) (A) (A) (A) (A)
                 (A) (A) (A) (A) (A) (A) (A) (A) (A) (A) (A) (A)
                 (A) (A) (A) (A) (A) (A) (A) (A) (A) (A) (A) (A)
                 (A) (A) (A) (A) (A) (A) (A) (A) (A) (A) (A) (A)
                 (A) (A) (A) (A) (A) (A) (A) (A) (A) (A) (A) (A)
                 (A) (A) (A) (A) (A) (A) (A) (A) (A) (A) (A) (A)
                 (A) (A) (A) (A) (A) (A) (A) (A) (A) (A) (A) (A)
                 (A) (A) (A) (A) (A) (A) (A) (A) (A) (A) (A) (A)
                 (A) (A) (A) (A) (A) (A) (A) (A) (A) (A) (A) (A)
                 (A) (A) (A) (A) (A) (A) (A) (A) (A) (A) (A) (A)
                 (A) (A) (A) (A) (A) (A) (A) (A) (A) (A) (A) (A)
                 (A) (A) (A) (A) (A) (A) (A) (A) (A) (A) (A) (A)
                 (A) (A) (A) (A) (A) (A) (A) (A) (A) (A) (A) (A)
                 (A) (A) (A) (A) (A) (A) (A) (A) (A) (A) (A) (A)
                 (A) (A) (A) (A) (A) (A) (A) (A) (A) (A) (A) (A)
                 (A) (A) (A) (A) (A) (A) (A) (A) (A) (A) (A) (A)
                 (A) (A) (A) (A) (A) (A) (A) (A) (A) (A) (A) (A)
                 (A) (A) (A) (A) (A) (A) (A) (A) (A) (A) (A) (A)
                 (A) (A) (A) (A) (A) (A) (A) (A) (A) (A) (A) (A)
                 (A) (A) (A) (A) (A) (A) (A) (A) (A) (A) (A) (A)
                 (A) (A) (A) (A) (A) (A) (A) (A) (A) (A) (A) (A)
                 (A) (A) (A) (A) (A) (A) (A) (A) (A) (A) (A) (A)
                 (A) (A) (A) (A) (A) (A) (A) (A) (A) (A) (A) (A)
                 (A) (A) (A) (A) (A) (A) (A) (A) (A) (A) (A) (A)
                 (A) (A) (A) (A) (A) (A) (A) (A) (A) (A) (A) (A)
                 (A) (A) (A) (A) (A) (A) (A) (A) (A) (A) (A) (A)
                 (A) (A) (A) (A) (A) (A) (A) (A) (A) (A) (A) (A)
                 (A) (A) (A) (A) (A) (A) (A) (A) (A) (A) (A) (A)
                 (A) (A) (A) (A) (A) (A) (A) (A) (A) (A) (A) (A)
                 (A) (A) (A) (A) (A) (A) (A) (A) (A) (A) (A) (A)
                 (A) (A) (A) (A) (A) (A) (A) (A) (A) (A) (A) (A)
                 (A) (A) (A) (A) (A) (A) (A) (A) (A) (A) (A) (A)
                 (A) (A) (A) (A) (A) (A) (A) (A) (A) (A) (A) (A)
                 (A) (A) (A) (A) (A) (A) (A) (A) (A) (A) (A) (A)
                 (A) (A) (A) (A) (A) (A) (A) (A) (A) (A) (A) (A)
                 (A) (A) (A) (A) (A) (A) (A) (A) (A) (A) (A) (A)
                 (A) (A) (A) (A) (A) (A) (A) (A) (A) (A) (A) (A)
                 (A) (A) (A) (A) (A) (A) (A) (A) (A) (A) (A) (A)
                 (A) (A) (A) (A) (A) (A) (A) (A) (A) (A) (A) (A)
                 (A) (A) (A) (A) (A) (A) (A) (A) (A) (A) (A) (A)
                 (A) (A) (A) (A) (A) (A) (A) (A) (A) (A) (A) (A)
                 (A) (A) (A) (A) (A) (A) (A) (A) (A) (A) (A) (A)
                 (A) (A) (A) (A) (A) (A) (A) (A) (A) (A) (A) (A)
                 (A) (A) (A) (A) (A) (A) (A) (A) (A) (A) (A) (A)
                 (A) (A) (A) (A)
 The electronic state is 1-A.
 Alpha  occ. eigenvalues -- -101.63179-101.62566 -77.28488 -77.27842 -24.83071
 Alpha  occ. eigenvalues --  -24.82561 -24.82477 -24.82426 -24.82300 -24.81963
 Alpha  occ. eigenvalues --  -24.81812 -24.81763 -24.81385 -24.80968 -24.80820
 Alpha  occ. eigenvalues --  -24.80444 -10.50452 -10.50037 -10.49407 -10.48580
 Alpha  occ. eigenvalues --  -10.29844 -10.29684 -10.29492 -10.29140 -10.29102
 Alpha  occ. eigenvalues --  -10.28809 -10.28761 -10.28650 -10.28433 -10.28428
 Alpha  occ. eigenvalues --  -10.28411 -10.28154 -10.27942 -10.27706 -10.27629
 Alpha  occ. eigenvalues --  -10.26825 -10.26512 -10.26486 -10.26426 -10.26387
 Alpha  occ. eigenvalues --  -10.26153 -10.26017 -10.25958 -10.25915 -10.25739
 Alpha  occ. eigenvalues --  -10.25509 -10.25364 -10.25350 -10.25250 -10.25194
 Alpha  occ. eigenvalues --  -10.25183 -10.25088 -10.25035 -10.24995 -10.24976
 Alpha  occ. eigenvalues --  -10.24945 -10.24821 -10.24670 -10.24592 -10.24508
 Alpha  occ. eigenvalues --  -10.24410 -10.23797  -9.45699  -9.45076  -7.18885
 Alpha  occ. eigenvalues --   -7.18420  -7.18386  -7.18289  -7.17789  -7.17746
 Alpha  occ. eigenvalues --   -6.67677  -6.66999  -4.81292  -4.81215  -4.80999
 Alpha  occ. eigenvalues --   -4.80595  -4.80570  -4.80345  -3.61518  -3.53233
 Alpha  occ. eigenvalues --   -2.26109  -2.21803  -2.21752  -2.21052  -2.20839
 Alpha  occ. eigenvalues --   -2.17425  -1.36302  -1.35833  -1.35266  -1.34398
 Alpha  occ. eigenvalues --   -1.28105  -1.27598  -1.27545  -1.27132  -1.26998
 Alpha  occ. eigenvalues --   -1.26591  -1.26088  -1.25736  -0.94730  -0.93819
 Alpha  occ. eigenvalues --   -0.93505  -0.91821  -0.90894  -0.90255  -0.89476
 Alpha  occ. eigenvalues --   -0.86090  -0.86022  -0.84931  -0.83271  -0.82574
 Alpha  occ. eigenvalues --   -0.82503  -0.81527  -0.79359  -0.79093  -0.78423
 Alpha  occ. eigenvalues --   -0.78254  -0.76180  -0.76044  -0.75438  -0.75043
 Alpha  occ. eigenvalues --   -0.74880  -0.74648  -0.74627  -0.74282  -0.74114
 Alpha  occ. eigenvalues --   -0.73776  -0.72206  -0.70076  -0.68566  -0.67860
 Alpha  occ. eigenvalues --   -0.67317  -0.66997  -0.65719  -0.64951  -0.64725
 Alpha  occ. eigenvalues --   -0.64441  -0.63598  -0.63523  -0.63342  -0.63216
 Alpha  occ. eigenvalues --   -0.63123  -0.62791  -0.62366  -0.62211  -0.61971
 Alpha  occ. eigenvalues --   -0.61319  -0.61022  -0.60286  -0.58207  -0.58118
 Alpha  occ. eigenvalues --   -0.57622  -0.57419  -0.57108  -0.56952  -0.56332
 Alpha  occ. eigenvalues --   -0.56146  -0.55721  -0.55136  -0.54696  -0.54262
 Alpha  occ. eigenvalues --   -0.53876  -0.52798  -0.52113  -0.52071  -0.51131
 Alpha  occ. eigenvalues --   -0.50986  -0.50756  -0.50682  -0.50369  -0.50064
 Alpha  occ. eigenvalues --   -0.49774  -0.49595  -0.49229  -0.49192  -0.48834
 Alpha  occ. eigenvalues --   -0.48817  -0.48441  -0.48121  -0.47952  -0.47627
 Alpha  occ. eigenvalues --   -0.47467  -0.47239  -0.47018  -0.46830  -0.46661
 Alpha  occ. eigenvalues --   -0.46343  -0.46010  -0.45733  -0.45654  -0.45559
 Alpha  occ. eigenvalues --   -0.45459  -0.45329  -0.45150  -0.45058  -0.44957
 Alpha  occ. eigenvalues --   -0.44781  -0.44598  -0.44507  -0.44422  -0.44175
 Alpha  occ. eigenvalues --   -0.44145  -0.44049  -0.43900  -0.43472  -0.43396
 Alpha  occ. eigenvalues --   -0.43263  -0.43044  -0.42649  -0.42188  -0.41879
 Alpha  occ. eigenvalues --   -0.41422  -0.40994  -0.40736  -0.40526  -0.40453
 Alpha  occ. eigenvalues --   -0.40319  -0.40177  -0.39821  -0.39565  -0.39249
 Alpha  occ. eigenvalues --   -0.38907  -0.38747  -0.38293  -0.38191  -0.37782
 Alpha  occ. eigenvalues --   -0.37544  -0.37377  -0.36924  -0.36608  -0.36289
 Alpha  occ. eigenvalues --   -0.34792  -0.33638  -0.33118  -0.32545  -0.32296
 Alpha  occ. eigenvalues --   -0.31661  -0.31024  -0.30814  -0.29873  -0.29698
 Alpha  occ. eigenvalues --   -0.29636  -0.29259  -0.29070  -0.28818  -0.28653
 Alpha  occ. eigenvalues --   -0.28321  -0.27842  -0.27488  -0.27329  -0.26518
 Alpha  occ. eigenvalues --   -0.26482  -0.26041  -0.25755  -0.24962  -0.24675
 Alpha  occ. eigenvalues --   -0.23549  -0.23489
 Alpha virt. eigenvalues --   -0.09490  -0.08230  -0.07747  -0.06364  -0.05803
 Alpha virt. eigenvalues --   -0.05704  -0.05183  -0.04528  -0.03391  -0.03232
 Alpha virt. eigenvalues --   -0.02153  -0.01492  -0.01295  -0.00939  -0.00292
 Alpha virt. eigenvalues --    0.00707   0.01441   0.01648   0.02215   0.02735
 Alpha virt. eigenvalues --    0.03527   0.03632   0.03940   0.04425   0.04547
 Alpha virt. eigenvalues --    0.04667   0.04901   0.05173   0.05349   0.05641
 Alpha virt. eigenvalues --    0.05903   0.06081   0.06095   0.06333   0.06936
 Alpha virt. eigenvalues --    0.06984   0.07424   0.07592   0.07913   0.08180
 Alpha virt. eigenvalues --    0.08468   0.08590   0.08957   0.09110   0.09370
 Alpha virt. eigenvalues --    0.09522   0.09777   0.09977   0.10214   0.10344
 Alpha virt. eigenvalues --    0.10704   0.10832   0.11032   0.11283   0.11423
 Alpha virt. eigenvalues --    0.11564   0.11861   0.12088   0.12303   0.12664
 Alpha virt. eigenvalues --    0.12686   0.12827   0.12976   0.13107   0.13166
 Alpha virt. eigenvalues --    0.13551   0.13714   0.13795   0.14008   0.14356
 Alpha virt. eigenvalues --    0.14661   0.14794   0.15175   0.15228   0.15774
 Alpha virt. eigenvalues --    0.16013   0.16217   0.16524   0.16760   0.16818
 Alpha virt. eigenvalues --    0.16940   0.16971   0.17284   0.17531   0.17626
 Alpha virt. eigenvalues --    0.17914   0.18047   0.18212   0.18543   0.18653
 Alpha virt. eigenvalues --    0.18921   0.18958   0.19244   0.19338   0.19478
 Alpha virt. eigenvalues --    0.19789   0.19933   0.20197   0.20631   0.20740
 Alpha virt. eigenvalues --    0.20782   0.20941   0.21045   0.21249   0.21288
 Alpha virt. eigenvalues --    0.21535   0.21662   0.21847   0.22004   0.22161
 Alpha virt. eigenvalues --    0.22267   0.22614   0.22740   0.22834   0.22878
 Alpha virt. eigenvalues --    0.23049   0.23155   0.23351   0.23474   0.23677
 Alpha virt. eigenvalues --    0.23761   0.23945   0.24078   0.24208   0.24278
 Alpha virt. eigenvalues --    0.24405   0.24505   0.24647   0.24929   0.25021
 Alpha virt. eigenvalues --    0.25342   0.25606   0.25770   0.25910   0.26014
 Alpha virt. eigenvalues --    0.26204   0.26398   0.26484   0.26743   0.27059
 Alpha virt. eigenvalues --    0.27142   0.27328   0.27613   0.27778   0.27885
 Alpha virt. eigenvalues --    0.28051   0.28248   0.28330   0.28650   0.28822
 Alpha virt. eigenvalues --    0.29334   0.29563   0.29633   0.29952   0.30238
 Alpha virt. eigenvalues --    0.30398   0.30527   0.30685   0.30840   0.31074
 Alpha virt. eigenvalues --    0.31292   0.31468   0.31830   0.31888   0.32069
 Alpha virt. eigenvalues --    0.32408   0.32491   0.32843   0.33121   0.33262
 Alpha virt. eigenvalues --    0.33597   0.33611   0.33732   0.33939   0.34083
 Alpha virt. eigenvalues --    0.34263   0.34415   0.34531   0.34784   0.34915
[...]
                                                    1691(r),1029(r),1980(r)
                                                    1009(r),1556(r),1005(r)
                                                    609(r),1695(r),659(r),774(r)
                                                    1798(r),1586(r),1701(r)
                                                    266(r),662(r),1709(r)
                                                    1585(r),2185(r),1467(r)
                                                    2098(r),796(r),1028(r)
                                                    2099(r),556(r),655(r)
                                                    2128(r),534(r),1989(r)
                                                    747(r),2216(r),2124(r)
                                                    1008(r),1703(r),753(r)
                                                    978(r),1950(r),1779(r)
                                                    1102(r),596(r),602(r)
                                                    1566(r),2008(r),1859(r)
                                                    1951(r),1710(r),1466(r)
                                                    570(r),782(r),1544(r),997(r)
                                                    265(r),635(r),651(r),1838(r)
                                                    1829(r),1539(r),689(r)
                                                    1558(r),537(r),1001(r)
                                                    437(r),1826(r),561(r),647(r)
                                                    652(r),663(r),982(r),1571(r)
                                                    1583(r),540(r),429(r),773(r)
                                                    601(r),600(r),211(r),637(r)
                                                    1925(r),512(r),780(r)
                                                    1978(r),425(r),757(r),785(r)
                                                    1834(r),1471(r),1690(r)
                                                    1565(r),2175(r),1540(r)
                                                    1949(r),1103(r),481(r)
                                                    622(r),1534(r),2007(r)
                                                    1775(r),2097(r)
  1659. RY*(   1)Cl  72                  0.00118     0.81739   
  1660. RY*(   2)Cl  72                  0.00116     0.80904   
  1661. RY*(   3)Cl  72                  0.00101     0.94657   
  1662. RY*(   4)Cl  72                  0.00031     0.87233   
  1663. RY*(   5)Cl  72                  0.00019     1.00064   
  1664. RY*(   6)Cl  72                  0.00013     1.50954   
  1665. RY*(   7)Cl  72                  0.00013     1.74057   
  1666. RY*(   8)Cl  72                  0.00009     2.20249   
  1667. RY*(   9)Cl  72                  0.00005     1.43058   
  1668. RY*(  10)Cl  72                  0.00004     1.95817   
  1669. RY*(  11)Cl  72                  0.00001     2.03522   
  1670. RY*(  12)Cl  72                  0.00000    10.60705   
  1671. RY*(  13)Cl  72                  0.00000    10.57456   
  1672. RY*(  14)Cl  72                  0.00000    24.87916   
  1673. RY*(  15)Cl  72                  0.00001     1.95352   
  1674. RY*(  16)Cl  72                  0.00001     2.79713   
  1675. RY*(  17)Cl  72                  0.00001     1.84957   
  1676. RY*(  18)Cl  72                  0.00000    10.55065   
  1677. RY*(  19)Cl  72                  0.00001     1.96069   
  1678. RY*(  20)Cl  72                  0.00000     2.80585   
  1679. RY*(  21)Cl  72                  0.00000     2.61482   
  1680. RY*(  22)Cl  72                  0.00000     2.15870   
  1681. RY*(  23)Cl  72                  0.00000     2.23104   
  1682. RY*(  24)Cl  72                  0.00000     2.21071   
  1683. RY*(  25)Cl  72                  0.00000     2.17089   
  1684. RY*(  26)Cl  72                  0.00000     2.18444   
  1685. RY*(  27)Cl  72                  0.00000     2.18554   
  1686. RY*(  28)Cl  72                  0.00000     2.17380   
       -------------------------------
              Total Lewis   17.38307  ( 99.9750%)
        Valence non-Lewis    0.00000  (  0.0000%)
        Rydberg non-Lewis    0.00435  (  0.0250%)
       -------------------------------
            Total unit  4   17.38743  (100.0000%)
           Charge unit  4   -0.38743

 Molecular unit  5  (Cl)
   184. CR (   1)Cl  73                  2.00000   -99.98503  265(r),264(r)
   185. CR (   2)Cl  73                  1.99971   -10.70030  265(r),264(r),2077(r)
                                                    2128(r),266(r),2176(r)
                                                    2080(r),2079(r)
   186. CR (   3)Cl  73                  1.99997    -7.18176  265(r),266(r)
   187. CR (   4)Cl  73                  1.99996    -7.18299  265(r)
   188. CR (   5)Cl  73                  1.99995    -7.18378  265(r),2176(r)
   256. LP (   1)Cl  73                  1.95582    -0.48486  265(r),2138(r),2080(r)
                                                    2128(r),266(r),2077(r)
                                                    1450(r),2096(r),2081(r)
                                                    2083(r),2082(r),2097(r)
                                                    2092(r),618(r),2091(r)
                                                    2086(r),2176(r),2088(r)
                                                    2085(r),2079(r),2090(r)
                                                    2143(r),2094(r),2137(r)
                                                    1451(r),2084(r),2142(r)
                                                    2078(r),2127(r),2087(r)
                                                    1557(r),215(r),1824(r)
                                                    1825(r),1662(r),264(r)
                                                    1458(r),1461(r),2099(r)
                                                    592(r),1464(r),1561(r)
                                                    1975(r),1462(r),2129(r)
                                                    2098(r),1460(r),747(r)
                                                    1452(r),1459(r),1465(r)
   257. LP (   2)Cl  73                  1.95083    -0.50557  265(r),264(r),2098(r)
                                                    2078(r),2080(r),2082(r)
                                                    2083(r),2079(r),2132(r)
                                                    2128(r),2099(r),266(r)
                                                    2085(r),2095(r),2127(r)
                                                    2086(r),2097(r),2124(r)
                                                    619(r),2092(r),2094(r)
                                                    1451(r)
   258. LP (   3)Cl  73                  1.94450    -0.47748  265(r),266(r),2128(r)
                                                    2079(r),2083(r),2099(r)
                                                    2132(r),215(r),2077(r)
                                                    2080(r),2141(r),2078(r)
                                                    560(r),2087(r),2067(r)
                                                    1450(r),14(r),2092(r)
                                                    2143(r),2093(r),2082(r)
                                                    1451(r),2091(r),2096(r)
                                                    1662(r),2216(r)
   259. LP (   4)Cl  73                  1.55502    -0.39115  265(r),2176(r),2090(r)
                                                    2092(r),1450(r),2088(r)
                                                    2096(r),2094(r),2085(r)
                                                    618(r),2091(r),2081(r)
                                                    2128(r),2084(r),2087(r)
                                                    592(r),2129(r),264(r)
                                                    2086(r),2078(r),1557(r)
                                                    2095(r),1458(r),1975(r)
                                                    1693(g),994(r),1689(g)
                                                    1461(r),630(r),1825(r)
                                                    1003(r),771(r),993(r)
                                                    2082(r),2083(r),626(r)
                                                    627(r),266(r),629(r),646(r)
                                                    624(r),1459(r),1561(r)
                                                    1824(r),2079(r),531(r)
                                                    800(r),598(r),1454(r)
                                                    1664(r),628(r),1451(r)
                                                    625(r),533(r),1452(r)
                                                    2003(r),1107(r),1983(r)
                                                    1464(r),1974(r),1800(r)
                                                    1022(r),1460(r),1666(r)
                                                    631(r),1662(r),998(r)
                                                    1462(r),620(r),1558(r)
                                                    430(r),996(r),1986(r)
                                                    2004(r),1023(r),1802(r)
                                                    1827(r),619(r),1952(r)
                                                    1835(r),1584(r),1587(r)
                                                    798(r),1665(r),1020(r)
                                                    2067(r),797(r),748(r),636(r)
                                                    995(r),1556(r),799(r),559(r)
                                                    1801(r),801(r),2099(r)
                                                    1950(r),604(r),2080(r)
                                                    1980(r),606(r),1673(r)
                                                    1533(r),770(r),1001(r)
                                                    1009(r),1005(r),425(r)
                                                    1566(r),2097(r),1465(r)
                                                    534(r),1840(r),1029(r)
                                                    2127(r),609(r),2132(r)
                                                    1585(r),1661(r),2008(r)
                                                    623(r),2009(r),1836(r)
                                                    803(r),1833(r),214(r)
                                                    1779(r),2098(r),775(r)
                                                    1008(r),2001(r),659(r)
                                                    753(r),774(r),1828(r)
                                                    1102(r),1659(r),1559(r)
                                                    1951(r),2174(r),437(r)
                                                    978(r),1463(r),662(r)
                                                    1586(r),638(r),596(r)
                                                    1028(r),635(r),558(r)
                                                    1663(r),1455(r),1544(r)
                                                    602(r),1830(r),1681(r)
                                                    1466(r),982(r),747(r)
                                                    2138(r),780(r),1675(r)
                                                    1979(r),772(r),1798(r)
                                                    1829(r),1859(r),773(r)
                                                    796(r),1583(r),536(r)
                                                    1832(r),655(r),1000(r)
                                                    1775(r),1949(r),530(r)
                                                    1674(r),1682(r),211(r),14(r)
                                                    600(r),2093(r),601(r),663(r)
                                                    651(r),782(r),1467(r),512(r)
                                                    647(r),1684(r),1989(r)
                                                    561(r),562(r),2141(r)
                                                    1103(r),537(r),2119(r)
                                                    1834(r),429(r),1541(r)
                                                    1025(r),1649(r),546(r)
                                                    997(r),1004(r),1540(r)
                                                    1838(r),535(r),1471(r)
                                                    557(r)
  1687. RY*(   1)Cl  73                  0.00127     0.80748   
  1688. RY*(   2)Cl  73                  0.00105     0.79073   
  1689. RY*(   3)Cl  73                  0.00085     0.88896   
  1690. RY*(   4)Cl  73                  0.00037     0.93918   
  1691. RY*(   5)Cl  73                  0.00027     0.93350   
  1692. RY*(   6)Cl  73                  0.00012     1.39339   
  1693. RY*(   7)Cl  73                  0.00010     1.75158   
  1694. RY*(   8)Cl  73                  0.00007     1.85562   
  1695. RY*(   9)Cl  73                  0.00007     2.66084   
  1696. RY*(  10)Cl  73                  0.00004     1.55562   
  1697. RY*(  11)Cl  73                  0.00000    10.58320   
  1698. RY*(  12)Cl  73                  0.00000    10.54111   
  1699. RY*(  13)Cl  73                  0.00001     2.06478   
  1700. RY*(  14)Cl  73                  0.00000    25.09255   
  1701. RY*(  15)Cl  73                  0.00001     2.04375   
  1702. RY*(  16)Cl  73                  0.00001     2.76246   
  1703. RY*(  17)Cl  73                  0.00001     1.90265   
  1704. RY*(  18)Cl  73                  0.00000    10.52993   
  1705. RY*(  19)Cl  73                  0.00001     1.93913   
  1706. RY*(  20)Cl  73                  0.00001     2.69633   
  1707. RY*(  21)Cl  73                  0.00000     2.49367   
  1708. RY*(  22)Cl  73                  0.00000     2.19630   
  1709. RY*(  23)Cl  73                  0.00001     2.25166   
  1710. RY*(  24)Cl  73                  0.00000     2.22555   
  1711. RY*(  25)Cl  73                  0.00000     2.17240   
  1712. RY*(  26)Cl  73                  0.00000     2.18405   
  1713. RY*(  27)Cl  73                  0.00000     2.17902   
  1714. RY*(  28)Cl  73                  0.00001     2.20160   
       -------------------------------
              Total Lewis   17.40577  ( 99.9754%)
        Valence non-Lewis    0.00000  (  0.0000%)
        Rydberg non-Lewis    0.00428  (  0.0246%)
       -------------------------------
            Total unit  5   17.41005  (100.0000%)
           Charge unit  5   -0.41005
 1\1\GINC-NC011\SP\RPBE1PBE\Gen\C46H32Cl2F12Fe1P2Pd1\MACKK4\06-Dec-2021
 \0\\# PBE1PBE gen pseudo=read int=(grid=ultrafine) empiricaldispersion
 =GD3BJ pop=nbo guess=read geom=check\\W001_1_6_F_1 title\\0,1\C,0,-0.1
 971867679,-3.5551277942,5.2285849396\C,0,0.4189151073,-2.8689344904,6.
 3315110787\C,0,1.8311882879,-3.1271931117,6.2838694362\C,0,2.088886757
 7,-3.9756746847,5.1551122388\C,0,0.8363504357,-4.2389072597,4.49817282
 74\H,0,-0.0896634289,-2.2187941257,7.0441475681\H,0,2.5821012376,-2.71
 30888279,6.9574660112\H,0,3.0716110056,-4.3328420703,4.8457435652\H,0,
 0.6940059684,-4.837825916,3.5972016043\H,0,-1.2570244417,-3.5292713559
 ,4.972873849\Fe,0,1.1963505998,-2.22288392,4.5543525078\C,0,1.12423815
 64,-0.1820452772,4.7125360864\C,0,2.413695972,-0.6084401149,4.25668673
 53\C,0,2.2392443693,-1.348493788,3.0294570548\C,0,0.8101491466,-1.3866
 520716,2.7474770956\C,0,0.1412134982,-0.6484515052,3.7848730112\H,0,0.
 9218814241,0.3659503802,5.6326187933\H,0,-0.9327546407,-0.4895864062,3
 .8588835122\C,0,0.182839697,-1.9604332382,1.5025689308\P,0,0.668976065
 2,-0.7430281586,0.1229319235\H,0,0.675759181,-2.9203287787,1.273452747
 6\C,0,-1.3319600314,-2.1673665405,1.6284155828\H,0,-1.7484498611,-2.70
 10217945,0.7608353391\H,0,-1.5295308817,-2.7686667257,2.5323243715\H,0
 ,-1.8516000141,-1.2005797029,1.7225156652\C,0,-2.5579811324,-0.4183868
 173,-3.2234192054\C,0,-1.9781625138,0.7353449371,-2.6818219904\C,0,-1.
 0423290389,0.6460089156,-1.6414606634\C,0,-0.670154747,-0.612704189,-1
 .1429284789\C,0,-1.2233227492,-1.7736232229,-1.7089387175\C,0,-2.17558
 15534,-1.6734710438,-2.7319738588\H,0,-3.2940286454,-0.3414995662,-4.0
 271967799\C,0,-2.4045634242,2.0995448719,-3.1719666604\H,0,-0.61416297
 73,1.5520819045,-1.2066594858\H,0,-0.9131684586,-2.7664114216,-1.37040
 14761\C,0,-2.7235369522,-2.9316853532,-3.3590114258\C,0,3.5287575555,-
 2.858567741,-2.9125771188\C,0,2.8329602555,-3.6363360984,-1.9795814608
 \C,0,2.0034826211,-3.0365093894,-1.0217747012\C,0,1.8543716351,-1.6411
 500747,-0.9901025375\C,0,2.5433886918,-0.8626056877,-1.9366448154\C,0,
 3.3828693854,-1.4666342214,-2.8806592685\H,0,4.1774867989,-3.330057275
 3,-3.655241838\C,0,3.0501668656,-5.1294465006,-1.9765818705\H,0,1.4870
 265529,-3.6803479235,-0.3072898831\H,0,2.4382852806,0.2253710794,-1.93
 22287115\C,0,4.2155811546,-0.6006656741,-3.7935753127\F,0,4.5809627334
 ,-1.2594703282,-4.9247357438\F,0,3.5572818122,0.5284618116,-4.16229993
 29\F,0,5.3656991525,-0.2120282513,-3.1656968686\F,0,4.3063153873,-5.44
 08263432,-1.5322920863\F,0,2.1676157165,-5.7766035523,-1.1710269071\F,
 0,2.9380391294,-5.6511908376,-3.2255188447\F,0,-1.3689630785,2.9806363
 345,-3.1438037817\F,0,-2.8691891802,2.0469190843,-4.4514800739\F,0,-3.
 3973007784,2.6143236376,-2.4019657305\F,0,-3.967504935,-2.7406524417,-
 3.870005635\F,0,-1.9294737761,-3.3631969719,-4.3787617078\F,0,-2.79542
 93758,-3.9478150594,-2.453795675\P,0,3.5687017135,0.8475425934,1.26415
 1145\C,0,6.3680577812,2.3546710429,4.6730263232\C,0,5.5987412698,3.260
 8458694,3.9290624139\C,0,4.7329387998,2.8044847944,2.9281931145\C,0,4.
 6208166906,1.422700761,2.6695519974\C,0,5.4112197749,0.516186551,3.404
 5884761\C,0,6.2772699582,0.9825930972,4.4035069708\H,0,7.043371193,2.7
 175711538,5.4546911281\H,0,5.6691092415,4.3351276578,4.1269838312\H,0,
 4.1274569454,3.5123109827,2.3587140654\H,0,5.362583592,-0.5554027262,3
 .1936135445\H,0,6.8858900277,0.2669018879,4.9660842383\Cl,0,1.60218299
 9,3.3323880839,2.1663490059\Cl,0,-1.0940511184,1.4888485971,1.40537785
 06\H,0,3.3625155456,-0.4307921108,4.7600879648\C,0,5.1854529324,-2.839
 1677035,0.2481228629\C,0,4.5252183937,-3.7173856673,1.116021826\C,0,3.
 5831770351,-3.218695628,2.0231403723\C,0,3.2864687052,-1.8444193544,2.
 0981765525\C,0,3.962500543,-0.9584047789,1.2093089875\C,0,4.9027010673
 ,-1.4686629681,0.2945920006\H,0,5.8991383737,-3.223048419,-0.486937646
 \H,0,4.7227926003,-4.7921623764,1.0655904968\H,0,3.0462604839,-3.89144
 84727,2.6957085044\H,0,5.3868370546,-0.7976017805,-0.4201725269\C,0,5.
 6383718212,2.9565464276,-2.3188573432\C,0,6.423643889,2.3167556039,-1.
 3475686753\C,0,5.816306743,1.6770474688,-0.2607544502\C,0,4.4100499095
 ,1.6539805063,-0.1540023121\C,0,3.6293023609,2.3260733015,-1.113439251
 7\C,0,4.2426361751,2.9699517143,-2.1961513777\H,0,6.1182889907,3.45790
 0319,-3.1652977884\H,0,7.5151772994,2.3250855809,-1.4311835379\H,0,6.4
 319770205,1.2081705489,0.5141161695\H,0,2.540540965,2.3612701777,-0.98
 01882357\H,0,3.6277742061,3.488587991,-2.9380757197\Pd,0,1.2839047619,
 1.2180299615,1.1672757943\\Version=ES64L-G09RevE.01\State=1-A\HF=-4822
 .9387067\RMSD=6.878e-09\Dipole=2.9182856,-2.1093866,0.6273642\Quadrupo
 le=9.952182,-17.5964016,7.6442195,15.4836844,1.7126958,-10.1474725\PG=
 C01 [X(C46H32Cl2F12Fe1P2Pd1)]\\@


 ... FOR AFTERWARDS A MAN FINDS PLEASURE IN HIS PAINS,
 WHEN HE HAS SUFFERED LONG AND WANDERED FAR.

                                    -- HOMER
 Job cpu time:       0 days  6 hours 39 minutes  6.0 seconds.
 File lengths (MBytes):  RWF=   2518 Int=      0 D2E=      0 Chk=    352 Scr=      1
 Normal termination of Gaussian 09 at Mon Dec  6 18:56:09 2021.
