 Entering Gaussian System, Link 0=g09
 Input=W001_1_6_F_2_SPE.com
 Output=W001_1_6_F_2_SPE.log
 Initial command:
 /gstore/apps/gaussian/g09.e01-foss-2017a/g09/l1.exe "/local/22791614/Gau-21995.inp" -scrdir="/local/22791614/"
 Entering Link 1 = /gstore/apps/gaussian/g09.e01-foss-2017a/g09/l1.exe PID=     22001.
  
 Copyright (c) 1988,1990,1992,1993,1995,1998,2003,2009,2015,
            Gaussian, Inc.  All Rights Reserved.
  
 This is part of the Gaussian(R) 09 program.  It is based on
 the Gaussian(R) 03 system (copyright 2003, Gaussian, Inc.),
 the Gaussian(R) 98 system (copyright 1998, Gaussian, Inc.),
 the Gaussian(R) 94 system (copyright 1995, Gaussian, Inc.),
 the Gaussian 92(TM) system (copyright 1992, Gaussian, Inc.),
 the Gaussian 90(TM) system (copyright 1990, Gaussian, Inc.),
 the Gaussian 88(TM) system (copyright 1988, Gaussian, Inc.),
 the Gaussian 86(TM) system (copyright 1986, Carnegie Mellon
 University), and the Gaussian 82(TM) system (copyright 1983,
 Carnegie Mellon University). Gaussian is a federally registered
 trademark of Gaussian, Inc.
  
 This software contains proprietary and confidential information,
 including trade secrets, belonging to Gaussian, Inc.
  
 This software is provided under written license and may be
 used, copied, transmitted, or stored only in accord with that
 written license.
  
 The following legend is applicable only to US Government
 contracts under FAR:
  
                    RESTRICTED RIGHTS LEGEND
  
 Use, reproduction and disclosure by the US Government is
 subject to restrictions as set forth in subparagraphs (a)
 and (c) of the Commercial Computer Software - Restricted
 Rights clause in FAR 52.227-19.
  
 Gaussian, Inc.
 340 Quinnipiac St., Bldg. 40, Wallingford CT 06492
  
  
 ---------------------------------------------------------------
 Warning -- This program may not be used in any manner that
 competes with the business of Gaussian, Inc. or will provide
 assistance to any competitor of Gaussian, Inc.  The licensee
 of this program is prohibited from giving any competitor of
 Gaussian, Inc. access to this program.  By using this program,
 the user acknowledges that Gaussian, Inc. is engaged in the
 business of creating and licensing software in the field of
 computational chemistry and represents and warrants to the
 licensee that it is not a competitor of Gaussian, Inc. and that
 it will not use this program in any manner prohibited above.
 ---------------------------------------------------------------
  

 Cite this work as:
 Gaussian 09, Revision E.01,
 M. J. Frisch, G. W. Trucks, H. B. Schlegel, G. E. Scuseria, 
 M. A. Robb, J. R. Cheeseman, G. Scalmani, V. Barone, B. Mennucci, 
 G. A. Petersson, H. Nakatsuji, M. Caricato, X. Li, H. P. Hratchian, 
 A. F. Izmaylov, J. Bloino, G. Zheng, J. L. Sonnenberg, M. Hada, 
 M. Ehara, K. Toyota, R. Fukuda, J. Hasegawa, M. Ishida, T. Nakajima, 
 Y. Honda, O. Kitao, H. Nakai, T. Vreven, J. A. Montgomery, Jr., 
 J. E. Peralta, F. Ogliaro, M. Bearpark, J. J. Heyd, E. Brothers, 
 K. N. Kudin, V. N. Staroverov, T. Keith, R. Kobayashi, J. Normand, 
 K. Raghavachari, A. Rendell, J. C. Burant, S. S. Iyengar, J. Tomasi, 
 M. Cossi, N. Rega, J. M. Millam, M. Klene, J. E. Knox, J. B. Cross, 
 V. Bakken, C. Adamo, J. Jaramillo, R. Gomperts, R. E. Stratmann, 
 O. Yazyev, A. J. Austin, R. Cammi, C. Pomelli, J. W. Ochterski, 
 R. L. Martin, K. Morokuma, V. G. Zakrzewski, G. A. Voth, 
 P. Salvador, J. J. Dannenberg, S. Dapprich, A. D. Daniels, 
 O. Farkas, J. B. Foresman, J. V. Ortiz, J. Cioslowski, 
 and D. J. Fox, Gaussian, Inc., Wallingford CT, 2013.
 
 ******************************************
 Gaussian 09:  ES64L-G09RevE.01 30-Nov-2015
                 6-Dec-2021 
 ******************************************
 %nprocs=14
 Will use up to   14 processors via shared memory.
 %mem=128GB
 %chk=W001_1_6_F_2_SPE.chk
 ----------------------------------------------------------------------
 # PBE1PBE gen pseudo=read int=(grid=ultrafine) empiricaldispersion=GD3
 BJ nmr=giao
 ----------------------------------------------------------------------
 1/38=1/1;
 2/12=2,17=6,18=5,40=1/2;
 3/5=7,11=2,16=1,17=8,25=1,30=1,74=-13,75=-5,124=41/1,2,8,3;
 4//1;
 5/5=2,38=5/2;
 8/6=1,10=90,11=11/1;
 10/13=100,45=16/2;
 6/7=2,8=2,9=2,10=2,28=1/1;
 99/9=1/99;
 ------------------
 W001_1_6_F_2 title
 ------------------
 Symbolic Z-matrix:
 Charge =  0 Multiplicity = 1
 C                     0.10932  -3.91748   4.14323 
 C                     0.08736  -3.34389   5.46014 
 C                     1.41111  -3.44483   6.01042 
 C                     2.25236  -4.07836   5.03256 
 C                     1.44398  -4.37393   3.87826 
 H                    -0.77003  -2.86774   5.93714 
 H                     1.73336  -3.05918   6.97819 
 H                     3.32023  -4.27249   5.13993 
 H                     1.78102  -4.84712   2.95452 
 H                    -0.73337  -3.97064   3.45266 
 Fe                    1.43807  -2.35672   4.27903 
 C                     1.70764  -0.41399   4.86457 
 C                     2.87516  -0.91646   4.21198 
 C                     2.51971  -1.32423   2.87327 
 C                     1.08298  -1.10814   2.72145 
 C                     0.6113   -0.51851   3.95204 
 H                     1.65157  -0.05641   5.89284 
 H                    -0.42072  -0.24836   4.16903 
 C                     0.18131  -1.48826   1.56276 
 P                     0.66677  -0.47901   0.05147 
 H                     0.34391  -2.55225   1.31692 
 C                    -1.3086   -1.27684   1.88721 
 H                    -1.95186  -1.68469   1.09353 
 H                    -1.54964  -1.79913   2.82776 
 H                    -1.53962  -0.20456   1.99672 
 C                    -2.79478  -0.60985  -3.06488 
 C                    -2.17621   0.60713  -2.75751 
 C                    -1.16059   0.67294  -1.79091 
 C                    -0.75514  -0.49576  -1.12909 
 C                    -1.35481  -1.72553  -1.45604 
 C                    -2.37907  -1.7773   -2.40932 
 H                    -3.58891  -0.65143  -3.81418 
 C                    -2.64201   1.88167  -3.42414 
 H                    -0.70048   1.63124  -1.53861 
 H                    -1.0262   -2.65417  -0.97887 
 C                    -2.97577  -3.11034  -2.78936 
 C                     3.30655  -3.11354  -2.76377 
 C                     2.8331   -3.66513  -1.56678 
 C                     2.05992  -2.90043  -0.684 
 C                     1.75541  -1.56466  -0.98511 
 C                     2.21312  -1.01647  -2.19672 
 C                     2.98886  -1.78527  -3.07469 
 H                     3.91282  -3.71151  -3.44916 
 C                     3.14453  -5.1094   -1.25547 
 H                     1.72616  -3.36035   0.24672 
 H                     1.95358   0.0134   -2.46401 
 C                     3.54716  -1.15313  -4.32685 
 F                     4.76482  -0.57637  -4.07509 
 F                     3.73896  -2.06627  -5.31206 
 F                     2.73708  -0.17627  -4.8053 
 F                     4.47339  -5.3715   -1.40898 
 F                     2.80467  -5.44719   0.02028 
 F                     2.47628  -5.94923  -2.08955 
 F                    -1.61056   2.74275  -3.61988 
 F                    -3.21001   1.62962  -4.63674 
 F                    -3.57102   2.5211   -2.66755 
 F                    -2.27972  -3.69162  -3.80586 
 F                    -2.95539  -3.98227  -1.74248 
 F                    -4.2638   -2.98597  -3.20234 
 P                     3.66964   0.96773   0.9997 
 C                     5.29301   1.98611   5.23546 
 C                     4.02612   2.4494    4.85562 
 C                     3.52088   2.16888   3.57842 
 C                     4.2903    1.4173    2.67412 
 C                     5.56497   0.94833   3.05672 
 C                     6.06442   1.23737   4.33235 
 H                     5.68326   2.20874   6.23402 
 H                     3.42042   3.03436   5.55502 
 H                     2.53705   2.53632   3.27731 
 H                     6.16286   0.35167   2.35988 
 H                     7.05692   0.87615   4.62104 
 Cl                    2.25078   3.77883   1.0108 
 Cl                   -0.80189   2.2374    0.98291 
 H                     3.88218  -0.96712   4.62564 
 C                     5.61011  -2.59985   0.13468 
 C                     5.08523  -3.48525   1.08056 
 C                     4.07074  -3.05238   1.94228 
 C                     3.55449  -1.7446    1.88828 
 C                     4.13566  -0.82889   0.95941 
 C                     5.1466   -1.27831   0.08846 
 H                     6.38905  -2.92612  -0.56154 
 H                     5.44507  -4.51681   1.13474 
 H                     3.64926  -3.73256   2.68411 
 H                     5.59425  -0.5826   -0.62535 
 C                     6.3901    3.18643  -2.03943 
 C                     5.53011   2.16693  -2.47346 
 C                     4.72644   1.49252  -1.54826 
 C                     4.7941    1.80935  -0.17747 
 C                     5.65342   2.83692   0.253 
 C                     6.4453    3.52042  -0.67942 
 H                     7.01141   3.72446  -2.76241 
 H                     5.47483   1.89212  -3.53097 
 H                     4.05443   0.70458  -1.89499 
 H                     5.69025   3.11194   1.30984 
 H                     7.10401   4.3252   -0.33769 
 Pd                    1.47671   1.55735   0.67367 
 
 Stoichiometry    C46H32Cl2F12FeP2Pd
 Framework group  C1[X(C46H32Cl2F12FeP2Pd)]
 Deg. of freedom   282
 Full point group                 C1      NOp   1
 Largest Abelian subgroup         C1      NOp   1
 Largest concise Abelian subgroup C1      NOp   1
                         Standard orientation:                         
 ---------------------------------------------------------------------
 Center     Atomic      Atomic             Coordinates (Angstroms)
 Number     Number       Type             X           Y           Z
 ---------------------------------------------------------------------
      1          6           0        1.875465    4.915651   -1.137174
      2          6           0        2.950072    4.964543   -2.089317
      3          6           0        4.179649    4.729800   -1.383396
      4          6           0        3.865051    4.532940    0.004962
      5          6           0        2.438137    4.652084    0.156579
      6          1           0        2.845929    5.102385   -3.166128
      7          1           0        5.171511    4.659070   -1.831008
      8          1           0        4.581615    4.305300    0.795079
      9          1           0        1.873613    4.546831    1.084493
     10          1           0        0.814055    5.029261   -1.361556
     11         26           0        2.911183    3.141703   -1.156735
     12          6           0        3.691513    1.654194   -2.326403
     13          6           0        3.842426    1.344548   -0.939752
     14          6           0        2.535031    1.301972   -0.328456
     15          6           0        1.561563    1.642678   -1.362969
     16          6           0        2.296669    1.825748   -2.592044
     17          1           0        4.499876    1.782770   -3.046384
     18          1           0        1.864617    2.102815   -3.552100
     19          6           0        0.067985    1.867671   -1.226314
     20         15           0       -0.754697    0.246126   -0.744604
     21          1           0       -0.112189    2.586596   -0.408012
     22          6           0       -0.560996    2.419821   -2.518328
     23          1           0       -1.611249    2.706312   -2.360339
     24          1           0       -0.003640    3.316803   -2.835017
     25          1           0       -0.529549    1.668308   -3.324173
     26          6           0       -5.329189    0.531054   -1.583606
     27          6           0       -4.615004   -0.605182   -1.979886
     28          6           0       -3.229304   -0.691046   -1.773503
     29          6           0       -2.552041    0.371458   -1.156538
     30          6           0       -3.271294    1.503017   -0.730990
     31          6           0       -4.650566    1.585948   -0.957361
     32          1           0       -6.406770    0.592561   -1.753522
     33          6           0       -5.324272   -1.732851   -2.694819
     34          1           0       -2.675143   -1.570889   -2.108884
     35          1           0       -2.767805    2.325645   -0.213469
     36          6           0       -5.418212    2.781025   -0.447455
     37          6           0       -1.592501    0.262441    3.852420
     38          6           0       -0.975220    1.377537    3.272161
     39          6           0       -0.684294    1.401255    1.902241
     40          6           0       -1.001639    0.300802    1.092329
     41          6           0       -1.640310   -0.810861    1.670538
     42          6           0       -1.926191   -0.830333    3.042238
     43          1           0       -1.815093    0.245142    4.922487
     44          6           0       -0.654180    2.568990    4.142333
     45          1           0       -0.185953    2.280139    1.491893
     46          1           0       -1.927789   -1.663055    1.045611
     47          6           0       -2.529395   -2.067855    3.661844
     48          9           0       -1.546884   -2.937378    4.058501
     49          9           0       -3.265323   -1.774514    4.763486
     50          9           0       -3.321751   -2.736894    2.787797
     51          9           0        0.008586    2.190478    5.271764
     52          9           0        0.123279    3.484110    3.497927
     53          9           0       -1.785668    3.207252    4.542227
     54          9           0       -4.786396   -2.937554   -2.373823
     55          9           0       -6.648281   -1.769363   -2.375099
     56          9           0       -5.237551   -1.591994   -4.042772
     57          9           0       -5.847233    2.584320    0.830395
     58          9           0       -4.645917    3.903583   -0.440400
     59          9           0       -6.515607    3.035643   -1.206361
     60         15           0        1.929366   -1.790440    0.066336
     61          6           0        6.346671   -1.631704   -1.374616
     62          6           0        5.315087   -1.653131   -2.322932
     63          6           0        3.975702   -1.716622   -1.914001
     64          6           0        3.666503   -1.758097   -0.543851
     65          6           0        4.704533   -1.734021    0.411658
     66          6           0        6.039844   -1.675874   -0.005236
     67          1           0        7.391224   -1.582892   -1.699435
     68          1           0        5.548088   -1.619824   -3.391952
     69          1           0        3.170357   -1.742001   -2.651821
     70          1           0        4.467901   -1.753504    1.480624
     71          1           0        6.841093   -1.663983    0.740900
     72         17           0        1.300675   -3.540828   -2.474626
     73         17           0       -0.692399   -1.046104   -3.699201
     74          1           0        4.775957    1.142409   -0.414929
     75          6           0        2.138232    0.042070    3.786492
     76          6           0        2.499186    1.356003    3.474366
     77          6           0        2.601044    1.743330    2.133201
     78          6           0        2.348860    0.847943    1.077554
     79          6           0        2.037864   -0.507102    1.403469
     80          6           0        1.925240   -0.882913    2.755731
     81          1           0        2.033126   -0.273882    4.829107
     82          1           0        2.678588    2.085897    4.269109
     83          1           0        2.879305    2.766017    1.873759
     84          1           0        1.686248   -1.918035    3.011339
     85          6           0        1.346536   -5.910575    2.126572
     86          6           0        0.401418   -4.890001    2.306941
     87          6           0        0.593782   -3.646437    1.695996
     88          6           0        1.745048   -3.400114    0.922736
     89          6           0        2.687577   -4.428491    0.739098
     90          6           0        2.483070   -5.677649    1.340291
     91          1           0        1.193020   -6.888761    2.593260
     92          1           0       -0.491015   -5.053646    2.918247
     93          1           0       -0.150058   -2.859123    1.835645
     94          1           0        3.568316   -4.257850    0.115321
     95          1           0        3.216217   -6.475500    1.184500
     96         46           0        0.389389   -1.522266   -1.612783
 ---------------------------------------------------------------------
 Rotational constants (GHZ):      0.0372471      0.0295284      0.0275302
 General basis read from cards:  (5D, 7F)
 ======================================================================================================
                                       Pseudopotential Parameters
 ======================================================================================================
  Center     Atomic      Valence      Angular      Power
  Number     Number     Electrons     Momentum     of R      Exponent        Coefficient   SO-Coeffient
 ======================================================================================================
    1          6
                                   No pseudopotential on this center.
    2          6
                                   No pseudopotential on this center.
    3          6
                                   No pseudopotential on this center.
    4          6
                                   No pseudopotential on this center.
    5          6
                                   No pseudopotential on this center.
    6          1
                                   No pseudopotential on this center.
    7          1
                                   No pseudopotential on this center.
    8          1
                                   No pseudopotential on this center.
    9          1
                                   No pseudopotential on this center.
   10          1
                                   No pseudopotential on this center.
   11         26           16
                                      F and up 
                                                     2        1.0000000        0.00000000    0.00000000
                                      S - F
                                                     2       20.9300000      253.74958800    0.00000000
                                                     2        9.4450000       37.92284500    0.00000000
                                      P - F
                                                     2       21.7600000      161.03681200    0.00000000
                                                     2        9.1780000       27.65129800    0.00000000
                                      D - F
                                                     2       25.9000000      -24.43127600    0.00000000
                                                     2        8.8350000       -1.43425100    0.00000000
   12          6
                                   No pseudopotential on this center.
   13          6
                                   No pseudopotential on this center.
   14          6
                                   No pseudopotential on this center.
   15          6
                                   No pseudopotential on this center.
   16          6
                                   No pseudopotential on this center.
   17          1
                                   No pseudopotential on this center.
   18          1
                                   No pseudopotential on this center.
   19          6
                                   No pseudopotential on this center.
   20         15
                                   No pseudopotential on this center.
   21          1
                                   No pseudopotential on this center.
   22          6
                                   No pseudopotential on this center.
   23          1
                                   No pseudopotential on this center.
   24          1
                                   No pseudopotential on this center.
   25          1
                                   No pseudopotential on this center.
   26          6
                                   No pseudopotential on this center.
   27          6
                                   No pseudopotential on this center.
   28          6
                                   No pseudopotential on this center.
   29          6
                                   No pseudopotential on this center.
   30          6
                                   No pseudopotential on this center.
   31          6
                                   No pseudopotential on this center.
   32          1
                                   No pseudopotential on this center.
   33          6
                                   No pseudopotential on this center.
   34          1
                                   No pseudopotential on this center.
   35          1
                                   No pseudopotential on this center.
   36          6
                                   No pseudopotential on this center.
   37          6
                                   No pseudopotential on this center.
   38          6
                                   No pseudopotential on this center.
   39          6
                                   No pseudopotential on this center.
   40          6
                                   No pseudopotential on this center.
   41          6
                                   No pseudopotential on this center.
   42          6
                                   No pseudopotential on this center.
   43          1
                                   No pseudopotential on this center.
   44          6
                                   No pseudopotential on this center.
   45          1
                                   No pseudopotential on this center.
   46          1
                                   No pseudopotential on this center.
   47          6
                                   No pseudopotential on this center.
   48          9
                                   No pseudopotential on this center.
   49          9
                                   No pseudopotential on this center.
   50          9
                                   No pseudopotential on this center.
   51          9
                                   No pseudopotential on this center.
   52          9
                                   No pseudopotential on this center.
   53          9
                                   No pseudopotential on this center.
   54          9
                                   No pseudopotential on this center.
   55          9
                                   No pseudopotential on this center.
   56          9
                                   No pseudopotential on this center.
   57          9
                                   No pseudopotential on this center.
   58          9
                                   No pseudopotential on this center.
   59          9
                                   No pseudopotential on this center.
   60         15
                                   No pseudopotential on this center.
   61          6
                                   No pseudopotential on this center.
   62          6
                                   No pseudopotential on this center.
   63          6
                                   No pseudopotential on this center.
   64          6
                                   No pseudopotential on this center.
   65          6
                                   No pseudopotential on this center.
   66          6
                                   No pseudopotential on this center.
   67          1
                                   No pseudopotential on this center.
   68          1
                                   No pseudopotential on this center.
   69          1
                                   No pseudopotential on this center.
   70          1
                                   No pseudopotential on this center.
   71          1
                                   No pseudopotential on this center.
   72         17
                                   No pseudopotential on this center.
   73         17
                                   No pseudopotential on this center.
   74          1
                                   No pseudopotential on this center.
   75          6
                                   No pseudopotential on this center.
   76          6
                                   No pseudopotential on this center.
   77          6
                                   No pseudopotential on this center.
   78          6
                                   No pseudopotential on this center.
   79          6
                                   No pseudopotential on this center.
   80          6
                                   No pseudopotential on this center.
   81          1
                                   No pseudopotential on this center.
   82          1
                                   No pseudopotential on this center.
   83          1
                                   No pseudopotential on this center.
   84          1
                                   No pseudopotential on this center.
   85          6
                                   No pseudopotential on this center.
   86          6
                                   No pseudopotential on this center.
   87          6
                                   No pseudopotential on this center.
   88          6
                                   No pseudopotential on this center.
   89          6
                                   No pseudopotential on this center.
   90          6
                                   No pseudopotential on this center.
   91          1
                                   No pseudopotential on this center.
   92          1
                                   No pseudopotential on this center.
   93          1
                                   No pseudopotential on this center.
   94          1
                                   No pseudopotential on this center.
   95          1
                                   No pseudopotential on this center.
   96         46           18
                                      G and up 
                                                     2        1.0000000        0.00000000    0.00000000
                                      S - G
                                                     2       12.4300000      240.22904000    0.00000000
                                                     2        6.1707590       35.17194300    0.00000000
                                      P - G
                                                     2       11.0800000      170.41727600    0.00000000
                                                     2        5.8295540       28.47213300    0.00000000
                                      D - G
                                                     2        9.5100000       69.01384500    0.00000000
                                                     2        4.1397810       11.75086200    0.00000000
                                      F - G
                                                     2       13.2700000      -31.92955400    0.00000000
                                                     2        6.6300000       -5.39821700    0.00000000
 ======================================================================================================
 There are  2536 symmetry adapted cartesian basis functions of A   symmetry.
 There are  2217 symmetry adapted basis functions of A   symmetry.
  2217 basis functions,  3630 primitive gaussians,  2536 cartesian basis functions
   257 alpha electrons      257 beta electrons
       nuclear repulsion energy     13190.7931478805 Hartrees.
 NAtoms=   96 NActive=   96 NUniq=   96 SFac= 1.00D+00 NAtFMM=   60 NAOKFM=T Big=T
 Integral buffers will be    131072 words long.
 Raffenetti 2 integral format.
 Two-electron integral symmetry is turned on.
 Nuclear repulsion after empirical dispersion term =    13190.6063204268 Hartrees.
 One-electron integrals computed using PRISM.
   1 Symmetry operations used in ECPInt.
 ECPInt:  NShTT=  359128 NPrTT= 1131794 LenC2=  258425 LenP2D=  519530.
 LDataN:  DoStor=T MaxTD1= 7 Len=  274
 NBasis=  2217 RedAO= T EigKep=  2.60D-06  NBF=  2217
 NBsUse=  2217 1.00D-06 EigRej= -1.00D+00 NBFU=  2217
 Defaulting to unpruned grid for atomic number  46.
 ExpMin= 1.00D-02 ExpMax= 6.95D+04 ExpMxC= 2.37D+03 IAcc=3 IRadAn=         5 AccDes= 0.00D+00
 Harris functional with IExCor= 1009 and IRadAn=       5 diagonalized for initial guess.
 HarFok:  IExCor= 1009 AccDes= 0.00D+00 IRadAn=         5 IDoV= 1 UseB2=F ITyADJ=14
 ICtDFT=  3500011 ScaDFX=  1.000000  1.000000  1.000000  1.000000
 Defaulting to unpruned grid for atomic number  46.
 Defaulting to unpruned grid for atomic number  46.
 Defaulting to unpruned grid for atomic number  46.
 Defaulting to unpruned grid for atomic number  46.
 Defaulting to unpruned grid for atomic number  46.
 Defaulting to unpruned grid for atomic number  46.
 Defaulting to unpruned grid for atomic number  46.
 Defaulting to unpruned grid for atomic number  46.
 Defaulting to unpruned grid for atomic number  46.
 Defaulting to unpruned grid for atomic number  46.
 Defaulting to unpruned grid for atomic number  46.
 Defaulting to unpruned grid for atomic number  46.
 Defaulting to unpruned grid for atomic number  46.
 Defaulting to unpruned grid for atomic number  46.
 FoFCou: FMM=F IPFlag=           0 FMFlag=      100000 FMFlg1=        2001
         NFxFlg=           0 DoJE=T BraDBF=F KetDBF=T FulRan=T
         wScrn=  0.000000 ICntrl=     500 IOpCl=  0 I1Cent=   200000004 NGrid=           0
         NMat0=    1 NMatS0=      1 NMatT0=    0 NMatD0=    1 NMtDS0=    0 NMtDT0=    0
 Petite list used in FoFCou.
 Requested convergence on RMS density matrix=1.00D-08 within 128 cycles.
 Requested convergence on MAX density matrix=1.00D-06.
 Requested convergence on             energy=1.00D-06.
 No special actions if energy rises.
 Defaulting to unpruned grid for atomic number  46.
 Defaulting to unpruned grid for atomic number  46.
 Defaulting to unpruned grid for atomic number  46.
 Defaulting to unpruned grid for atomic number  46.
 Defaulting to unpruned grid for atomic number  46.
 Defaulting to unpruned grid for atomic number  46.
 Defaulting to unpruned grid for atomic number  46.
 Defaulting to unpruned grid for atomic number  46.
 Defaulting to unpruned grid for atomic number  46.
 Defaulting to unpruned grid for atomic number  46.
 Defaulting to unpruned grid for atomic number  46.
 Defaulting to unpruned grid for atomic number  46.
 Defaulting to unpruned grid for atomic number  46.
 Defaulting to unpruned grid for atomic number  46.
 EnCoef did     3 forward-backward iterations
 EnCoef did     3 forward-backward iterations
 EnCoef did     5 forward-backward iterations
 Restarting incremental Fock formation.
 SCF Done:  E(RPBE1PBE) =  -4822.93883253     A.U. after   29 cycles
            NFock= 29  Conv=0.66D-08     -V/T= 2.0321
 DoSCS=F DFT=T ScalE2(SS,OS)=  1.000000  1.000000
 Range of M.O.s used for correlation:     1  2217
 NBasis=  2217 NAE=   257 NBE=   257 NFC=     0 NFV=     0
 NROrb=   2217 NOA=   257 NOB=   257 NVA=  1960 NVB=  1960

 **** Warning!!: The largest alpha MO coefficient is  0.40532036D+02

          Differentiating once with respect to magnetic field using GIAOs.
          Electric field/nuclear overlap derivatives assumed to be zero.
 Defaulting to unpruned grid for atomic number  46.
 FoFCou: FMM=F IPFlag=           0 FMFlag=      100000 FMFlg1=        2001
         NFxFlg=           0 DoJE=F BraDBF=F KetDBF=T FulRan=T
         wScrn=  0.000000 ICntrl=    6100 IOpCl=  0 I1Cent=           7 NGrid=          96
         NMat0=    1 NMatS0=      1 NMatT0=    0 NMatD0=    1 NMtDS0=    0 NMtDT0=    0
 Symmetry not used in FoFCou.
   1 Symmetry operations used in ECPInt.
 ECPInt:  NShTT=  359128 NPrTT= 1131794 LenC2=  359129 LenP2D= 1131794.
 LDataN:  DoStor=T MaxTD1= 8 Len=  415
 FoFJK:  IHMeth= 1 ICntrl=    6127 DoSepK=F KAlg= 0 I1Cent=   0 FoldK=F
 IRaf=         1 NMat=   1 IRICut=       1 DoRegI=T DoRafI=F ISym2E= 0.
 Defaulting to unpruned grid for atomic number  46.
 Defaulting to unpruned grid for atomic number  46.
 Defaulting to unpruned grid for atomic number  46.
 Defaulting to unpruned grid for atomic number  46.
 Defaulting to unpruned grid for atomic number  46.
 Defaulting to unpruned grid for atomic number  46.
 Defaulting to unpruned grid for atomic number  46.
 Defaulting to unpruned grid for atomic number  46.
 Defaulting to unpruned grid for atomic number  46.
 Defaulting to unpruned grid for atomic number  46.
 Defaulting to unpruned grid for atomic number  46.
 Defaulting to unpruned grid for atomic number  46.
 Defaulting to unpruned grid for atomic number  46.
 Defaulting to unpruned grid for atomic number  46.
          There are     3 degrees of freedom in the 1st order CPHF.  IDoFFX=0 NUNeed=     3.
      3 vectors produced by pass  0 Test12= 1.68D-11 3.33D-08 XBig12= 3.17D+02 1.66D+00.
 AX will form     3 AO Fock derivatives at one time.
      3 vectors produced by pass  1 Test12= 1.68D-11 3.33D-08 XBig12= 2.25D+00 5.20D-01.
      3 vectors produced by pass  2 Test12= 1.68D-11 3.33D-08 XBig12= 1.09D-01 1.09D-01.
      3 vectors produced by pass  3 Test12= 1.68D-11 3.33D-08 XBig12= 1.96D-03 8.50D-03.
      3 vectors produced by pass  4 Test12= 1.68D-11 3.33D-08 XBig12= 3.41D-05 2.45D-03.
      3 vectors produced by pass  5 Test12= 1.68D-11 3.33D-08 XBig12= 1.12D-06 2.11D-04.
      3 vectors produced by pass  6 Test12= 1.68D-11 3.33D-08 XBig12= 1.77D-08 3.18D-05.
      3 vectors produced by pass  7 Test12= 1.68D-11 3.33D-08 XBig12= 3.58D-10 6.60D-06.
      3 vectors produced by pass  8 Test12= 1.68D-11 3.33D-08 XBig12= 3.61D-12 6.47D-07.
      2 vectors produced by pass  9 Test12= 1.68D-11 3.33D-08 XBig12= 1.45D-13 1.59D-07.
      1 vectors produced by pass 10 Test12= 1.68D-11 3.33D-08 XBig12= 2.40D-14 3.49D-08.
 InvSVY:  IOpt=1 It=  1 EMax= 1.07D-14
 Solved reduced A of dimension    30 with     3 vectors.
 Calculating GIAO nuclear magnetic shielding tensors.
 SCF GIAO Magnetic shielding tensor (ppm):
      1  C    Isotropic =   107.9798   Anisotropy =    97.2187
   XX=    64.7342   YX=    27.8697   ZX=    -7.4649
   XY=    42.2791   YY=   158.7621   ZY=    17.7432
   XZ=    -6.9350   YZ=    14.5080   ZZ=   100.4433
   Eigenvalues:    50.1864   100.9609   172.7923
      2  C    Isotropic =   111.8148   Anisotropy =    90.8352
   XX=   112.2002   YX=     8.9889   ZX=     0.3051
   XY=    10.7650   YY=   156.0987   ZY=    48.1816
   XZ=    -2.0574   YZ=    30.6311   ZZ=    67.1454
   Eigenvalues:    51.8864   111.1863   172.3716
      3  C    Isotropic =   112.6909   Anisotropy =    87.7910
   XX=    64.2880   YX=    -6.0034   ZX=    20.5627
   XY=   -20.2032   YY=   166.4417   ZY=    18.5282
   XZ=    20.6019   YZ=    14.0824   ZZ=   107.3429
   Eigenvalues:    53.0562   113.7982   171.2182
      4  C    Isotropic =   112.3586   Anisotropy =    89.2657
   XX=    84.8508   YX=     4.6619   ZX=   -30.7341
   XY=    -4.1153   YY=   171.8147   ZY=    -8.7910
   XZ=   -29.3766   YZ=     4.8108   ZZ=    80.4105
   Eigenvalues:    52.4798   112.7270   171.8691
      5  C    Isotropic =   111.0647   Anisotropy =    92.3996
   XX=    95.9293   YX=    13.1171   ZX=    21.8436
   XY=    16.6209   YY=   169.5580   ZY=   -16.3897
   XZ=    24.8948   YZ=    -2.0548   ZZ=    67.7066
   Eigenvalues:    52.4872   108.0424   172.6644
      6  H    Isotropic =    27.3713   Anisotropy =     6.1216
   XX=    25.7393   YX=     1.1942   ZX=    -0.0226
   XY=     0.7058   YY=    26.1739   ZY=    -2.9049
   XZ=     0.0362   YZ=    -2.1608   ZZ=    30.2006
   Eigenvalues:    24.3940    26.2674    31.4523
      7  H    Isotropic =    27.5968   Anisotropy =     7.1788
   XX=    30.9306   YX=     1.3381   ZX=    -2.6008
   XY=     1.8594   YY=    25.7093   ZY=    -0.9306
   XZ=    -2.1673   YZ=    -0.5686   ZZ=    26.1506
   Eigenvalues:    25.1156    25.2922    32.3827
      8  H    Isotropic =    27.2810   Anisotropy =     4.8933
   XX=    28.3424   YX=     1.8186   ZX=     2.0026
   XY=     1.1242   YY=    25.3264   ZY=     0.2893
   XZ=     2.2867   YZ=    -0.9833   ZZ=    28.1743
   Eigenvalues:    24.3173    26.9826    30.5432
      9  H    Isotropic =    27.0601   Anisotropy =     5.5707
   XX=    25.5859   YX=     0.4392   ZX=    -2.1217
   XY=     0.9798   YY=    25.9497   ZY=     0.0891
   XZ=    -2.4089   YZ=    -1.0968   ZZ=    29.6447
   Eigenvalues:    24.4364    25.9700    30.7739
     10  H    Isotropic =    27.6189   Anisotropy =     3.1679
   XX=    29.4059   YX=     0.2441   ZX=     1.5764
   XY=    -0.2647   YY=    27.6064   ZY=    -0.8457
   XZ=     0.6297   YZ=    -0.1825   ZZ=    25.8444
   Eigenvalues:    25.4196    27.7062    29.7308
     11  Fe   Isotropic = -6218.0013   Anisotropy =  8316.3081
   XX= -8908.8824   YX=   713.9218   ZX=     7.1959
   XY=   690.7401   YY=  -992.4001   ZY=  1449.1021
   XZ=    27.3937   YZ=  1439.3525   ZZ= -8752.7215
   Eigenvalues: -9099.5474 -8880.6607  -673.7959
     12  C    Isotropic =   113.6681   Anisotropy =    92.5211
   XX=    89.2676   YX=    13.3966   ZX=    28.2005
   XY=    26.1696   YY=   170.4248   ZY=    -6.9607
   XZ=    34.5267   YZ=     3.7138   ZZ=    81.3120
   Eigenvalues:    51.9067   113.7488   175.3489
     13  C    Isotropic =   102.8926   Anisotropy =    90.7780
   XX=    57.9086   YX=    37.4637   ZX=   -29.7243
   XY=    43.7616   YY=   143.2249   ZY=    26.7085
   XZ=    -7.2579   YZ=    18.4852   ZZ=   107.5443
   Eigenvalues:    32.7460   112.5205   163.4113
     14  C    Isotropic =    91.1248   Anisotropy =    95.9139
   XX=    69.4781   YX=     6.5071   ZX=     1.7518
   XY=     3.8943   YY=   126.4122   ZY=    54.5538
   XZ=     2.0571   YZ=    38.9685   ZZ=    77.4840
   Eigenvalues:    49.1177    69.1893   155.0674
     15  C    Isotropic =    93.0392   Anisotropy =    84.7526
   XX=    57.0380   YX=    -1.5643   ZX=    -0.1921
   XY=   -23.5023   YY=   144.2303   ZY=    13.2576
   XZ=   -16.5278   YZ=    16.4929   ZZ=    77.8493
   Eigenvalues:    53.4929    76.0837   149.5409
     16  C    Isotropic =   110.4059   Anisotropy =    87.7078
   XX=   110.5418   YX=     2.3204   ZX=   -14.7520
   XY=   -11.4783   YY=   168.4421   ZY=    -4.9832
   XZ=   -22.0826   YZ=     7.9074   ZZ=    52.2339
   Eigenvalues:    46.9036   115.4364   168.8778
     17  H    Isotropic =    28.0151   Anisotropy =     7.1082
   XX=    29.8280   YX=     0.6433   ZX=    -4.1058
   XY=     0.0648   YY=    27.0530   ZY=    -2.4384
   XZ=    -3.3117   YZ=    -1.1484   ZZ=    27.1642
   Eigenvalues:    23.9956    27.2957    32.7538
     18  H    Isotropic =    26.9891   Anisotropy =     3.6504
   XX=    28.6408   YX=     0.3714   ZX=    -0.2411
   XY=     0.1639   YY=    24.6348   ZY=    -2.2896
   XZ=    -0.8306   YZ=    -2.4050   ZZ=    27.6917
   Eigenvalues:    23.3621    28.1825    29.4227
     19  C    Isotropic =   149.5853   Anisotropy =    22.7451
   XX=   162.0324   YX=     4.0951   ZX=     7.9209
   XY=     4.0095   YY=   158.0077   ZY=    -0.5951
   XZ=     0.6133   YZ=    -3.1008   ZZ=   128.7160
   Eigenvalues:   127.9931   156.0142   164.7487
     20  P    Isotropic =   220.0081   Anisotropy =   177.0604
   XX=   209.3279   YX=   -67.7559   ZX=    45.7026
   XY=   -65.3327   YY=   301.0141   ZY=    44.3094
   XZ=   -10.1052   YZ=    18.3425   ZZ=   149.6822
   Eigenvalues:   128.0182   193.9576   338.0483
     21  H    Isotropic =    26.7221   Anisotropy =     6.2058
   XX=    25.2689   YX=    -0.2418   ZX=     1.1592
   XY=     1.5375   YY=    27.4168   ZY=     3.9624
   XZ=    -1.4554   YZ=     2.8142   ZZ=    27.4805
   Eigenvalues:    23.8352    25.4717    30.8593
     22  C    Isotropic =   169.0922   Anisotropy =    13.5554
   XX=   172.8457   YX=     1.3877   ZX=     4.6396
   XY=    -0.0127   YY=   164.7365   ZY=    -7.7072
   XZ=     3.6492   YZ=    -9.9798   ZZ=   169.6944
   Eigenvalues:   157.4100   171.7375   178.1291
     23  H    Isotropic =    30.0823   Anisotropy =     9.8359
   XX=    36.0618   YX=    -2.8660   ZX=     1.0154
   XY=    -1.4303   YY=    28.6514   ZY=    -2.3765
   XZ=    -2.8639   YZ=    -4.6186   ZZ=    25.5335
   Eigenvalues:    22.9695    30.6377    36.6395
     24  H    Isotropic =    29.3953   Anisotropy =     9.0895
   XX=    29.1354   YX=     1.9767   ZX=     1.5061
   XY=     3.3184   YY=    32.3656   ZY=    -3.9628
   XZ=    -0.8931   YZ=    -4.6215   ZZ=    26.6849
   Eigenvalues:    23.8947    28.8362    35.4550
     25  H    Isotropic =    28.4400   Anisotropy =     7.6313
   XX=    23.9740   YX=     0.8184   ZX=     2.9642
   XY=     2.4753   YY=    31.0546   ZY=     2.7852
   XZ=    -0.5128   YZ=     1.9845   ZZ=    30.2914
   Eigenvalues:    23.5311    28.2614    33.5275
     26  C    Isotropic =    54.0182   Anisotropy =   190.7769
   XX=   -34.4171   YX=    12.7299   ZX=   -32.8524
   XY=    12.1207   YY=    52.5535   ZY=   -61.0421
   XZ=   -29.9497   YZ=   -64.7204   ZZ=   143.9183
   Eigenvalues:   -39.8232    20.6751   181.2028
     27  C    Isotropic =    46.1104   Anisotropy =   162.3301
   XX=    14.2210   YX=   -18.5175   ZX=   -34.5092
   XY=   -17.8781   YY=     7.0841   ZY=   -72.8981
   XZ=   -29.6355   YZ=   -67.2069   ZZ=   117.0262
   Eigenvalues:   -43.6082    27.6090   154.3305
     28  C    Isotropic =    36.7572   Anisotropy =   203.7260
   XX=    -5.3172   YX=    38.9257   ZX=   -18.6727
   XY=    40.6129   YY=   -10.6983   ZY=   -75.2185
   XZ=   -27.0355   YZ=   -88.4560   ZZ=   126.2871
   Eigenvalues:   -62.5429     0.2400   172.5746
     29  C    Isotropic =    40.0312   Anisotropy =   185.4337
   XX=   -37.2539   YX=    14.3097   ZX=   -33.0450
   XY=    14.6311   YY=    25.6575   ZY=   -65.2113
   XZ=   -32.1664   YZ=   -50.9693   ZZ=   131.6900
   Eigenvalues:   -43.5879     0.0278   163.6537
     30  C    Isotropic =    44.1525   Anisotropy =   195.1891
   XX=     2.2860   YX=    -7.5340   ZX=   -35.5603
   XY=   -18.9293   YY=    11.1331   ZY=   -86.9535
   XZ=   -37.4416   YZ=   -94.1626   ZZ=   119.0384
   Eigenvalues:   -56.0395    14.2184   174.2785
     31  C    Isotropic =    48.2656   Anisotropy =   159.2577
   XX=    19.4098   YX=    39.0826   ZX=    -4.1193
   XY=    39.0034   YY=     4.7449   ZY=   -67.2657
   XZ=   -10.0958   YZ=   -64.6477   ZZ=   120.6420
   Eigenvalues:   -42.9431    33.3024   154.4374
     32  H    Isotropic =    23.2956   Anisotropy =     9.6565
   XX=    22.1222   YX=    -0.2977   ZX=     1.2982
   XY=    -0.5241   YY=    27.8774   ZY=     4.1206
   XZ=     0.9350   YZ=     4.4271   ZZ=    19.8873
   Eigenvalues:    17.7120    22.4416    29.7333
     33  C    Isotropic =    49.1264   Anisotropy =    15.0246
   XX=    56.5370   YX=    -5.7759   ZX=    -1.4933
   XY=    -5.5770   YY=    46.6623   ZY=    -2.5148
   XZ=    -1.4597   YZ=    -1.3687   ZZ=    44.1799
   Eigenvalues:    41.7403    46.4961    59.1428
     34  H    Isotropic =    21.4158   Anisotropy =    17.1611
   XX=    31.4866   YX=     5.0978   ZX=     1.0259
   XY=     4.4354   YY=    14.8225   ZY=     0.6306
   XZ=     0.8805   YZ=     1.8284   ZZ=    17.9385
   Eigenvalues:    13.3577    18.0332    32.8565
     35  H    Isotropic =    23.9870   Anisotropy =    16.1464
   XX=    31.1624   YX=    -8.2235   ZX=     1.9324
   XY=    -5.5987   YY=    21.3540   ZY=    -1.1466
   XZ=    -1.2653   YZ=     0.1033   ZZ=    19.4447
   Eigenvalues:    17.7272    19.4826    34.7513
     36  C    Isotropic =    48.8364   Anisotropy =    14.7674
   XX=    55.3372   YX=     3.4955   ZX=     6.0921
   XY=     4.1917   YY=    45.9923   ZY=    -1.1961
   XZ=     5.1345   YZ=    -0.0896   ZZ=    45.1795
   Eigenvalues:    41.4923    46.3355    58.6813
     37  C    Isotropic =    54.6432   Anisotropy =   192.3586
   XX=   153.6422   YX=   -50.8006   ZX=    36.9673
   XY=   -58.4681   YY=    43.3513   ZY=    -8.0221
   XZ=    37.8162   YZ=   -10.9434   ZZ=   -33.0639
   Eigenvalues:   -40.2895    21.3368   182.8823
     38  C    Isotropic =    47.2814   Anisotropy =   167.9458
   XX=   131.4679   YX=   -61.0804   ZX=     5.5434
   XY=   -59.5952   YY=     4.9636   ZY=   -40.5069
   XZ=     9.4768   YZ=   -45.5971   ZZ=     5.4126
   Eigenvalues:   -46.9651    29.5640   159.2453
     39  C    Isotropic =    52.3225   Anisotropy =   201.3280
   XX=   142.5885   YX=   -86.3853   ZX=    37.8240
   XY=   -81.3227   YY=     0.0819   ZY=     8.7931
   XZ=    36.0114   YZ=     9.7603   ZZ=    14.2972
   Eigenvalues:   -48.4164    18.8428   186.5412
     40  C    Isotropic =    34.4209   Anisotropy =   206.2321
   XX=   133.4584   YX=   -68.3272   ZX=    38.7573
   XY=   -69.3735   YY=    11.2005   ZY=   -14.3437
   XZ=    34.5447   YZ=   -17.8049   ZZ=   -41.3963
   Eigenvalues:   -48.9088   -19.7375   171.9089
     41  C    Isotropic =    45.4216   Anisotropy =   196.1485
   XX=   140.8568   YX=   -69.7232   ZX=     6.6181
   XY=   -75.8390   YY=    -0.1486   ZY=   -48.3398
   XZ=    18.5260   YZ=   -36.2675   ZZ=    -4.4434
   Eigenvalues:   -55.3947    15.4723   176.1872
     42  C    Isotropic =    47.0504   Anisotropy =   164.4710
   XX=   117.1853   YX=   -75.1650   ZX=    34.0531
   XY=   -70.7894   YY=     1.6130   ZY=    13.6093
   XZ=    32.6476   YZ=    16.7222   ZZ=    22.3529
   Eigenvalues:   -45.8223    30.2758   156.6978
     43  H    Isotropic =    23.5498   Anisotropy =     9.2094
   XX=    21.8500   YX=     4.6758   ZX=    -2.2101
   XY=     3.9646   YY=    27.3032   ZY=     0.8587
   XZ=    -0.8016   YZ=     1.2148   ZZ=    21.4962
   Eigenvalues:    18.3985    22.5615    29.6894
     44  C    Isotropic =    48.5578   Anisotropy =    13.3942
   XX=    48.2024   YX=     0.1850   ZX=    -6.0065
   XY=     1.3328   YY=    45.7464   ZY=    -5.1041
   XZ=    -4.4352   YZ=    -5.5345   ZZ=    51.7245
   Eigenvalues:    41.7788    46.4073    57.4873
     45  H    Isotropic =    23.5350   Anisotropy =     9.6002
   XX=    22.7774   YX=    -2.8399   ZX=     0.7123
   XY=    -1.2976   YY=    19.4167   ZY=     3.0816
   XZ=    -0.4013   YZ=     4.7768   ZZ=    28.4109
   Eigenvalues:    17.2244    23.4455    29.9352
     46  H    Isotropic =    23.0639   Anisotropy =    13.8327
   XX=    22.3023   YX=     2.5920   ZX=    -4.1356
   XY=     0.5981   YY=    19.4867   ZY=    -5.5612
   XZ=    -2.2130   YZ=    -7.3662   ZZ=    27.4028
   Eigenvalues:    15.8609    21.0451    32.2857
     47  C    Isotropic =    48.8042   Anisotropy =    13.3350
   XX=    47.6524   YX=     0.4574   ZX=    -1.1398
   XY=     0.5797   YY=    43.4798   ZY=     5.6820
   XZ=    -1.1428   YZ=     5.8207   ZZ=    55.2806
   Eigenvalues:    41.0147    47.7037    57.6942
     48  F    Isotropic =   217.1723   Anisotropy =   151.2214
   XX=   192.2354   YX=   -82.1478   ZX=    42.6029
   XY=   -81.2400   YY=   244.8692   ZY=   -14.7064
   XZ=    40.1241   YZ=   -16.4839   ZZ=   214.4122
   Eigenvalues:   125.4893   208.0409   317.9865
     49  F    Isotropic =   245.9795   Anisotropy =   138.3489
   XX=   268.4132   YX=   -35.9901   ZX=   -48.6960
   XY=   -17.6678   YY=   169.2372   ZY=     4.7105
   XZ=   -46.6347   YZ=    17.0446   ZZ=   300.2881
   Eigenvalues:   162.4332   237.2932   338.2121
     50  F    Isotropic =   246.5854   Anisotropy =   133.7859
   XX=   277.3937   YX=    17.1700   ZX=    54.4364
   XY=    27.0670   YY=   237.5444   ZY=    67.5215
   XZ=    41.7049   YZ=    56.2223   ZZ=   224.8180
   Eigenvalues:   164.3832   239.5970   335.7760
     51  F    Isotropic =   228.1648   Anisotropy =   144.9750
   XX=   237.8715   YX=   -15.0243   ZX=    42.0441
   XY=    -6.4824   YY=   152.8757   ZY=   -25.3750
   XZ=    47.8694   YZ=   -36.5631   ZZ=   293.7472
   Eigenvalues:   146.3471   213.3325   324.8148
     52  F    Isotropic =   250.8211   Anisotropy =   115.3427
   XX=   282.9874   YX=    20.8023   ZX=   -25.5999
   XY=    33.4648   YY=   267.1903   ZY=   -66.1362
   XZ=   -12.9992   YZ=   -54.1189   ZZ=   202.2855
   Eigenvalues:   166.3459   258.4011   327.7162
     53  F    Isotropic =   220.5315   Anisotropy =   152.6258
   XX=   234.5546   YX=   -71.0872   ZX=   -59.2965
   XY=   -73.3376   YY=   221.3810   ZY=     6.5459
   XZ=   -62.0101   YZ=     4.8947   ZZ=   205.6589
   Eigenvalues:   132.6349   206.6776   322.2820
     54  F    Isotropic =   243.1183   Anisotropy =   138.2402
   XX=   207.4243   YX=   -41.6162   ZX=   -22.0904
   XY=   -54.2627   YY=   310.5643   ZY=   -42.8780
   XZ=   -20.1898   YZ=   -29.9488   ZZ=   211.3665
   Eigenvalues:   163.6240   230.4526   335.2785
     55  F    Isotropic =   248.4738   Anisotropy =   140.5987
   XX=   335.6702   YX=     1.4688   ZX=   -28.9002
   XY=    17.3527   YY=   186.7748   ZY=   -44.0389
   XZ=   -17.7752   YZ=   -31.4922   ZZ=   222.9762
   Eigenvalues:   162.8755   240.3396   342.2062
     56  F    Isotropic =   222.4917   Anisotropy =   144.7641
   XX=   194.2325   YX=   -34.3734   ZX=     6.7388
   XY=   -36.4495   YY=   155.0847   ZY=    10.0661
   XZ=     8.1505   YZ=     9.8304   ZZ=   318.1579
   Eigenvalues:   133.3718   215.1022   319.0011
     57  F    Isotropic =   219.9754   Anisotropy =   148.3179
   XX=   218.6854   YX=    23.6202   ZX=   -43.0489
   XY=    23.8985   YY=   141.3236   ZY=    15.9586
   XZ=   -43.5571   YZ=    16.7968   ZZ=   299.9172
   Eigenvalues:   129.7393   211.3329   318.8540
     58  F    Isotropic =   246.3304   Anisotropy =   138.9001
   XX=   212.1676   YX=    61.7727   ZX=    18.0588
   XY=    83.0214   YY=   297.5510   ZY=   -16.2194
   XZ=    14.6400   YZ=    -6.1581   ZZ=   229.2726
   Eigenvalues:   164.7663   235.2945   338.9305
     59  F    Isotropic =   246.4828   Anisotropy =   139.0548
   XX=   301.0336   YX=   -10.4624   ZX=    53.9948
   XY=   -19.7908   YY=   197.1199   ZY=   -58.4945
   XZ=    44.1294   YZ=   -40.2264   ZZ=   241.2951
   Eigenvalues:   163.4347   236.8278   339.1861
     60  P    Isotropic =   238.1822   Anisotropy =   110.0398
   XX=   254.6434   YX=   -25.4094   ZX=    46.8197
   XY=   -32.5862   YY=   183.3446   ZY=   -12.3145
   XZ=    27.5750   YZ=   -19.3324   ZZ=   276.5587
   Eigenvalues:   172.9700   230.0345   311.5421
     61  C    Isotropic =    48.9078   Anisotropy =   193.2137
   XX=   -51.1859   YX=   -11.8376   ZX=    27.4932
   XY=   -11.0853   YY=   177.0136   ZY=     6.5158
   XZ=    26.4158   YZ=     5.1050   ZZ=    20.8958
   Eigenvalues:   -60.8297    29.8362   177.7170
     62  C    Isotropic =    51.7589   Anisotropy =   188.8659
   XX=    31.6463   YX=    -7.8708   ZX=    19.9601
   XY=    -9.9598   YY=   176.9599   ZY=     7.7547
   XZ=    19.2748   YZ=     6.9296   ZZ=   -53.3296
   Eigenvalues:   -57.9919    35.5990   177.6695
     63  C    Isotropic =    31.7921   Anisotropy =   215.5115
   XX=   -38.3583   YX=    -4.6747   ZX=   -42.7050
   XY=    -6.6340   YY=   175.2515   ZY=     0.7773
   XZ=   -39.1047   YZ=     4.4594   ZZ=   -41.5168
   Eigenvalues:   -80.8890     0.7990   175.4665
     64  C    Isotropic =    46.1978   Anisotropy =   181.2497
   XX=   -38.5308   YX=    -6.6340   ZX=    23.7694
   XY=    -4.2351   YY=   166.0364   ZY=    20.6684
   XZ=    22.6938   YZ=     3.4031   ZZ=    11.0877
   Eigenvalues:   -48.1317    19.6941   167.0309
     65  C    Isotropic =    44.1855   Anisotropy =   197.5843
   XX=    22.5293   YX=    -7.6861   ZX=    11.5567
   XY=   -13.2827   YY=   175.1910   ZY=    -2.3173
   XZ=    21.1508   YZ=     3.7906   ZZ=   -65.1639
   Eigenvalues:   -68.1420    24.7901   175.9083
     66  C    Isotropic =    54.2543   Anisotropy =   183.2380
   XX=    -7.7586   YX=    -7.7343   ZX=   -49.8164
   XY=    -7.7706   YY=   176.0278   ZY=     0.1980
   XZ=   -48.2772   YZ=     1.9767   ZZ=    -5.5063
   Eigenvalues:   -55.7911    42.1410   176.4130
     67  H    Isotropic =    23.7837   Anisotropy =     2.8981
   XX=    25.2750   YX=    -1.0035   ZX=    -0.0712
   XY=    -1.5824   YY=    20.7231   ZY=     0.0968
   XZ=     0.5059   YZ=     0.0709   ZZ=    25.3530
   Eigenvalues:    20.3778    25.2577    25.7158
     68  H    Isotropic =    23.8093   Anisotropy =     6.8768
   XX=    27.9897   YX=    -0.7827   ZX=    -1.0667
   XY=    -1.6341   YY=    21.1316   ZY=     1.4005
   XZ=    -0.7764   YZ=     0.7156   ZZ=    22.3067
   Eigenvalues:    20.4599    22.5742    28.3939
     69  H    Isotropic =    22.2984   Anisotropy =    11.1372
   XX=    26.4273   YX=     2.8627   ZX=    -6.2354
   XY=     1.9869   YY=    21.8972   ZY=     2.7926
   XZ=    -5.2833   YZ=     0.5523   ZZ=    18.5708
   Eigenvalues:    14.5795    22.5926    29.7232
     70  H    Isotropic =    24.8445   Anisotropy =    13.5381
   XX=    33.1962   YX=    -3.9607   ZX=    -0.5546
   XY=    -1.3538   YY=    22.1486   ZY=    -0.4957
   XZ=     2.6754   YZ=     0.8276   ZZ=    19.1888
   Eigenvalues:    19.0578    21.6059    33.8699
     71  H    Isotropic =    24.2091   Anisotropy =     6.9443
   XX=    28.1346   YX=    -1.1003   ZX=    -2.3397
   XY=    -1.4882   YY=    20.7687   ZY=    -0.7598
   XZ=    -1.0026   YZ=    -0.2738   ZZ=    23.7239
   Eigenvalues:    20.3447    23.4439    28.8386
     72  Cl   Isotropic =   816.5481   Anisotropy =   459.3676
   XX=   791.2682   YX=    69.9197   ZX=  -240.0657
   XY=   223.0763   YY=   979.2236   ZY=  -103.0459
   XZ=  -247.8692   YZ=    30.0745   ZZ=   679.1526
   Eigenvalues:   476.4405   850.4107  1122.7932
     73  Cl   Isotropic =   916.7007   Anisotropy =   582.2351
   XX=  1055.7177   YX=   241.7495   ZX=   -88.3479
   XY=   288.4693   YY=   802.6236   ZY=  -107.4997
   XZ=  -143.4677   YZ=  -208.1958   ZZ=   891.7609
   Eigenvalues:   612.5545   832.6902  1304.8574
     74  H    Isotropic =    29.2084   Anisotropy =     5.6887
   XX=    29.7931   YX=     0.5396   ZX=    -1.9507
   XY=    -2.3860   YY=    32.6989   ZY=     1.1634
   XZ=     1.0652   YZ=    -0.3549   ZZ=    25.1330
   Eigenvalues:    25.0779    29.5464    33.0008
     75  C    Isotropic =    51.9508   Anisotropy =   193.0949
   XX=   171.1434   YX=   -34.7262   ZX=     3.7857
   XY=   -39.4290   YY=    36.2793   ZY=    18.4717
   XZ=    10.9019   YZ=    23.3496   ZZ=   -51.5703
   Eigenvalues:   -57.3801    32.5518   180.6808
     76  C    Isotropic =    48.0729   Anisotropy =   195.9741
   XX=   166.6242   YX=   -44.2757   ZX=   -10.8786
   XY=   -48.9547   YY=    -0.9270   ZY=   -41.9599
   XZ=   -10.0963   YZ=   -44.1159   ZZ=   -21.4785
   Eigenvalues:   -61.7453    27.2418   178.7223
     77  C    Isotropic =    41.9376   Anisotropy =   171.6142
   XX=   142.4759   YX=   -49.7658   ZX=    12.2294
   XY=   -54.8647   YY=   -42.1289   ZY=    14.6609
   XZ=     3.4150   YZ=    20.0220   ZZ=    25.4658
   Eigenvalues:   -60.0429    29.5086   156.3471
     78  C    Isotropic =    36.7560   Anisotropy =   200.1275
   XX=   158.9003   YX=   -43.5485   ZX=    12.3756
   XY=   -42.3961   YY=     6.0856   ZY=    18.8591
   XZ=     4.8552   YZ=    30.7513   ZZ=   -54.7178
   Eigenvalues:   -66.0014     6.0952   170.1744
     79  C    Isotropic =    35.1354   Anisotropy =   191.3299
   XX=   156.2331   YX=   -31.8165   ZX=     4.7426
   XY=   -34.4672   YY=   -22.6920   ZY=   -31.3065
   XZ=     4.0131   YZ=   -30.7433   ZZ=   -28.1349
   Eigenvalues:   -58.3668     1.0843   162.6887
     80  C    Isotropic =    47.4748   Anisotropy =   199.4246
   XX=   168.7723   YX=   -47.4611   ZX=     7.5016
   XY=   -54.1481   YY=   -42.1741   ZY=    22.5033
   XZ=     9.1594   YZ=    23.8763   ZZ=    15.8261
   Eigenvalues:   -61.5132    23.5130   180.4245
     81  H    Isotropic =    24.4231   Anisotropy =     3.9422
   XX=    22.9886   YX=     1.2345   ZX=     2.3266
   XY=    -0.4170   YY=    25.7488   ZY=     0.2878
   XZ=     1.6379   YZ=     2.1117   ZZ=    24.5320
   Eigenvalues:    21.6028    24.6154    27.0513
     82  H    Isotropic =    23.6349   Anisotropy =     3.0385
   XX=    23.4658   YX=     2.0958   ZX=     0.6509
   XY=     0.2078   YY=    22.4115   ZY=    -1.5410
   XZ=     0.1108   YZ=    -1.3081   ZZ=    25.0273
   Eigenvalues:    21.1538    24.0903    25.6606
     83  H    Isotropic =    22.7120   Anisotropy =     7.6298
   XX=    19.9573   YX=     1.4216   ZX=    -0.9288
   XY=     0.0730   YY=    20.4382   ZY=    -0.3185
   XZ=    -0.2388   YZ=    -0.2237   ZZ=    27.7405
   Eigenvalues:    19.4008    20.9366    27.7986
     84  H    Isotropic =    24.1999   Anisotropy =     9.2925
   XX=    20.8830   YX=     1.3563   ZX=     1.0962
   XY=    -0.5571   YY=    24.1712   ZY=     1.9683
   XZ=     0.3137   YZ=     6.3058   ZZ=    27.5455
   Eigenvalues:    20.8079    21.3970    30.3949
     85  C    Isotropic =    48.8920   Anisotropy =   191.5802
   XX=    64.3776   YX=     6.8241   ZX=    65.6044
   XY=    12.1279   YY=   -29.2464   ZY=    71.1671
   XZ=    63.6274   YZ=    69.1076   ZZ=   111.5447
   Eigenvalues:   -60.6333    30.6972   176.6121
     86  C    Isotropic =    52.5199   Anisotropy =   187.2925
   XX=     6.0146   YX=     9.9613   ZX=   100.1274
   XY=     7.6325   YY=    50.9167   ZY=    45.5184
   XZ=    95.8240   YZ=    46.6616   ZZ=   100.6285
   Eigenvalues:   -58.3666    38.5448   177.3816
     87  C    Isotropic =    46.3263   Anisotropy =   189.8274
   XX=    13.4996   YX=    71.8902   ZX=    66.3277
   XY=    63.1800   YY=     2.0321   ZY=    31.5168
   XZ=    62.3809   YZ=    29.4365   ZZ=   123.4472
   Eigenvalues:   -62.9213    29.0223   172.8779
     88  C    Isotropic =    47.7939   Anisotropy =   172.8962
   XX=    64.4019   YX=     7.7777   ZX=    52.8430
   XY=    19.7324   YY=   -22.8285   ZY=    52.9760
   XZ=    69.4822   YZ=    61.0002   ZZ=   101.8081
   Eigenvalues:   -45.9461    26.2697   163.0580
     89  C    Isotropic =    43.0620   Anisotropy =   197.4396
   XX=    -1.0400   YX=    20.7336   ZX=    97.8858
   XY=    17.1572   YY=    37.2835   ZY=    39.7656
   XZ=   106.3686   YZ=    48.3261   ZZ=    92.9424
   Eigenvalues:   -67.1136    21.6111   174.6884
     90  C    Isotropic =    50.9895   Anisotropy =   186.2688
   XX=    27.8446   YX=    65.5943   ZX=    65.4500
   XY=    69.3924   YY=    -1.5163   ZY=    23.7506
   XZ=    65.3125   YZ=    23.0071   ZZ=   126.6400
   Eigenvalues:   -59.2567    37.0564   175.1686
     91  H    Isotropic =    23.7403   Anisotropy =     4.4599
   XX=    24.4442   YX=    -2.3595   ZX=    -2.2963
   XY=    -1.4443   YY=    24.8999   ZY=    -1.1797
   XZ=    -2.2115   YZ=    -1.0867   ZZ=    21.8769
   Eigenvalues:    19.8027    24.7047    26.7136
     92  H    Isotropic =    23.5617   Anisotropy =     9.1466
   XX=    21.0262   YX=    -2.8759   ZX=    -1.5899
   XY=    -2.0594   YY=    28.6496   ZY=    -1.8910
   XZ=    -1.4569   YZ=    -2.1746   ZZ=    21.0092
   Eigenvalues:    18.4951    22.5305    29.6594
     93  H    Isotropic =    23.7055   Anisotropy =    10.4467
   XX=    22.6298   YX=    -0.3621   ZX=    -5.7568
   XY=     2.1108   YY=    25.1364   ZY=    -4.1871
   XZ=    -3.7652   YZ=    -4.6720   ZZ=    23.3502
   Eigenvalues:    17.3353    23.1111    30.6699
     94  H    Isotropic =    24.3716   Anisotropy =    14.7130
   XX=    21.2601   YX=    -3.8436   ZX=     0.1336
   XY=     0.4507   YY=    32.7764   ZY=    -5.2661
   XZ=     1.2600   YZ=    -2.9872   ZZ=    19.0782
   Eigenvalues:    17.9161    21.0184    34.1803
     95  H    Isotropic =    23.9504   Anisotropy =     7.1406
   XX=    22.8211   YX=    -0.1880   ZX=    -2.1758
   XY=     0.6996   YY=    26.8788   ZY=    -3.5115
   XZ=    -1.9825   YZ=    -2.8217   ZZ=    22.1513
   Eigenvalues:    19.5793    23.5611    28.7108
     96  Pd   Isotropic =  -151.4474   Anisotropy =   255.5710
   XX=  -222.1803   YX=  -179.1808   ZX=   128.8302
   XY=  -206.9706   YY=  -168.2717   ZY=   111.4513
   XZ=   151.7571   YZ=   100.7646   ZZ=   -63.8900
   Eigenvalues:  -466.6888    -6.5866    18.9333
 End of Minotr F.D. properties file   721 does not exist.
 End of Minotr F.D. properties file   722 does not exist.
 End of Minotr F.D. properties file   788 does not exist.

 **********************************************************************

            Population analysis using the SCF density.

 **********************************************************************

 Orbital symmetries:
       Occupied  (A) (A) (A) (A) (A) (A) (A) (A) (A) (A) (A) (A)
                 (A) (A) (A) (A) (A) (A) (A) (A) (A) (A) (A) (A)
                 (A) (A) (A) (A) (A) (A) (A) (A) (A) (A) (A) (A)
                 (A) (A) (A) (A) (A) (A) (A) (A) (A) (A) (A) (A)
                 (A) (A) (A) (A) (A) (A) (A) (A) (A) (A) (A) (A)
                 (A) (A) (A) (A) (A) (A) (A) (A) (A) (A) (A) (A)
                 (A) (A) (A) (A) (A) (A) (A) (A) (A) (A) (A) (A)
                 (A) (A) (A) (A) (A) (A) (A) (A) (A) (A) (A) (A)
                 (A) (A) (A) (A) (A) (A) (A) (A) (A) (A) (A) (A)
                 (A) (A) (A) (A) (A) (A) (A) (A) (A) (A) (A) (A)
                 (A) (A) (A) (A) (A) (A) (A) (A) (A) (A) (A) (A)
                 (A) (A) (A) (A) (A) (A) (A) (A) (A) (A) (A) (A)
                 (A) (A) (A) (A) (A) (A) (A) (A) (A) (A) (A) (A)
                 (A) (A) (A) (A) (A) (A) (A) (A) (A) (A) (A) (A)
                 (A) (A) (A) (A) (A) (A) (A) (A) (A) (A) (A) (A)
                 (A) (A) (A) (A) (A) (A) (A) (A) (A) (A) (A) (A)
                 (A) (A) (A) (A) (A) (A) (A) (A) (A) (A) (A) (A)
                 (A) (A) (A) (A) (A) (A) (A) (A) (A) (A) (A) (A)
                 (A) (A) (A) (A) (A) (A) (A) (A) (A) (A) (A) (A)
                 (A) (A) (A) (A) (A) (A) (A) (A) (A) (A) (A) (A)
                 (A) (A) (A) (A) (A) (A) (A) (A) (A) (A) (A) (A)
                 (A) (A) (A) (A) (A)
       Virtual   (A) (A) (A) (A) (A) (A) (A) (A) (A) (A) (A) (A)
                 (A) (A) (A) (A) (A) (A) (A) (A) (A) (A) (A) (A)
                 (A) (A) (A) (A) (A) (A) (A) (A) (A) (A) (A) (A)
                 (A) (A) (A) (A) (A) (A) (A) (A) (A) (A) (A) (A)
                 (A) (A) (A) (A) (A) (A) (A) (A) (A) (A) (A) (A)
                 (A) (A) (A) (A) (A) (A) (A) (A) (A) (A) (A) (A)
                 (A) (A) (A) (A) (A) (A) (A) (A) (A) (A) (A) (A)
                 (A) (A) (A) (A) (A) (A) (A) (A) (A) (A) (A) (A)
                 (A) (A) (A) (A) (A) (A) (A) (A) (A) (A) (A) (A)
                 (A) (A) (A) (A) (A) (A) (A) (A) (A) (A) (A) (A)
                 (A) (A) (A) (A) (A) (A) (A) (A) (A) (A) (A) (A)
                 (A) (A) (A) (A) (A) (A) (A) (A) (A) (A) (A) (A)
                 (A) (A) (A) (A) (A) (A) (A) (A) (A) (A) (A) (A)
                 (A) (A) (A) (A) (A) (A) (A) (A) (A) (A) (A) (A)
                 (A) (A) (A) (A) (A) (A) (A) (A) (A) (A) (A) (A)
                 (A) (A) (A) (A) (A) (A) (A) (A) (A) (A) (A) (A)
                 (A) (A) (A) (A) (A) (A) (A) (A) (A) (A) (A) (A)
                 (A) (A) (A) (A) (A) (A) (A) (A) (A) (A) (A) (A)
                 (A) (A) (A) (A) (A) (A) (A) (A) (A) (A) (A) (A)
                 (A) (A) (A) (A) (A) (A) (A) (A) (A) (A) (A) (A)
                 (A) (A) (A) (A) (A) (A) (A) (A) (A) (A) (A) (A)
                 (A) (A) (A) (A) (A) (A) (A) (A) (A) (A) (A) (A)
                 (A) (A) (A) (A) (A) (A) (A) (A) (A) (A) (A) (A)
                 (A) (A) (A) (A) (A) (A) (A) (A) (A) (A) (A) (A)
                 (A) (A) (A) (A) (A) (A) (A) (A) (A) (A) (A) (A)
                 (A) (A) (A) (A) (A) (A) (A) (A) (A) (A) (A) (A)
                 (A) (A) (A) (A) (A) (A) (A) (A) (A) (A) (A) (A)
                 (A) (A) (A) (A) (A) (A) (A) (A) (A) (A) (A) (A)
                 (A) (A) (A) (A) (A) (A) (A) (A) (A) (A) (A) (A)
                 (A) (A) (A) (A) (A) (A) (A) (A) (A) (A) (A) (A)
                 (A) (A) (A) (A) (A) (A) (A) (A) (A) (A) (A) (A)
                 (A) (A) (A) (A) (A) (A) (A) (A) (A) (A) (A) (A)
                 (A) (A) (A) (A) (A) (A) (A) (A) (A) (A) (A) (A)
                 (A) (A) (A) (A) (A) (A) (A) (A) (A) (A) (A) (A)
                 (A) (A) (A) (A) (A) (A) (A) (A) (A) (A) (A) (A)
                 (A) (A) (A) (A) (A) (A) (A) (A) (A) (A) (A) (A)
                 (A) (A) (A) (A) (A) (A) (A) (A) (A) (A) (A) (A)
                 (A) (A) (A) (A) (A) (A) (A) (A) (A) (A) (A) (A)
                 (A) (A) (A) (A) (A) (A) (A) (A) (A) (A) (A) (A)
                 (A) (A) (A) (A) (A) (A) (A) (A) (A) (A) (A) (A)
                 (A) (A) (A) (A) (A) (A) (A) (A) (A) (A) (A) (A)
                 (A) (A) (A) (A) (A) (A) (A) (A) (A) (A) (A) (A)
                 (A) (A) (A) (A) (A) (A) (A) (A) (A) (A) (A) (A)
                 (A) (A) (A) (A) (A) (A) (A) (A) (A) (A) (A) (A)
                 (A) (A) (A) (A) (A) (A) (A) (A) (A) (A) (A) (A)
                 (A) (A) (A) (A) (A) (A) (A) (A) (A) (A) (A) (A)
                 (A) (A) (A) (A) (A) (A) (A) (A) (A) (A) (A) (A)
                 (A) (A) (A) (A) (A) (A) (A) (A) (A) (A) (A) (A)
                 (A) (A) (A) (A) (A) (A) (A) (A) (A) (A) (A) (A)
                 (A) (A) (A) (A) (A) (A) (A) (A) (A) (A) (A) (A)
                 (A) (A) (A) (A) (A) (A) (A) (A) (A) (A) (A) (A)
                 (A) (A) (A) (A) (A) (A) (A) (A) (A) (A) (A) (A)
                 (A) (A) (A) (A) (A) (A) (A) (A) (A) (A) (A) (A)
                 (A) (A) (A) (A) (A) (A) (A) (A) (A) (A) (A) (A)
                 (A) (A) (A) (A) (A) (A) (A) (A) (A) (A) (A) (A)
                 (A) (A) (A) (A) (A) (A) (A) (A) (A) (A) (A) (A)
                 (A) (A) (A) (A) (A) (A) (A) (A) (A) (A) (A) (A)
                 (A) (A) (A) (A) (A) (A) (A) (A) (A) (A) (A) (A)
                 (A) (A) (A) (A) (A) (A) (A) (A) (A) (A) (A) (A)
                 (A) (A) (A) (A) (A) (A) (A) (A) (A) (A) (A) (A)
                 (A) (A) (A) (A) (A) (A) (A) (A) (A) (A) (A) (A)
                 (A) (A) (A) (A) (A) (A) (A) (A) (A) (A) (A) (A)
                 (A) (A) (A) (A) (A) (A) (A) (A) (A) (A) (A) (A)
                 (A) (A) (A) (A) (A) (A) (A) (A) (A) (A) (A) (A)
                 (A) (A) (A) (A) (A) (A) (A) (A) (A) (A) (A) (A)
                 (A) (A) (A) (A) (A) (A) (A) (A) (A) (A) (A) (A)
                 (A) (A) (A) (A) (A) (A) (A) (A) (A) (A) (A) (A)
                 (A) (A) (A) (A) (A) (A) (A) (A) (A) (A) (A) (A)
                 (A) (A) (A) (A) (A) (A) (A) (A) (A) (A) (A) (A)
                 (A) (A) (A) (A) (A) (A) (A) (A) (A) (A) (A) (A)
                 (A) (A) (A) (A) (A) (A) (A) (A) (A) (A) (A) (A)
                 (A) (A) (A) (A) (A) (A) (A) (A) (A) (A) (A) (A)
                 (A) (A) (A) (A) (A) (A) (A) (A) (A) (A) (A) (A)
                 (A) (A) (A) (A) (A) (A) (A) (A) (A) (A) (A) (A)
                 (A) (A) (A) (A) (A) (A) (A) (A) (A) (A) (A) (A)
                 (A) (A) (A) (A) (A) (A) (A) (A) (A) (A) (A) (A)
                 (A) (A) (A) (A) (A) (A) (A) (A) (A) (A) (A) (A)
                 (A) (A) (A) (A) (A) (A) (A) (A) (A) (A) (A) (A)
                 (A) (A) (A) (A) (A) (A) (A) (A) (A) (A) (A) (A)
                 (A) (A) (A) (A) (A) (A) (A) (A) (A) (A) (A) (A)
                 (A) (A) (A) (A) (A) (A) (A) (A) (A) (A) (A) (A)
                 (A) (A) (A) (A) (A) (A) (A) (A) (A) (A) (A) (A)
                 (A) (A) (A) (A) (A) (A) (A) (A) (A) (A) (A) (A)
                 (A) (A) (A) (A) (A) (A) (A) (A) (A) (A) (A) (A)
                 (A) (A) (A) (A) (A) (A) (A) (A) (A) (A) (A) (A)
                 (A) (A) (A) (A) (A) (A) (A) (A) (A) (A) (A) (A)
                 (A) (A) (A) (A) (A) (A) (A) (A) (A) (A) (A) (A)
                 (A) (A) (A) (A) (A) (A) (A) (A) (A) (A) (A) (A)
                 (A) (A) (A) (A) (A) (A) (A) (A) (A) (A) (A) (A)
                 (A) (A) (A) (A) (A) (A) (A) (A) (A) (A) (A) (A)
                 (A) (A) (A) (A) (A) (A) (A) (A) (A) (A) (A) (A)
                 (A) (A) (A) (A) (A) (A) (A) (A) (A) (A) (A) (A)
                 (A) (A) (A) (A) (A) (A) (A) (A) (A) (A) (A) (A)
                 (A) (A) (A) (A) (A) (A) (A) (A) (A) (A) (A) (A)
                 (A) (A) (A) (A) (A) (A) (A) (A) (A) (A) (A) (A)
                 (A) (A) (A) (A) (A) (A) (A) (A) (A) (A) (A) (A)
                 (A) (A) (A) (A) (A) (A) (A) (A) (A) (A) (A) (A)
                 (A) (A) (A) (A) (A) (A) (A) (A) (A) (A) (A) (A)
                 (A) (A) (A) (A) (A) (A) (A) (A) (A) (A) (A) (A)
                 (A) (A) (A) (A) (A) (A) (A) (A) (A) (A) (A) (A)
                 (A) (A) (A) (A) (A) (A) (A) (A) (A) (A) (A) (A)
                 (A) (A) (A) (A) (A) (A) (A) (A) (A) (A) (A) (A)
                 (A) (A) (A) (A) (A) (A) (A) (A) (A) (A) (A) (A)
                 (A) (A) (A) (A) (A) (A) (A) (A) (A) (A) (A) (A)
                 (A) (A) (A) (A) (A) (A) (A) (A) (A) (A) (A) (A)
                 (A) (A) (A) (A) (A) (A) (A) (A) (A) (A) (A) (A)
                 (A) (A) (A) (A) (A) (A) (A) (A) (A) (A) (A) (A)
                 (A) (A) (A) (A) (A) (A) (A) (A) (A) (A) (A) (A)
                 (A) (A) (A) (A) (A) (A) (A) (A) (A) (A) (A) (A)
                 (A) (A) (A) (A) (A) (A) (A) (A) (A) (A) (A) (A)
                 (A) (A) (A) (A) (A) (A) (A) (A) (A) (A) (A) (A)
                 (A) (A) (A) (A) (A) (A) (A) (A) (A) (A) (A) (A)
                 (A) (A) (A) (A) (A) (A) (A) (A) (A) (A) (A) (A)
                 (A) (A) (A) (A) (A) (A) (A) (A) (A) (A) (A) (A)
                 (A) (A) (A) (A) (A) (A) (A) (A) (A) (A) (A) (A)
                 (A) (A) (A) (A) (A) (A) (A) (A) (A) (A) (A) (A)
                 (A) (A) (A) (A) (A) (A) (A) (A) (A) (A) (A) (A)
                 (A) (A) (A) (A) (A) (A) (A) (A) (A) (A) (A) (A)
                 (A) (A) (A) (A) (A) (A) (A) (A) (A) (A) (A) (A)
                 (A) (A) (A) (A) (A) (A) (A) (A) (A) (A) (A) (A)
                 (A) (A) (A) (A) (A) (A) (A) (A) (A) (A) (A) (A)
                 (A) (A) (A) (A) (A) (A) (A) (A) (A) (A) (A) (A)
                 (A) (A) (A) (A) (A) (A) (A) (A) (A) (A) (A) (A)
                 (A) (A) (A) (A) (A) (A) (A) (A) (A) (A) (A) (A)
                 (A) (A) (A) (A) (A) (A) (A) (A) (A) (A) (A) (A)
                 (A) (A) (A) (A) (A) (A) (A) (A) (A) (A) (A) (A)
                 (A) (A) (A) (A) (A) (A) (A) (A) (A) (A) (A) (A)
                 (A) (A) (A) (A) (A) (A) (A) (A) (A) (A) (A) (A)
                 (A) (A) (A) (A) (A) (A) (A) (A) (A) (A) (A) (A)
                 (A) (A) (A) (A) (A) (A) (A) (A) (A) (A) (A) (A)
                 (A) (A) (A) (A) (A) (A) (A) (A) (A) (A) (A) (A)
                 (A) (A) (A) (A) (A) (A) (A) (A) (A) (A) (A) (A)
                 (A) (A) (A) (A) (A) (A) (A) (A) (A) (A) (A) (A)
                 (A) (A) (A) (A) (A) (A) (A) (A) (A) (A) (A) (A)
                 (A) (A) (A) (A) (A) (A) (A) (A) (A) (A) (A) (A)
                 (A) (A) (A) (A) (A) (A) (A) (A) (A) (A) (A) (A)
                 (A) (A) (A) (A) (A) (A) (A) (A) (A) (A) (A) (A)
                 (A) (A) (A) (A) (A) (A) (A) (A) (A) (A) (A) (A)
                 (A) (A) (A) (A) (A) (A) (A) (A) (A) (A) (A) (A)
                 (A) (A) (A) (A) (A) (A) (A) (A) (A) (A) (A) (A)
                 (A) (A) (A) (A) (A) (A) (A) (A) (A) (A) (A) (A)
                 (A) (A) (A) (A) (A) (A) (A) (A) (A) (A) (A) (A)
                 (A) (A) (A) (A) (A) (A) (A) (A) (A) (A) (A) (A)
                 (A) (A) (A) (A) (A) (A) (A) (A) (A) (A) (A) (A)
                 (A) (A) (A) (A) (A) (A) (A) (A) (A) (A) (A) (A)
                 (A) (A) (A) (A) (A) (A) (A) (A) (A) (A) (A) (A)
                 (A) (A) (A) (A) (A) (A) (A) (A) (A) (A) (A) (A)
                 (A) (A) (A) (A) (A) (A) (A) (A) (A) (A) (A) (A)
                 (A) (A) (A) (A) (A) (A) (A) (A) (A) (A) (A) (A)
                 (A) (A) (A) (A) (A) (A) (A) (A) (A) (A) (A) (A)
                 (A) (A) (A) (A) (A) (A) (A) (A) (A) (A) (A) (A)
                 (A) (A) (A) (A) (A) (A) (A) (A) (A) (A) (A) (A)
                 (A) (A) (A) (A) (A) (A) (A) (A) (A) (A) (A) (A)
                 (A) (A) (A) (A) (A) (A) (A) (A) (A) (A) (A) (A)
                 (A) (A) (A) (A) (A) (A) (A) (A) (A) (A) (A) (A)
                 (A) (A) (A) (A) (A) (A) (A) (A) (A) (A) (A) (A)
                 (A) (A) (A) (A) (A) (A) (A) (A) (A) (A) (A) (A)
                 (A) (A) (A) (A) (A) (A) (A) (A) (A) (A) (A) (A)
                 (A) (A) (A) (A) (A) (A) (A) (A) (A) (A) (A) (A)
                 (A) (A) (A) (A) (A) (A) (A) (A) (A) (A) (A) (A)
                 (A) (A) (A) (A) (A) (A) (A) (A) (A) (A) (A) (A)
                 (A) (A) (A) (A) (A) (A) (A) (A) (A) (A) (A) (A)
                 (A) (A) (A) (A) (A) (A) (A) (A) (A) (A) (A) (A)
                 (A) (A) (A) (A)
 The electronic state is 1-A.
 Alpha  occ. eigenvalues -- -101.62959-101.62633 -77.28666 -77.27915 -24.83191
 Alpha  occ. eigenvalues --  -24.82820 -24.82789 -24.82774 -24.82583 -24.82409
 Alpha  occ. eigenvalues --  -24.81987 -24.81894 -24.81532 -24.80907 -24.80704
 Alpha  occ. eigenvalues --  -24.80391 -10.50642 -10.50468 -10.49568 -10.48532
 Alpha  occ. eigenvalues --  -10.30123 -10.30101 -10.29738 -10.29433 -10.29295
 Alpha  occ. eigenvalues --  -10.29282 -10.29011 -10.28819 -10.28733 -10.28636
 Alpha  occ. eigenvalues --  -10.28569 -10.28312 -10.27996 -10.27787 -10.27677
 Alpha  occ. eigenvalues --  -10.27461 -10.26976 -10.26381 -10.26370 -10.26222
 Alpha  occ. eigenvalues --  -10.26000 -10.25938 -10.25724 -10.25705 -10.25627
 Alpha  occ. eigenvalues --  -10.25558 -10.25544 -10.25517 -10.25468 -10.25426
 Alpha  occ. eigenvalues --  -10.25368 -10.25273 -10.25272 -10.25201 -10.25018
 Alpha  occ. eigenvalues --  -10.24932 -10.24769 -10.24680 -10.24618 -10.24572
 Alpha  occ. eigenvalues --  -10.24509 -10.23826  -9.45471  -9.45141  -7.18650
 Alpha  occ. eigenvalues --   -7.18351  -7.18203  -7.18157  -7.17853  -7.17814
 Alpha  occ. eigenvalues --   -6.67891  -6.67060  -4.81509  -4.81427  -4.81212
 Alpha  occ. eigenvalues --   -4.80658  -4.80615  -4.80427  -3.62035  -3.53503
 Alpha  occ. eigenvalues --   -2.26631  -2.22323  -2.22264  -2.21344  -2.21065
 Alpha  occ. eigenvalues --   -2.17735  -1.36449  -1.36286  -1.35424  -1.34340
 Alpha  occ. eigenvalues --   -1.28181  -1.28092  -1.27769  -1.27520  -1.27152
 Alpha  occ. eigenvalues --   -1.26748  -1.26021  -1.25677  -0.95022  -0.94186
 Alpha  occ. eigenvalues --   -0.93678  -0.92133  -0.90961  -0.89932  -0.89397
 Alpha  occ. eigenvalues --   -0.86438  -0.86390  -0.85041  -0.83612  -0.82719
 Alpha  occ. eigenvalues --   -0.82426  -0.81523  -0.79140  -0.78552  -0.78433
 Alpha  occ. eigenvalues --   -0.78092  -0.76445  -0.75854  -0.75743  -0.75150
 Alpha  occ. eigenvalues --   -0.75133  -0.75099  -0.74908  -0.74587  -0.74425
 Alpha  occ. eigenvalues --   -0.74003  -0.72433  -0.69955  -0.68869  -0.68147
 Alpha  occ. eigenvalues --   -0.67429  -0.67167  -0.65710  -0.64861  -0.64475
 Alpha  occ. eigenvalues --   -0.64164  -0.63804  -0.63745  -0.63461  -0.63360
 Alpha  occ. eigenvalues --   -0.63210  -0.63123  -0.62535  -0.62363  -0.62122
 Alpha  occ. eigenvalues --   -0.61265  -0.61073  -0.60142  -0.58562  -0.58483
 Alpha  occ. eigenvalues --   -0.57969  -0.57787  -0.57538  -0.57302  -0.56481
 Alpha  occ. eigenvalues --   -0.56419  -0.56164  -0.54966  -0.54878  -0.54517
 Alpha  occ. eigenvalues --   -0.53881  -0.53227  -0.52254  -0.52198  -0.51352
 Alpha  occ. eigenvalues --   -0.51126  -0.51066  -0.50886  -0.50500  -0.50223
 Alpha  occ. eigenvalues --   -0.49952  -0.49904  -0.49148  -0.48858  -0.48756
 Alpha  occ. eigenvalues --   -0.48615  -0.48413  -0.48093  -0.47988  -0.47763
 Alpha  occ. eigenvalues --   -0.47629  -0.47367  -0.47268  -0.47094  -0.46876
 Alpha  occ. eigenvalues --   -0.46323  -0.46223  -0.45849  -0.45648  -0.45572
 Alpha  occ. eigenvalues --   -0.45545  -0.45478  -0.45378  -0.45272  -0.45047
 Alpha  occ. eigenvalues --   -0.44896  -0.44726  -0.44613  -0.44383  -0.44258
 Alpha  occ. eigenvalues --   -0.44141  -0.44077  -0.44015  -0.43714  -0.43670
 Alpha  occ. eigenvalues --   -0.43349  -0.43281  -0.43064  -0.42333  -0.42106
 Alpha  occ. eigenvalues --   -0.41852  -0.41256  -0.40944  -0.40940  -0.40675
 Alpha  occ. eigenvalues --   -0.40388  -0.40281  -0.39885  -0.39787  -0.39391
 Alpha  occ. eigenvalues --   -0.39148  -0.38713  -0.38481  -0.38147  -0.38052
 Alpha  occ. eigenvalues --   -0.37448  -0.37331  -0.37051  -0.36762  -0.36052
 Alpha  occ. eigenvalues --   -0.34750  -0.33860  -0.33133  -0.32659  -0.32544
 Alpha  occ. eigenvalues --   -0.31800  -0.31211  -0.30849  -0.30385  -0.30106
 Alpha  occ. eigenvalues --   -0.29860  -0.29440  -0.29188  -0.28829  -0.28405
 Alpha  occ. eigenvalues --   -0.28168  -0.28084  -0.27709  -0.27418  -0.27125
 Alpha  occ. eigenvalues --   -0.26814  -0.25979  -0.25516  -0.24892  -0.24707
 Alpha  occ. eigenvalues --   -0.24067  -0.24019
 Alpha virt. eigenvalues --   -0.09666  -0.08337  -0.07822  -0.06828  -0.06012
 Alpha virt. eigenvalues --   -0.05345  -0.04879  -0.04422  -0.03103  -0.02662
 Alpha virt. eigenvalues --   -0.02374  -0.01748  -0.01682  -0.01405  -0.00305
 Alpha virt. eigenvalues --    0.00340   0.01136   0.01580   0.01837   0.02704
 Alpha virt. eigenvalues --    0.03113   0.03716   0.03778   0.04017   0.04217
 Alpha virt. eigenvalues --    0.04486   0.04605   0.04924   0.05047   0.05473
 Alpha virt. eigenvalues --    0.05647   0.05839   0.06427   0.06589   0.06756
 Alpha virt. eigenvalues --    0.07022   0.07401   0.07545   0.07868   0.08244
 Alpha virt. eigenvalues --    0.08345   0.08642   0.08913   0.09258   0.09302
 Alpha virt. eigenvalues --    0.09516   0.09642   0.09943   0.10011   0.10158
 Alpha virt. eigenvalues --    0.10224   0.10665   0.10851   0.10942   0.11254
 Alpha virt. eigenvalues --    0.11574   0.11664   0.11893   0.11930   0.12197
 Alpha virt. eigenvalues --    0.12435   0.12678   0.12932   0.13150   0.13399
 Alpha virt. eigenvalues --    0.13454   0.13702   0.13785   0.13920   0.14078
 Alpha virt. eigenvalues --    0.14345   0.14528   0.15003   0.15110   0.15333
 Alpha virt. eigenvalues --    0.15617   0.15930   0.16048   0.16209   0.16262
 Alpha virt. eigenvalues --    0.16750   0.17004   0.17155   0.17534   0.17568
 Alpha virt. eigenvalues --    0.17752   0.17964   0.18250   0.18348   0.18620
 Alpha virt. eigenvalues --    0.18922   0.18975   0.19102   0.19285   0.19704
 Alpha virt. eigenvalues --    0.19762   0.19817   0.19955   0.20133   0.20346
 Alpha virt. eigenvalues --    0.20534   0.20707   0.21135   0.21169   0.21380
 Alpha virt. eigenvalues --    0.21537   0.21672   0.21812   0.21853   0.22059
 Alpha virt. eigenvalues --    0.22272   0.22425   0.22576   0.22713   0.22973
 Alpha virt. eigenvalues --    0.23068   0.23234   0.23398   0.23450   0.23768
 Alpha virt. eigenvalues --    0.23870   0.23955   0.24078   0.24176   0.24325
 Alpha virt. eigenvalues --    0.24420   0.24608   0.24802   0.25090   0.25139
 Alpha virt. eigenvalues --    0.25243   0.25486   0.25717   0.25808   0.25967
 Alpha virt. eigenvalues --    0.26028   0.26059   0.26417   0.26595   0.26807
 Alpha virt. eigenvalues --    0.27208   0.27284   0.27537   0.27567   0.27986
 Alpha virt. eigenvalues --    0.28089   0.28257   0.28393   0.28667   0.28990
 Alpha virt. eigenvalues --    0.29220   0.29289   0.29532   0.29787   0.29967
 Alpha virt. eigenvalues --    0.30225   0.30371   0.30626   0.30711   0.31169
 Alpha virt. eigenvalues --    0.31416   0.31465   0.31743   0.31872   0.32247
 Alpha virt. eigenvalues --    0.32337   0.32553   0.32812   0.33154   0.33217
 Alpha virt. eigenvalues --    0.33401   0.33560   0.33710   0.33895   0.33924
 Alpha virt. eigenvalues --    0.34397   0.34479   0.34771   0.34796   0.34987
 Alpha virt. eigenvalues --    0.35194   0.35245   0.35446   0.35588   0.35897
[...]
                                                    2079(r),801(r),770(r)
                                                    1556(r),1833(r),1835(r)
                                                    1564(r),748(r),1584(r)
                                                    600(r),597(r),532(r),1560(r)
                                                    1587(r),1800(r),1586(r)
                                                    620(r),1006(r),1832(r)
                                                    1561(r),599(r),634(r)
                                                    1798(r),1834(r),1801(r)
                                                    1830(r),1027(r),1950(r)
                                                    1979(r),996(r),997(r)
                                                    1025(r),2081(r),603(r)
                                                    635(r),2080(r),1566(r)
                                                    1978(r),1023(r),1001(r)
                                                    1986(r),1102(r),1009(r)
                                                    1644(r),598(r),624(r)
                                                    2124(r),1828(r),689(r)
                                                    1539(r),779(r),535(r)
                                                    1024(r),643(r),606(r)
                                                    1701(r),511(r),661(r)
                                                    1590(r),1536(r),802(r)
                                                    596(r),533(r),1981(r),605(r)
                                                    632(r),1695(r),1535(r)
                                                    1565(r),1026(r),747(r)
                                                    1980(r),630(r),1021(r)
                                                    1859(r),1840(r),1977(r)
                                                    655(r),1802(r),609(r)
                                                    1983(r),514(r),602(r),512(r)
                                                    538(r),1532(r),780(r)
                                                    1687(r),2013(r),753(r)
                                                    759(r),796(r),1985(r)
                                                    1956(r),1709(r),782(r)
                                                    1453(r),436(r),1470(r)
                                                    481(r),803(r),1829(r)
                                                    1710(r),756(r),1467(r)
                                                    1891(r),1694(r),723(r)
                                                    1559(r),636(r),1591(r)
                                                    534(r),1989(r),510(r),797(r)
                                                    1715(r),1456(r),2014(r)
                                                    1008(r),1020(r),2062(r)
                                                    593(r),1711(r),1779(r)
                                                    638(r)
  1659. RY*(   1)Cl  72                  0.00123     0.81995   
  1660. RY*(   2)Cl  72                  0.00109     0.82362   
  1661. RY*(   3)Cl  72                  0.00095     0.84993   
  1662. RY*(   4)Cl  72                  0.00036     0.94434   
  1663. RY*(   5)Cl  72                  0.00020     0.99506   
  1664. RY*(   6)Cl  72                  0.00011     1.50004   
  1665. RY*(   7)Cl  72                  0.00009     1.59082   
  1666. RY*(   8)Cl  72                  0.00008     1.98171   
  1667. RY*(   9)Cl  72                  0.00006     1.91985   
  1668. RY*(  10)Cl  72                  0.00004     1.66639   
  1669. RY*(  11)Cl  72                  0.00001     2.20427   
  1670. RY*(  12)Cl  72                  0.00000    24.92318   
  1671. RY*(  13)Cl  72                  0.00000    10.59179   
  1672. RY*(  14)Cl  72                  0.00001     2.72528   
  1673. RY*(  15)Cl  72                  0.00001     2.02092   
  1674. RY*(  16)Cl  72                  0.00000    10.55157   
  1675. RY*(  17)Cl  72                  0.00000     2.35122   
  1676. RY*(  18)Cl  72                  0.00001     2.78091   
  1677. RY*(  19)Cl  72                  0.00001     1.88365   
  1678. RY*(  20)Cl  72                  0.00000    10.54197   
  1679. RY*(  21)Cl  72                  0.00001     1.97865   
  1680. RY*(  22)Cl  72                  0.00000     2.20389   
  1681. RY*(  23)Cl  72                  0.00000     2.16010   
  1682. RY*(  24)Cl  72                  0.00000     2.19102   
  1683. RY*(  25)Cl  72                  0.00000     2.20227   
  1684. RY*(  26)Cl  72                  0.00000     2.22331   
  1685. RY*(  27)Cl  72                  0.00000     2.18078   
  1686. RY*(  28)Cl  72                  0.00000     2.15428   
       -------------------------------
              Total Lewis   17.39196  ( 99.9754%)
        Valence non-Lewis    0.00000  (  0.0000%)
        Rydberg non-Lewis    0.00427  (  0.0246%)
       -------------------------------
            Total unit  4   17.39623  (100.0000%)
           Charge unit  4   -0.39623

 Molecular unit  5  (Cl)
   184. CR (   1)Cl  73                  2.00000   -99.97904  265(r),264(r)
   185. CR (   2)Cl  73                  1.99974   -10.71382  265(r),264(r),266(r),2077(r)
                                                    2080(r),2128(r),2078(r)
                                                    2176(r)
   186. CR (   3)Cl  73                  1.99998    -7.17974  264(r),266(r)
   187. CR (   4)Cl  73                  1.99998    -7.17938  264(r)
   188. CR (   5)Cl  73                  1.99994    -7.18270  265(r),264(r),2176(r)
   256. LP (   1)Cl  73                  1.96102    -0.41363  265(r),264(r),2128(r)
                                                    2138(r),2082(r),2077(r)
                                                    2080(r),2096(r),1450(r)
                                                    2091(r),2089(r),618(r)
                                                    2132(r),2085(r),2088(r)
                                                    2086(r),2087(r),2176(r)
                                                    2090(r),2095(r),2097(r)
                                                    2093(r),2143(r),2142(r)
                                                    2137(r),2079(r),2084(r)
                                                    2127(r),592(r),1825(r)
                                                    1462(r),1824(r),1458(r)
                                                    1975(r),1557(r),2099(r)
                                                    2078(r),1457(r),1461(r)
                                                    628(r),629(r),2129(r)
                                                    1533(r),2081(r),627(r)
                                                    1668(r),507(r),1665(r)
                                                    747(r)
   257. LP (   2)Cl  73                  1.95798    -0.61091  264(r),265(r),2078(r)
                                                    2098(r),2080(r),2082(r)
                                                    2096(r),2132(r),2097(r)
                                                    2129(r),1450(r),2090(r)
                                                    2138(r),2094(r),2079(r)
                                                    2077(r),2093(r),1452(r)
                                                    1462(r),1458(r)
   258. LP (   3)Cl  73                  1.94176    -0.43862  265(r),264(r),266(r),2079(r)
                                                    2141(r),2132(r),2077(r)
                                                    2128(r),2098(r),2093(r)
                                                    2176(r),2088(r),2085(r)
                                                    2080(r),2099(r),2091(r)
                                                    2078(r),2129(r),2092(r)
                                                    2138(r),2081(r)
   259. LP (   4)Cl  73                  1.56582    -0.38586  265(r),264(r),2176(r)
                                                    2088(r),1450(r),2095(r)
                                                    2096(r),2089(r),618(r)
                                                    2091(r),2087(r),2084(r)
                                                    2082(r),2085(r),2129(r)
                                                    2090(r),592(r),2078(r)
                                                    2128(r),627(r),629(r),626(r)
                                                    771(r),1557(r),1825(r)
                                                    1458(r),994(r),1457(r)
                                                    1693(g),2086(r),1462(r)
                                                    628(r),1975(r),1824(r)
                                                    266(r),1461(r),2077(r)
                                                    1003(r),1689(g),993(r)
                                                    1687(g),1558(r),1585(r)
                                                    800(r),1533(r),1665(r)
                                                    1827(r),1668(r),1022(r)
                                                    625(r),1974(r),1695(g)
                                                    530(r),1460(r),2092(r)
                                                    631(r),2079(r),1107(r)
                                                    623(r),646(r),2081(r),998(r)
                                                    1838(r),1534(r),507(r)
                                                    1556(r),1464(r),1664(r)
                                                    1583(r),532(r),622(r),775(r)
                                                    799(r),600(r),801(r),1660(r)
                                                    1666(r),1006(r),599(r)
                                                    1584(r),996(r),1587(r)
                                                    1561(r),748(r),1463(r)
                                                    596(r),1979(r),1586(r)
                                                    1800(r),597(r),1833(r)
                                                    1027(r),1661(r),2080(r)
                                                    1001(r),2093(r),1560(r)
                                                    1835(r),997(r),1977(r)
                                                    1564(r),635(r),593(r)
                                                    1798(r),1009(r),1834(r)
                                                    634(r),770(r),779(r),630(r)
                                                    620(r),1102(r),1801(r)
                                                    1832(r),1830(r),603(r)
                                                    624(r),1980(r),1025(r)
                                                    772(r),621(r),1451(r)
                                                    2124(r),1024(r),1454(r)
                                                    598(r),606(r),1590(r)
                                                    1986(r),1673(r),535(r)
                                                    802(r),605(r),661(r),1566(r)
                                                    747(r),1828(r),511(r)
                                                    2132(r),1859(r),1023(r)
                                                    602(r),1536(r),2013(r)
                                                    1956(r),1026(r),1802(r)
                                                    632(r),1565(r),655(r)
                                                    1020(r),1021(r),1539(r)
                                                    1680(r),1467(r),2127(r)
                                                    609(r),1532(r),753(r)
                                                    1535(r),2097(r),514(r)
                                                    1950(r),689(r),2174(r)
                                                    1677(r),430(r),643(r),797(r)
                                                    1455(r),1983(r),780(r)
                                                    1008(r),782(r),1573(r)
                                                    2138(r),1840(r),1474(r)
                                                    1852(r),2014(r),510(r)
                                                    538(r),1961(r),803(r)
                                                    1829(r),796(r),1976(r)
                                                    512(r),2008(r),759(r)
                                                    1799(r)
  1687. RY*(   1)Cl  73                  0.00136     0.77363   
  1688. RY*(   2)Cl  73                  0.00105     0.84138   
  1689. RY*(   3)Cl  73                  0.00087     0.81274   
  1690. RY*(   4)Cl  73                  0.00041     0.88751   
  1691. RY*(   5)Cl  73                  0.00025     0.98048   
  1692. RY*(   6)Cl  73                  0.00010     1.21085   
  1693. RY*(   7)Cl  73                  0.00008     2.23099   
  1694. RY*(   8)Cl  73                  0.00007     2.14775   
  1695. RY*(   9)Cl  73                  0.00005     1.54090   
  1696. RY*(  10)Cl  73                  0.00004     1.65426   
  1697. RY*(  11)Cl  73                  0.00000    10.56030   
  1698. RY*(  12)Cl  73                  0.00000    24.96467   
  1699. RY*(  13)Cl  73                  0.00000     2.01617   
  1700. RY*(  14)Cl  73                  0.00001     2.65873   
  1701. RY*(  15)Cl  73                  0.00001     1.96445   
  1702. RY*(  16)Cl  73                  0.00000    10.45774   
  1703. RY*(  17)Cl  73                  0.00000     2.48070   
  1704. RY*(  18)Cl  73                  0.00000    10.50568   
  1705. RY*(  19)Cl  73                  0.00000     1.92525   
  1706. RY*(  20)Cl  73                  0.00001     2.68316   
  1707. RY*(  21)Cl  73                  0.00001     1.92759   
  1708. RY*(  22)Cl  73                  0.00000     2.16729   
  1709. RY*(  23)Cl  73                  0.00000     2.19992   
  1710. RY*(  24)Cl  73                  0.00000     2.19814   
  1711. RY*(  25)Cl  73                  0.00000     2.15977   
  1712. RY*(  26)Cl  73                  0.00000     2.25057   
  1713. RY*(  27)Cl  73                  0.00000     2.18051   
  1714. RY*(  28)Cl  73                  0.00001     2.16632   
       -------------------------------
              Total Lewis   17.42623  ( 99.9751%)
        Valence non-Lewis    0.00000  (  0.0000%)
        Rydberg non-Lewis    0.00435  (  0.0249%)
       -------------------------------
            Total unit  5   17.43058  (100.0000%)
           Charge unit  5   -0.43058
 1\1\GINC-NC167\SP\RPBE1PBE\Gen\C46H32Cl2F12Fe1P2Pd1\MACKK4\06-Dec-2021
 \0\\# PBE1PBE gen pseudo=read int=(grid=ultrafine) empiricaldispersion
 =GD3BJ pop=nbo guess=read geom=check\\W001_1_6_F_2 title\\0,1\C,0,0.10
 93222749,-3.917480125,4.1432312141\C,0,0.0873616624,-3.3438947335,5.46
 01449646\C,0,1.4111067422,-3.4448296612,6.0104178482\C,0,2.2523575338,
 -4.0783613846,5.0325637995\C,0,1.4439767853,-4.3739340833,3.8782572335
 \H,0,-0.770032047,-2.8677433371,5.9371404972\H,0,1.7333620193,-3.05918
 3207,6.9781870168\H,0,3.3202313428,-4.272488852,5.1399286283\H,0,1.781
 0215596,-4.8471204923,2.9545216889\H,0,-0.7333741537,-3.9706366951,3.4
 526644923\Fe,0,1.4380680851,-2.3567169838,4.2790266178\C,0,1.707640730
 5,-0.4139894044,4.8645698906\C,0,2.8751600987,-0.9164626437,4.21198010
 09\C,0,2.5197129982,-1.3242325191,2.8732650312\C,0,1.0829827458,-1.108
 1412516,2.7214460868\C,0,0.6113033501,-0.5185059652,3.9520432816\H,0,1
 .6515678915,-0.0564058624,5.8928432417\H,0,-0.4207246064,-0.2483632985
 ,4.1690334787\C,0,0.1813055531,-1.4882625515,1.5627583627\P,0,0.666771
 1529,-0.4790050323,0.0514746236\H,0,0.3439068296,-2.5522450327,1.31691
 70668\C,0,-1.3085986107,-1.2768383487,1.887214157\H,0,-1.9518606498,-1
 .6846943762,1.0935291115\H,0,-1.5496402733,-1.7991331369,2.8277574769\
 H,0,-1.5396189245,-0.2045578872,1.9967226902\C,0,-2.7947776073,-0.6098
 485045,-3.0648763738\C,0,-2.1762088238,0.6071269769,-2.7575099299\C,0,
 -1.1605911642,0.6729400494,-1.7909076329\C,0,-0.7551360542,-0.49575730
 91,-1.1290937046\C,0,-1.3548101257,-1.7255293387,-1.4560415084\C,0,-2.
 3790659242,-1.777298085,-2.4093173092\H,0,-3.5889103606,-0.6514327037,
 -3.8141825001\C,0,-2.6420090743,1.8816735868,-3.4241365172\H,0,-0.7004
 849923,1.6312441174,-1.5386108808\H,0,-1.0261998573,-2.6541680688,-0.9
 7887355\C,0,-2.975772004,-3.1103403785,-2.789357975\C,0,3.3065520258,-
 3.1135428297,-2.763767148\C,0,2.8331020526,-3.6651283387,-1.5667814088
 \C,0,2.0599224136,-2.9004256426,-0.6839994706\C,0,1.755413333,-1.56465
 95066,-0.9851088812\C,0,2.2131159077,-1.0164661971,-2.1967245326\C,0,2
 .9888616422,-1.7852738228,-3.0746884849\H,0,3.9128198796,-3.711513002,
 -3.4491572707\C,0,3.1445267564,-5.1094022645,-1.2554703853\H,0,1.72616
 49115,-3.3603525247,0.246720876\H,0,1.9535841826,0.0133975104,-2.46400
 54988\C,0,3.5471606359,-1.153125637,-4.326854518\F,0,4.7648230894,-0.5
 763679868,-4.0750936239\F,0,3.7389625181,-2.0662709191,-5.3120606502\F
 ,0,2.7370758015,-0.1762662408,-4.8052955306\F,0,4.4733925767,-5.371499
 9368,-1.4089774098\F,0,2.8046740446,-5.4471891337,0.0202823746\F,0,2.4
 762848433,-5.9492347515,-2.0895518095\F,0,-1.6105574915,2.7427482764,-
 3.619880881\F,0,-3.2100053028,1.6296209241,-4.6367385765\F,0,-3.571017
 6163,2.5210959165,-2.6675531021\F,0,-2.2797150881,-3.6916221317,-3.805
 8561275\F,0,-2.9553856579,-3.9822660269,-1.7424780557\F,0,-4.263803336
 2,-2.9859654809,-3.2023371754\P,0,3.6696447635,0.9677317447,0.99969648
 52\C,0,5.2930076556,1.9861077258,5.2354639239\C,0,4.0261172856,2.44939
 82344,4.8556210058\C,0,3.5208819631,2.1688775203,3.5784154815\C,0,4.29
 03041372,1.4172983224,2.6741188117\C,0,5.5649669739,0.9483286035,3.056
 7233412\C,0,6.0644244285,1.2373744687,4.3323524524\H,0,5.6832609644,2.
 2087426111,6.2340218639\H,0,3.4204232719,3.0343606049,5.55501748\H,0,2
 .5370498699,2.5363216851,3.2773135799\H,0,6.1628551641,0.351668188,2.3
 59880331\H,0,7.0569154965,0.8761476042,4.6210363485\Cl,0,2.2507760496,
 3.7788330574,1.0107960021\Cl,0,-0.8018907663,2.2373967223,0.9829123243
 \H,0,3.8821832952,-0.9671170456,4.6256427359\C,0,5.6101126979,-2.59984
 56874,0.1346806202\C,0,5.0852288361,-3.4852499997,1.0805592258\C,0,4.0
 707407306,-3.0523768358,1.9422755783\C,0,3.5544897054,-1.7446020619,1.
 8882814251\C,0,4.1356616028,-0.8288913667,0.9594112136\C,0,5.146601622
 5,-1.2783128294,0.0884619685\H,0,6.3890495304,-2.9261199614,-0.5615380
 215\H,0,5.4450713195,-4.5168134127,1.1347435295\H,0,3.6492557845,-3.73
 2563679,2.6841140016\H,0,5.5942549535,-0.5826022028,-0.6253466581\C,0,
 6.3901037795,3.1864293137,-2.0394250716\C,0,5.5301128044,2.166927945,-
 2.4734582149\C,0,4.7264423275,1.4925164161,-1.548259665\C,0,4.79409831
 13,1.8093501963,-0.1774726932\C,0,5.6534225274,2.8369213696,0.25299544
 44\C,0,6.4452999358,3.5204235983,-0.67942431\H,0,7.0114119917,3.724461
 5646,-2.7624120614\H,0,5.474827328,1.8921242259,-3.5309729557\H,0,4.05
 4428391,0.7045848144,-1.8949942722\H,0,5.6902479868,3.1119426863,1.309
 8423055\H,0,7.1040071758,4.3252011711,-0.3376948048\Pd,0,1.4767138803,
 1.5573509575,0.6736678196\\Version=ES64L-G09RevE.01\State=1-A\HF=-4822
 .9388326\RMSD=5.494e-09\Dipole=2.6076241,-2.670748,1.6372542\Quadrupol
 e=10.7066299,-29.2197938,18.5131639,12.0754799,-0.8970826,-1.4687572\P
 G=C01 [X(C46H32Cl2F12Fe1P2Pd1)]\\@


 When cryptography is outlawed, bayl bhgynjf jvyy unir cevinpl.
 Job cpu time:       0 days  6 hours 41 minutes 37.7 seconds.
 File lengths (MBytes):  RWF=   2518 Int=      0 D2E=      0 Chk=    352 Scr=      1
 Normal termination of Gaussian 09 at Mon Dec  6 18:43:50 2021.
