 Entering Gaussian System, Link 0=g09
 Input=W001_1_6_F_3_SPE.com
 Output=W001_1_6_F_3_SPE.log
 Initial command:
 /gstore/apps/gaussian/g09.e01-foss-2017a/g09/l1.exe "/local/22791616/Gau-16830.inp" -scrdir="/local/22791616/"
 Entering Link 1 = /gstore/apps/gaussian/g09.e01-foss-2017a/g09/l1.exe PID=     16832.
  
 Copyright (c) 1988,1990,1992,1993,1995,1998,2003,2009,2015,
            Gaussian, Inc.  All Rights Reserved.
  
 This is part of the Gaussian(R) 09 program.  It is based on
 the Gaussian(R) 03 system (copyright 2003, Gaussian, Inc.),
 the Gaussian(R) 98 system (copyright 1998, Gaussian, Inc.),
 the Gaussian(R) 94 system (copyright 1995, Gaussian, Inc.),
 the Gaussian 92(TM) system (copyright 1992, Gaussian, Inc.),
 the Gaussian 90(TM) system (copyright 1990, Gaussian, Inc.),
 the Gaussian 88(TM) system (copyright 1988, Gaussian, Inc.),
 the Gaussian 86(TM) system (copyright 1986, Carnegie Mellon
 University), and the Gaussian 82(TM) system (copyright 1983,
 Carnegie Mellon University). Gaussian is a federally registered
 trademark of Gaussian, Inc.
  
 This software contains proprietary and confidential information,
 including trade secrets, belonging to Gaussian, Inc.
  
 This software is provided under written license and may be
 used, copied, transmitted, or stored only in accord with that
 written license.
  
 The following legend is applicable only to US Government
 contracts under FAR:
  
                    RESTRICTED RIGHTS LEGEND
  
 Use, reproduction and disclosure by the US Government is
 subject to restrictions as set forth in subparagraphs (a)
 and (c) of the Commercial Computer Software - Restricted
 Rights clause in FAR 52.227-19.
  
 Gaussian, Inc.
 340 Quinnipiac St., Bldg. 40, Wallingford CT 06492
  
  
 ---------------------------------------------------------------
 Warning -- This program may not be used in any manner that
 competes with the business of Gaussian, Inc. or will provide
 assistance to any competitor of Gaussian, Inc.  The licensee
 of this program is prohibited from giving any competitor of
 Gaussian, Inc. access to this program.  By using this program,
 the user acknowledges that Gaussian, Inc. is engaged in the
 business of creating and licensing software in the field of
 computational chemistry and represents and warrants to the
 licensee that it is not a competitor of Gaussian, Inc. and that
 it will not use this program in any manner prohibited above.
 ---------------------------------------------------------------
  

 Cite this work as:
 Gaussian 09, Revision E.01,
 M. J. Frisch, G. W. Trucks, H. B. Schlegel, G. E. Scuseria, 
 M. A. Robb, J. R. Cheeseman, G. Scalmani, V. Barone, B. Mennucci, 
 G. A. Petersson, H. Nakatsuji, M. Caricato, X. Li, H. P. Hratchian, 
 A. F. Izmaylov, J. Bloino, G. Zheng, J. L. Sonnenberg, M. Hada, 
 M. Ehara, K. Toyota, R. Fukuda, J. Hasegawa, M. Ishida, T. Nakajima, 
 Y. Honda, O. Kitao, H. Nakai, T. Vreven, J. A. Montgomery, Jr., 
 J. E. Peralta, F. Ogliaro, M. Bearpark, J. J. Heyd, E. Brothers, 
 K. N. Kudin, V. N. Staroverov, T. Keith, R. Kobayashi, J. Normand, 
 K. Raghavachari, A. Rendell, J. C. Burant, S. S. Iyengar, J. Tomasi, 
 M. Cossi, N. Rega, J. M. Millam, M. Klene, J. E. Knox, J. B. Cross, 
 V. Bakken, C. Adamo, J. Jaramillo, R. Gomperts, R. E. Stratmann, 
 O. Yazyev, A. J. Austin, R. Cammi, C. Pomelli, J. W. Ochterski, 
 R. L. Martin, K. Morokuma, V. G. Zakrzewski, G. A. Voth, 
 P. Salvador, J. J. Dannenberg, S. Dapprich, A. D. Daniels, 
 O. Farkas, J. B. Foresman, J. V. Ortiz, J. Cioslowski, 
 and D. J. Fox, Gaussian, Inc., Wallingford CT, 2013.
 
 ******************************************
 Gaussian 09:  ES64L-G09RevE.01 30-Nov-2015
                 6-Dec-2021 
 ******************************************
 %nprocs=14
 Will use up to   14 processors via shared memory.
 %mem=128GB
 %chk=W001_1_6_F_3_SPE.chk
 ----------------------------------------------------------------------
 # PBE1PBE gen pseudo=read int=(grid=ultrafine) empiricaldispersion=GD3
 BJ nmr=giao
 ----------------------------------------------------------------------
 1/38=1/1;
 2/12=2,17=6,18=5,40=1/2;
 3/5=7,11=2,16=1,17=8,25=1,30=1,74=-13,75=-5,124=41/1,2,8,3;
 4//1;
 5/5=2,38=5/2;
 8/6=1,10=90,11=11/1;
 10/13=100,45=16/2;
 6/7=2,8=2,9=2,10=2,28=1/1;
 99/9=1/99;
 ------------------
 W001_1_6_F_3 title
 ------------------
 Symbolic Z-matrix:
 Charge =  0 Multiplicity = 1
 C                     0.21307  -4.0204    4.12397 
 C                     0.18714  -3.45313   5.44353 
 C                     1.51852  -3.51766   5.9807 
 C                     2.36837  -4.12234   4.9921 
 C                     1.55783  -4.43662   3.84426 
 H                    -0.67909  -3.00414   5.93078 
 H                     1.8387   -3.12668   6.94702 
 H                     3.44246  -4.28558   5.08834 
 H                     1.89958  -4.89602   2.91531 
 H                    -0.63438  -4.09536   3.44129 
 Fe                    1.4971   -2.42202   4.25388 
 C                     1.71563  -0.47473   4.84543 
 C                     2.89101  -0.94037   4.17976 
 C                     2.5349   -1.35282   2.84265 
 C                     1.09109  -1.17799   2.70524 
 C                     0.6142   -0.60732   3.94275 
 H                     1.65893  -0.12306   5.87571 
 H                    -0.42315  -0.36822   4.1705 
 C                     0.18987  -1.57929   1.55336 
 P                     0.63153  -0.55004   0.04216 
 H                     0.38094  -2.63706   1.30129 
 C                    -1.3024   -1.41269   1.89272 
 H                    -1.94105  -1.83583   1.10333 
 H                    -1.51916  -1.94566   2.83319 
 H                    -1.56346  -0.34805   2.00909 
 C                    -2.85414  -0.76786  -3.04226 
 C                    -2.26812   0.46521  -2.73521 
 C                    -1.24571   0.55629  -1.77786 
 C                    -0.80038  -0.60298  -1.12516 
 C                    -1.36732  -1.84819  -1.45203 
 C                    -2.39866  -1.92555  -2.3959 
 H                    -3.65381  -0.82923  -3.78428 
 C                    -2.77685   1.72856  -3.39169 
 H                    -0.81113   1.52643  -1.52556 
 H                    -1.00748  -2.76894  -0.98215 
 C                    -2.96013  -3.27371  -2.77629 
 C                     3.31986  -3.0953   -2.8091 
 C                     2.87377  -3.66531  -1.61024 
 C                     2.08713  -2.92696  -0.71699 
 C                     1.74132  -1.59933  -1.00937 
 C                     2.17162  -1.0331   -2.22273 
 C                     2.96102  -1.7755   -3.1112 
 H                     3.93671  -3.67262  -3.5027 
 C                     3.22973  -5.10122  -1.30812 
 H                     1.77558  -3.40023   0.21474 
 H                     1.87998  -0.01007  -2.48305 
 C                     3.48921  -1.12228  -4.36561 
 F                     3.69759  -2.0253   -5.35676 
 F                     2.64719  -0.16681  -4.83199 
 F                     4.6923   -0.51217  -4.12258 
 F                     4.56409  -5.32413  -1.4751 
 F                     2.91182  -5.45385  -0.03068 
 F                     2.57818  -5.95666  -2.13953 
 F                    -1.77254   2.61983  -3.59341 
 F                    -3.34902   1.46531  -4.59994 
 F                    -3.71652   2.33777  -2.62345 
 F                    -4.25482  -3.18489  -3.17742 
 F                    -2.25669  -3.83071  -3.80127 
 F                    -2.90533  -4.1488   -1.73328 
 P                     3.60017   0.9792    0.96855 
 C                     5.2341    2.02661   5.19316 
 C                     6.01814   1.30437   4.27941 
 C                     5.515     1.00629   3.00732 
 C                     4.22364   1.43967   2.63897 
 C                     3.44152   2.1648    3.55389 
 C                     3.95071   2.45452   4.82747 
 H                     5.62735   2.25629   6.18895 
 H                     7.02342   0.97089   4.55703 
 H                     6.12317   0.43013   2.30218 
 H                     2.4446    2.50479   3.26381 
 H                     3.33508   3.01872   5.5352 
 Cl                    2.1003    3.74793   1.0058 
 Cl                   -0.90639   2.11828   0.99976 
 H                     3.90297  -0.96348   4.58373 
 C                     5.63493  -2.52694   0.06974 
 C                     5.14489  -3.43109   1.01657 
 C                     4.12648  -3.03139   1.88961 
 C                     3.57204  -1.73894   1.84619 
 C                     4.11764  -0.80294   0.91597 
 C                     5.13291  -1.21923   0.03367 
 H                     6.41638  -2.82759  -0.63515 
 H                     5.53497  -4.45199   1.06288 
 H                     3.73193  -3.72658   2.63235 
 H                     5.55349  -0.50787  -0.68118 
 C                     6.22527   3.28908  -2.08644 
 C                     5.39182   2.24622  -2.51672 
 C                     4.61723   1.54465  -1.58691 
 C                     4.68834   1.85802  -0.21551 
 C                     5.52088   2.90893   0.21125 
 C                     6.28336   3.61924  -0.72562 
 H                     6.82351   3.84815  -2.81291 
 H                     5.33474   1.97401  -3.57481 
 H                     3.96566   0.73847  -1.93068 
 H                     5.55949   3.18079   1.26885 
 H                     6.92114   4.44185  -0.38667 
 Pd                    1.38806   1.50631   0.66591 
 
 Stoichiometry    C46H32Cl2F12FeP2Pd
 Framework group  C1[X(C46H32Cl2F12FeP2Pd)]
 Deg. of freedom   282
 Full point group                 C1      NOp   1
 Largest Abelian subgroup         C1      NOp   1
 Largest concise Abelian subgroup C1      NOp   1
                         Standard orientation:                         
 ---------------------------------------------------------------------
 Center     Atomic      Atomic             Coordinates (Angstroms)
 Number     Number       Type             X           Y           Z
 ---------------------------------------------------------------------
      1          6           0        1.876088    4.915542   -1.137928
      2          6           0        2.950710    4.964097   -2.090057
      3          6           0        4.180217    4.729033   -1.384121
      4          6           0        3.865561    4.532319    0.004225
      5          6           0        2.438671    4.651860    0.155832
      6          1           0        2.846633    5.101898   -3.166879
      7          1           0        5.172030    4.657948   -1.831785
      8          1           0        4.582012    4.304392    0.794361
      9          1           0        1.874133    4.546862    1.083768
     10          1           0        0.814721    5.029533   -1.362321
     11         26           0        2.911315    3.141183   -1.157389
     12          6           0        3.691305    1.653467   -2.326981
     13          6           0        3.842336    1.344001   -0.940300
     14          6           0        2.535008    1.301705   -0.328823
     15          6           0        1.561460    1.642431   -1.363291
     16          6           0        2.296458    1.825170   -2.592480
     17          1           0        4.499577    1.781747   -3.047118
     18          1           0        1.864266    2.102165   -3.552495
     19          6           0        0.067906    1.867555   -1.226566
     20         15           0       -0.754804    0.246138   -0.744611
     21          1           0       -0.112133    2.586593   -0.408337
     22          6           0       -0.561098    2.419701   -2.518567
     23          1           0       -1.611288    2.706392   -2.360504
     24          1           0       -0.003597    3.316551   -2.835370
     25          1           0       -0.529878    1.668107   -3.324342
     26          6           0       -5.329314    0.530879   -1.583545
     27          6           0       -4.615119   -0.605418   -1.979649
     28          6           0       -3.229419   -0.691233   -1.773269
     29          6           0       -2.552164    0.371376   -1.156468
     30          6           0       -3.271421    1.502991   -0.731094
     31          6           0       -4.650700    1.585876   -0.957477
     32          1           0       -6.406894    0.592349   -1.753470
     33          6           0       -5.324365   -1.733225   -2.694385
     34          1           0       -2.675246   -1.571119   -2.108516
     35          1           0       -2.767927    2.325698   -0.213703
     36          6           0       -5.418285    2.781066   -0.447750
     37          6           0       -1.592070    0.263400    3.852544
     38          6           0       -0.974888    1.378365    3.271927
     39          6           0       -0.684155    1.401743    1.901966
     40          6           0       -1.001604    0.301105    1.092347
     41          6           0       -1.640178   -0.810426    1.670906
     42          6           0       -1.925849   -0.829573    3.042661
     43          1           0       -1.814511    0.246341    4.922647
     44          6           0       -0.653654    2.570027    4.141741
     45          1           0       -0.185850    2.280540    1.491390
     46          1           0       -1.927716   -1.662793    1.046243
     47          6           0       -2.528820   -2.066984    3.662725
     48          9           0       -3.265037   -1.773363    4.764092
     49          9           0       -3.320815   -2.736707    2.788855
     50          9           0       -1.546125   -2.936021    4.059976
     51          9           0        0.009215    2.191799    5.271176
     52          9           0        0.123839    3.484904    3.496942
     53          9           0       -1.785025    3.208532    4.541555
     54          9           0       -4.786611   -2.937883   -2.372968
     55          9           0       -6.648422   -1.769568   -2.374855
     56          9           0       -5.237425   -1.592761   -4.042358
     57          9           0       -6.516153    3.035121   -1.206150
     58          9           0       -5.846529    2.584948    0.830455
     59          9           0       -4.646169    3.903760   -0.441698
     60         15           0        1.929128   -1.790531    0.066601
     61          6           0        6.346559   -1.632697   -1.374082
     62          6           0        6.039616   -1.676656   -0.004717
     63          6           0        4.704270   -1.734553    0.412083
     64          6           0        3.666307   -1.758589   -0.543507
     65          6           0        3.975618   -1.717322   -1.913633
     66          6           0        5.315046   -1.654078   -2.322472
     67          1           0        7.391146   -1.584074   -1.698821
     68          1           0        6.840816   -1.664791    0.741472
     69          1           0        4.467555   -1.753844    1.481033
     70          1           0        3.170322   -1.742670   -2.651511
     71          1           0        5.548123   -1.620930   -3.391480
     72         17           0        1.300271   -3.541028   -2.474483
     73         17           0       -0.692549   -1.046005   -3.699039
     74          1           0        4.775878    1.141841   -0.415501
     75          6           0        2.138509    0.042581    3.786416
     76          6           0        2.499542    1.356425    3.474010
     77          6           0        2.601293    1.743501    2.132766
     78          6           0        2.348909    0.847960    1.077291
     79          6           0        2.037836   -0.506997    1.403500
     80          6           0        1.925340   -0.882566    2.755840
     81          1           0        2.033480   -0.273179    4.829097
     82          1           0        2.679111    2.086446    4.268598
     83          1           0        2.879620    2.766115    1.873131
     84          1           0        1.686343   -1.917633    3.011660
     85          6           0        1.345247   -5.910558    2.126725
     86          6           0        0.400755   -4.889523    2.307750
     87          6           0        0.593487   -3.645938    1.696960
     88          6           0        1.744497   -3.400075    0.923176
     89          6           0        2.686411   -4.428907    0.738903
     90          6           0        2.481543   -5.678065    1.339968
     91          1           0        1.191431   -6.888765    2.593271
     92          1           0       -0.491478   -5.052804    2.919450
     93          1           0       -0.149857   -2.858256    1.837160
     94          1           0        3.566944   -4.258593    0.114743
     95          1           0        3.214205   -6.476265    1.183692
     96         46           0        0.389231   -1.522407   -1.612591
 ---------------------------------------------------------------------
 Rotational constants (GHZ):      0.0372468      0.0295288      0.0275306
 General basis read from cards:  (5D, 7F)
 ======================================================================================================
                                       Pseudopotential Parameters
 ======================================================================================================
  Center     Atomic      Valence      Angular      Power
  Number     Number     Electrons     Momentum     of R      Exponent        Coefficient   SO-Coeffient
 ======================================================================================================
    1          6
                                   No pseudopotential on this center.
    2          6
                                   No pseudopotential on this center.
    3          6
                                   No pseudopotential on this center.
    4          6
                                   No pseudopotential on this center.
    5          6
                                   No pseudopotential on this center.
    6          1
                                   No pseudopotential on this center.
    7          1
                                   No pseudopotential on this center.
    8          1
                                   No pseudopotential on this center.
    9          1
                                   No pseudopotential on this center.
   10          1
                                   No pseudopotential on this center.
   11         26           16
                                      F and up 
                                                     2        1.0000000        0.00000000    0.00000000
                                      S - F
                                                     2       20.9300000      253.74958800    0.00000000
                                                     2        9.4450000       37.92284500    0.00000000
                                      P - F
                                                     2       21.7600000      161.03681200    0.00000000
                                                     2        9.1780000       27.65129800    0.00000000
                                      D - F
                                                     2       25.9000000      -24.43127600    0.00000000
                                                     2        8.8350000       -1.43425100    0.00000000
   12          6
                                   No pseudopotential on this center.
   13          6
                                   No pseudopotential on this center.
   14          6
                                   No pseudopotential on this center.
   15          6
                                   No pseudopotential on this center.
   16          6
                                   No pseudopotential on this center.
   17          1
                                   No pseudopotential on this center.
   18          1
                                   No pseudopotential on this center.
   19          6
                                   No pseudopotential on this center.
   20         15
                                   No pseudopotential on this center.
   21          1
                                   No pseudopotential on this center.
   22          6
                                   No pseudopotential on this center.
   23          1
                                   No pseudopotential on this center.
   24          1
                                   No pseudopotential on this center.
   25          1
                                   No pseudopotential on this center.
   26          6
                                   No pseudopotential on this center.
   27          6
                                   No pseudopotential on this center.
   28          6
                                   No pseudopotential on this center.
   29          6
                                   No pseudopotential on this center.
   30          6
                                   No pseudopotential on this center.
   31          6
                                   No pseudopotential on this center.
   32          1
                                   No pseudopotential on this center.
   33          6
                                   No pseudopotential on this center.
   34          1
                                   No pseudopotential on this center.
   35          1
                                   No pseudopotential on this center.
   36          6
                                   No pseudopotential on this center.
   37          6
                                   No pseudopotential on this center.
   38          6
                                   No pseudopotential on this center.
   39          6
                                   No pseudopotential on this center.
   40          6
                                   No pseudopotential on this center.
   41          6
                                   No pseudopotential on this center.
   42          6
                                   No pseudopotential on this center.
   43          1
                                   No pseudopotential on this center.
   44          6
                                   No pseudopotential on this center.
   45          1
                                   No pseudopotential on this center.
   46          1
                                   No pseudopotential on this center.
   47          6
                                   No pseudopotential on this center.
   48          9
                                   No pseudopotential on this center.
   49          9
                                   No pseudopotential on this center.
   50          9
                                   No pseudopotential on this center.
   51          9
                                   No pseudopotential on this center.
   52          9
                                   No pseudopotential on this center.
   53          9
                                   No pseudopotential on this center.
   54          9
                                   No pseudopotential on this center.
   55          9
                                   No pseudopotential on this center.
   56          9
                                   No pseudopotential on this center.
   57          9
                                   No pseudopotential on this center.
   58          9
                                   No pseudopotential on this center.
   59          9
                                   No pseudopotential on this center.
   60         15
                                   No pseudopotential on this center.
   61          6
                                   No pseudopotential on this center.
   62          6
                                   No pseudopotential on this center.
   63          6
                                   No pseudopotential on this center.
   64          6
                                   No pseudopotential on this center.
   65          6
                                   No pseudopotential on this center.
   66          6
                                   No pseudopotential on this center.
   67          1
                                   No pseudopotential on this center.
   68          1
                                   No pseudopotential on this center.
   69          1
                                   No pseudopotential on this center.
   70          1
                                   No pseudopotential on this center.
   71          1
                                   No pseudopotential on this center.
   72         17
                                   No pseudopotential on this center.
   73         17
                                   No pseudopotential on this center.
   74          1
                                   No pseudopotential on this center.
   75          6
                                   No pseudopotential on this center.
   76          6
                                   No pseudopotential on this center.
   77          6
                                   No pseudopotential on this center.
   78          6
                                   No pseudopotential on this center.
   79          6
                                   No pseudopotential on this center.
   80          6
                                   No pseudopotential on this center.
   81          1
                                   No pseudopotential on this center.
   82          1
                                   No pseudopotential on this center.
   83          1
                                   No pseudopotential on this center.
   84          1
                                   No pseudopotential on this center.
   85          6
                                   No pseudopotential on this center.
   86          6
                                   No pseudopotential on this center.
   87          6
                                   No pseudopotential on this center.
   88          6
                                   No pseudopotential on this center.
   89          6
                                   No pseudopotential on this center.
   90          6
                                   No pseudopotential on this center.
   91          1
                                   No pseudopotential on this center.
   92          1
                                   No pseudopotential on this center.
   93          1
                                   No pseudopotential on this center.
   94          1
                                   No pseudopotential on this center.
   95          1
                                   No pseudopotential on this center.
   96         46           18
                                      G and up 
                                                     2        1.0000000        0.00000000    0.00000000
                                      S - G
                                                     2       12.4300000      240.22904000    0.00000000
                                                     2        6.1707590       35.17194300    0.00000000
                                      P - G
                                                     2       11.0800000      170.41727600    0.00000000
                                                     2        5.8295540       28.47213300    0.00000000
                                      D - G
                                                     2        9.5100000       69.01384500    0.00000000
                                                     2        4.1397810       11.75086200    0.00000000
                                      F - G
                                                     2       13.2700000      -31.92955400    0.00000000
                                                     2        6.6300000       -5.39821700    0.00000000
 ======================================================================================================
 There are  2536 symmetry adapted cartesian basis functions of A   symmetry.
 There are  2217 symmetry adapted basis functions of A   symmetry.
  2217 basis functions,  3630 primitive gaussians,  2536 cartesian basis functions
   257 alpha electrons      257 beta electrons
       nuclear repulsion energy     13190.8263308774 Hartrees.
 NAtoms=   96 NActive=   96 NUniq=   96 SFac= 1.00D+00 NAtFMM=   60 NAOKFM=T Big=T
 Integral buffers will be    131072 words long.
 Raffenetti 2 integral format.
 Two-electron integral symmetry is turned on.
 Nuclear repulsion after empirical dispersion term =    13190.6395024196 Hartrees.
 One-electron integrals computed using PRISM.
   1 Symmetry operations used in ECPInt.
 ECPInt:  NShTT=  359128 NPrTT= 1131794 LenC2=  258426 LenP2D=  519535.
 LDataN:  DoStor=T MaxTD1= 7 Len=  274
 NBasis=  2217 RedAO= T EigKep=  2.60D-06  NBF=  2217
 NBsUse=  2217 1.00D-06 EigRej= -1.00D+00 NBFU=  2217
 Defaulting to unpruned grid for atomic number  46.
 ExpMin= 1.00D-02 ExpMax= 6.95D+04 ExpMxC= 2.37D+03 IAcc=3 IRadAn=         5 AccDes= 0.00D+00
 Harris functional with IExCor= 1009 and IRadAn=       5 diagonalized for initial guess.
 HarFok:  IExCor= 1009 AccDes= 0.00D+00 IRadAn=         5 IDoV= 1 UseB2=F ITyADJ=14
 ICtDFT=  3500011 ScaDFX=  1.000000  1.000000  1.000000  1.000000
 Defaulting to unpruned grid for atomic number  46.
 Defaulting to unpruned grid for atomic number  46.
 Defaulting to unpruned grid for atomic number  46.
 Defaulting to unpruned grid for atomic number  46.
 Defaulting to unpruned grid for atomic number  46.
 Defaulting to unpruned grid for atomic number  46.
 Defaulting to unpruned grid for atomic number  46.
 Defaulting to unpruned grid for atomic number  46.
 Defaulting to unpruned grid for atomic number  46.
 Defaulting to unpruned grid for atomic number  46.
 Defaulting to unpruned grid for atomic number  46.
 Defaulting to unpruned grid for atomic number  46.
 Defaulting to unpruned grid for atomic number  46.
 Defaulting to unpruned grid for atomic number  46.
 FoFCou: FMM=F IPFlag=           0 FMFlag=      100000 FMFlg1=        2001
         NFxFlg=           0 DoJE=T BraDBF=F KetDBF=T FulRan=T
         wScrn=  0.000000 ICntrl=     500 IOpCl=  0 I1Cent=   200000004 NGrid=           0
         NMat0=    1 NMatS0=      1 NMatT0=    0 NMatD0=    1 NMtDS0=    0 NMtDT0=    0
 Petite list used in FoFCou.
 Requested convergence on RMS density matrix=1.00D-08 within 128 cycles.
 Requested convergence on MAX density matrix=1.00D-06.
 Requested convergence on             energy=1.00D-06.
 No special actions if energy rises.
 Defaulting to unpruned grid for atomic number  46.
 Defaulting to unpruned grid for atomic number  46.
 Defaulting to unpruned grid for atomic number  46.
 Defaulting to unpruned grid for atomic number  46.
 Defaulting to unpruned grid for atomic number  46.
 Defaulting to unpruned grid for atomic number  46.
 Defaulting to unpruned grid for atomic number  46.
 Defaulting to unpruned grid for atomic number  46.
 Defaulting to unpruned grid for atomic number  46.
 Defaulting to unpruned grid for atomic number  46.
 Defaulting to unpruned grid for atomic number  46.
 Defaulting to unpruned grid for atomic number  46.
 Defaulting to unpruned grid for atomic number  46.
 Defaulting to unpruned grid for atomic number  46.
 EnCoef did     3 forward-backward iterations
 EnCoef did     3 forward-backward iterations
 EnCoef did     5 forward-backward iterations
 Restarting incremental Fock formation.
 SCF Done:  E(RPBE1PBE) =  -4822.93882944     A.U. after   29 cycles
            NFock= 29  Conv=0.36D-08     -V/T= 2.0321
 DoSCS=F DFT=T ScalE2(SS,OS)=  1.000000  1.000000
 Range of M.O.s used for correlation:     1  2217
 NBasis=  2217 NAE=   257 NBE=   257 NFC=     0 NFV=     0
 NROrb=   2217 NOA=   257 NOB=   257 NVA=  1960 NVB=  1960

 **** Warning!!: The largest alpha MO coefficient is  0.40440282D+02

          Differentiating once with respect to magnetic field using GIAOs.
          Electric field/nuclear overlap derivatives assumed to be zero.
 Defaulting to unpruned grid for atomic number  46.
 FoFCou: FMM=F IPFlag=           0 FMFlag=      100000 FMFlg1=        2001
         NFxFlg=           0 DoJE=F BraDBF=F KetDBF=T FulRan=T
         wScrn=  0.000000 ICntrl=    6100 IOpCl=  0 I1Cent=           7 NGrid=          96
         NMat0=    1 NMatS0=      1 NMatT0=    0 NMatD0=    1 NMtDS0=    0 NMtDT0=    0
 Symmetry not used in FoFCou.
   1 Symmetry operations used in ECPInt.
 ECPInt:  NShTT=  359128 NPrTT= 1131794 LenC2=  359129 LenP2D= 1131794.
 LDataN:  DoStor=T MaxTD1= 8 Len=  415
 FoFJK:  IHMeth= 1 ICntrl=    6127 DoSepK=F KAlg= 0 I1Cent=   0 FoldK=F
 IRaf=         1 NMat=   1 IRICut=       1 DoRegI=T DoRafI=F ISym2E= 0.
 Defaulting to unpruned grid for atomic number  46.
 Defaulting to unpruned grid for atomic number  46.
 Defaulting to unpruned grid for atomic number  46.
 Defaulting to unpruned grid for atomic number  46.
 Defaulting to unpruned grid for atomic number  46.
 Defaulting to unpruned grid for atomic number  46.
 Defaulting to unpruned grid for atomic number  46.
 Defaulting to unpruned grid for atomic number  46.
 Defaulting to unpruned grid for atomic number  46.
 Defaulting to unpruned grid for atomic number  46.
 Defaulting to unpruned grid for atomic number  46.
 Defaulting to unpruned grid for atomic number  46.
 Defaulting to unpruned grid for atomic number  46.
 Defaulting to unpruned grid for atomic number  46.
          There are     3 degrees of freedom in the 1st order CPHF.  IDoFFX=0 NUNeed=     3.
      3 vectors produced by pass  0 Test12= 1.68D-11 3.33D-08 XBig12= 3.17D+02 1.66D+00.
 AX will form     3 AO Fock derivatives at one time.
      3 vectors produced by pass  1 Test12= 1.68D-11 3.33D-08 XBig12= 2.25D+00 5.19D-01.
      3 vectors produced by pass  2 Test12= 1.68D-11 3.33D-08 XBig12= 1.09D-01 1.09D-01.
      3 vectors produced by pass  3 Test12= 1.68D-11 3.33D-08 XBig12= 1.96D-03 8.49D-03.
      3 vectors produced by pass  4 Test12= 1.68D-11 3.33D-08 XBig12= 3.41D-05 2.46D-03.
      3 vectors produced by pass  5 Test12= 1.68D-11 3.33D-08 XBig12= 1.12D-06 2.11D-04.
      3 vectors produced by pass  6 Test12= 1.68D-11 3.33D-08 XBig12= 1.77D-08 3.18D-05.
      3 vectors produced by pass  7 Test12= 1.68D-11 3.33D-08 XBig12= 3.58D-10 6.61D-06.
      3 vectors produced by pass  8 Test12= 1.68D-11 3.33D-08 XBig12= 3.61D-12 6.48D-07.
      2 vectors produced by pass  9 Test12= 1.68D-11 3.33D-08 XBig12= 1.38D-13 1.59D-07.
 InvSVY:  IOpt=1 It=  1 EMax= 1.07D-14
 Solved reduced A of dimension    29 with     3 vectors.
 Calculating GIAO nuclear magnetic shielding tensors.
 SCF GIAO Magnetic shielding tensor (ppm):
      1  C    Isotropic =   107.9759   Anisotropy =    97.2264
   XX=    64.7439   YX=    27.8976   ZX=    -7.4648
   XY=    42.2993   YY=   158.7483   ZY=    17.7416
   XZ=    -6.9351   YZ=    14.5072   ZZ=   100.4355
   Eigenvalues:    50.1782   100.9560   172.7935
      2  C    Isotropic =   111.8085   Anisotropy =    90.8390
   XX=   112.1991   YX=     9.0003   ZX=     0.3227
   XY=    10.7820   YY=   156.0965   ZY=    48.1751
   XZ=    -2.0469   YZ=    30.6212   ZZ=    67.1300
   Eigenvalues:    51.8794   111.1783   172.3679
      3  C    Isotropic =   112.6839   Anisotropy =    87.7944
   XX=    64.2729   YX=    -5.9667   ZX=    20.5733
   XY=   -20.1555   YY=   166.4487   ZY=    18.5191
   XZ=    20.6078   YZ=    14.0728   ZZ=   107.3302
   Eigenvalues:    53.0496   113.7886   171.2135
      4  C    Isotropic =   112.3568   Anisotropy =    89.2647
   XX=    84.8486   YX=     4.6933   ZX=   -30.7414
   XY=    -4.0791   YY=   171.8117   ZY=    -8.7869
   XZ=   -29.3708   YZ=     4.8204   ZZ=    80.4102
   Eigenvalues:    52.4785   112.7254   171.8666
      5  C    Isotropic =   111.0579   Anisotropy =    92.4031
   XX=    95.9320   YX=    13.1414   ZX=    21.8389
   XY=    16.6425   YY=   169.5445   ZY=   -16.3914
   XZ=    24.8934   YZ=    -2.0647   ZZ=    67.6970
   Eigenvalues:    52.4789   108.0347   172.6599
      6  H    Isotropic =    27.3709   Anisotropy =     6.1221
   XX=    25.7390   YX=     1.1934   ZX=    -0.0230
   XY=     0.7056   YY=    26.1732   ZY=    -2.9049
   XZ=     0.0355   YZ=    -2.1611   ZZ=    30.2005
   Eigenvalues:    24.3941    26.2663    31.4523
      7  H    Isotropic =    27.5959   Anisotropy =     7.1775
   XX=    30.9292   YX=     1.3361   ZX=    -2.6014
   XY=     1.8583   YY=    25.7088   ZY=    -0.9301
   XZ=    -2.1677   YZ=    -0.5683   ZZ=    26.1498
   Eigenvalues:    25.1148    25.2921    32.3809
      8  H    Isotropic =    27.2806   Anisotropy =     4.8904
   XX=    28.3417   YX=     1.8187   ZX=     2.0007
   XY=     1.1235   YY=    25.3267   ZY=     0.2888
   XZ=     2.2858   YZ=    -0.9842   ZZ=    28.1733
   Eigenvalues:    24.3175    26.9833    30.5409
      9  H    Isotropic =    27.0595   Anisotropy =     5.5701
   XX=    25.5858   YX=     0.4387   ZX=    -2.1218
   XY=     0.9789   YY=    25.9491   ZY=     0.0903
   XZ=    -2.4093   YZ=    -1.0962   ZZ=    29.6437
   Eigenvalues:    24.4362    25.9695    30.7729
     10  H    Isotropic =    27.6181   Anisotropy =     3.1680
   XX=    29.4050   YX=     0.2426   ZX=     1.5756
   XY=    -0.2675   YY=    27.6061   ZY=    -0.8471
   XZ=     0.6295   YZ=    -0.1841   ZZ=    25.8431
   Eigenvalues:    25.4183    27.7059    29.7301
     11  Fe   Isotropic = -6218.4910   Anisotropy =  8317.0105
   XX= -8909.5120   YX=   715.6383   ZX=     7.6219
   XY=   692.3317   YY=  -992.4645   ZY=  1448.4775
   XZ=    27.7883   YZ=  1438.7210   ZZ= -8753.4964
   Eigenvalues: -9100.0638 -8881.5918  -673.8173
     12  C    Isotropic =   113.6734   Anisotropy =    92.5215
   XX=    89.2920   YX=    13.4216   ZX=    28.1914
   XY=    26.1923   YY=   170.4212   ZY=    -6.9900
   XZ=    34.5125   YZ=     3.6877   ZZ=    81.3070
   Eigenvalues:    51.9177   113.7480   175.3544
     13  C    Isotropic =   102.8988   Anisotropy =    90.7712
   XX=    57.9315   YX=    37.4750   ZX=   -29.7195
   XY=    43.7785   YY=   143.2167   ZY=    26.7059
   XZ=    -7.2560   YZ=    18.4782   ZZ=   107.5482
   Eigenvalues:    32.7560   112.5274   163.4129
     14  C    Isotropic =    91.1357   Anisotropy =    95.9009
   XX=    69.5043   YX=     6.5133   ZX=     1.7619
   XY=     3.8974   YY=   126.4198   ZY=    54.5507
   XZ=     2.0560   YZ=    38.9628   ZZ=    77.4831
   Eigenvalues:    49.1231    69.2144   155.0697
     15  C    Isotropic =    93.0355   Anisotropy =    84.7546
   XX=    57.0253   YX=    -1.5576   ZX=    -0.1931
   XY=   -23.4871   YY=   144.2384   ZY=    13.2403
   XZ=   -16.5142   YZ=    16.4829   ZZ=    77.8428
   Eigenvalues:    53.4854    76.0826   149.5386
     16  C    Isotropic =   110.4105   Anisotropy =    87.7116
   XX=   110.5391   YX=     2.3261   ZX=   -14.7622
   XY=   -11.4836   YY=   168.4503   ZY=    -5.0075
   XZ=   -22.0864   YZ=     7.8899   ZZ=    52.2420
   Eigenvalues:    46.9072   115.4393   168.8849
     17  H    Isotropic =    28.0150   Anisotropy =     7.1094
   XX=    29.8275   YX=     0.6430   ZX=    -4.1062
   XY=     0.0640   YY=    27.0508   ZY=    -2.4383
   XZ=    -3.3124   YZ=    -1.1487   ZZ=    27.1668
   Eigenvalues:    23.9961    27.2943    32.7547
     18  H    Isotropic =    26.9895   Anisotropy =     3.6512
   XX=    28.6418   YX=     0.3704   ZX=    -0.2415
   XY=     0.1629   YY=    24.6342   ZY=    -2.2901
   XZ=    -0.8314   YZ=    -2.4054   ZZ=    27.6926
   Eigenvalues:    23.3615    28.1834    29.4237
     19  C    Isotropic =   149.5878   Anisotropy =    22.7438
   XX=   162.0352   YX=     4.0956   ZX=     7.9165
   XY=     4.0104   YY=   158.0059   ZY=    -0.5991
   XZ=     0.6118   YZ=    -3.1053   ZZ=   128.7223
   Eigenvalues:   127.9995   156.0136   164.7503
     20  P    Isotropic =   220.0170   Anisotropy =   177.0630
   XX=   209.3465   YX=   -67.7439   ZX=    45.7192
   XY=   -65.3310   YY=   301.0345   ZY=    44.2938
   XZ=   -10.1092   YZ=    18.3254   ZZ=   149.6699
   Eigenvalues:   128.0216   193.9704   338.0589
     21  H    Isotropic =    26.7218   Anisotropy =     6.2074
   XX=    25.2673   YX=    -0.2424   ZX=     1.1604
   XY=     1.5367   YY=    27.4163   ZY=     3.9625
   XZ=    -1.4546   YZ=     2.8148   ZZ=    27.4818
   Eigenvalues:    23.8358    25.4695    30.8600
     22  C    Isotropic =   169.0923   Anisotropy =    13.5605
   XX=   172.8407   YX=     1.3828   ZX=     4.6388
   XY=    -0.0162   YY=   164.7378   ZY=    -7.7084
   XZ=     3.6498   YZ=    -9.9804   ZZ=   169.6983
   Eigenvalues:   157.4125   171.7317   178.1326
     23  H    Isotropic =    30.0822   Anisotropy =     9.8359
   XX=    36.0603   YX=    -2.8683   ZX=     1.0150
   XY=    -1.4334   YY=    28.6519   ZY=    -2.3763
   XZ=    -2.8634   YZ=    -4.6184   ZZ=    25.5344
   Eigenvalues:    22.9700    30.6371    36.6395
     24  H    Isotropic =    29.3950   Anisotropy =     9.0897
   XX=    29.1354   YX=     1.9757   ZX=     1.5051
   XY=     3.3181   YY=    32.3643   ZY=    -3.9638
   XZ=    -0.8943   YZ=    -4.6229   ZZ=    26.6853
   Eigenvalues:    23.8944    28.8358    35.4548
     25  H    Isotropic =    28.4393   Anisotropy =     7.6329
   XX=    23.9725   YX=     0.8185   ZX=     2.9652
   XY=     2.4751   YY=    31.0561   ZY=     2.7854
   XZ=    -0.5120   YZ=     1.9847   ZZ=    30.2894
   Eigenvalues:    23.5295    28.2605    33.5279
     26  C    Isotropic =    54.0218   Anisotropy =   190.7742
   XX=   -34.4120   YX=    12.7233   ZX=   -32.8532
   XY=    12.1167   YY=    52.5355   ZY=   -61.0264
   XZ=   -29.9492   YZ=   -64.7043   ZZ=   143.9420
   Eigenvalues:   -39.8177    20.6785   181.2046
     27  C    Isotropic =    46.1121   Anisotropy =   162.3275
   XX=    14.2268   YX=   -18.5221   ZX=   -34.5026
   XY=   -17.8803   YY=     7.0605   ZY=   -72.8805
   XZ=   -29.6279   YZ=   -67.1912   ZZ=   117.0488
   Eigenvalues:   -43.6052    27.6109   154.3304
     28  C    Isotropic =    36.7558   Anisotropy =   203.7261
   XX=    -5.3166   YX=    38.9226   ZX=   -18.6748
   XY=    40.6066   YY=   -10.7248   ZY=   -75.1992
   XZ=   -27.0387   YZ=   -88.4412   ZZ=   126.3088
   Eigenvalues:   -62.5461     0.2403   172.5732
     29  C    Isotropic =    40.0309   Anisotropy =   185.4327
   XX=   -37.2567   YX=    14.2984   ZX=   -33.0445
   XY=    14.6195   YY=    25.6376   ZY=   -65.1958
   XZ=   -32.1660   YZ=   -50.9463   ZZ=   131.7119
   Eigenvalues:   -43.5889     0.0289   163.6527
     30  C    Isotropic =    44.1501   Anisotropy =   195.1908
   XX=     2.2834   YX=    -7.5441   ZX=   -35.5611
   XY=   -18.9352   YY=    11.0998   ZY=   -86.9390
   XZ=   -37.4334   YZ=   -94.1440   ZZ=   119.0672
   Eigenvalues:   -56.0438    14.2169   174.2773
     31  C    Isotropic =    48.2667   Anisotropy =   159.2553
   XX=    19.4118   YX=    39.0830   ZX=    -4.1252
   XY=    38.9984   YY=     4.7259   ZY=   -67.2457
   XZ=   -10.1039   YZ=   -64.6294   ZZ=   120.6625
   Eigenvalues:   -42.9398    33.3031   154.4369
     32  H    Isotropic =    23.2956   Anisotropy =     9.6568
   XX=    22.1227   YX=    -0.2980   ZX=     1.2982
   XY=    -0.5243   YY=    27.8788   ZY=     4.1197
   XZ=     0.9350   YZ=     4.4262   ZZ=    19.8854
   Eigenvalues:    17.7113    22.4421    29.7335
     33  C    Isotropic =    49.1263   Anisotropy =    15.0249
   XX=    56.5380   YX=    -5.7756   ZX=    -1.4915
   XY=    -5.5766   YY=    46.6606   ZY=    -2.5153
   XZ=    -1.4581   YZ=    -1.3695   ZZ=    44.1804
   Eigenvalues:    41.7402    46.4958    59.1429
     34  H    Isotropic =    21.4166   Anisotropy =    17.1611
   XX=    31.4868   YX=     5.0987   ZX=     1.0261
   XY=     4.4362   YY=    14.8244   ZY=     0.6299
   XZ=     0.8810   YZ=     1.8275   ZZ=    17.9387
   Eigenvalues:    13.3595    18.0331    32.8574
     35  H    Isotropic =    23.9870   Anisotropy =    16.1465
   XX=    31.1625   YX=    -8.2232   ZX=     1.9337
   XY=    -5.5990   YY=    21.3533   ZY=    -1.1473
   XZ=    -1.2643   YZ=     0.1030   ZZ=    19.4452
   Eigenvalues:    17.7268    19.4829    34.7514
     36  C    Isotropic =    48.8360   Anisotropy =    14.7687
   XX=    55.3404   YX=     3.4943   ZX=     6.0907
   XY=     4.1905   YY=    45.9894   ZY=    -1.1975
   XZ=     5.1330   YZ=    -0.0913   ZZ=    45.1782
   Eigenvalues:    41.4918    46.3344    58.6818
     37  C    Isotropic =    54.6411   Anisotropy =   192.3618
   XX=   153.6570   YX=   -50.7926   ZX=    36.9419
   XY=   -58.4589   YY=    43.3428   ZY=    -8.0282
   XZ=    37.8051   YZ=   -10.9498   ZZ=   -33.0766
   Eigenvalues:   -40.2940    21.3350   182.8823
     38  C    Isotropic =    47.2809   Anisotropy =   167.9476
   XX=   131.4683   YX=   -61.0889   ZX=     5.5386
   XY=   -59.6019   YY=     4.9454   ZY=   -40.4971
   XZ=     9.4689   YZ=   -45.5954   ZZ=     5.4292
   Eigenvalues:   -46.9692    29.5660   159.2460
     39  C    Isotropic =    52.3192   Anisotropy =   201.3332
   XX=   142.5938   YX=   -86.3819   ZX=    37.8267
   XY=   -81.3169   YY=     0.0833   ZY=     8.8045
   XZ=    36.0137   YZ=     9.7703   ZZ=    14.2803
   Eigenvalues:   -48.4210    18.8372   186.5413
     40  C    Isotropic =    34.4235   Anisotropy =   206.2317
   XX=   133.4692   YX=   -68.3230   ZX=    38.7533
   XY=   -69.3663   YY=    11.1934   ZY=   -14.3480
   XZ=    34.5398   YZ=   -17.8033   ZZ=   -41.3920
   Eigenvalues:   -48.9032   -19.7375   171.9113
     41  C    Isotropic =    45.4253   Anisotropy =   196.1497
   XX=   140.8695   YX=   -69.7198   ZX=     6.6214
   XY=   -75.8390   YY=    -0.1706   ZY=   -48.3267
   XZ=    18.5239   YZ=   -36.2572   ZZ=    -4.4231
   Eigenvalues:   -55.3889    15.4730   176.1917
     42  C    Isotropic =    47.0504   Anisotropy =   164.4704
   XX=   117.2039   YX=   -75.1495   ZX=    34.0553
   XY=   -70.7710   YY=     1.6143   ZY=    13.6324
   XZ=    32.6482   YZ=    16.7423   ZZ=    22.3330
   Eigenvalues:   -45.8231    30.2770   156.6973
     43  H    Isotropic =    23.5497   Anisotropy =     9.2090
   XX=    21.8500   YX=     4.6748   ZX=    -2.2118
   XY=     3.9641   YY=    27.3037   ZY=     0.8571
   XZ=    -0.8024   YZ=     1.2128   ZZ=    21.4955
   Eigenvalues:    18.3987    22.5614    29.6890
     44  C    Isotropic =    48.5565   Anisotropy =    13.3982
   XX=    48.1990   YX=     0.1835   ZX=    -6.0080
   XY=     1.3309   YY=    45.7415   ZY=    -5.1028
   XZ=    -4.4376   YZ=    -5.5333   ZZ=    51.7291
   Eigenvalues:    41.7766    46.4043    57.4887
     45  H    Isotropic =    23.5344   Anisotropy =     9.6030
   XX=    22.7750   YX=    -2.8391   ZX=     0.7136
   XY=    -1.2975   YY=    19.4176   ZY=     3.0840
   XZ=    -0.4002   YZ=     4.7794   ZZ=    28.4105
   Eigenvalues:    17.2233    23.4434    29.9364
     46  H    Isotropic =    23.0642   Anisotropy =    13.8318
   XX=    22.3015   YX=     2.5894   ZX=    -4.1355
   XY=     0.5975   YY=    19.4851   ZY=    -5.5592
   XZ=    -2.2114   YZ=    -7.3650   ZZ=    27.4061
   Eigenvalues:    15.8618    21.0454    32.2854
     47  C    Isotropic =    48.8031   Anisotropy =    13.3339
   XX=    47.6510   YX=     0.4602   ZX=    -1.1387
   XY=     0.5848   YY=    43.4834   ZY=     5.6863
   XZ=    -1.1416   YZ=     5.8248   ZZ=    55.2750
   Eigenvalues:    41.0131    47.7038    57.6924
     48  F    Isotropic =   245.9658   Anisotropy =   138.3592
   XX=   268.4266   YX=   -35.9734   ZX=   -48.6979
   XY=   -17.6519   YY=   169.2230   ZY=     4.7559
   XZ=   -46.6473   YZ=    17.0857   ZZ=   300.2477
   Eigenvalues:   162.4294   237.2627   338.2053
     49  F    Isotropic =   246.5958   Anisotropy =   133.7834
   XX=   277.3856   YX=    17.1882   ZX=    54.4206
   XY=    27.0727   YY=   237.6267   ZY=    67.5434
   XZ=    41.6844   YZ=    56.2379   ZZ=   224.7751
   Eigenvalues:   164.3775   239.6251   335.7848
     50  F    Isotropic =   217.1714   Anisotropy =   151.2119
   XX=   192.2596   YX=   -82.1252   ZX=    42.6561
   XY=   -81.2183   YY=   244.8114   ZY=   -14.7246
   XZ=    40.1798   YZ=   -16.4994   ZZ=   214.4433
   Eigenvalues:   125.4905   208.0444   317.9794
     51  F    Isotropic =   228.1755   Anisotropy =   144.9414
   XX=   237.8978   YX=   -15.0185   ZX=    42.0372
   XY=    -6.4762   YY=   152.8787   ZY=   -25.3318
   XZ=    47.8634   YZ=   -36.5219   ZZ=   293.7500
   Eigenvalues:   146.3668   213.3566   324.8031
     52  F    Isotropic =   250.8027   Anisotropy =   115.3858
   XX=   282.9691   YX=    20.8010   ZX=   -25.6387
   XY=    33.4683   YY=   267.1358   ZY=   -66.1698
   XZ=   -13.0380   YZ=   -54.1510   ZZ=   202.3030
   Eigenvalues:   166.3145   258.3669   327.7265
     53  F    Isotropic =   220.5349   Anisotropy =   152.6150
   XX=   234.5252   YX=   -71.1060   ZX=   -59.2745
   XY=   -73.3543   YY=   221.4073   ZY=     6.5486
   XZ=   -61.9876   YZ=     4.8964   ZZ=   205.6721
   Eigenvalues:   132.6366   206.6898   322.2782
     54  F    Isotropic =   243.1073   Anisotropy =   138.2608
   XX=   207.4123   YX=   -41.6166   ZX=   -22.0765
   XY=   -54.2591   YY=   310.5519   ZY=   -42.9121
   XZ=   -20.1716   YZ=   -29.9819   ZZ=   211.3577
   Eigenvalues:   163.6123   230.4285   335.2812
     55  F    Isotropic =   248.4804   Anisotropy =   140.5900
   XX=   335.6798   YX=     1.4542   ZX=   -28.8844
   XY=    17.3433   YY=   186.7610   ZY=   -44.0307
   XZ=   -17.7627   YZ=   -31.4873   ZZ=   223.0004
   Eigenvalues:   162.8785   240.3556   342.2071
     56  F    Isotropic =   222.4945   Anisotropy =   144.7567
   XX=   194.2344   YX=   -34.3729   ZX=     6.7275
   XY=   -36.4509   YY=   155.0965   ZY=    10.1078
   XZ=     8.1383   YZ=     9.8702   ZZ=   318.1526
   Eigenvalues:   133.3767   215.1078   318.9990
     57  F    Isotropic =   246.5055   Anisotropy =   139.0299
   XX=   301.1093   YX=   -10.4304   ZX=    53.9604
   XY=   -19.7741   YY=   197.0833   ZY=   -58.4681
   XZ=    44.0941   YZ=   -40.2023   ZZ=   241.3240
   Eigenvalues:   163.4459   236.8785   339.1922
     58  F    Isotropic =   219.9736   Anisotropy =   148.3217
   XX=   218.6264   YX=    23.6063   ZX=   -43.0078
   XY=    23.8900   YY=   141.3356   ZY=    16.0192
   XZ=   -43.5162   YZ=    16.8554   ZZ=   299.9587
   Eigenvalues:   129.7369   211.3292   318.8547
     59  F    Isotropic =   246.3040   Anisotropy =   138.9294
   XX=   212.1474   YX=    61.7681   ZX=    18.0376
   XY=    83.0077   YY=   297.5562   ZY=   -16.2855
   XZ=    14.6069   YZ=    -6.2149   ZZ=   229.2084
   Eigenvalues:   164.7513   235.2371   338.9236
     60  P    Isotropic =   238.1827   Anisotropy =   110.0325
   XX=   254.6206   YX=   -25.4389   ZX=    46.8163
   XY=   -32.6176   YY=   183.3526   ZY=   -12.2811
   XZ=    27.5645   YZ=   -19.3219   ZZ=   276.5748
   Eigenvalues:   172.9573   230.0530   311.5377
     61  C    Isotropic =    48.9084   Anisotropy =   193.2116
   XX=   -51.1918   YX=   -11.8008   ZX=    27.4902
   XY=   -11.0490   YY=   177.0175   ZY=     6.4931
   XZ=    26.4137   YZ=     5.0822   ZZ=    20.8996
   Eigenvalues:   -60.8287    29.8377   177.7162
     62  C    Isotropic =    54.2532   Anisotropy =   183.2395
   XX=    -7.7527   YX=    -7.7132   ZX=   -49.8169
   XY=    -7.7505   YY=   176.0302   ZY=     0.1827
   XZ=   -48.2774   YZ=     1.9615   ZZ=    -5.5179
   Eigenvalues:   -55.7939    42.1407   176.4128
     63  C    Isotropic =    44.1869   Anisotropy =   197.5814
   XX=    22.5238   YX=    -7.6626   ZX=    11.5620
   XY=   -13.2600   YY=   175.1936   ZY=    -2.3513
   XZ=    21.1578   YZ=     3.7567   ZZ=   -65.1567
   Eigenvalues:   -68.1366    24.7895   175.9078
     64  C    Isotropic =    46.1945   Anisotropy =   181.2502
   XX=   -38.5347   YX=    -6.5980   ZX=    23.7706
   XY=    -4.2029   YY=   166.0393   ZY=    20.6325
   XZ=    22.6871   YZ=     3.3761   ZZ=    11.0788
   Eigenvalues:   -48.1305    19.6860   167.0279
     65  C    Isotropic =    31.7920   Anisotropy =   215.5127
   XX=   -38.3565   YX=    -4.6507   ZX=   -42.7050
   XY=    -6.6049   YY=   175.2544   ZY=     0.7592
   XZ=   -39.1030   YZ=     4.4388   ZZ=   -41.5219
   Eigenvalues:   -80.8899     0.7988   175.4671
     66  C    Isotropic =    51.7615   Anisotropy =   188.8613
   XX=    31.6429   YX=    -7.8469   ZX=    19.9701
   XY=    -9.9348   YY=   176.9637   ZY=     7.7273
   XZ=    19.2853   YZ=     6.8995   ZZ=   -53.3222
   Eigenvalues:   -57.9868    35.6022   177.6690
     67  H    Isotropic =    23.7839   Anisotropy =     2.8978
   XX=    25.2747   YX=    -1.0038   ZX=    -0.0713
   XY=    -1.5827   YY=    20.7235   ZY=     0.0973
   XZ=     0.5062   YZ=     0.0716   ZZ=    25.3533
   Eigenvalues:    20.3779    25.2579    25.7157
     68  H    Isotropic =    24.2093   Anisotropy =     6.9449
   XX=    28.1349   YX=    -1.1014   ZX=    -2.3397
   XY=    -1.4894   YY=    20.7688   ZY=    -0.7587
   XZ=    -1.0025   YZ=    -0.2727   ZZ=    23.7243
   Eigenvalues:    20.3449    23.4438    28.8392
     69  H    Isotropic =    24.8448   Anisotropy =    13.5392
   XX=    33.1963   YX=    -3.9627   ZX=    -0.5536
   XY=    -1.3562   YY=    22.1478   ZY=    -0.4951
   XZ=     2.6747   YZ=     0.8279   ZZ=    19.1901
   Eigenvalues:    19.0589    21.6045    33.8709
     70  H    Isotropic =    22.2983   Anisotropy =    11.1362
   XX=    26.4280   YX=     2.8613   ZX=    -6.2346
   XY=     1.9855   YY=    21.8977   ZY=     2.7930
   XZ=    -5.2828   YZ=     0.5536   ZZ=    18.5692
   Eigenvalues:    14.5791    22.5934    29.7224
     71  H    Isotropic =    23.8095   Anisotropy =     6.8766
   XX=    27.9895   YX=    -0.7838   ZX=    -1.0662
   XY=    -1.6352   YY=    21.1322   ZY=     1.4004
   XZ=    -0.7757   YZ=     0.7158   ZZ=    22.3067
   Eigenvalues:    20.4601    22.5744    28.3939
     72  Cl   Isotropic =   816.5603   Anisotropy =   459.3061
   XX=   791.2211   YX=    69.9029   ZX=  -240.0245
   XY=   223.0882   YY=   979.2541   ZY=  -103.0388
   XZ=  -247.8236   YZ=    30.1160   ZZ=   679.2058
   Eigenvalues:   476.4893   850.4273  1122.7644
     73  Cl   Isotropic =   916.6958   Anisotropy =   582.2706
   XX=  1055.8127   YX=   241.7329   ZX=   -88.3645
   XY=   288.4731   YY=   802.5476   ZY=  -107.5037
   XZ=  -143.4646   YZ=  -208.1593   ZZ=   891.7272
   Eigenvalues:   612.5287   832.6826  1304.8762
     74  H    Isotropic =    29.2092   Anisotropy =     5.6875
   XX=    29.7938   YX=     0.5410   ZX=    -1.9521
   XY=    -2.3859   YY=    32.6996   ZY=     1.1609
   XZ=     1.0644   YZ=    -0.3562   ZZ=    25.1343
   Eigenvalues:    25.0791    29.5477    33.0009
     75  C    Isotropic =    51.9510   Anisotropy =   193.0955
   XX=   171.1409   YX=   -34.7300   ZX=     3.7644
   XY=   -39.4357   YY=    36.2906   ZY=    18.4604
   XZ=    10.8886   YZ=    23.3357   ZZ=   -51.5784
   Eigenvalues:   -57.3788    32.5506   180.6813
     76  C    Isotropic =    48.0726   Anisotropy =   195.9746
   XX=   166.6131   YX=   -44.2977   ZX=   -10.8982
   XY=   -48.9778   YY=    -0.9337   ZY=   -41.9560
   XZ=   -10.1142   YZ=   -44.1159   ZZ=   -21.4617
   Eigenvalues:   -61.7469    27.2423   178.7223
     77  C    Isotropic =    41.9360   Anisotropy =   171.6212
   XX=   142.4687   YX=   -49.7854   ZX=    12.2233
   XY=   -54.8816   YY=   -42.1113   ZY=    14.6760
   XZ=     3.4140   YZ=    20.0427   ZZ=    25.4504
   Eigenvalues:   -60.0440    29.5018   156.3501
     78  C    Isotropic =    36.7534   Anisotropy =   200.1321
   XX=   158.8944   YX=   -43.5561   ZX=    12.3664
   XY=   -42.4096   YY=     6.0996   ZY=    18.8511
   XZ=     4.8468   YZ=    30.7445   ZZ=   -54.7338
   Eigenvalues:   -66.0070     6.0923   170.1748
     79  C    Isotropic =    35.1385   Anisotropy =   191.3347
   XX=   156.2350   YX=   -31.8310   ZX=     4.7347
   XY=   -34.4869   YY=   -22.6987   ZY=   -31.3054
   XZ=     3.9913   YZ=   -30.7474   ZZ=   -28.1207
   Eigenvalues:   -58.3687     1.0893   162.6950
     80  C    Isotropic =    47.4774   Anisotropy =   199.4247
   XX=   168.7714   YX=   -47.4690   ZX=     7.5063
   XY=   -54.1534   YY=   -42.1567   ZY=    22.5177
   XZ=     9.1522   YZ=    23.8896   ZZ=    15.8176
   Eigenvalues:   -61.5093    23.5144   180.4272
     81  H    Isotropic =    24.4228   Anisotropy =     3.9422
   XX=    22.9890   YX=     1.2360   ZX=     2.3269
   XY=    -0.4158   YY=    25.7486   ZY=     0.2872
   XZ=     1.6381   YZ=     2.1107   ZZ=    24.5308
   Eigenvalues:    21.6026    24.6149    27.0509
     82  H    Isotropic =    23.6348   Anisotropy =     3.0388
   XX=    23.4660   YX=     2.0956   ZX=     0.6506
   XY=     0.2073   YY=    22.4107   ZY=    -1.5407
   XZ=     0.1107   YZ=    -1.3083   ZZ=    25.0277
   Eigenvalues:    21.1538    24.0900    25.6607
     83  H    Isotropic =    22.7120   Anisotropy =     7.6293
   XX=    19.9580   YX=     1.4219   ZX=    -0.9286
   XY=     0.0727   YY=    20.4378   ZY=    -0.3178
   XZ=    -0.2389   YZ=    -0.2230   ZZ=    27.7401
   Eigenvalues:    19.4010    20.9367    27.7982
     84  H    Isotropic =    24.1978   Anisotropy =     9.2902
   XX=    20.8828   YX=     1.3595   ZX=     1.0962
   XY=    -0.5541   YY=    24.1682   ZY=     1.9682
   XZ=     0.3151   YZ=     6.3041   ZZ=    27.5424
   Eigenvalues:    20.8078    21.3943    30.3913
     85  C    Isotropic =    48.8917   Anisotropy =   191.5813
   XX=    64.4460   YX=     6.7897   ZX=    65.6673
   XY=    12.0974   YY=   -29.2888   ZY=    71.0980
   XZ=    63.6864   YZ=    69.0369   ZZ=   111.5179
   Eigenvalues:   -60.6343    30.6968   176.6125
     86  C    Isotropic =    52.5222   Anisotropy =   187.2897
   XX=     6.1174   YX=     9.9867   ZX=   100.1996
   XY=     7.6547   YY=    50.8917   ZY=    45.4514
   XZ=    95.8892   YZ=    46.5967   ZZ=   100.5575
   Eigenvalues:   -58.3637    38.5483   177.3820
     87  C    Isotropic =    46.3307   Anisotropy =   189.8255
   XX=    13.6424   YX=    71.8960   ZX=    66.4095
   XY=    63.1786   YY=     1.9676   ZY=    31.4212
   XZ=    62.4682   YZ=    29.3705   ZZ=   123.3822
   Eigenvalues:   -62.9128    29.0240   172.8810
     88  C    Isotropic =    47.7951   Anisotropy =   172.8846
   XX=    64.4782   YX=     7.7519   ZX=    52.8897
   XY=    19.7088   YY=   -22.8578   ZY=    52.9253
   XZ=    69.5243   YZ=    60.9237   ZZ=   101.7649
   Eigenvalues:   -45.9390    26.2728   163.0515
     89  C    Isotropic =    43.0577   Anisotropy =   197.4440
   XX=    -0.9280   YX=    20.7700   ZX=    97.9463
   XY=    17.1825   YY=    37.2474   ZY=    39.6914
   XZ=   106.4494   YZ=    48.2644   ZZ=    92.8537
   Eigenvalues:   -67.1182    21.6042   174.6871
     90  C    Isotropic =    50.9886   Anisotropy =   186.2718
   XX=    27.9751   YX=    65.5750   ZX=    65.5214
   XY=    69.3756   YY=    -1.5968   ZY=    23.6605
   XZ=    65.3887   YZ=    22.9168   ZZ=   126.5873
   Eigenvalues:   -59.2572    37.0532   175.1698
     91  H    Isotropic =    23.7403   Anisotropy =     4.4598
   XX=    24.4402   YX=    -2.3597   ZX=    -2.2983
   XY=    -1.4446   YY=    24.9015   ZY=    -1.1777
   XZ=    -2.2136   YZ=    -1.0846   ZZ=    21.8793
   Eigenvalues:    19.8026    24.7048    26.7135
     92  H    Isotropic =    23.5616   Anisotropy =     9.1468
   XX=    21.0230   YX=    -2.8740   ZX=    -1.5908
   XY=    -2.0576   YY=    28.6518   ZY=    -1.8891
   XZ=    -1.4585   YZ=    -2.1723   ZZ=    21.0101
   Eigenvalues:    18.4947    22.5308    29.6595
     93  H    Isotropic =    23.7057   Anisotropy =    10.4448
   XX=    22.6302   YX=    -0.3639   ZX=    -5.7577
   XY=     2.1084   YY=    25.1342   ZY=    -4.1862
   XZ=    -3.7672   YZ=    -4.6701   ZZ=    23.3527
   Eigenvalues:    17.3351    23.1131    30.6689
     94  H    Isotropic =    24.3716   Anisotropy =    14.7113
   XX=    21.2583   YX=    -3.8425   ZX=     0.1323
   XY=     0.4539   YY=    32.7776   ZY=    -5.2611
   XZ=     1.2595   YZ=    -2.9859   ZZ=    19.0788
   Eigenvalues:    17.9184    21.0173    34.1791
     95  H    Isotropic =    23.9503   Anisotropy =     7.1408
   XX=    22.8194   YX=    -0.1873   ZX=    -2.1774
   XY=     0.7005   YY=    26.8789   ZY=    -3.5102
   XZ=    -1.9836   YZ=    -2.8212   ZZ=    22.1527
   Eigenvalues:    19.5795    23.5606    28.7109
     96  Pd   Isotropic =  -151.4697   Anisotropy =   255.5622
   XX=  -222.2294   YX=  -179.1842   ZX=   128.8366
   XY=  -206.9885   YY=  -168.2617   ZY=   111.4480
   XZ=   151.7530   YZ=   100.7415   ZZ=   -63.9180
   Eigenvalues:  -466.7168    -6.5973    18.9051
 End of Minotr F.D. properties file   721 does not exist.
 End of Minotr F.D. properties file   722 does not exist.
 End of Minotr F.D. properties file   788 does not exist.

 **********************************************************************

            Population analysis using the SCF density.

 **********************************************************************

 Orbital symmetries:
       Occupied  (A) (A) (A) (A) (A) (A) (A) (A) (A) (A) (A) (A)
                 (A) (A) (A) (A) (A) (A) (A) (A) (A) (A) (A) (A)
                 (A) (A) (A) (A) (A) (A) (A) (A) (A) (A) (A) (A)
                 (A) (A) (A) (A) (A) (A) (A) (A) (A) (A) (A) (A)
                 (A) (A) (A) (A) (A) (A) (A) (A) (A) (A) (A) (A)
                 (A) (A) (A) (A) (A) (A) (A) (A) (A) (A) (A) (A)
                 (A) (A) (A) (A) (A) (A) (A) (A) (A) (A) (A) (A)
                 (A) (A) (A) (A) (A) (A) (A) (A) (A) (A) (A) (A)
                 (A) (A) (A) (A) (A) (A) (A) (A) (A) (A) (A) (A)
                 (A) (A) (A) (A) (A) (A) (A) (A) (A) (A) (A) (A)
                 (A) (A) (A) (A) (A) (A) (A) (A) (A) (A) (A) (A)
                 (A) (A) (A) (A) (A) (A) (A) (A) (A) (A) (A) (A)
                 (A) (A) (A) (A) (A) (A) (A) (A) (A) (A) (A) (A)
                 (A) (A) (A) (A) (A) (A) (A) (A) (A) (A) (A) (A)
                 (A) (A) (A) (A) (A) (A) (A) (A) (A) (A) (A) (A)
                 (A) (A) (A) (A) (A) (A) (A) (A) (A) (A) (A) (A)
                 (A) (A) (A) (A) (A) (A) (A) (A) (A) (A) (A) (A)
                 (A) (A) (A) (A) (A) (A) (A) (A) (A) (A) (A) (A)
                 (A) (A) (A) (A) (A) (A) (A) (A) (A) (A) (A) (A)
                 (A) (A) (A) (A) (A) (A) (A) (A) (A) (A) (A) (A)
                 (A) (A) (A) (A) (A) (A) (A) (A) (A) (A) (A) (A)
                 (A) (A) (A) (A) (A)
       Virtual   (A) (A) (A) (A) (A) (A) (A) (A) (A) (A) (A) (A)
                 (A) (A) (A) (A) (A) (A) (A) (A) (A) (A) (A) (A)
                 (A) (A) (A) (A) (A) (A) (A) (A) (A) (A) (A) (A)
                 (A) (A) (A) (A) (A) (A) (A) (A) (A) (A) (A) (A)
                 (A) (A) (A) (A) (A) (A) (A) (A) (A) (A) (A) (A)
                 (A) (A) (A) (A) (A) (A) (A) (A) (A) (A) (A) (A)
                 (A) (A) (A) (A) (A) (A) (A) (A) (A) (A) (A) (A)
                 (A) (A) (A) (A) (A) (A) (A) (A) (A) (A) (A) (A)
                 (A) (A) (A) (A) (A) (A) (A) (A) (A) (A) (A) (A)
                 (A) (A) (A) (A) (A) (A) (A) (A) (A) (A) (A) (A)
                 (A) (A) (A) (A) (A) (A) (A) (A) (A) (A) (A) (A)
                 (A) (A) (A) (A) (A) (A) (A) (A) (A) (A) (A) (A)
                 (A) (A) (A) (A) (A) (A) (A) (A) (A) (A) (A) (A)
                 (A) (A) (A) (A) (A) (A) (A) (A) (A) (A) (A) (A)
                 (A) (A) (A) (A) (A) (A) (A) (A) (A) (A) (A) (A)
                 (A) (A) (A) (A) (A) (A) (A) (A) (A) (A) (A) (A)
                 (A) (A) (A) (A) (A) (A) (A) (A) (A) (A) (A) (A)
                 (A) (A) (A) (A) (A) (A) (A) (A) (A) (A) (A) (A)
                 (A) (A) (A) (A) (A) (A) (A) (A) (A) (A) (A) (A)
                 (A) (A) (A) (A) (A) (A) (A) (A) (A) (A) (A) (A)
                 (A) (A) (A) (A) (A) (A) (A) (A) (A) (A) (A) (A)
                 (A) (A) (A) (A) (A) (A) (A) (A) (A) (A) (A) (A)
                 (A) (A) (A) (A) (A) (A) (A) (A) (A) (A) (A) (A)
                 (A) (A) (A) (A) (A) (A) (A) (A) (A) (A) (A) (A)
                 (A) (A) (A) (A) (A) (A) (A) (A) (A) (A) (A) (A)
                 (A) (A) (A) (A) (A) (A) (A) (A) (A) (A) (A) (A)
                 (A) (A) (A) (A) (A) (A) (A) (A) (A) (A) (A) (A)
                 (A) (A) (A) (A) (A) (A) (A) (A) (A) (A) (A) (A)
                 (A) (A) (A) (A) (A) (A) (A) (A) (A) (A) (A) (A)
                 (A) (A) (A) (A) (A) (A) (A) (A) (A) (A) (A) (A)
                 (A) (A) (A) (A) (A) (A) (A) (A) (A) (A) (A) (A)
                 (A) (A) (A) (A) (A) (A) (A) (A) (A) (A) (A) (A)
                 (A) (A) (A) (A) (A) (A) (A) (A) (A) (A) (A) (A)
                 (A) (A) (A) (A) (A) (A) (A) (A) (A) (A) (A) (A)
                 (A) (A) (A) (A) (A) (A) (A) (A) (A) (A) (A) (A)
                 (A) (A) (A) (A) (A) (A) (A) (A) (A) (A) (A) (A)
                 (A) (A) (A) (A) (A) (A) (A) (A) (A) (A) (A) (A)
                 (A) (A) (A) (A) (A) (A) (A) (A) (A) (A) (A) (A)
                 (A) (A) (A) (A) (A) (A) (A) (A) (A) (A) (A) (A)
                 (A) (A) (A) (A) (A) (A) (A) (A) (A) (A) (A) (A)
                 (A) (A) (A) (A) (A) (A) (A) (A) (A) (A) (A) (A)
                 (A) (A) (A) (A) (A) (A) (A) (A) (A) (A) (A) (A)
                 (A) (A) (A) (A) (A) (A) (A) (A) (A) (A) (A) (A)
                 (A) (A) (A) (A) (A) (A) (A) (A) (A) (A) (A) (A)
                 (A) (A) (A) (A) (A) (A) (A) (A) (A) (A) (A) (A)
                 (A) (A) (A) (A) (A) (A) (A) (A) (A) (A) (A) (A)
                 (A) (A) (A) (A) (A) (A) (A) (A) (A) (A) (A) (A)
                 (A) (A) (A) (A) (A) (A) (A) (A) (A) (A) (A) (A)
                 (A) (A) (A) (A) (A) (A) (A) (A) (A) (A) (A) (A)
                 (A) (A) (A) (A) (A) (A) (A) (A) (A) (A) (A) (A)
                 (A) (A) (A) (A) (A) (A) (A) (A) (A) (A) (A) (A)
                 (A) (A) (A) (A) (A) (A) (A) (A) (A) (A) (A) (A)
                 (A) (A) (A) (A) (A) (A) (A) (A) (A) (A) (A) (A)
                 (A) (A) (A) (A) (A) (A) (A) (A) (A) (A) (A) (A)
                 (A) (A) (A) (A) (A) (A) (A) (A) (A) (A) (A) (A)
                 (A) (A) (A) (A) (A) (A) (A) (A) (A) (A) (A) (A)
                 (A) (A) (A) (A) (A) (A) (A) (A) (A) (A) (A) (A)
                 (A) (A) (A) (A) (A) (A) (A) (A) (A) (A) (A) (A)
                 (A) (A) (A) (A) (A) (A) (A) (A) (A) (A) (A) (A)
                 (A) (A) (A) (A) (A) (A) (A) (A) (A) (A) (A) (A)
                 (A) (A) (A) (A) (A) (A) (A) (A) (A) (A) (A) (A)
                 (A) (A) (A) (A) (A) (A) (A) (A) (A) (A) (A) (A)
                 (A) (A) (A) (A) (A) (A) (A) (A) (A) (A) (A) (A)
                 (A) (A) (A) (A) (A) (A) (A) (A) (A) (A) (A) (A)
                 (A) (A) (A) (A) (A) (A) (A) (A) (A) (A) (A) (A)
                 (A) (A) (A) (A) (A) (A) (A) (A) (A) (A) (A) (A)
                 (A) (A) (A) (A) (A) (A) (A) (A) (A) (A) (A) (A)
                 (A) (A) (A) (A) (A) (A) (A) (A) (A) (A) (A) (A)
                 (A) (A) (A) (A) (A) (A) (A) (A) (A) (A) (A) (A)
                 (A) (A) (A) (A) (A) (A) (A) (A) (A) (A) (A) (A)
                 (A) (A) (A) (A) (A) (A) (A) (A) (A) (A) (A) (A)
                 (A) (A) (A) (A) (A) (A) (A) (A) (A) (A) (A) (A)
                 (A) (A) (A) (A) (A) (A) (A) (A) (A) (A) (A) (A)
                 (A) (A) (A) (A) (A) (A) (A) (A) (A) (A) (A) (A)
                 (A) (A) (A) (A) (A) (A) (A) (A) (A) (A) (A) (A)
                 (A) (A) (A) (A) (A) (A) (A) (A) (A) (A) (A) (A)
                 (A) (A) (A) (A) (A) (A) (A) (A) (A) (A) (A) (A)
                 (A) (A) (A) (A) (A) (A) (A) (A) (A) (A) (A) (A)
                 (A) (A) (A) (A) (A) (A) (A) (A) (A) (A) (A) (A)
                 (A) (A) (A) (A) (A) (A) (A) (A) (A) (A) (A) (A)
                 (A) (A) (A) (A) (A) (A) (A) (A) (A) (A) (A) (A)
                 (A) (A) (A) (A) (A) (A) (A) (A) (A) (A) (A) (A)
                 (A) (A) (A) (A) (A) (A) (A) (A) (A) (A) (A) (A)
                 (A) (A) (A) (A) (A) (A) (A) (A) (A) (A) (A) (A)
                 (A) (A) (A) (A) (A) (A) (A) (A) (A) (A) (A) (A)
                 (A) (A) (A) (A) (A) (A) (A) (A) (A) (A) (A) (A)
                 (A) (A) (A) (A) (A) (A) (A) (A) (A) (A) (A) (A)
                 (A) (A) (A) (A) (A) (A) (A) (A) (A) (A) (A) (A)
                 (A) (A) (A) (A) (A) (A) (A) (A) (A) (A) (A) (A)
                 (A) (A) (A) (A) (A) (A) (A) (A) (A) (A) (A) (A)
                 (A) (A) (A) (A) (A) (A) (A) (A) (A) (A) (A) (A)
                 (A) (A) (A) (A) (A) (A) (A) (A) (A) (A) (A) (A)
                 (A) (A) (A) (A) (A) (A) (A) (A) (A) (A) (A) (A)
                 (A) (A) (A) (A) (A) (A) (A) (A) (A) (A) (A) (A)
                 (A) (A) (A) (A) (A) (A) (A) (A) (A) (A) (A) (A)
                 (A) (A) (A) (A) (A) (A) (A) (A) (A) (A) (A) (A)
                 (A) (A) (A) (A) (A) (A) (A) (A) (A) (A) (A) (A)
                 (A) (A) (A) (A) (A) (A) (A) (A) (A) (A) (A) (A)
                 (A) (A) (A) (A) (A) (A) (A) (A) (A) (A) (A) (A)
                 (A) (A) (A) (A) (A) (A) (A) (A) (A) (A) (A) (A)
                 (A) (A) (A) (A) (A) (A) (A) (A) (A) (A) (A) (A)
                 (A) (A) (A) (A) (A) (A) (A) (A) (A) (A) (A) (A)
                 (A) (A) (A) (A) (A) (A) (A) (A) (A) (A) (A) (A)
                 (A) (A) (A) (A) (A) (A) (A) (A) (A) (A) (A) (A)
                 (A) (A) (A) (A) (A) (A) (A) (A) (A) (A) (A) (A)
                 (A) (A) (A) (A) (A) (A) (A) (A) (A) (A) (A) (A)
                 (A) (A) (A) (A) (A) (A) (A) (A) (A) (A) (A) (A)
                 (A) (A) (A) (A) (A) (A) (A) (A) (A) (A) (A) (A)
                 (A) (A) (A) (A) (A) (A) (A) (A) (A) (A) (A) (A)
                 (A) (A) (A) (A) (A) (A) (A) (A) (A) (A) (A) (A)
                 (A) (A) (A) (A) (A) (A) (A) (A) (A) (A) (A) (A)
                 (A) (A) (A) (A) (A) (A) (A) (A) (A) (A) (A) (A)
                 (A) (A) (A) (A) (A) (A) (A) (A) (A) (A) (A) (A)
                 (A) (A) (A) (A) (A) (A) (A) (A) (A) (A) (A) (A)
                 (A) (A) (A) (A) (A) (A) (A) (A) (A) (A) (A) (A)
                 (A) (A) (A) (A) (A) (A) (A) (A) (A) (A) (A) (A)
                 (A) (A) (A) (A) (A) (A) (A) (A) (A) (A) (A) (A)
                 (A) (A) (A) (A) (A) (A) (A) (A) (A) (A) (A) (A)
                 (A) (A) (A) (A) (A) (A) (A) (A) (A) (A) (A) (A)
                 (A) (A) (A) (A) (A) (A) (A) (A) (A) (A) (A) (A)
                 (A) (A) (A) (A) (A) (A) (A) (A) (A) (A) (A) (A)
                 (A) (A) (A) (A) (A) (A) (A) (A) (A) (A) (A) (A)
                 (A) (A) (A) (A) (A) (A) (A) (A) (A) (A) (A) (A)
                 (A) (A) (A) (A) (A) (A) (A) (A) (A) (A) (A) (A)
                 (A) (A) (A) (A) (A) (A) (A) (A) (A) (A) (A) (A)
                 (A) (A) (A) (A) (A) (A) (A) (A) (A) (A) (A) (A)
                 (A) (A) (A) (A) (A) (A) (A) (A) (A) (A) (A) (A)
                 (A) (A) (A) (A) (A) (A) (A) (A) (A) (A) (A) (A)
                 (A) (A) (A) (A) (A) (A) (A) (A) (A) (A) (A) (A)
                 (A) (A) (A) (A) (A) (A) (A) (A) (A) (A) (A) (A)
                 (A) (A) (A) (A) (A) (A) (A) (A) (A) (A) (A) (A)
                 (A) (A) (A) (A) (A) (A) (A) (A) (A) (A) (A) (A)
                 (A) (A) (A) (A) (A) (A) (A) (A) (A) (A) (A) (A)
                 (A) (A) (A) (A) (A) (A) (A) (A) (A) (A) (A) (A)
                 (A) (A) (A) (A) (A) (A) (A) (A) (A) (A) (A) (A)
                 (A) (A) (A) (A) (A) (A) (A) (A) (A) (A) (A) (A)
                 (A) (A) (A) (A) (A) (A) (A) (A) (A) (A) (A) (A)
                 (A) (A) (A) (A) (A) (A) (A) (A) (A) (A) (A) (A)
                 (A) (A) (A) (A) (A) (A) (A) (A) (A) (A) (A) (A)
                 (A) (A) (A) (A) (A) (A) (A) (A) (A) (A) (A) (A)
                 (A) (A) (A) (A) (A) (A) (A) (A) (A) (A) (A) (A)
                 (A) (A) (A) (A) (A) (A) (A) (A) (A) (A) (A) (A)
                 (A) (A) (A) (A) (A) (A) (A) (A) (A) (A) (A) (A)
                 (A) (A) (A) (A) (A) (A) (A) (A) (A) (A) (A) (A)
                 (A) (A) (A) (A) (A) (A) (A) (A) (A) (A) (A) (A)
                 (A) (A) (A) (A) (A) (A) (A) (A) (A) (A) (A) (A)
                 (A) (A) (A) (A) (A) (A) (A) (A) (A) (A) (A) (A)
                 (A) (A) (A) (A) (A) (A) (A) (A) (A) (A) (A) (A)
                 (A) (A) (A) (A) (A) (A) (A) (A) (A) (A) (A) (A)
                 (A) (A) (A) (A) (A) (A) (A) (A) (A) (A) (A) (A)
                 (A) (A) (A) (A) (A) (A) (A) (A) (A) (A) (A) (A)
                 (A) (A) (A) (A) (A) (A) (A) (A) (A) (A) (A) (A)
                 (A) (A) (A) (A) (A) (A) (A) (A) (A) (A) (A) (A)
                 (A) (A) (A) (A) (A) (A) (A) (A) (A) (A) (A) (A)
                 (A) (A) (A) (A) (A) (A) (A) (A) (A) (A) (A) (A)
                 (A) (A) (A) (A) (A) (A) (A) (A) (A) (A) (A) (A)
                 (A) (A) (A) (A) (A) (A) (A) (A) (A) (A) (A) (A)
                 (A) (A) (A) (A) (A) (A) (A) (A) (A) (A) (A) (A)
                 (A) (A) (A) (A) (A) (A) (A) (A) (A) (A) (A) (A)
                 (A) (A) (A) (A) (A) (A) (A) (A) (A) (A) (A) (A)
                 (A) (A) (A) (A) (A) (A) (A) (A) (A) (A) (A) (A)
                 (A) (A) (A) (A) (A) (A) (A) (A) (A) (A) (A) (A)
                 (A) (A) (A) (A) (A) (A) (A) (A) (A) (A) (A) (A)
                 (A) (A) (A) (A)
 The electronic state is 1-A.
 Alpha  occ. eigenvalues -- -101.62959-101.62633 -77.28666 -77.27915 -24.83190
 Alpha  occ. eigenvalues --  -24.82820 -24.82789 -24.82775 -24.82584 -24.82410
 Alpha  occ. eigenvalues --  -24.81986 -24.81894 -24.81531 -24.80907 -24.80703
 Alpha  occ. eigenvalues --  -24.80391 -10.50642 -10.50468 -10.49568 -10.48532
 Alpha  occ. eigenvalues --  -10.30123 -10.30101 -10.29738 -10.29433 -10.29295
 Alpha  occ. eigenvalues --  -10.29282 -10.29011 -10.28819 -10.28733 -10.28636
 Alpha  occ. eigenvalues --  -10.28569 -10.28312 -10.27996 -10.27787 -10.27677
 Alpha  occ. eigenvalues --  -10.27461 -10.26976 -10.26381 -10.26369 -10.26222
 Alpha  occ. eigenvalues --  -10.26000 -10.25938 -10.25724 -10.25705 -10.25627
 Alpha  occ. eigenvalues --  -10.25558 -10.25544 -10.25517 -10.25468 -10.25426
 Alpha  occ. eigenvalues --  -10.25368 -10.25272 -10.25272 -10.25201 -10.25018
 Alpha  occ. eigenvalues --  -10.24932 -10.24769 -10.24680 -10.24618 -10.24571
 Alpha  occ. eigenvalues --  -10.24508 -10.23825  -9.45472  -9.45141  -7.18650
 Alpha  occ. eigenvalues --   -7.18351  -7.18203  -7.18157  -7.17853  -7.17814
 Alpha  occ. eigenvalues --   -6.67891  -6.67060  -4.81509  -4.81427  -4.81211
 Alpha  occ. eigenvalues --   -4.80657  -4.80615  -4.80427  -3.62034  -3.53503
 Alpha  occ. eigenvalues --   -2.26631  -2.22322  -2.22264  -2.21344  -2.21064
 Alpha  occ. eigenvalues --   -2.17734  -1.36449  -1.36287  -1.35424  -1.34339
 Alpha  occ. eigenvalues --   -1.28181  -1.28092  -1.27770  -1.27520  -1.27152
 Alpha  occ. eigenvalues --   -1.26747  -1.26020  -1.25677  -0.95022  -0.94186
 Alpha  occ. eigenvalues --   -0.93677  -0.92133  -0.90961  -0.89932  -0.89397
 Alpha  occ. eigenvalues --   -0.86438  -0.86390  -0.85041  -0.83612  -0.82719
 Alpha  occ. eigenvalues --   -0.82426  -0.81523  -0.79140  -0.78552  -0.78433
 Alpha  occ. eigenvalues --   -0.78092  -0.76445  -0.75854  -0.75743  -0.75150
 Alpha  occ. eigenvalues --   -0.75133  -0.75099  -0.74908  -0.74587  -0.74424
 Alpha  occ. eigenvalues --   -0.74003  -0.72433  -0.69955  -0.68868  -0.68148
 Alpha  occ. eigenvalues --   -0.67429  -0.67167  -0.65710  -0.64861  -0.64475
 Alpha  occ. eigenvalues --   -0.64164  -0.63804  -0.63745  -0.63461  -0.63361
 Alpha  occ. eigenvalues --   -0.63210  -0.63123  -0.62534  -0.62362  -0.62122
 Alpha  occ. eigenvalues --   -0.61265  -0.61072  -0.60142  -0.58562  -0.58483
 Alpha  occ. eigenvalues --   -0.57969  -0.57787  -0.57538  -0.57301  -0.56480
 Alpha  occ. eigenvalues --   -0.56419  -0.56164  -0.54966  -0.54878  -0.54517
 Alpha  occ. eigenvalues --   -0.53881  -0.53227  -0.52254  -0.52198  -0.51352
 Alpha  occ. eigenvalues --   -0.51126  -0.51066  -0.50886  -0.50500  -0.50223
 Alpha  occ. eigenvalues --   -0.49952  -0.49904  -0.49148  -0.48857  -0.48755
 Alpha  occ. eigenvalues --   -0.48615  -0.48413  -0.48093  -0.47988  -0.47764
 Alpha  occ. eigenvalues --   -0.47629  -0.47367  -0.47268  -0.47094  -0.46875
 Alpha  occ. eigenvalues --   -0.46323  -0.46223  -0.45850  -0.45648  -0.45573
 Alpha  occ. eigenvalues --   -0.45545  -0.45478  -0.45378  -0.45272  -0.45046
 Alpha  occ. eigenvalues --   -0.44895  -0.44725  -0.44613  -0.44382  -0.44258
 Alpha  occ. eigenvalues --   -0.44141  -0.44077  -0.44015  -0.43714  -0.43670
 Alpha  occ. eigenvalues --   -0.43349  -0.43281  -0.43064  -0.42333  -0.42106
 Alpha  occ. eigenvalues --   -0.41852  -0.41256  -0.40944  -0.40940  -0.40675
 Alpha  occ. eigenvalues --   -0.40388  -0.40281  -0.39885  -0.39787  -0.39391
 Alpha  occ. eigenvalues --   -0.39148  -0.38713  -0.38481  -0.38147  -0.38051
 Alpha  occ. eigenvalues --   -0.37448  -0.37331  -0.37051  -0.36761  -0.36052
 Alpha  occ. eigenvalues --   -0.34750  -0.33860  -0.33133  -0.32659  -0.32544
 Alpha  occ. eigenvalues --   -0.31800  -0.31211  -0.30849  -0.30385  -0.30106
 Alpha  occ. eigenvalues --   -0.29860  -0.29440  -0.29188  -0.28828  -0.28405
 Alpha  occ. eigenvalues --   -0.28168  -0.28084  -0.27709  -0.27417  -0.27125
 Alpha  occ. eigenvalues --   -0.26814  -0.25979  -0.25517  -0.24892  -0.24706
 Alpha  occ. eigenvalues --   -0.24066  -0.24018
 Alpha virt. eigenvalues --   -0.09667  -0.08338  -0.07822  -0.06829  -0.06012
 Alpha virt. eigenvalues --   -0.05345  -0.04879  -0.04422  -0.03103  -0.02662
 Alpha virt. eigenvalues --   -0.02373  -0.01748  -0.01682  -0.01405  -0.00304
 Alpha virt. eigenvalues --    0.00341   0.01137   0.01580   0.01838   0.02705
 Alpha virt. eigenvalues --    0.03114   0.03716   0.03778   0.04017   0.04217
 Alpha virt. eigenvalues --    0.04486   0.04604   0.04924   0.05048   0.05473
 Alpha virt. eigenvalues --    0.05647   0.05840   0.06427   0.06589   0.06756
 Alpha virt. eigenvalues --    0.07022   0.07401   0.07545   0.07868   0.08244
 Alpha virt. eigenvalues --    0.08345   0.08642   0.08912   0.09258   0.09302
 Alpha virt. eigenvalues --    0.09516   0.09642   0.09943   0.10011   0.10159
 Alpha virt. eigenvalues --    0.10224   0.10665   0.10851   0.10942   0.11254
 Alpha virt. eigenvalues --    0.11574   0.11664   0.11893   0.11930   0.12197
 Alpha virt. eigenvalues --    0.12435   0.12677   0.12932   0.13150   0.13399
 Alpha virt. eigenvalues --    0.13455   0.13702   0.13785   0.13920   0.14078
 Alpha virt. eigenvalues --    0.14345   0.14529   0.15003   0.15111   0.15333
 Alpha virt. eigenvalues --    0.15617   0.15929   0.16048   0.16209   0.16262
 Alpha virt. eigenvalues --    0.16751   0.17004   0.17155   0.17534   0.17569
 Alpha virt. eigenvalues --    0.17752   0.17964   0.18251   0.18349   0.18620
 Alpha virt. eigenvalues --    0.18922   0.18975   0.19102   0.19285   0.19704
 Alpha virt. eigenvalues --    0.19762   0.19818   0.19955   0.20132   0.20346
 Alpha virt. eigenvalues --    0.20534   0.20708   0.21135   0.21170   0.21381
 Alpha virt. eigenvalues --    0.21536   0.21673   0.21812   0.21853   0.22059
 Alpha virt. eigenvalues --    0.22272   0.22425   0.22576   0.22713   0.22974
 Alpha virt. eigenvalues --    0.23068   0.23235   0.23398   0.23450   0.23769
 Alpha virt. eigenvalues --    0.23870   0.23955   0.24078   0.24176   0.24326
 Alpha virt. eigenvalues --    0.24421   0.24608   0.24802   0.25090   0.25139
 Alpha virt. eigenvalues --    0.25243   0.25486   0.25717   0.25809   0.25967
 Alpha virt. eigenvalues --    0.26029   0.26059   0.26417   0.26595   0.26807
 Alpha virt. eigenvalues --    0.27208   0.27284   0.27537   0.27567   0.27986
 Alpha virt. eigenvalues --    0.28090   0.28257   0.28393   0.28668   0.28991
 Alpha virt. eigenvalues --    0.29220   0.29289   0.29531   0.29787   0.29967
 Alpha virt. eigenvalues --    0.30224   0.30370   0.30627   0.30711   0.31169
 Alpha virt. eigenvalues --    0.31415   0.31466   0.31743   0.31872   0.32247
 Alpha virt. eigenvalues --    0.32337   0.32554   0.32812   0.33154   0.33217
 Alpha virt. eigenvalues --    0.33401   0.33559   0.33711   0.33895   0.33924
 Alpha virt. eigenvalues --    0.34397   0.34479   0.34770   0.34795   0.34986
 Alpha virt. eigenvalues --    0.35194   0.35246   0.35445   0.35587   0.35897
 Alpha virt. eigenvalues --    0.35942   0.36167   0.36209   0.36656   0.36781
[...]
                                                    2079(r),801(r),770(r)
                                                    1556(r),1833(r),1835(r)
                                                    1564(r),748(r),1532(r)
                                                    600(r),597(r),1560(r),532(r)
                                                    1535(r),1800(r),620(r)
                                                    1534(r),1006(r),1832(r)
                                                    1561(r),599(r),634(r)
                                                    1798(r),1834(r),1801(r)
                                                    1830(r),1027(r),1950(r)
                                                    1979(r),996(r),997(r)
                                                    1025(r),2081(r),603(r)
                                                    635(r),2080(r),1566(r)
                                                    1978(r),1023(r),1001(r)
                                                    1986(r),1102(r),1009(r)
                                                    598(r),1649(r),624(r)
                                                    2124(r),1828(r),689(r)
                                                    1591(r),779(r),535(r)
                                                    1024(r),643(r),606(r)
                                                    1701(r),511(r),661(r)
                                                    1538(r),1588(r),802(r)
                                                    596(r),533(r),1981(r),605(r)
                                                    632(r),1695(r),1587(r)
                                                    1565(r),1026(r),747(r)
                                                    1980(r),630(r),1021(r)
                                                    1859(r),1840(r),1977(r)
                                                    655(r),1802(r),609(r)
                                                    1983(r),514(r),602(r),512(r)
                                                    538(r),1584(r),780(r)
                                                    1687(r),2013(r),753(r)
                                                    759(r),1985(r),796(r)
                                                    1956(r),1709(r),782(r)
                                                    1453(r),436(r),1470(r)
                                                    481(r),1829(r),803(r)
                                                    1710(r),756(r),1467(r)
                                                    1694(r),1891(r),723(r)
                                                    1559(r),636(r),1539(r)
                                                    534(r),1989(r),510(r),797(r)
                                                    1715(r),1456(r),2014(r)
                                                    1008(r),1020(r),2062(r)
                                                    593(r),1711(r),638(r)
                                                    1779(r)
  1659. RY*(   1)Cl  72                  0.00123     0.81990   
  1660. RY*(   2)Cl  72                  0.00109     0.82375   
  1661. RY*(   3)Cl  72                  0.00095     0.84990   
  1662. RY*(   4)Cl  72                  0.00036     0.94435   
  1663. RY*(   5)Cl  72                  0.00020     0.99496   
  1664. RY*(   6)Cl  72                  0.00011     1.49999   
  1665. RY*(   7)Cl  72                  0.00008     2.01903   
  1666. RY*(   8)Cl  72                  0.00009     1.55441   
  1667. RY*(   9)Cl  72                  0.00006     1.91989   
  1668. RY*(  10)Cl  72                  0.00004     1.66575   
  1669. RY*(  11)Cl  72                  0.00001     2.20426   
  1670. RY*(  12)Cl  72                  0.00000    24.92306   
  1671. RY*(  13)Cl  72                  0.00000    10.59187   
  1672. RY*(  14)Cl  72                  0.00001     2.72543   
  1673. RY*(  15)Cl  72                  0.00001     2.02091   
  1674. RY*(  16)Cl  72                  0.00000    10.55152   
  1675. RY*(  17)Cl  72                  0.00000     2.35145   
  1676. RY*(  18)Cl  72                  0.00001     2.78100   
  1677. RY*(  19)Cl  72                  0.00001     1.88354   
  1678. RY*(  20)Cl  72                  0.00000    10.54191   
  1679. RY*(  21)Cl  72                  0.00001     1.97841   
  1680. RY*(  22)Cl  72                  0.00000     2.20391   
  1681. RY*(  23)Cl  72                  0.00000     2.16010   
  1682. RY*(  24)Cl  72                  0.00000     2.19097   
  1683. RY*(  25)Cl  72                  0.00000     2.20226   
  1684. RY*(  26)Cl  72                  0.00000     2.22331   
  1685. RY*(  27)Cl  72                  0.00000     2.18077   
  1686. RY*(  28)Cl  72                  0.00000     2.15424   
       -------------------------------
              Total Lewis   17.39198  ( 99.9754%)
        Valence non-Lewis    0.00000  (  0.0000%)
        Rydberg non-Lewis    0.00427  (  0.0246%)
       -------------------------------
            Total unit  4   17.39625  (100.0000%)
           Charge unit  4   -0.39625

 Molecular unit  5  (Cl)
   184. CR (   1)Cl  73                  2.00000   -99.97905  265(r),264(r)
   185. CR (   2)Cl  73                  1.99974   -10.71383  265(r),264(r),266(r),2077(r)
                                                    2080(r),2128(r),2078(r)
                                                    2176(r)
   186. CR (   3)Cl  73                  1.99998    -7.17974  264(r),266(r)
   187. CR (   4)Cl  73                  1.99998    -7.17938  264(r)
   188. CR (   5)Cl  73                  1.99994    -7.18270  265(r),264(r),2176(r)
   256. LP (   1)Cl  73                  1.96102    -0.41476  265(r),264(r),2128(r)
                                                    2138(r),2082(r),2077(r)
                                                    2080(r),2096(r),1450(r)
                                                    2091(r),2089(r),618(r)
                                                    2132(r),2085(r),2088(r)
                                                    2086(r),2087(r),2176(r)
                                                    2090(r),2095(r),2097(r)
                                                    2093(r),2143(r),2142(r)
                                                    2137(r),2079(r),2084(r)
                                                    592(r),2127(r),1825(r)
                                                    1462(r),1824(r),1458(r)
                                                    1975(r),1557(r),2078(r)
                                                    2099(r),1457(r),1461(r)
                                                    628(r),629(r),2129(r)
                                                    1585(r),2081(r),1666(r)
                                                    627(r),1668(r),507(r),747(r)
   257. LP (   2)Cl  73                  1.95798    -0.60970  264(r),265(r),2078(r)
                                                    2098(r),2080(r),2082(r)
                                                    2096(r),2132(r),2097(r)
                                                    2129(r),1450(r),2090(r)
                                                    2138(r),2079(r),2094(r)
                                                    2077(r),2093(r),1452(r)
                                                    1462(r),1458(r)
   258. LP (   3)Cl  73                  1.94177    -0.43869  265(r),264(r),266(r),2079(r)
                                                    2141(r),2132(r),2077(r)
                                                    2128(r),2098(r),2093(r)
                                                    2176(r),2088(r),2085(r)
                                                    2080(r),2099(r),2091(r)
                                                    2129(r),2078(r),2092(r)
                                                    2138(r),2081(r)
   259. LP (   4)Cl  73                  1.56584    -0.38585  265(r),264(r),2176(r)
                                                    2088(r),1450(r),2095(r)
                                                    2096(r),2089(r),618(r)
                                                    2091(r),2087(r),2084(r)
                                                    2082(r),2085(r),2129(r)
                                                    2090(r),592(r),2078(r)
                                                    2128(r),627(r),629(r),626(r)
                                                    771(r),1557(r),1825(r)
                                                    1458(r),994(r),1457(r)
                                                    1693(g),2086(r),1462(r)
                                                    628(r),1975(r),1824(r)
                                                    266(r),1461(r),2077(r)
                                                    1003(r),1666(r),1689(g)
                                                    993(r),1687(g),1558(r)
                                                    1533(r),800(r),1585(r)
                                                    1827(r),1668(r),1022(r)
                                                    625(r),1974(r),1695(g)
                                                    530(r),1460(r),2092(r)
                                                    631(r),2079(r),1107(r)
                                                    623(r),646(r),2081(r),998(r)
                                                    1838(r),1586(r),507(r)
                                                    1556(r),1464(r),1664(r)
                                                    1531(r),532(r),622(r),775(r)
                                                    799(r),600(r),801(r),1660(r)
                                                    1006(r),599(r),1532(r)
                                                    996(r),1535(r),1561(r)
                                                    748(r),1463(r),596(r)
                                                    1979(r),1534(r),1800(r)
                                                    597(r),1833(r),1027(r)
                                                    1661(r),2080(r),1001(r)
                                                    2093(r),1560(r),1835(r)
                                                    997(r),1977(r),1564(r)
                                                    635(r),593(r),1798(r)
                                                    1009(r),1834(r),770(r)
                                                    634(r),630(r),779(r),620(r)
                                                    1102(r),1801(r),1832(r)
                                                    1830(r),624(r),603(r)
                                                    1980(r),1025(r),772(r)
                                                    621(r),1451(r),2124(r)
                                                    1024(r),1454(r),598(r)
                                                    606(r),1538(r),1986(r)
                                                    1673(r),535(r),802(r),605(r)
                                                    661(r),1566(r),747(r)
                                                    1828(r),511(r),2132(r)
                                                    1859(r),1023(r),602(r)
                                                    1588(r),2013(r),1956(r)
                                                    1026(r),1802(r),632(r)
                                                    1565(r),655(r),1020(r)
                                                    1021(r),1591(r),1680(r)
                                                    2127(r),1467(r),609(r)
                                                    1584(r),753(r),1665(r)
                                                    1587(r),2097(r),514(r)
                                                    689(r),1950(r),2174(r)
                                                    1677(r),430(r),797(r),643(r)
                                                    1455(r),1983(r),780(r)
                                                    1008(r),782(r),1573(r)
                                                    2138(r),1840(r),1474(r)
                                                    1852(r),2014(r),510(r)
                                                    538(r),1961(r),1829(r)
                                                    803(r),796(r),1976(r),512(r)
                                                    2008(r),759(r),1799(r)
  1687. RY*(   1)Cl  73                  0.00136     0.77360   
  1688. RY*(   2)Cl  73                  0.00105     0.84135   
  1689. RY*(   3)Cl  73                  0.00087     0.81277   
  1690. RY*(   4)Cl  73                  0.00041     0.88758   
  1691. RY*(   5)Cl  73                  0.00025     0.98065   
  1692. RY*(   6)Cl  73                  0.00010     1.21091   
  1693. RY*(   7)Cl  73                  0.00008     2.23029   
  1694. RY*(   8)Cl  73                  0.00007     2.14828   
  1695. RY*(   9)Cl  73                  0.00005     1.54078   
  1696. RY*(  10)Cl  73                  0.00004     1.65464   
  1697. RY*(  11)Cl  73                  0.00000    10.56031   
  1698. RY*(  12)Cl  73                  0.00000    24.96460   
  1699. RY*(  13)Cl  73                  0.00000     2.01620   
  1700. RY*(  14)Cl  73                  0.00001     2.65872   
  1701. RY*(  15)Cl  73                  0.00001     1.96443   
  1702. RY*(  16)Cl  73                  0.00000    10.45774   
  1703. RY*(  17)Cl  73                  0.00000     2.48081   
  1704. RY*(  18)Cl  73                  0.00000    10.50564   
  1705. RY*(  19)Cl  73                  0.00000     1.92523   
  1706. RY*(  20)Cl  73                  0.00001     2.68319   
  1707. RY*(  21)Cl  73                  0.00001     1.92753   
  1708. RY*(  22)Cl  73                  0.00000     2.16727   
  1709. RY*(  23)Cl  73                  0.00000     2.19995   
  1710. RY*(  24)Cl  73                  0.00000     2.19821   
  1711. RY*(  25)Cl  73                  0.00000     2.15982   
  1712. RY*(  26)Cl  73                  0.00000     2.25061   
  1713. RY*(  27)Cl  73                  0.00000     2.18053   
  1714. RY*(  28)Cl  73                  0.00001     2.16633   
       -------------------------------
              Total Lewis   17.42625  ( 99.9751%)
        Valence non-Lewis    0.00000  (  0.0000%)
        Rydberg non-Lewis    0.00435  (  0.0249%)
       -------------------------------
            Total unit  5   17.43060  (100.0000%)
           Charge unit  5   -0.43060
 1\1\GINC-NC255\SP\RPBE1PBE\Gen\C46H32Cl2F12Fe1P2Pd1\MACKK4\06-Dec-2021
 \0\\# PBE1PBE gen pseudo=read int=(grid=ultrafine) empiricaldispersion
 =GD3BJ pop=nbo guess=read geom=check\\W001_1_6_F_3 title\\0,1\C,0,0.21
 30719065,-4.0204012123,4.1239658019\C,0,0.1871412018,-3.4531310601,5.4
 435307826\C,0,1.5185205032,-3.5176611393,5.9807006587\C,0,2.3683728652
 ,-4.1223430662,4.9921049275\C,0,1.5578292176,-4.4366183404,3.844262700
 6\H,0,-0.6790910806,-3.0041364222,5.9307805571\H,0,1.8387011967,-3.126
 6833169,6.9470179013\H,0,3.4424578294,-4.2855815544,5.088340168\H,0,1.
 899578868,-4.8960243711,2.9153134296\H,0,-0.6343817443,-4.0953552059,3
 .4412879827\Fe,0,1.4970965312,-2.4220194579,4.2538838112\C,0,1.7156306
 268,-0.4747283939,4.8454336423\C,0,2.8910122212,-0.9403661388,4.179757
 4595\C,0,2.5348978499,-1.3528192584,2.8426465767\C,0,1.0910947498,-1.1
 779873637,2.7052369316\C,0,0.6142000572,-0.6073249729,3.9427496438\H,0
 ,1.6589308051,-0.1230617004,5.8757115404\H,0,-0.4231543531,-0.36822148
 34,4.1704973524\C,0,0.1898675951,-1.5792878324,1.5533573649\P,0,0.6315
 330674,-0.5500425507,0.0421620711\H,0,0.3809355446,-2.6370595318,1.301
 2870031\C,0,-1.3023969031,-1.4126863925,1.8927237508\H,0,-1.9410512368
 ,-1.835833305,1.1033307375\H,0,-1.51915651,-1.9456554393,2.8331868002\
 H,0,-1.5634597041,-0.348052204,2.0090900901\C,0,-2.8541392618,-0.76785
 63654,-3.0422623962\C,0,-2.2681180039,0.4652055995,-2.7352094603\C,0,-
 1.2457116678,0.5562921991,-1.7778649792\C,0,-0.8003757019,-0.602979719
 9,-1.1251631752\C,0,-1.3673196481,-1.8481938025,-1.4520308189\C,0,-2.3
 986569329,-1.9255475334,-2.3959005298\H,0,-3.6538141913,-0.8292308122,
 -3.7842770183\C,0,-2.776845689,1.7285583843,-3.3916872791\H,0,-0.81112
 7007,1.526432976,-1.5255557138\H,0,-1.0074782345,-2.7689413469,-0.9821
 545589\C,0,-2.9601258293,-3.2737119236,-2.7762862676\C,0,3.3198568344,
 -3.0953024714,-2.8091019828\C,0,2.8737689734,-3.6653107595,-1.61023906
 88\C,0,2.0871262786,-2.9269554658,-0.7169922975\C,0,1.7413216207,-1.59
 93267957,-1.009368307\C,0,2.1716218943,-1.0330998845,-2.2227255364\C,0
 ,2.9610209949,-1.7754977353,-3.1111968772\H,0,3.9367117194,-3.67262402
 13,-3.5027032887\C,0,3.2297334695,-5.1012206406,-1.3081169309\H,0,1.77
 55832165,-3.4002294747,0.2147361606\H,0,1.8799802753,-0.0100720065,-2.
 4830523267\C,0,3.4892142108,-1.122280791,-4.3656124943\F,0,3.697593194
 ,-2.0253008093,-5.3567591987\F,0,2.6471937091,-0.1668108797,-4.8319942
 254\F,0,4.692301213,-0.5121661293,-4.1225839994\F,0,4.5640881341,-5.32
 41323277,-1.4751002793\F,0,2.911819477,-5.4538542672,-0.0306810009\F,0
 ,2.5781770173,-5.9566578713,-2.1395267092\F,0,-1.772536731,2.619826246
 5,-3.5934110023\F,0,-3.3490195592,1.4653076386,-4.5999358789\F,0,-3.71
 65219003,2.3377748659,-2.6234538267\F,0,-4.2548208868,-3.1848936145,-3
 .1774179894\F,0,-2.2566852831,-3.8307090063,-3.8012677314\F,0,-2.90533
 42357,-4.148799097,-1.7332799148\P,0,3.6001666703,0.9792038323,0.96854
 94088\C,0,5.234100746,2.0266148777,5.1931637812\C,0,6.0181449588,1.304
 3685719,4.2794125932\C,0,5.5149979803,1.0062872891,3.0073224947\C,0,4.
 2236438891,1.4396664731,2.6389667912\C,0,3.4415246037,2.1648018856,3.5
 538918828\C,0,3.9507124103,2.4545202068,4.8274723424\H,0,5.6273544705,
 2.2562925214,6.188945429\H,0,7.0234237343,0.9708930039,4.5570296148\H,
 0,6.1231676502,0.4301286746,2.3021758769\H,0,2.4445972328,2.5047946991
 ,3.2638088052\H,0,3.3350842604,3.0187226658,5.5352008813\Cl,0,2.100302
 3044,3.7479273187,1.0057996629\Cl,0,-0.9063934195,2.1182785952,0.99976
 40119\H,0,3.9029696408,-0.963478272,4.5837274381\C,0,5.6349341244,-2.5
 269377691,0.0697390919\C,0,5.144887515,-3.4310882758,1.016573199\C,0,4
 .1264756206,-3.0313907572,1.889611458\C,0,3.5720364833,-1.7389393438,1
 .8461889204\C,0,4.1176391745,-0.8029396275,0.9159691165\C,0,5.13291217
 75,-1.2192305935,0.0336695402\H,0,6.4163787625,-2.8275944168,-0.635150
 4349\H,0,5.5349738972,-4.4519862699,1.0628808449\H,0,3.7319250987,-3.7
 265831244,2.6323462133\H,0,5.5534914322,-0.5078713596,-0.6811788044\C,
 0,6.2252665913,3.2890841065,-2.0864399263\C,0,5.3918154644,2.246218562
 1,-2.5167190329\C,0,4.6172281392,1.5446545171,-1.5869140839\C,0,4.6883
 441248,1.8580220822,-0.2155068563\C,0,5.5208796318,2.9089343352,0.2112
 520029\C,0,6.2833618673,3.6192413487,-0.7256203563\H,0,6.8235115669,3.
 8481465741,-2.8129140582\H,0,5.3347366778,1.9740108557,-3.5748120596\H
 ,0,3.9656560009,0.7384700965,-1.9306849138\H,0,5.5594860943,3.18078856
 72,1.2688548404\H,0,6.9211431344,4.441851209,-0.386668015\Pd,0,1.38805
 67153,1.5063062972,0.6659095173\\Version=ES64L-G09RevE.01\State=1-A\HF
 =-4822.9388295\RMSD=6.228e-09\Dipole=2.6992522,-2.6006708,1.6003057\Qu
 adrupole=9.9535019,-28.4652012,18.5116993,13.1998087,-0.7169516,-1.816
 5342\PG=C01 [X(C46H32Cl2F12Fe1P2Pd1)]\\@


 MARY HAD A LITTLE LAMB
      HIS FEET WERE BLACK AS SOOT,
           AND EVERYWHERE THAT MARY WENT
                HIS SOOTY FOOT HE PUT.

                    -- NONAME
 Job cpu time:       0 days  6 hours 44 minutes 57.3 seconds.
 File lengths (MBytes):  RWF=   2518 Int=      0 D2E=      0 Chk=    352 Scr=      1
 Normal termination of Gaussian 09 at Mon Dec  6 18:56:34 2021.
