 Entering Gaussian System, Link 0=g09
 Input=RR_Me_Ferrolane_3.com
 Output=RR_Me_Ferrolane_3.log
 Initial command:
 /gstore/apps/gaussian/g09.e01-foss-2017a/g09/l1.exe "/local/21251376/Gau-13986.inp" -scrdir="/local/21251376/"
 Entering Link 1 = /gstore/apps/gaussian/g09.e01-foss-2017a/g09/l1.exe PID=     13987.
  
 Copyright (c) 1988,1990,1992,1993,1995,1998,2003,2009,2015,
            Gaussian, Inc.  All Rights Reserved.
  
 This is part of the Gaussian(R) 09 program.  It is based on
 the Gaussian(R) 03 system (copyright 2003, Gaussian, Inc.),
 the Gaussian(R) 98 system (copyright 1998, Gaussian, Inc.),
 the Gaussian(R) 94 system (copyright 1995, Gaussian, Inc.),
 the Gaussian 92(TM) system (copyright 1992, Gaussian, Inc.),
 the Gaussian 90(TM) system (copyright 1990, Gaussian, Inc.),
 the Gaussian 88(TM) system (copyright 1988, Gaussian, Inc.),
 the Gaussian 86(TM) system (copyright 1986, Carnegie Mellon
 University), and the Gaussian 82(TM) system (copyright 1983,
 Carnegie Mellon University). Gaussian is a federally registered
 trademark of Gaussian, Inc.
  
 This software contains proprietary and confidential information,
 including trade secrets, belonging to Gaussian, Inc.
  
 This software is provided under written license and may be
 used, copied, transmitted, or stored only in accord with that
 written license.
  
 The following legend is applicable only to US Government
 contracts under FAR:
  
                    RESTRICTED RIGHTS LEGEND
  
 Use, reproduction and disclosure by the US Government is
 subject to restrictions as set forth in subparagraphs (a)
 and (c) of the Commercial Computer Software - Restricted
 Rights clause in FAR 52.227-19.
  
 Gaussian, Inc.
 340 Quinnipiac St., Bldg. 40, Wallingford CT 06492
  
  
 ---------------------------------------------------------------
 Warning -- This program may not be used in any manner that
 competes with the business of Gaussian, Inc. or will provide
 assistance to any competitor of Gaussian, Inc.  The licensee
 of this program is prohibited from giving any competitor of
 Gaussian, Inc. access to this program.  By using this program,
 the user acknowledges that Gaussian, Inc. is engaged in the
 business of creating and licensing software in the field of
 computational chemistry and represents and warrants to the
 licensee that it is not a competitor of Gaussian, Inc. and that
 it will not use this program in any manner prohibited above.
 ---------------------------------------------------------------
  

 Cite this work as:
 Gaussian 09, Revision E.01,
 M. J. Frisch, G. W. Trucks, H. B. Schlegel, G. E. Scuseria, 
 M. A. Robb, J. R. Cheeseman, G. Scalmani, V. Barone, B. Mennucci, 
 G. A. Petersson, H. Nakatsuji, M. Caricato, X. Li, H. P. Hratchian, 
 A. F. Izmaylov, J. Bloino, G. Zheng, J. L. Sonnenberg, M. Hada, 
 M. Ehara, K. Toyota, R. Fukuda, J. Hasegawa, M. Ishida, T. Nakajima, 
 Y. Honda, O. Kitao, H. Nakai, T. Vreven, J. A. Montgomery, Jr., 
 J. E. Peralta, F. Ogliaro, M. Bearpark, J. J. Heyd, E. Brothers, 
 K. N. Kudin, V. N. Staroverov, T. Keith, R. Kobayashi, J. Normand, 
 K. Raghavachari, A. Rendell, J. C. Burant, S. S. Iyengar, J. Tomasi, 
 M. Cossi, N. Rega, J. M. Millam, M. Klene, J. E. Knox, J. B. Cross, 
 V. Bakken, C. Adamo, J. Jaramillo, R. Gomperts, R. E. Stratmann, 
 O. Yazyev, A. J. Austin, R. Cammi, C. Pomelli, J. W. Ochterski, 
 R. L. Martin, K. Morokuma, V. G. Zakrzewski, G. A. Voth, 
 P. Salvador, J. J. Dannenberg, S. Dapprich, A. D. Daniels, 
 O. Farkas, J. B. Foresman, J. V. Ortiz, J. Cioslowski, 
 and D. J. Fox, Gaussian, Inc., Wallingford CT, 2013.
 
 ******************************************
 Gaussian 09:  ES64L-G09RevE.01 30-Nov-2015
                16-Nov-2021 
 ******************************************
 %nprocs=14
 Will use up to   14 processors via shared memory.
 %mem=128GB
 %chk=RR_Me_Ferrolane_3.chk
 ----------------------------------------------------------------------
 # PBEPBE gen 6D pseudo=read scf=maxcycles=500 denfit int=(grid=ultrafi
 ne) empiricaldispersion=GD3BJ opt freq=noraman
 ----------------------------------------------------------------------
 1/14=-1,18=20,19=15,26=4,38=1/1,3;
 2/9=110,12=2,17=6,18=5,40=1/2;
 3/5=7,8=2,11=2,16=1,17=8,25=1,30=1,71=1,74=1009,75=-5,82=47,124=41/1,2,3;
 4//1;
 5/5=2,7=500,38=5/2;
 6/7=2,8=2,9=2,10=2,28=1/1;
 7//1,2,3,16;
 1/14=-1,18=20,19=15,26=4/3(2);
 2/9=110/2;
 99//99;
 2/9=110/2;
 3/5=7,6=1,8=2,11=2,16=1,17=8,25=1,30=1,71=1,74=1009,75=-5,82=7,124=41/1,2,3;
 4/5=5,16=3,69=1/1;
 5/5=2,7=500,38=5/2;
 7//1,2,3,16;
 1/14=-1,18=20,19=15,26=4/3(-5);
 2/9=110/2;
 6/7=2,8=2,9=2,10=2,19=2,28=1/1;
 99/9=1/99;
 ---------------
 RR_Me_Ferrolane
 ---------------
 Symbolic Z-matrix:
 Charge =  0 Multiplicity = 1
 Fe                   -0.0088    2.6513   -0.0016 
 P                    -1.8067   -0.2696   -0.0361 
 P                     1.8107   -0.2571    0.0295 
 C                    -1.5059    1.4797   -0.6644 
 C                    -0.6437    1.8258   -1.7561 
 C                    -0.6142    3.249    -1.8926 
 C                    -1.4804    3.8017   -0.8995 
 C                    -2.0413    2.7153   -0.1529 
 C                     1.4987    1.4878    0.6558 
 C                     2.0261    2.73      0.1525 
 C                     1.4538    3.8087    0.9017 
 C                     0.5917    3.245     1.892 
 C                     0.6329    1.823     1.7482 
 C                    -3.3085   -0.8488   -0.9361 
 C                    -4.3139   -1.1158    0.1939 
 C                    -2.5559   -0.0141    1.6161 
 C                    -4.0635   -0.139     1.3554 
 C                     3.3023   -0.7489    0.9723 
 C                     4.4187   -0.0525    0.1892 
 C                     2.6202   -0.0278   -1.598 
 C                     4.1255   -0.2075   -1.3146 
 H                    -0.0665    1.1297   -2.345 
 H                    -0.0121    3.8076   -2.5947 
 H                    -1.6511    4.8531   -0.7173 
 H                    -2.7145    2.8175    0.6854 
 H                     2.7001    2.8425   -0.6838 
 H                     0.066     1.118     2.3367 
 Cl                   -1.5854   -3.5962   -0.0329 
 Cl                    1.6139   -3.5851    0.0116 
 Pd                    0.0088   -1.8849   -0.0049 
 H                    -3.1066   -1.7726   -1.4785 
 C                    -3.8332    0.1875   -1.9422 
 H                    -2.3289    0.9684    2.0279 
 C                    -2.0295   -1.0837    2.5814 
 H                    -4.1722   -2.1347    0.557 
 H                    -5.3443   -1.0597   -0.1589 
 H                    -4.4513    0.8403    1.071 
 H                    -4.608    -0.4372    2.252 
 H                     1.6166    4.8622    0.7246 
 H                    -0.0148    3.7955    2.5968 
 H                    -4.7205   -0.1833   -2.455 
 H                    -3.0875    0.4094   -2.706 
 H                    -4.1054    1.1252   -1.4575 
 H                    -2.2994   -2.0885    2.2576 
 H                    -0.9438   -1.042     2.6707 
 H                    -2.4451   -0.943     3.5795 
 H                     3.4483   -1.8254    0.8974 
 C                     3.2268   -0.3705    2.4573 
 H                     2.4412    0.9801   -1.9693 
 C                     2.0673   -1.0319   -2.6169 
 H                     5.3981   -0.4562    0.4475 
 H                     4.4379    1.0082    0.4446 
 H                     4.7236    0.4883   -1.9039 
 H                     4.4362   -1.2087   -1.6168 
 H                     4.1002   -0.7398    2.9946 
 H                     3.1906    0.7094    2.6027 
 H                     2.3425   -0.8012    2.9267 
 H                     2.5293   -0.8868   -3.5938 
 H                     0.9903   -0.9228   -2.7436 
 H                     2.2623   -2.0606   -2.314 
 

 GradGradGradGradGradGradGradGradGradGradGradGradGradGradGradGradGradGrad
 Berny optimization.
 Initialization pass.
                           ----------------------------
                           !    Initial Parameters    !
                           ! (Angstroms and Degrees)  !
 --------------------------                            --------------------------
 ! Name  Definition              Value          Derivative Info.                !
 --------------------------------------------------------------------------------
 ! R1    R(1,4)                  2.0133         estimate D2E/DX2                !
 ! R2    R(1,5)                  2.0403         estimate D2E/DX2                !
 ! R3    R(1,6)                  2.0736         estimate D2E/DX2                !
 ! R4    R(1,7)                  2.0725         estimate D2E/DX2                !
 ! R5    R(1,8)                  2.0391         estimate D2E/DX2                !
 ! R6    R(1,9)                  2.0146         estimate D2E/DX2                !
 ! R7    R(1,10)                 2.0422         estimate D2E/DX2                !
 ! R8    R(1,11)                 2.0724         estimate D2E/DX2                !
 ! R9    R(1,12)                 2.0734         estimate D2E/DX2                !
 ! R10   R(1,13)                 2.0395         estimate D2E/DX2                !
 ! R11   R(2,4)                  1.8829         estimate D2E/DX2                !
 ! R12   R(2,14)                 1.8441         estimate D2E/DX2                !
 ! R13   R(2,16)                 1.832          estimate D2E/DX2                !
 ! R14   R(2,30)                 2.4303         estimate D2E/DX2                !
 ! R15   R(3,9)                  1.88           estimate D2E/DX2                !
 ! R16   R(3,18)                 1.8318         estimate D2E/DX2                !
 ! R17   R(3,20)                 1.8321         estimate D2E/DX2                !
 ! R18   R(3,30)                 2.4285         estimate D2E/DX2                !
 ! R19   R(4,5)                  1.4335         estimate D2E/DX2                !
 ! R20   R(4,8)                  1.4405         estimate D2E/DX2                !
 ! R21   R(5,6)                  1.43           estimate D2E/DX2                !
 ! R22   R(5,22)                 1.0791         estimate D2E/DX2                !
 ! R23   R(6,7)                  1.429          estimate D2E/DX2                !
 ! R24   R(6,23)                 1.0805         estimate D2E/DX2                !
 ! R25   R(7,8)                  1.4326         estimate D2E/DX2                !
 ! R26   R(7,24)                 1.0806         estimate D2E/DX2                !
 ! R27   R(8,25)                 1.08           estimate D2E/DX2                !
 ! R28   R(9,10)                 1.4403         estimate D2E/DX2                !
 ! R29   R(9,13)                 1.4336         estimate D2E/DX2                !
 ! R30   R(10,11)                1.4326         estimate D2E/DX2                !
 ! R31   R(10,26)                1.08           estimate D2E/DX2                !
 ! R32   R(11,12)                1.4289         estimate D2E/DX2                !
 ! R33   R(11,39)                1.0806         estimate D2E/DX2                !
 ! R34   R(12,13)                1.4298         estimate D2E/DX2                !
 ! R35   R(12,40)                1.0806         estimate D2E/DX2                !
 ! R36   R(13,27)                1.0792         estimate D2E/DX2                !
 ! R37   R(14,15)                1.5359         estimate D2E/DX2                !
 ! R38   R(14,31)                1.0901         estimate D2E/DX2                !
 ! R39   R(14,32)                1.5367         estimate D2E/DX2                !
 ! R40   R(15,17)                1.5382         estimate D2E/DX2                !
 ! R41   R(15,35)                1.0909         estimate D2E/DX2                !
 ! R42   R(15,36)                1.0906         estimate D2E/DX2                !
 ! R43   R(16,17)                1.5351         estimate D2E/DX2                !
 ! R44   R(16,33)                1.0892         estimate D2E/DX2                !
 ! R45   R(16,34)                1.5339         estimate D2E/DX2                !
 ! R46   R(17,37)                1.091          estimate D2E/DX2                !
 ! R47   R(17,38)                1.0905         estimate D2E/DX2                !
 ! R48   R(18,19)                1.5312         estimate D2E/DX2                !
 ! R49   R(18,47)                1.0889         estimate D2E/DX2                !
 ! R50   R(18,48)                1.5343         estimate D2E/DX2                !
 ! R51   R(19,21)                1.5399         estimate D2E/DX2                !
 ! R52   R(19,51)                1.0904         estimate D2E/DX2                !
 ! R53   R(19,52)                1.0912         estimate D2E/DX2                !
 ! R54   R(20,21)                1.5423         estimate D2E/DX2                !
 ! R55   R(20,49)                1.0889         estimate D2E/DX2                !
 ! R56   R(20,50)                1.5336         estimate D2E/DX2                !
 ! R57   R(21,53)                1.0905         estimate D2E/DX2                !
 ! R58   R(21,54)                1.091          estimate D2E/DX2                !
 ! R59   R(28,30)                2.339          estimate D2E/DX2                !
 ! R60   R(29,30)                2.3382         estimate D2E/DX2                !
 ! R61   R(32,41)                1.0898         estimate D2E/DX2                !
 ! R62   R(32,42)                1.0903         estimate D2E/DX2                !
 ! R63   R(32,43)                1.0901         estimate D2E/DX2                !
 ! R64   R(34,44)                1.0896         estimate D2E/DX2                !
 ! R65   R(34,45)                1.0902         estimate D2E/DX2                !
 ! R66   R(34,46)                1.0903         estimate D2E/DX2                !
 ! R67   R(48,55)                1.0899         estimate D2E/DX2                !
 ! R68   R(48,56)                1.0902         estimate D2E/DX2                !
 ! R69   R(48,57)                1.0899         estimate D2E/DX2                !
 ! R70   R(50,58)                1.0903         estimate D2E/DX2                !
 ! R71   R(50,59)                1.0899         estimate D2E/DX2                !
 ! R72   R(50,60)                1.09           estimate D2E/DX2                !
 ! A1    A(4,1,6)               69.5374         estimate D2E/DX2                !
 ! A2    A(4,1,7)               69.6581         estimate D2E/DX2                !
 ! A3    A(4,1,9)              109.1343         estimate D2E/DX2                !
 ! A4    A(4,1,10)             142.0184         estimate D2E/DX2                !
 ! A5    A(4,1,12)             133.0535         estimate D2E/DX2                !
 ! A6    A(4,1,13)             106.2647         estimate D2E/DX2                !
 ! A7    A(5,1,7)               68.3503         estimate D2E/DX2                !
 ! A8    A(5,1,8)               68.8215         estimate D2E/DX2                !
 ! A9    A(5,1,9)              106.2481         estimate D2E/DX2                !
 ! A10   A(5,1,10)             112.9881         estimate D2E/DX2                !
 ! A11   A(5,1,11)             145.1252         estimate D2E/DX2                !
 ! A12   A(5,1,13)             132.1719         estimate D2E/DX2                !
 ! A13   A(6,1,8)               68.4246         estimate D2E/DX2                !
 ! A14   A(6,1,9)              133.043          estimate D2E/DX2                !
 ! A15   A(6,1,10)             110.4028         estimate D2E/DX2                !
 ! A16   A(6,1,11)             116.2682         estimate D2E/DX2                !
 ! A17   A(6,1,12)             146.6071         estimate D2E/DX2                !
 ! A18   A(7,1,10)             135.9562         estimate D2E/DX2                !
 ! A19   A(7,1,11)             112.3318         estimate D2E/DX2                !
 ! A20   A(7,1,12)             116.2566         estimate D2E/DX2                !
 ! A21   A(7,1,13)             145.1388         estimate D2E/DX2                !
 ! A22   A(8,1,9)              142.0184         estimate D2E/DX2                !
 ! A23   A(8,1,11)             135.9127         estimate D2E/DX2                !
 ! A24   A(8,1,12)             110.3323         estimate D2E/DX2                !
 ! A25   A(8,1,13)             112.9554         estimate D2E/DX2                !
 ! A26   A(9,1,11)              69.6468         estimate D2E/DX2                !
 ! A27   A(9,1,12)              69.5505         estimate D2E/DX2                !
 ! A28   A(10,1,12)             68.3747         estimate D2E/DX2                !
 ! A29   A(10,1,13)             68.7408         estimate D2E/DX2                !
 ! A30   A(11,1,13)             68.3339         estimate D2E/DX2                !
 ! A31   A(4,2,14)             105.013          estimate D2E/DX2                !
 ! A32   A(4,2,16)             103.6916         estimate D2E/DX2                !
 ! A33   A(4,2,30)             120.1617         estimate D2E/DX2                !
 ! A34   A(14,2,16)             98.679          estimate D2E/DX2                !
 ! A35   A(14,2,30)            113.9456         estimate D2E/DX2                !
 ! A36   A(16,2,30)            112.744          estimate D2E/DX2                !
 ! A37   A(9,3,18)             102.29           estimate D2E/DX2                !
 ! A38   A(9,3,20)             104.6612         estimate D2E/DX2                !
 ! A39   A(9,3,30)             120.2455         estimate D2E/DX2                !
 ! A40   A(18,3,20)             97.5287         estimate D2E/DX2                !
 ! A41   A(18,3,30)            115.5628         estimate D2E/DX2                !
 ! A42   A(20,3,30)            113.5244         estimate D2E/DX2                !
 ! A43   A(1,4,2)              123.3388         estimate D2E/DX2                !
 ! A44   A(2,4,5)              125.0653         estimate D2E/DX2                !
 ! A45   A(2,4,8)              128.2461         estimate D2E/DX2                !
 ! A46   A(5,4,8)              106.6709         estimate D2E/DX2                !
 ! A47   A(1,5,22)             124.3205         estimate D2E/DX2                !
 ! A48   A(4,5,6)              108.9885         estimate D2E/DX2                !
 ! A49   A(4,5,22)             125.5602         estimate D2E/DX2                !
 ! A50   A(6,5,22)             125.3697         estimate D2E/DX2                !
 ! A51   A(1,6,23)             125.3735         estimate D2E/DX2                !
 ! A52   A(5,6,7)              107.8235         estimate D2E/DX2                !
 ! A53   A(5,6,23)             126.017          estimate D2E/DX2                !
 ! A54   A(7,6,23)             126.1143         estimate D2E/DX2                !
 ! A55   A(1,7,24)             125.3926         estimate D2E/DX2                !
 ! A56   A(6,7,8)              107.8307         estimate D2E/DX2                !
 ! A57   A(6,7,24)             126.1027         estimate D2E/DX2                !
 ! A58   A(8,7,24)             126.0236         estimate D2E/DX2                !
 ! A59   A(1,8,25)             124.5195         estimate D2E/DX2                !
 ! A60   A(4,8,7)              108.6573         estimate D2E/DX2                !
 ! A61   A(4,8,25)             126.0489         estimate D2E/DX2                !
 ! A62   A(7,8,25)             125.2271         estimate D2E/DX2                !
 ! A63   A(1,9,3)              123.4718         estimate D2E/DX2                !
 ! A64   A(3,9,10)             128.5577         estimate D2E/DX2                !
 ! A65   A(3,9,13)             124.8262         estimate D2E/DX2                !
 ! A66   A(10,9,13)            106.6037         estimate D2E/DX2                !
 ! A67   A(1,10,26)            124.5713         estimate D2E/DX2                !
 ! A68   A(9,10,11)            108.6851         estimate D2E/DX2                !
 ! A69   A(9,10,26)            126.0832         estimate D2E/DX2                !
 ! A70   A(11,10,26)           125.1584         estimate D2E/DX2                !
 ! A71   A(1,11,39)            125.4061         estimate D2E/DX2                !
 ! A72   A(10,11,12)           107.8435         estimate D2E/DX2                !
 ! A73   A(10,11,39)           126.0272         estimate D2E/DX2                !
 ! A74   A(12,11,39)           126.0925         estimate D2E/DX2                !
 ! A75   A(1,12,40)            125.3815         estimate D2E/DX2                !
 ! A76   A(11,12,13)           107.7736         estimate D2E/DX2                !
 ! A77   A(11,12,40)           126.1364         estimate D2E/DX2                !
 ! A78   A(13,12,40)           126.0454         estimate D2E/DX2                !
 ! A79   A(1,13,27)            124.6013         estimate D2E/DX2                !
 ! A80   A(9,13,12)            109.0603         estimate D2E/DX2                !
 ! A81   A(9,13,27)            125.4504         estimate D2E/DX2                !
 ! A82   A(12,13,27)           125.4283         estimate D2E/DX2                !
 ! A83   A(2,14,15)            103.2159         estimate D2E/DX2                !
 ! A84   A(2,14,31)            110.9868         estimate D2E/DX2                !
 ! A85   A(2,14,32)            112.692          estimate D2E/DX2                !
 ! A86   A(15,14,31)           109.876          estimate D2E/DX2                !
 ! A87   A(15,14,32)           112.0495         estimate D2E/DX2                !
 ! A88   A(31,14,32)           107.9963         estimate D2E/DX2                !
 ! A89   A(14,15,17)           109.7918         estimate D2E/DX2                !
 ! A90   A(14,15,35)           108.797          estimate D2E/DX2                !
 ! A91   A(14,15,36)           111.8101         estimate D2E/DX2                !
 ! A92   A(17,15,35)           108.702          estimate D2E/DX2                !
 ! A93   A(17,15,36)           111.4339         estimate D2E/DX2                !
 ! A94   A(35,15,36)           106.1675         estimate D2E/DX2                !
 ! A95   A(2,16,17)            103.7167         estimate D2E/DX2                !
 ! A96   A(2,16,33)            112.4283         estimate D2E/DX2                !
 ! A97   A(2,16,34)            109.2652         estimate D2E/DX2                !
 ! A98   A(17,16,33)           110.0156         estimate D2E/DX2                !
 ! A99   A(17,16,34)           112.7785         estimate D2E/DX2                !
 ! A100  A(33,16,34)           108.6348         estimate D2E/DX2                !
 ! A101  A(15,17,16)           109.8643         estimate D2E/DX2                !
 ! A102  A(15,17,37)           108.3799         estimate D2E/DX2                !
 ! A103  A(15,17,38)           111.4631         estimate D2E/DX2                !
 ! A104  A(16,17,37)           108.6828         estimate D2E/DX2                !
 ! A105  A(16,17,38)           111.8995         estimate D2E/DX2                !
 ! A106  A(37,17,38)           106.3967         estimate D2E/DX2                !
 ! A107  A(3,18,19)            102.0262         estimate D2E/DX2                !
 ! A108  A(3,18,47)            109.827          estimate D2E/DX2                !
 ! A109  A(3,18,48)            113.0699         estimate D2E/DX2                !
 ! A110  A(19,18,47)           108.4623         estimate D2E/DX2                !
 ! A111  A(19,18,48)           114.7527         estimate D2E/DX2                !
 ! A112  A(47,18,48)           108.4803         estimate D2E/DX2                !
 ! A113  A(18,19,21)           108.3506         estimate D2E/DX2                !
 ! A114  A(18,19,51)           111.4295         estimate D2E/DX2                !
 ! A115  A(18,19,52)           109.5863         estimate D2E/DX2                !
 ! A116  A(21,19,51)           111.4128         estimate D2E/DX2                !
 ! A117  A(21,19,52)           109.254          estimate D2E/DX2                !
 ! A118  A(51,19,52)           106.7769         estimate D2E/DX2                !
 ! A119  A(3,20,21)            104.6809         estimate D2E/DX2                !
 ! A120  A(3,20,49)            110.2495         estimate D2E/DX2                !
 ! A121  A(3,20,50)            110.4223         estimate D2E/DX2                !
 ! A122  A(21,20,49)           109.3263         estimate D2E/DX2                !
 ! A123  A(21,20,50)           113.4327         estimate D2E/DX2                !
 ! A124  A(49,20,50)           108.6751         estimate D2E/DX2                !
 ! A125  A(19,21,20)           110.7048         estimate D2E/DX2                !
 ! A126  A(19,21,53)           111.0433         estimate D2E/DX2                !
 ! A127  A(19,21,54)           107.9774         estimate D2E/DX2                !
 ! A128  A(20,21,53)           111.2037         estimate D2E/DX2                !
 ! A129  A(20,21,54)           109.5113         estimate D2E/DX2                !
 ! A130  A(53,21,54)           106.2403         estimate D2E/DX2                !
 ! A131  A(2,30,3)              96.255          estimate D2E/DX2                !
 ! A132  A(2,30,28)             88.6807         estimate D2E/DX2                !
 ! A133  A(3,30,29)             88.7365         estimate D2E/DX2                !
 ! A134  A(28,30,29)            86.3282         estimate D2E/DX2                !
 ! A135  A(14,32,41)           110.892          estimate D2E/DX2                !
 ! A136  A(14,32,42)           111.2465         estimate D2E/DX2                !
 ! A137  A(14,32,43)           111.9772         estimate D2E/DX2                !
 ! A138  A(41,32,42)           107.2452         estimate D2E/DX2                !
 ! A139  A(41,32,43)           107.3727         estimate D2E/DX2                !
 ! A140  A(42,32,43)           107.8911         estimate D2E/DX2                !
 ! A141  A(16,34,44)           111.777          estimate D2E/DX2                !
 ! A142  A(16,34,45)           111.5086         estimate D2E/DX2                !
 ! A143  A(16,34,46)           110.8114         estimate D2E/DX2                !
 ! A144  A(44,34,45)           107.8362         estimate D2E/DX2                !
 ! A145  A(44,34,46)           107.2547         estimate D2E/DX2                !
 ! A146  A(45,34,46)           107.4395         estimate D2E/DX2                !
 ! A147  A(18,48,55)           110.7404         estimate D2E/DX2                !
 ! A148  A(18,48,56)           112.0241         estimate D2E/DX2                !
 ! A149  A(18,48,57)           111.0581         estimate D2E/DX2                !
 ! A150  A(55,48,56)           107.2465         estimate D2E/DX2                !
 ! A151  A(55,48,57)           107.6965         estimate D2E/DX2                !
 ! A152  A(56,48,57)           107.8818         estimate D2E/DX2                !
 ! A153  A(20,50,58)           110.8155         estimate D2E/DX2                !
 ! A154  A(20,50,59)           111.5886         estimate D2E/DX2                !
 ! A155  A(20,50,60)           111.6413         estimate D2E/DX2                !
 ! A156  A(58,50,59)           107.5316         estimate D2E/DX2                !
 ! A157  A(58,50,60)           107.3845         estimate D2E/DX2                !
 ! A158  A(59,50,60)           107.6722         estimate D2E/DX2                !
 ! A159  L(4,1,11,6,-1)        185.8056         estimate D2E/DX2                !
 ! A160  L(5,1,12,7,-1)        184.6069         estimate D2E/DX2                !
 ! A161  L(6,1,13,4,-1)        175.8021         estimate D2E/DX2                !
 ! A162  L(7,1,9,4,-1)         178.7924         estimate D2E/DX2                !
 ! A163  L(8,1,10,5,-1)        181.8096         estimate D2E/DX2                !
 ! A164  L(2,30,29,28,-1)      175.0089         estimate D2E/DX2                !
 ! A165  L(3,30,28,29,-1)      175.0648         estimate D2E/DX2                !
 ! A166  L(4,1,11,6,-2)        176.5185         estimate D2E/DX2                !
 ! A167  L(5,1,12,7,-2)        173.464          estimate D2E/DX2                !
 ! A168  L(6,1,13,4,-2)        173.3891         estimate D2E/DX2                !
 ! A169  L(7,1,9,4,-2)         173.0668         estimate D2E/DX2                !
 ! A170  L(8,1,10,5,-2)        176.1406         estimate D2E/DX2                !
 ! A171  L(2,30,29,28,-2)      179.7292         estimate D2E/DX2                !
 ! A172  L(3,30,28,29,-2)      179.9104         estimate D2E/DX2                !
 ! D1    D(6,1,4,2)            156.4631         estimate D2E/DX2                !
 ! D2    D(7,1,4,2)           -160.3855         estimate D2E/DX2                !
 ! D3    D(9,1,4,2)             26.5477         estimate D2E/DX2                !
 ! D4    D(10,1,4,2)            59.1831         estimate D2E/DX2                !
 ! D5    D(12,1,4,2)           -52.9688         estimate D2E/DX2                !
 ! D6    D(13,1,4,2)           -16.9261         estimate D2E/DX2                !
 ! D7    D(2,4,11,39)         -170.0499         estimate D2E/DX2                !
 ! D8    D(7,1,5,22)           157.5451         estimate D2E/DX2                !
 ! D9    D(8,1,5,22)          -158.5117         estimate D2E/DX2                !
 ! D10   D(9,1,5,22)           -18.3772         estimate D2E/DX2                !
 ! D11   D(10,1,5,22)           25.3477         estimate D2E/DX2                !
 ! D12   D(11,1,5,22)           59.182          estimate D2E/DX2                !
 ! D13   D(13,1,5,22)          -56.1906         estimate D2E/DX2                !
 ! D14   D(22,5,12,40)        -168.3147         estimate D2E/DX2                !
 ! D15   D(4,1,6,23)          -157.09           estimate D2E/DX2                !
 ! D16   D(8,1,6,23)           158.1649         estimate D2E/DX2                !
 ! D17   D(9,1,6,23)           -59.6074         estimate D2E/DX2                !
 ! D18   D(10,1,6,23)          -17.7302         estimate D2E/DX2                !
 ! D19   D(11,1,6,23)           26.3915         estimate D2E/DX2                !
 ! D20   D(12,1,6,23)           63.6326         estimate D2E/DX2                !
 ! D21   D(23,6,13,27)        -168.1855         estimate D2E/DX2                !
 ! D22   D(4,1,7,24)           157.3815         estimate D2E/DX2                !
 ! D23   D(5,1,7,24)          -158.1287         estimate D2E/DX2                !
 ! D24   D(10,1,7,24)          -56.9431         estimate D2E/DX2                !
 ! D25   D(11,1,7,24)          -15.8321         estimate D2E/DX2                !
 ! D26   D(12,1,7,24)           28.4073         estimate D2E/DX2                !
 ! D27   D(13,1,7,24)           67.9334         estimate D2E/DX2                !
 ! D28   D(24,7,9,3)          -170.3594         estimate D2E/DX2                !
 ! D29   D(5,1,8,25)           158.8486         estimate D2E/DX2                !
 ! D30   D(6,1,8,25)          -157.3262         estimate D2E/DX2                !
 ! D31   D(9,1,8,25)            69.3441         estimate D2E/DX2                !
 ! D32   D(11,1,8,25)          -51.3166         estimate D2E/DX2                !
 ! D33   D(12,1,8,25)          -13.1372         estimate D2E/DX2                !
 ! D34   D(13,1,8,25)           30.6928         estimate D2E/DX2                !
 ! D35   D(25,8,10,26)        -166.1737         estimate D2E/DX2                !
 ! D36   D(4,1,9,3)             26.1882         estimate D2E/DX2                !
 ! D37   D(5,1,9,3)            -17.2835         estimate D2E/DX2                !
 ! D38   D(6,1,9,3)            -53.3084         estimate D2E/DX2                !
 ! D39   D(8,1,9,3)             58.936          estimate D2E/DX2                !
 ! D40   D(11,1,9,3)          -160.7324         estimate D2E/DX2                !
 ! D41   D(12,1,9,3)           156.1168         estimate D2E/DX2                !
 ! D42   D(4,1,10,26)           69.4974         estimate D2E/DX2                !
 ! D43   D(5,1,10,26)           30.7944         estimate D2E/DX2                !
 ! D44   D(6,1,10,26)          -13.0502         estimate D2E/DX2                !
 ! D45   D(7,1,10,26)          -51.2836         estimate D2E/DX2                !
 ! D46   D(12,1,10,26)        -157.2235         estimate D2E/DX2                !
 ! D47   D(13,1,10,26)         158.926          estimate D2E/DX2                !
 ! D48   D(5,1,11,39)           67.9552         estimate D2E/DX2                !
 ! D49   D(6,1,11,39)           28.4048         estimate D2E/DX2                !
 ! D50   D(7,1,11,39)          -15.8359         estimate D2E/DX2                !
 ! D51   D(8,1,11,39)          -57.0139         estimate D2E/DX2                !
 ! D52   D(9,1,11,39)          157.3625         estimate D2E/DX2                !
 ! D53   D(13,1,11,39)        -158.1448         estimate D2E/DX2                !
 ! D54   D(4,1,12,40)          -59.6019         estimate D2E/DX2                !
 ! D55   D(6,1,12,40)           63.6274         estimate D2E/DX2                !
 ! D56   D(7,1,12,40)           26.4072         estimate D2E/DX2                !
 ! D57   D(8,1,12,40)          -17.7221         estimate D2E/DX2                !
 ! D58   D(9,1,12,40)         -157.0935         estimate D2E/DX2                !
 ! D59   D(10,1,12,40)         158.215          estimate D2E/DX2                !
 ! D60   D(4,1,13,27)          -18.2853         estimate D2E/DX2                !
 ! D61   D(5,1,13,27)          -56.1187         estimate D2E/DX2                !
 ! D62   D(7,1,13,27)           59.3167         estimate D2E/DX2                !
 ! D63   D(8,1,13,27)           25.5031         estimate D2E/DX2                !
 ! D64   D(10,1,13,27)        -158.4165         estimate D2E/DX2                !
 ! D65   D(11,1,13,27)         157.6543         estimate D2E/DX2                !
 ! D66   D(14,2,4,1)           178.5104         estimate D2E/DX2                !
 ! D67   D(14,2,4,5)           -93.274          estimate D2E/DX2                !
 ! D68   D(14,2,4,8)            88.4635         estimate D2E/DX2                !
 ! D69   D(16,2,4,1)            75.4406         estimate D2E/DX2                !
 ! D70   D(16,2,4,5)           163.6562         estimate D2E/DX2                !
 ! D71   D(16,2,4,8)           -14.6063         estimate D2E/DX2                !
 ! D72   D(30,2,4,1)           -51.5585         estimate D2E/DX2                !
 ! D73   D(30,2,4,5)            36.657          estimate D2E/DX2                !
 ! D74   D(30,2,4,8)          -141.6054         estimate D2E/DX2                !
 ! D75   D(4,2,14,15)         -118.7563         estimate D2E/DX2                !
 ! D76   D(4,2,14,31)          123.5896         estimate D2E/DX2                !
 ! D77   D(4,2,14,32)            2.3195         estimate D2E/DX2                !
 ! D78   D(16,2,14,15)         -11.9679         estimate D2E/DX2                !
 ! D79   D(16,2,14,31)        -129.622          estimate D2E/DX2                !
 ! D80   D(16,2,14,32)         109.108          estimate D2E/DX2                !
 ! D81   D(30,2,14,15)         107.7488         estimate D2E/DX2                !
 ! D82   D(30,2,14,31)          -9.9053         estimate D2E/DX2                !
 ! D83   D(30,2,14,32)        -131.1753         estimate D2E/DX2                !
 ! D84   D(4,2,16,17)           97.2852         estimate D2E/DX2                !
 ! D85   D(4,2,16,33)          -21.5243         estimate D2E/DX2                !
 ! D86   D(4,2,16,34)         -142.2182         estimate D2E/DX2                !
 ! D87   D(14,2,16,17)         -10.5867         estimate D2E/DX2                !
 ! D88   D(14,2,16,33)        -129.3962         estimate D2E/DX2                !
 ! D89   D(14,2,16,34)         109.9099         estimate D2E/DX2                !
 ! D90   D(30,2,16,17)        -131.1959         estimate D2E/DX2                !
 ! D91   D(30,2,16,33)         109.9946         estimate D2E/DX2                !
 ! D92   D(30,2,16,34)         -10.6993         estimate D2E/DX2                !
 ! D93   D(4,2,30,3)            22.9774         estimate D2E/DX2                !
 ! D94   D(4,2,30,28)         -157.0893         estimate D2E/DX2                !
 ! D95   D(14,2,30,3)          148.843          estimate D2E/DX2                !
 ! D96   D(14,2,30,28)         -31.2237         estimate D2E/DX2                !
 ! D97   D(16,2,30,3)          -99.7371         estimate D2E/DX2                !
 ! D98   D(16,2,30,28)          80.1961         estimate D2E/DX2                !
 ! D99   D(18,3,9,1)           179.0373         estimate D2E/DX2                !
 ! D100  D(18,3,9,10)           88.5418         estimate D2E/DX2                !
 ! D101  D(18,3,9,13)          -92.915          estimate D2E/DX2                !
 ! D102  D(20,3,9,1)            77.7573         estimate D2E/DX2                !
 ! D103  D(20,3,9,10)          -12.7382         estimate D2E/DX2                !
 ! D104  D(20,3,9,13)          165.805          estimate D2E/DX2                !
 ! D105  D(30,3,9,1)           -51.3025         estimate D2E/DX2                !
 ! D106  D(30,3,9,10)         -141.798          estimate D2E/DX2                !
 ! D107  D(30,3,9,13)           36.7453         estimate D2E/DX2                !
 ! D108  D(9,3,18,19)          -79.4421         estimate D2E/DX2                !
 ! D109  D(9,3,18,47)          165.6601         estimate D2E/DX2                !
 ! D110  D(9,3,18,48)           44.3407         estimate D2E/DX2                !
 ! D111  D(20,3,18,19)          27.4209         estimate D2E/DX2                !
 ! D112  D(20,3,18,47)         -87.477          estimate D2E/DX2                !
 ! D113  D(20,3,18,48)         151.2036         estimate D2E/DX2                !
 ! D114  D(30,3,18,19)         148.0523         estimate D2E/DX2                !
 ! D115  D(30,3,18,47)          33.1544         estimate D2E/DX2                !
 ! D116  D(30,3,18,48)         -88.165          estimate D2E/DX2                !
 ! D117  D(9,3,20,21)           98.8989         estimate D2E/DX2                !
 ! D118  D(9,3,20,49)          -18.5726         estimate D2E/DX2                !
 ! D119  D(9,3,20,50)         -138.6749         estimate D2E/DX2                !
 ! D120  D(18,3,20,21)          -5.9645         estimate D2E/DX2                !
 ! D121  D(18,3,20,49)        -123.4359         estimate D2E/DX2                !
 ! D122  D(18,3,20,50)         116.4618         estimate D2E/DX2                !
 ! D123  D(30,3,20,21)        -128.1212         estimate D2E/DX2                !
 ! D124  D(30,3,20,49)         114.4074         estimate D2E/DX2                !
 ! D125  D(30,3,20,50)          -5.6949         estimate D2E/DX2                !
 ! D126  D(9,3,30,2)            22.825          estimate D2E/DX2                !
 ! D127  D(9,3,30,29)         -157.4396         estimate D2E/DX2                !
 ! D128  D(18,3,30,2)          146.3318         estimate D2E/DX2                !
 ! D129  D(18,3,30,29)         -33.9327         estimate D2E/DX2                !
 ! D130  D(20,3,30,2)         -102.1604         estimate D2E/DX2                !
 ! D131  D(20,3,30,29)          77.575          estimate D2E/DX2                !
 ! D132  D(2,4,5,6)           -176.8938         estimate D2E/DX2                !
 ! D133  D(2,4,5,22)            -0.0404         estimate D2E/DX2                !
 ! D134  D(8,4,5,6)              1.6818         estimate D2E/DX2                !
 ! D135  D(8,4,5,22)           178.5352         estimate D2E/DX2                !
 ! D136  D(2,4,8,7)            176.8497         estimate D2E/DX2                !
 ! D137  D(2,4,8,25)            -0.2965         estimate D2E/DX2                !
 ! D138  D(5,4,8,7)             -1.6658         estimate D2E/DX2                !
 ! D139  D(5,4,8,25)          -178.812          estimate D2E/DX2                !
 ! D140  D(4,5,6,7)             -1.0685         estimate D2E/DX2                !
 ! D141  D(4,5,6,23)           176.6015         estimate D2E/DX2                !
 ! D142  D(22,5,6,7)          -177.9293         estimate D2E/DX2                !
 ! D143  D(22,5,6,23)           -0.2593         estimate D2E/DX2                !
 ! D144  D(5,6,7,8)              0.0185         estimate D2E/DX2                !
 ! D145  D(5,6,7,24)           177.741          estimate D2E/DX2                !
 ! D146  D(23,6,7,8)          -177.6486         estimate D2E/DX2                !
 ! D147  D(23,6,7,24)            0.0739         estimate D2E/DX2                !
 ! D148  D(6,7,8,4)              1.0311         estimate D2E/DX2                !
 ! D149  D(6,7,8,25)           178.2065         estimate D2E/DX2                !
 ! D150  D(24,7,8,4)          -176.6937         estimate D2E/DX2                !
 ! D151  D(24,7,8,25)            0.4817         estimate D2E/DX2                !
 ! D152  D(3,9,10,11)          176.9092         estimate D2E/DX2                !
 ! D153  D(3,9,10,26)           -0.0945         estimate D2E/DX2                !
 ! D154  D(13,9,10,11)          -1.8429         estimate D2E/DX2                !
 ! D155  D(13,9,10,26)        -178.8467         estimate D2E/DX2                !
 ! D156  D(3,9,13,12)         -177.0458         estimate D2E/DX2                !
 ! D157  D(3,9,13,27)            0.2342         estimate D2E/DX2                !
 ! D158  D(10,9,13,12)           1.7655         estimate D2E/DX2                !
 ! D159  D(10,9,13,27)         179.0455         estimate D2E/DX2                !
 ! D160  D(9,10,11,12)           1.2373         estimate D2E/DX2                !
 ! D161  D(9,10,11,39)        -176.6582         estimate D2E/DX2                !
 ! D162  D(26,10,11,12)        178.2755         estimate D2E/DX2                !
 ! D163  D(26,10,11,39)          0.38           estimate D2E/DX2                !
 ! D164  D(10,11,12,13)         -0.1333         estimate D2E/DX2                !
 ! D165  D(10,11,12,40)       -177.8164         estimate D2E/DX2                !
 ! D166  D(39,11,12,13)        177.7605         estimate D2E/DX2                !
 ! D167  D(39,11,12,40)          0.0773         estimate D2E/DX2                !
 ! D168  D(11,12,13,9)          -1.0273         estimate D2E/DX2                !
 ! D169  D(11,12,13,27)       -178.308          estimate D2E/DX2                !
 ! D170  D(40,12,13,9)         176.6585         estimate D2E/DX2                !
 ! D171  D(40,12,13,27)         -0.6222         estimate D2E/DX2                !
 ! D172  D(2,14,15,17)          31.8652         estimate D2E/DX2                !
 ! D173  D(2,14,15,35)         -86.981          estimate D2E/DX2                !
 ! D174  D(2,14,15,36)         156.0815         estimate D2E/DX2                !
 ! D175  D(31,14,15,17)        150.2962         estimate D2E/DX2                !
 ! D176  D(31,14,15,35)         31.45           estimate D2E/DX2                !
 ! D177  D(31,14,15,36)        -85.4875         estimate D2E/DX2                !
 ! D178  D(32,14,15,17)        -89.6457         estimate D2E/DX2                !
 ! D179  D(32,14,15,35)        151.5081         estimate D2E/DX2                !
 ! D180  D(32,14,15,36)         34.5706         estimate D2E/DX2                !
 ! D181  D(2,14,32,41)        -179.8809         estimate D2E/DX2                !
 ! D182  D(2,14,32,42)          60.8525         estimate D2E/DX2                !
 ! D183  D(2,14,32,43)         -59.968          estimate D2E/DX2                !
 ! D184  D(15,14,32,41)        -63.9861         estimate D2E/DX2                !
 ! D185  D(15,14,32,42)        176.7472         estimate D2E/DX2                !
 ! D186  D(15,14,32,43)         55.9268         estimate D2E/DX2                !
 ! D187  D(31,14,32,41)         57.1623         estimate D2E/DX2                !
 ! D188  D(31,14,32,42)        -62.1043         estimate D2E/DX2                !
 ! D189  D(31,14,32,43)        177.0752         estimate D2E/DX2                !
 ! D190  D(14,15,17,16)        -43.0068         estimate D2E/DX2                !
 ! D191  D(14,15,17,37)         75.6099         estimate D2E/DX2                !
 ! D192  D(14,15,17,38)       -167.6297         estimate D2E/DX2                !
 ! D193  D(35,15,17,16)         75.8979         estimate D2E/DX2                !
 ! D194  D(35,15,17,37)       -165.4855         estimate D2E/DX2                !
 ! D195  D(35,15,17,38)        -48.725          estimate D2E/DX2                !
 ! D196  D(36,15,17,16)       -167.4415         estimate D2E/DX2                !
 ! D197  D(36,15,17,37)        -48.8249         estimate D2E/DX2                !
 ! D198  D(36,15,17,38)         67.9356         estimate D2E/DX2                !
 ! D199  D(2,16,17,15)          30.9522         estimate D2E/DX2                !
 ! D200  D(2,16,17,37)         -87.4776         estimate D2E/DX2                !
 ! D201  D(2,16,17,38)         155.3227         estimate D2E/DX2                !
 ! D202  D(33,16,17,15)        151.4089         estimate D2E/DX2                !
 ! D203  D(33,16,17,37)         32.9791         estimate D2E/DX2                !
 ! D204  D(33,16,17,38)        -84.2206         estimate D2E/DX2                !
 ! D205  D(34,16,17,15)        -87.1374         estimate D2E/DX2                !
 ! D206  D(34,16,17,37)        154.4328         estimate D2E/DX2                !
 ! D207  D(34,16,17,38)         37.2331         estimate D2E/DX2                !
 ! D208  D(2,16,34,44)         -61.5434         estimate D2E/DX2                !
 ! D209  D(2,16,34,45)          59.2513         estimate D2E/DX2                !
 ! D210  D(2,16,34,46)         178.8818         estimate D2E/DX2                !
 ! D211  D(17,16,34,44)         53.2409         estimate D2E/DX2                !
 ! D212  D(17,16,34,45)        174.0356         estimate D2E/DX2                !
 ! D213  D(17,16,34,46)        -66.3339         estimate D2E/DX2                !
 ! D214  D(33,16,34,44)        175.4743         estimate D2E/DX2                !
 ! D215  D(33,16,34,45)        -63.731          estimate D2E/DX2                !
 ! D216  D(33,16,34,46)         55.8995         estimate D2E/DX2                !
 ! D217  D(3,18,19,21)         -41.4124         estimate D2E/DX2                !
 ! D218  D(3,18,19,51)        -164.3278         estimate D2E/DX2                !
 ! D219  D(3,18,19,52)          77.7171         estimate D2E/DX2                !
 ! D220  D(47,18,19,21)         74.4833         estimate D2E/DX2                !
 ! D221  D(47,18,19,51)        -48.4321         estimate D2E/DX2                !
 ! D222  D(47,18,19,52)       -166.3872         estimate D2E/DX2                !
 ! D223  D(48,18,19,21)       -164.0555         estimate D2E/DX2                !
 ! D224  D(48,18,19,51)         73.0291         estimate D2E/DX2                !
 ! D225  D(48,18,19,52)        -44.926          estimate D2E/DX2                !
 ! D226  D(3,18,48,55)         176.1242         estimate D2E/DX2                !
 ! D227  D(3,18,48,56)         -64.1952         estimate D2E/DX2                !
 ! D228  D(3,18,48,57)          56.5137         estimate D2E/DX2                !
 ! D229  D(19,18,48,55)        -67.404          estimate D2E/DX2                !
 ! D230  D(19,18,48,56)         52.2766         estimate D2E/DX2                !
 ! D231  D(19,18,48,57)        172.9855         estimate D2E/DX2                !
 ! D232  D(47,18,48,55)         54.0474         estimate D2E/DX2                !
 ! D233  D(47,18,48,56)        173.7279         estimate D2E/DX2                !
 ! D234  D(47,18,48,57)        -65.5631         estimate D2E/DX2                !
 ! D235  D(18,19,21,20)         40.4157         estimate D2E/DX2                !
 ! D236  D(18,19,21,53)        164.4509         estimate D2E/DX2                !
 ! D237  D(18,19,21,54)        -79.4536         estimate D2E/DX2                !
 ! D238  D(51,19,21,20)        163.3412         estimate D2E/DX2                !
 ! D239  D(51,19,21,53)        -72.6237         estimate D2E/DX2                !
 ! D240  D(51,19,21,54)         43.4719         estimate D2E/DX2                !
 ! D241  D(52,19,21,20)        -78.9231         estimate D2E/DX2                !
 ! D242  D(52,19,21,53)         45.1121         estimate D2E/DX2                !
 ! D243  D(52,19,21,54)        161.2076         estimate D2E/DX2                !
 ! D244  D(3,20,21,19)         -18.0476         estimate D2E/DX2                !
 ! D245  D(3,20,21,53)        -141.9907         estimate D2E/DX2                !
 ! D246  D(3,20,21,54)         100.8982         estimate D2E/DX2                !
 ! D247  D(49,20,21,19)        100.0542         estimate D2E/DX2                !
 ! D248  D(49,20,21,53)        -23.889          estimate D2E/DX2                !
 ! D249  D(49,20,21,54)       -141.0            estimate D2E/DX2                !
 ! D250  D(50,20,21,19)       -138.491          estimate D2E/DX2                !
 ! D251  D(50,20,21,53)         97.5658         estimate D2E/DX2                !
 ! D252  D(50,20,21,54)        -19.5452         estimate D2E/DX2                !
 ! D253  D(3,20,50,58)         178.7721         estimate D2E/DX2                !
 ! D254  D(3,20,50,59)          58.9695         estimate D2E/DX2                !
 ! D255  D(3,20,50,60)         -61.5764         estimate D2E/DX2                !
 ! D256  D(21,20,50,58)        -64.0909         estimate D2E/DX2                !
 ! D257  D(21,20,50,59)        176.1066         estimate D2E/DX2                !
 ! D258  D(21,20,50,60)         55.5607         estimate D2E/DX2                !
 ! D259  D(49,20,50,58)         57.7279         estimate D2E/DX2                !
 ! D260  D(49,20,50,59)        -62.0746         estimate D2E/DX2                !
 ! D261  D(49,20,50,60)        177.3795         estimate D2E/DX2                !
 --------------------------------------------------------------------------------
 Trust Radius=3.00D-01 FncErr=1.00D-07 GrdErr=1.00D-06
 Number of steps in this run=    360 maximum allowed number of steps=    360.
 GradGradGradGradGradGradGradGradGradGradGradGradGradGradGradGradGradGrad

 Stoichiometry    C22H32Cl2FeP2Pd
 Framework group  C1[X(C22H32Cl2FeP2Pd)]
 Deg. of freedom   174
 Full point group                 C1      NOp   1
 Largest Abelian subgroup         C1      NOp   1
 Largest concise Abelian subgroup C1      NOp   1
                         Standard orientation:                         
 ---------------------------------------------------------------------
 Center     Atomic      Atomic             Coordinates (Angstroms)
 Number     Number       Type             X           Y           Z
 ---------------------------------------------------------------------
      1         26           0        0.538289    2.631201    0.005080
      2         15           0       -1.806692    0.128806   -0.061069
      3         15           0        1.740244   -0.582150    0.000767
      4          6           0       -1.161813    1.789888   -0.669534
      5          6           0       -0.246509    1.969335   -1.758112
      6          6           0        0.066799    3.359443   -1.878267
      7          6           0       -0.672799    4.062560   -0.877942
      8          6           0       -1.440294    3.101566   -0.143281
      9          6           0        1.782235    1.182598    0.647429
     10          6           0        2.547719    2.300139    0.157879
     11          6           0        2.201452    3.462728    0.920052
     12          6           0        1.242914    3.071224    1.904733
     13          6           0        0.999468    1.671391    1.744545
     14          6           0       -3.392795   -0.128418   -0.966050
     15          6           0       -4.432664   -0.202205    0.161889
     16          6           0       -2.491820    0.509794    1.594767
     17          6           0       -3.993668    0.691503    1.334275
     18          6           0        3.102405   -1.372732    0.936238
     19          6           0        4.336365   -0.904377    0.159995
     20          6           0        2.581247   -0.500464   -1.624861
     21          6           0        4.019981   -0.980418   -1.345171
     22          1           0        0.180771    1.178793   -2.355601
     23          1           0        0.769199    3.794567   -2.574546
     24          1           0       -0.630306    5.124707   -0.683479
     25          1           0       -2.080559    3.326521    0.696865
     26          1           0        3.231645    2.285361   -0.677799
     27          1           0        0.302461    1.087101    2.325510
     28         17           0       -2.254225   -3.174786   -0.096366
     29         17           0        0.882782   -3.803371   -0.055193
     30         46           0       -0.350406   -1.816785   -0.050407
     31          1           0       -3.378787   -1.067638   -1.519256
     32          6           0       -3.698713    1.003280   -1.959599
     33          1           0       -2.073684    1.422370    2.017594
     34          6           0       -2.190836   -0.654402    2.547134
     35          1           0       -4.497758   -1.232979    0.513094
     36          1           0       -5.430664    0.062600   -0.189130
     37          1           0       -4.177722    1.731724    1.061575
     38          1           0       -4.587864    0.497779    2.227973
     39          1           0        2.571591    4.464454    0.754904
     40          1           0        0.757702    3.723630    2.616472
     41          1           0       -4.641556    0.823071   -2.475671
     42          1           0       -2.922773    1.080538   -2.721600
     43          1           0       -3.778758    1.970822   -1.463853
     44          1           0       -2.655570   -1.581270    2.212091
     45          1           0       -1.118792   -0.831401    2.635736
     46          1           0       -2.571200   -0.445006    3.547234
     47          1           0        3.030564   -2.455771    0.848806
     48          6           0        3.102158   -1.003956    2.425572
     49          1           0        2.607606    0.527076   -1.984352
     50          6           0        1.840216   -1.362144   -2.654644
     51          1           0        5.215089   -1.498485    0.412578
     52          1           0        4.566699    0.128115    0.427555
     53          1           0        4.745723   -0.411364   -1.927075
     54          1           0        4.124842   -2.019961   -1.659200
     55          1           0        3.883541   -1.546393    2.957647
     56          1           0        3.282178    0.059675    2.583421
     57          1           0        2.149074   -1.254733    2.890942
     58          1           0        2.323098   -1.301026   -3.630309
     59          1           0        0.806860   -1.038701   -2.778919
     60          1           0        1.825466   -2.412474   -2.363805
 ---------------------------------------------------------------------
 Rotational constants (GHZ):      0.1502548      0.1437764      0.0935941
 General basis read from cards:  (6D, 7F)
 ======================================================================================================
                                       Pseudopotential Parameters
 ======================================================================================================
  Center     Atomic      Valence      Angular      Power
  Number     Number     Electrons     Momentum     of R      Exponent        Coefficient   SO-Coeffient
 ======================================================================================================
    1         26           16
                                      D and up 
                                                     1      392.6149787      -10.00000000    0.00000000
                                                     2       71.1756979      -63.26675180    0.00000000
                                                     2       17.7320281      -10.96133380    0.00000000
                                      S - D
                                                     0      126.0571895        3.00000000    0.00000000
                                                     1      138.1264251       18.17291370    0.00000000
                                                     2       54.2098858      339.12311640    0.00000000
                                                     2        9.2837966      317.10680120    0.00000000
                                                     2        8.6289082     -207.34216490    0.00000000
                                      P - D
                                                     0       83.1759490        5.00000000    0.00000000
                                                     1      106.0559938        5.95359300    0.00000000
                                                     2       42.8284937      294.26655270    0.00000000
                                                     2        8.7701805      154.42446350    0.00000000
                                                     2        8.0397818      -95.31642490    0.00000000
    2         15
                                   No pseudopotential on this center.
    3         15
                                   No pseudopotential on this center.
    4          6
                                   No pseudopotential on this center.
    5          6
                                   No pseudopotential on this center.
    6          6
                                   No pseudopotential on this center.
    7          6
                                   No pseudopotential on this center.
    8          6
                                   No pseudopotential on this center.
    9          6
                                   No pseudopotential on this center.
   10          6
                                   No pseudopotential on this center.
   11          6
                                   No pseudopotential on this center.
   12          6
                                   No pseudopotential on this center.
   13          6
                                   No pseudopotential on this center.
   14          6
                                   No pseudopotential on this center.
   15          6
                                   No pseudopotential on this center.
   16          6
                                   No pseudopotential on this center.
   17          6
                                   No pseudopotential on this center.
   18          6
                                   No pseudopotential on this center.
   19          6
                                   No pseudopotential on this center.
   20          6
                                   No pseudopotential on this center.
   21          6
                                   No pseudopotential on this center.
   22          1
                                   No pseudopotential on this center.
   23          1
                                   No pseudopotential on this center.
   24          1
                                   No pseudopotential on this center.
   25          1
                                   No pseudopotential on this center.
   26          1
                                   No pseudopotential on this center.
   27          1
                                   No pseudopotential on this center.
   28         17
                                   No pseudopotential on this center.
   29         17
                                   No pseudopotential on this center.
   30         46           18
                                      F and up 
                                                     0      598.3336444       -0.05631770    0.00000000
                                                     1      162.4298290      -20.12880360    0.00000000
                                                     2       51.5714771     -105.81979230    0.00000000
                                                     2       16.4888260      -42.57333450    0.00000000
                                                     2        5.8287656       -3.61650860    0.00000000
                                      S - F
                                                     0       73.3806304        3.00036510    0.00000000
                                                     1       14.7550438       32.43500930    0.00000000
                                                     2       17.8350204      459.08303830    0.00000000
                                                     2       12.7111477     -868.06290290    0.00000000
                                                     2        9.3292063      514.47260980    0.00000000
                                      P - F
                                                     0       55.6689877        4.95930990    0.00000000
                                                     1       64.2337771       21.17110290    0.00000000
                                                     2       17.6254952      605.05600920    0.00000000
                                                     2       11.9058155     -726.96418460    0.00000000
                                                     2        8.5100832      396.32748830    0.00000000
                                      D - F
                                                     0       49.9994728        3.05087450    0.00000000
                                                     1       39.7477547       22.25065800    0.00000000
                                                     2       11.4321366      674.83576980    0.00000000
                                                     2        9.1790080    -1040.85540480    0.00000000
                                                     2        7.5624429      505.93751470    0.00000000
   31          1
                                   No pseudopotential on this center.
   32          6
                                   No pseudopotential on this center.
   33          1
                                   No pseudopotential on this center.
   34          6
                                   No pseudopotential on this center.
   35          1
                                   No pseudopotential on this center.
   36          1
                                   No pseudopotential on this center.
   37          1
                                   No pseudopotential on this center.
   38          1
                                   No pseudopotential on this center.
   39          1
                                   No pseudopotential on this center.
   40          1
                                   No pseudopotential on this center.
   41          1
                                   No pseudopotential on this center.
   42          1
                                   No pseudopotential on this center.
   43          1
                                   No pseudopotential on this center.
   44          1
                                   No pseudopotential on this center.
   45          1
                                   No pseudopotential on this center.
   46          1
                                   No pseudopotential on this center.
   47          1
                                   No pseudopotential on this center.
   48          6
                                   No pseudopotential on this center.
   49          1
                                   No pseudopotential on this center.
   50          6
                                   No pseudopotential on this center.
   51          1
                                   No pseudopotential on this center.
   52          1
                                   No pseudopotential on this center.
   53          1
                                   No pseudopotential on this center.
   54          1
                                   No pseudopotential on this center.
   55          1
                                   No pseudopotential on this center.
   56          1
                                   No pseudopotential on this center.
   57          1
                                   No pseudopotential on this center.
   58          1
                                   No pseudopotential on this center.
   59          1
                                   No pseudopotential on this center.
   60          1
                                   No pseudopotential on this center.
 ======================================================================================================
 There are   518 symmetry adapted cartesian basis functions of A   symmetry.
 There are   518 symmetry adapted basis functions of A   symmetry.
   518 basis functions,  1053 primitive gaussians,   518 cartesian basis functions
   131 alpha electrons      131 beta electrons
       nuclear repulsion energy      4470.7621975035 Hartrees.
 NAtoms=   60 NActive=   60 NUniq=   60 SFac= 1.00D+00 NAtFMM=   60 NAOKFM=T Big=T
 Integral buffers will be    131072 words long.
 Raffenetti 2 integral format.
 Two-electron integral symmetry is turned on.
 Nuclear repulsion after empirical dispersion term =     4470.6518413807 Hartrees.
 Standard density basis: Auto (5D, 7F)
  2481 Density fitting functions
 There are  2481 symmetry adapted density basis functions of A   symmetry.
 One-electron integrals computed using PRISM.
   1 Symmetry operations used in ECPInt.
 ECPInt:  NShTT=   17766 NPrTT=  112280 LenC2=   15831 LenP2D=   56945.
 LDataN:  DoStor=T MaxTD1= 5 Len=  102
 NBasis=   518 RedAO= T EigKep=  7.91D-04  NBF=   518
 NBsUse=   518 1.00D-06 EigRej= -1.00D+00 NBFU=   518
 NBasis=      518 NBas6D=      518 NTT=      134421   NTT6D=   134421
 NDBShl=      495 NDBF=       2481 NDBF6D=     2993  NNucDB=        0
 IDenFi=        2 ISolve=        0 FullAP=F BlkAPC=T NucTyp=        0
 TolInv= 1.00D-06 TolIt=  1.00D-10 IR12=0.
 FoFCou: FMM=F IPFlag=           0 FMFlag=           0 FMFlg1=           0
         NFxFlg=           0 DoJE=F BraDBF=T KetDBF=T FulRan=T
         wScrn=  0.000000 ICntrl=     600 IOpCl=  3 I1Cent=           6 NGrid=           0
         NMat0=    1 NMatS0=   2993 NMatT0=    0 NMatD0=    1 NMtDS0=    0 NMtDT0=    0
 Petite list used in FoFCou.
 DBF EigKep=  1.32D-06 EigRej=  9.04D-07
 NDBF=   2481  NBFD=  2481
 NRank=  2479 NBFDU=  2479
 S*AI*S=  12.5958565591    
 Defaulting to unpruned grid for atomic number  46.
 ExpMin= 2.20D-02 ExpMax= 2.52D+04 ExpMxC= 3.78D+03 IAcc=3 IRadAn=         5 AccDes= 0.00D+00
 Harris functional with IExCor= 1009 and IRadAn=       5 diagonalized for initial guess.
 HarFok:  IExCor= 1009 AccDes= 0.00D+00 IRadAn=         5 IDoV= 1 UseB2=F ITyADJ=14
 ICtDFT=  3500011 ScaDFX=  1.000000  1.000000  1.000000  1.000000
 Defaulting to unpruned grid for atomic number  46.
 Defaulting to unpruned grid for atomic number  46.
 Defaulting to unpruned grid for atomic number  46.
 Defaulting to unpruned grid for atomic number  46.
 Defaulting to unpruned grid for atomic number  46.
 Defaulting to unpruned grid for atomic number  46.
 Defaulting to unpruned grid for atomic number  46.
 Defaulting to unpruned grid for atomic number  46.
 Defaulting to unpruned grid for atomic number  46.
 Defaulting to unpruned grid for atomic number  46.
 Defaulting to unpruned grid for atomic number  46.
 Defaulting to unpruned grid for atomic number  46.
 Defaulting to unpruned grid for atomic number  46.
 Defaulting to unpruned grid for atomic number  46.
 FoFCou: FMM=F IPFlag=           0 FMFlag=      100000 FMFlg1=        2001
         NFxFlg=           0 DoJE=T BraDBF=F KetDBF=T FulRan=T
         wScrn=  0.000000 ICntrl=     500 IOpCl=  0 I1Cent=   200000004 NGrid=           0
         NMat0=    1 NMatS0=      1 NMatT0=    0 NMatD0=    1 NMtDS0=    0 NMtDT0=    0
 Petite list used in FoFCou.
 Requested convergence on RMS density matrix=1.00D-08 within 500 cycles.
 Requested convergence on MAX density matrix=1.00D-06.
 Requested convergence on             energy=1.00D-06.
 No special actions if energy rises.
 FoFCou: FMM=F IPFlag=           0 FMFlag=      100000 FMFlg1=        2001
         NFxFlg=           0 DoJE=T BraDBF=T KetDBF=F FulRan=T
         wScrn=  0.000000 ICntrl=     500 IOpCl=  0 I1Cent=           5 NGrid=           0
         NMat0=    1 NMatS0=      1 NMatT0=    0 NMatD0=    1 NMtDS0=    0 NMtDT0=    0
 Symmetry not used in FoFCou.
 Defaulting to unpruned grid for atomic number  46.
 Defaulting to unpruned grid for atomic number  46.
 Defaulting to unpruned grid for atomic number  46.
 Defaulting to unpruned grid for atomic number  46.
 Defaulting to unpruned grid for atomic number  46.
 Defaulting to unpruned grid for atomic number  46.
 Defaulting to unpruned grid for atomic number  46.
 Defaulting to unpruned grid for atomic number  46.
 Defaulting to unpruned grid for atomic number  46.
 Defaulting to unpruned grid for atomic number  46.
 Defaulting to unpruned grid for atomic number  46.
 Defaulting to unpruned grid for atomic number  46.
 Defaulting to unpruned grid for atomic number  46.
 Defaulting to unpruned grid for atomic number  46.
 EnCoef did     1 forward-backward iterations
 EnCoef did   100 forward-backward iterations
 Problem detected with inexpensive integrals.
 Switching to full accuracy and repeating last cycle.
 EnCoef did     3 forward-backward iterations
 EnCoef did   100 forward-backward iterations
 EnCoef did   100 forward-backward iterations
 EnCoef did   100 forward-backward iterations
 EnCoef did   100 forward-backward iterations
 EnCoef did     9 forward-backward iterations
 EnCoef did     4 forward-backward iterations
 EnCoef did     5 forward-backward iterations
 EnCoef did     7 forward-backward iterations
 EnCoef did     7 forward-backward iterations
 EnCoef did     8 forward-backward iterations
 Restarting incremental Fock formation.
 EnCoef did   100 forward-backward iterations
 EnCoef did   100 forward-backward iterations
 EnCoef did   100 forward-backward iterations
 SCF Done:  E(RPBE-PBE) =  -2709.29240914     A.U. after   33 cycles
            NFock= 33  Conv=0.91D-08     -V/T= 2.0577

 **********************************************************************

            Population analysis using the SCF density.

 **********************************************************************

 Orbital symmetries:
       Occupied  (A) (A) (A) (A) (A) (A) (A) (A) (A) (A) (A) (A)
                 (A) (A) (A) (A) (A) (A) (A) (A) (A) (A) (A) (A)
                 (A) (A) (A) (A) (A) (A) (A) (A) (A) (A) (A) (A)
                 (A) (A) (A) (A) (A) (A) (A) (A) (A) (A) (A) (A)
                 (A) (A) (A) (A) (A) (A) (A) (A) (A) (A) (A) (A)
                 (A) (A) (A) (A) (A) (A) (A) (A) (A) (A) (A) (A)
                 (A) (A) (A) (A) (A) (A) (A) (A) (A) (A) (A) (A)
                 (A) (A) (A) (A) (A) (A) (A) (A) (A) (A) (A) (A)
                 (A) (A) (A) (A) (A) (A) (A) (A) (A) (A) (A) (A)
                 (A) (A) (A) (A) (A) (A) (A) (A) (A) (A) (A) (A)
                 (A) (A) (A) (A) (A) (A) (A) (A) (A) (A) (A)
       Virtual   (A) (A) (A) (A) (A) (A) (A) (A) (A) (A) (A) (A)
                 (A) (A) (A) (A) (A) (A) (A) (A) (A) (A) (A) (A)
                 (A) (A) (A) (A) (A) (A) (A) (A) (A) (A) (A) (A)
                 (A) (A) (A) (A) (A) (A) (A) (A) (A) (A) (A) (A)
                 (A) (A) (A) (A) (A) (A) (A) (A) (A) (A) (A) (A)
                 (A) (A) (A) (A) (A) (A) (A) (A) (A) (A) (A) (A)
                 (A) (A) (A) (A) (A) (A) (A) (A) (A) (A) (A) (A)
                 (A) (A) (A) (A) (A) (A) (A) (A) (A) (A) (A) (A)
                 (A) (A) (A) (A) (A) (A) (A) (A) (A) (A) (A) (A)
                 (A) (A) (A) (A) (A) (A) (A) (A) (A) (A) (A) (A)
                 (A) (A) (A) (A) (A) (A) (A) (A) (A) (A) (A) (A)
                 (A) (A) (A) (A) (A) (A) (A) (A) (A) (A) (A) (A)
                 (A) (A) (A) (A) (A) (A) (A) (A) (A) (A) (A) (A)
                 (A) (A) (A) (A) (A) (A) (A) (A) (A) (A) (A) (A)
                 (A) (A) (A) (A) (A) (A) (A) (A) (A) (A) (A) (A)
                 (A) (A) (A) (A) (A) (A) (A) (A) (A) (A) (A) (A)
                 (A) (A) (A) (A) (A) (A) (A) (A) (A) (A) (A) (A)
                 (A) (A) (A) (A) (A) (A) (A) (A) (A) (A) (A) (A)
                 (A) (A) (A) (A) (A) (A) (A) (A) (A) (A) (A) (A)
                 (A) (A) (A) (A) (A) (A) (A) (A) (A) (A) (A) (A)
                 (A) (A) (A) (A) (A) (A) (A) (A) (A) (A) (A) (A)
                 (A) (A) (A) (A) (A) (A) (A) (A) (A) (A) (A) (A)
                 (A) (A) (A) (A) (A) (A) (A) (A) (A) (A) (A) (A)
                 (A) (A) (A) (A) (A) (A) (A) (A) (A) (A) (A) (A)
                 (A) (A) (A) (A) (A) (A) (A) (A) (A) (A) (A) (A)
                 (A) (A) (A) (A) (A) (A) (A) (A) (A) (A) (A) (A)
                 (A) (A) (A) (A) (A) (A) (A) (A) (A) (A) (A) (A)
                 (A) (A) (A) (A) (A) (A) (A) (A) (A) (A) (A) (A)
                 (A) (A) (A) (A) (A) (A) (A) (A) (A) (A) (A) (A)
                 (A) (A) (A) (A) (A) (A) (A) (A) (A) (A) (A) (A)
                 (A) (A) (A) (A) (A) (A) (A) (A) (A) (A) (A) (A)
                 (A) (A) (A) (A) (A) (A) (A) (A) (A) (A) (A) (A)
                 (A) (A) (A)
 The electronic state is 1-A.
 Alpha  occ. eigenvalues -- -100.59729-100.59695 -76.36947 -76.36810  -9.94472
 Alpha  occ. eigenvalues --   -9.94465  -9.93755  -9.93715  -9.93610  -9.93610
 Alpha  occ. eigenvalues --   -9.93577  -9.93570  -9.93482  -9.93478  -9.92435
 Alpha  occ. eigenvalues --   -9.92419  -9.91520  -9.91394  -9.90794  -9.90762
 Alpha  occ. eigenvalues --   -9.90612  -9.89941  -9.89557  -9.89430  -9.88807
 Alpha  occ. eigenvalues --   -9.88750  -9.09259  -9.09226  -6.91583  -6.91553
 Alpha  occ. eigenvalues --   -6.90860  -6.90829  -6.90810  -6.90772  -6.34921
 Alpha  occ. eigenvalues --   -6.34796  -4.56789  -4.56655  -4.56626  -4.56502
 Alpha  occ. eigenvalues --   -4.56426  -4.56309  -3.29258  -3.19927  -2.14446
 Alpha  occ. eigenvalues --   -2.10233  -2.10093  -1.96770  -1.96721  -1.92803
 Alpha  occ. eigenvalues --   -0.84339  -0.82609  -0.77323  -0.77254  -0.70673
 Alpha  occ. eigenvalues --   -0.70580  -0.67938  -0.67771  -0.67022  -0.66929
 Alpha  occ. eigenvalues --   -0.65618  -0.65247  -0.64934  -0.64175  -0.60290
 Alpha  occ. eigenvalues --   -0.60243  -0.59343  -0.58615  -0.52451  -0.52241
 Alpha  occ. eigenvalues --   -0.51592  -0.51403  -0.50893  -0.50623  -0.50170
 Alpha  occ. eigenvalues --   -0.49950  -0.46757  -0.46157  -0.43523  -0.43339
 Alpha  occ. eigenvalues --   -0.42709  -0.42444  -0.40276  -0.39391  -0.39125
 Alpha  occ. eigenvalues --   -0.38646  -0.38194  -0.37764  -0.37453  -0.37282
 Alpha  occ. eigenvalues --   -0.37139  -0.36697  -0.36421  -0.36297  -0.36209
 Alpha  occ. eigenvalues --   -0.36136  -0.35662  -0.34623  -0.33981  -0.33635
 Alpha  occ. eigenvalues --   -0.33448  -0.33141  -0.31198  -0.30689  -0.30411
 Alpha  occ. eigenvalues --   -0.30147  -0.29908  -0.29865  -0.29650  -0.29544
 Alpha  occ. eigenvalues --   -0.29068  -0.28927  -0.28514  -0.27875  -0.27024
 Alpha  occ. eigenvalues --   -0.26945  -0.26808  -0.25254  -0.24949  -0.24146
 Alpha  occ. eigenvalues --   -0.23705  -0.23388  -0.23207  -0.19353  -0.18998
 Alpha  occ. eigenvalues --   -0.18797  -0.18647  -0.18423  -0.18369  -0.18056
 Alpha  occ. eigenvalues --   -0.17785
 Alpha virt. eigenvalues --   -0.09844  -0.07505  -0.07464  -0.03179  -0.02018
 Alpha virt. eigenvalues --   -0.01740  -0.00978  -0.00642   0.00175   0.00837
 Alpha virt. eigenvalues --    0.01048   0.01310   0.02410   0.02834   0.03747
 Alpha virt. eigenvalues --    0.04061   0.04306   0.04624   0.06785   0.06921
 Alpha virt. eigenvalues --    0.07547   0.07941   0.08606   0.08701   0.09279
 Alpha virt. eigenvalues --    0.09988   0.10427   0.10668   0.10926   0.11958
 Alpha virt. eigenvalues --    0.12179   0.12322   0.12549   0.12886   0.13168
 Alpha virt. eigenvalues --    0.13534   0.13906   0.14226   0.14622   0.14707
 Alpha virt. eigenvalues --    0.15107   0.15349   0.15431   0.15761   0.16134
 Alpha virt. eigenvalues --    0.16528   0.16881   0.16985   0.17136   0.17425
 Alpha virt. eigenvalues --    0.17896   0.18049   0.18266   0.18802   0.19001
 Alpha virt. eigenvalues --    0.19407   0.19792   0.20443   0.20710   0.20846
 Alpha virt. eigenvalues --    0.21015   0.21696   0.21849   0.22712   0.23084
 Alpha virt. eigenvalues --    0.23698   0.24557   0.25308   0.25605   0.26140
 Alpha virt. eigenvalues --    0.28301   0.29090   0.29351   0.30044   0.30635
 Alpha virt. eigenvalues --    0.31373   0.31945   0.32535   0.34419   0.34934
 Alpha virt. eigenvalues --    0.36348   0.37987   0.39228   0.39425   0.40587
 Alpha virt. eigenvalues --    0.41595   0.42245   0.43016   0.43592   0.44307
 Alpha virt. eigenvalues --    0.44586   0.46115   0.46341   0.47554   0.47795
 Alpha virt. eigenvalues --    0.48243   0.49090   0.50009   0.50266   0.50615
 Alpha virt. eigenvalues --    0.50809   0.51845   0.52325   0.53159   0.53277
 Alpha virt. eigenvalues --    0.53835   0.54689   0.54878   0.55688   0.56264
 Alpha virt. eigenvalues --    0.56517   0.56910   0.57485   0.58043   0.58385
 Alpha virt. eigenvalues --    0.59022   0.60437   0.60642   0.60749   0.61544
 Alpha virt. eigenvalues --    0.62084   0.62969   0.63476   0.63674   0.63915
 Alpha virt. eigenvalues --    0.64644   0.64889   0.65065   0.65681   0.66201
 Alpha virt. eigenvalues --    0.66785   0.67904   0.68703   0.69621   0.69700
 Alpha virt. eigenvalues --    0.70356   0.71146   0.71794   0.71995   0.72493
 Alpha virt. eigenvalues --    0.72652   0.73033   0.74122   0.74467   0.75065
 Alpha virt. eigenvalues --    0.75555   0.76528   0.76628   0.76740   0.76983
 Alpha virt. eigenvalues --    0.77426   0.77932   0.79012   0.79304   0.79449
 Alpha virt. eigenvalues --    0.80106   0.80497   0.80813   0.81759   0.82017
 Alpha virt. eigenvalues --    0.82584   0.82644   0.83359   0.83739   0.84130
 Alpha virt. eigenvalues --    0.84561   0.85100   0.85403   0.85853   0.85976
 Alpha virt. eigenvalues --    0.86583   0.87511   0.87982   0.88305   0.88792
 Alpha virt. eigenvalues --    0.88943   0.89095   0.89905   0.90471   0.91116
 Alpha virt. eigenvalues --    0.91464   0.92086   0.92244   0.92520   0.93115
 Alpha virt. eigenvalues --    0.93708   0.93907   0.94161   0.94583   0.94865
 Alpha virt. eigenvalues --    0.95254   0.95904   0.96295   0.96698   0.97527
 Alpha virt. eigenvalues --    0.98529   0.99077   0.99391   0.99989   1.00626
 Alpha virt. eigenvalues --    1.01205   1.01796   1.02617   1.03201   1.04089
 Alpha virt. eigenvalues --    1.04598   1.06398   1.07290   1.07425   1.08225
 Alpha virt. eigenvalues --    1.08821   1.09163   1.09671   1.10657   1.12052
 Alpha virt. eigenvalues --    1.12761   1.13003   1.13218   1.14693   1.16826
 Alpha virt. eigenvalues --    1.18456   1.20349   1.20442   1.21048   1.22495
 Alpha virt. eigenvalues --    1.23546   1.25235   1.26114   1.27169   1.27840
 Alpha virt. eigenvalues --    1.29128   1.29760   1.30812   1.31831   1.33845
 Alpha virt. eigenvalues --    1.35066   1.37668   1.38109   1.38923   1.40950
 Alpha virt. eigenvalues --    1.43018   1.43721   1.43932   1.44315   1.45439
 Alpha virt. eigenvalues --    1.47942   1.48436   1.49194   1.50996   1.53156
 Alpha virt. eigenvalues --    1.54053   1.56282   1.58648   1.61043   1.63049
 Alpha virt. eigenvalues --    1.64211   1.65247   1.66200   1.68088   1.68877
 Alpha virt. eigenvalues --    1.69981   1.70549   1.72214   1.73729   1.74752
 Alpha virt. eigenvalues --    1.76001   1.76889   1.77743   1.79999   1.81214
 Alpha virt. eigenvalues --    1.81525   1.82230   1.83509   1.84014   1.85583
 Alpha virt. eigenvalues --    1.85668   1.86137   1.86907   1.87508   1.88606
 Alpha virt. eigenvalues --    1.90179   1.92202   1.92753   1.93265   1.93620
 Alpha virt. eigenvalues --    1.94570   1.94968   1.95906   1.96236   1.96891
 Alpha virt. eigenvalues --    1.97324   1.97575   1.99560   2.00119   2.01402
[...]
 .00000827,-0.00000318,-0.00000113,-0.00001588,-0.00000012,0.00000274,-
 0.00000244,0.00000643,-0.00000296,-0.00001529,-0.00000042,0.00000279,-
 0.00000175,0.00000282,0.00000050,0.00000173,-0.00001987,0.00000829,-0.
 00001631,0.00000223,-0.00000415,0.00001706,-0.00000588,0.00001164,-0.0
 0000089,0.00000482,0.00000229,0.00001272,-0.00000087,-0.00001065,-0.00
 000566,-0.00000863,-0.00001544,-0.00001353,0.00000357,0.00001255,-0.00
 003662,-0.00000631,-0.00002559,-0.00013353,0.00011486,-0.00003768,0.00
 038419,0.00052815,0.00047209,-0.13716485,-0.01718467,0.12073753,0.0000
 0848,0.00000528,0.00005201,0.00002229,0.00003662,0.00003866,0.00012556
 ,-0.00021392,0.00024309,0.00007447,0.00012254,0.00011922,-0.00001131,-
 0.00001179,-0.00006687,0.00001032,0.00000612,0.00001599,-0.00000638,0.
 00000441,0.00000935,0.14702287,0.00001166,-0.00008155,0.00005131,0.000
 02172,-0.00015111,0.00006061,-0.00181033,-0.00133754,-0.00122332,-0.00
 006429,0.00001266,0.00001861,0.00001197,-0.00002942,0.00005306,0.00004
 469,0.00002426,-0.00005788,0.00000611,-0.00002873,0.00000111,0.0000088
 5,-0.00000621,-0.00003649,0.00035922,0.00017921,-0.00054547,0.00007391
 ,0.00013796,-0.00003594,-0.00000028,-0.00001288,-0.00000365,0.00005859
 ,0.00001140,-0.00005413,-0.00005933,-0.00022934,0.00002040,-0.00000508
 ,0.00004128,0.00001153,-0.00000025,0.00000256,-0.00000321,-0.00002246,
 0.00002711,-0.00002143,0.00000070,-0.00000390,0.00001594,0.00043996,0.
 00005047,-0.00063283,0.00028395,-0.00023892,0.00002298,0.00921070,0.00
 028156,-0.01471675,0.00057694,0.00051881,0.00042359,-0.00011892,0.0001
 8858,-0.00004420,0.00000934,-0.00002191,0.00000142,0.00000551,0.000000
 48,-0.00000696,0.00000448,-0.00000834,-0.00000154,-0.00001278,-0.00001
 371,0.00000519,-0.00001175,-0.00000092,-0.00000636,-0.00000973,-0.0000
 1719,0.00000321,-0.00005188,-0.00036012,0.00084354,0.00019161,0.000012
 80,-0.00005189,0.00001296,-0.00000312,0.00000779,-0.00001096,-0.000010
 76,0.00000493,-0.00001155,0.00001001,0.00001382,-0.00000390,0.00000617
 ,0.00000392,0.00000542,0.00000094,-0.00000143,-0.00000557,0.00000070,0
 .00000100,-0.00000438,0.00000297,-0.00000052,-0.00000783,0.00000053,0.
 00000016,0.00000285,-0.00000578,-0.00000349,0.00000421,-0.00003170,0.0
 0000488,-0.00000393,0.00000551,-0.00000514,0.00000074,-0.00000062,-0.0
 0000384,-0.00000364,0.00000485,-0.00000148,0.00001169,0.00000304,-0.00
 000619,-0.00000074,-0.00000774,-0.00000916,-0.00000832,0.00000466,0.00
 000507,-0.00010779,-0.00002695,-0.00006761,-0.00027081,0.00017446,-0.0
 0004701,0.00068632,0.00056240,0.00043782,-0.01748567,-0.04834365,0.024
 38246,-0.00000564,0.00001009,0.00007061,0.00000705,-0.00000578,-0.0000
 5255,-0.00020892,0.00005469,0.00012099,-0.00013693,-0.00007735,0.00025
 558,-0.00000404,-0.00003702,-0.00011045,0.00000989,-0.00000109,0.00001
 534,0.00000872,-0.00000363,0.00000519,0.02057329,0.04850819,0.00008896
 ,-0.00018973,0.00018286,-0.00023338,0.00006870,0.00000360,-0.00227326,
 -0.00233094,0.00003958,0.00004652,0.00002670,-0.00004813,-0.00002461,0
 .00005679,-0.00005734,-0.00003393,-0.00002193,0.00000636,0.00000908,-0
 .00000661,-0.00001196,-0.00000775,-0.00000536,0.00002830,0.00037485,0.
 00045642,-0.00120277,0.00006383,0.00016880,-0.00009635,0.00002248,-0.0
 0004127,0.00000037,0.00013122,0.00000163,-0.00008740,-0.00023559,-0.00
 039372,0.00005764,-0.00000448,-0.00003252,-0.00002514,0.00001425,-0.00
 000595,0.00001829,0.00003027,-0.00001674,0.00000950,-0.00000702,0.0000
 0102,-0.00001242,0.00056864,-0.00002001,-0.00062875,0.00008844,-0.0000
 0950,-0.00015559,0.01312490,0.00174730,-0.02187067,0.00121273,0.000229
 00,0.00129350,0.00005055,-0.00010639,-0.00005529,0.00000316,-0.0000186
 7,0.00000073,-0.00000265,-0.00000335,0.00000500,0.00000260,0.00000643,
 0.00000472,0.00000598,0.00000176,0.00000879,-0.00000730,0.00001014,0.0
 0000604,0.00012075,0.00012128,0.00003546,0.00000301,0.00010857,-0.0000
 8518,0.00002586,-0.00002164,-0.00017288,0.00000083,0.00001156,-0.00001
 525,0.00002820,0.00002451,-0.00001300,-0.00000111,0.00000499,0.0000026
 7,-0.00001097,0.00000391,0.00000569,-0.00001270,0.00000053,0.00000568,
 0.00001488,0.00000212,-0.00000317,0.00000105,-0.00000402,0.00000242,0.
 00001031,0.00000262,-0.00000292,0.00001796,-0.00002146,-0.00000124,0.0
 0001873,-0.00005320,0.00001654,0.00001102,-0.00000365,0.00001024,-0.00
 000660,-0.00001115,-0.00000190,-0.00000867,-0.00000226,0.00000386,-0.0
 0000244,0.00000245,0.00000762,0.00000902,-0.00000359,0.00000997,0.0000
 0940,-0.00000503,-0.00000876,-0.00007984,0.00000225,-0.00006254,-0.000
 49418,0.00018917,-0.00003054,0.00007203,-0.00000384,0.00095891,0.12122
 368,0.02436723,-0.20135251,-0.00005269,-0.00000637,0.00007837,0.000032
 35,0.00004111,0.00011380,-0.00079852,-0.00019447,-0.00014330,-0.000158
 92,0.00033756,-0.00015906,-0.00000312,-0.00004524,-0.00018137,0.000033
 61,-0.00001503,0.00001239,0.00000256,-0.00000021,0.00006605,-0.1312764
 4,-0.02322677,0.22164989,0.00006718,-0.00007241,0.00025834,-0.00004462
 ,0.00019980,0.00001322,-0.00056420,-0.00008783,0.00052110,0.00007610,0
 .00021001,-0.00009187,-0.00063020,0.00059453,0.00020502,-0.00017886,-0
 .00013609,0.00013179,0.00001757,0.00006197,-0.00001389,-0.00008184,0.0
 0001136,0.00014468,0.00019594,0.00010410,-0.00026614,0.00002044,0.0000
 1446,-0.00007386,0.00000019,0.00001807,0.00001851,0.00004703,0.0000127
 3,-0.00000670,-0.00011155,-0.00009778,0.00003105,0.00002059,-0.0000408
 5,-0.00000148,0.00001859,0.00000291,-0.00000427,0.00001576,-0.00004141
 ,-0.00000574,-0.00000251,0.00000025,0.00001186,-0.00028486,-0.00001902
 ,-0.00021990,-0.00058102,0.00027420,0.00047048,-0.00888239,0.00388024,
 -0.00118814,0.00069215,-0.00154538,-0.00276505,0.00039797,0.00033010,0
 .00003188,0.00001435,-0.00004806,-0.00000317,-0.00001840,0.00000840,0.
 00003912,-0.00000075,0.00003057,0.00003054,-0.00002873,0.00001960,-0.0
 0004587,-0.00001202,0.00000356,0.00000608,0.00007161,0.00006914,0.0000
 1035,0.00015171,0.00003806,-0.00013053,-0.00005192,-0.00007386,-0.0000
 5739,-0.00003666,0.00000599,-0.00002448,0.00001840,0.00000405,-0.00002
 522,0.00000357,-0.00000316,-0.00001301,-0.00002765,0.00001109,0.000010
 25,-0.00001267,-0.00000445,0.00001025,0.00000107,-0.00000046,-0.000002
 79,0.00000831,-0.00000481,-0.00000351,-0.00000350,-0.00000082,0.000002
 58,0.00000545,-0.00000462,-0.00000475,0.00000024,-0.00001102,0.0000089
 5,-0.00000047,-0.00000841,0.00000676,-0.00000284,0.00000294,0.00001341
 ,0.00000888,-0.00000138,0.00000354,0.00000668,-0.00000252,0.00000326,-
 0.00000010,-0.00000110,0.00000086,-0.00000049,-0.00000836,0.00000819,0
 .00002034,-0.00001685,-0.00000013,0.00010967,0.00005569,-0.00001040,0.
 00024111,-0.00032941,0.00015187,-0.25588508,0.07967956,-0.05648412,0.0
 0005251,0.00000189,-0.00033493,-0.00002501,-0.00006283,-0.00011502,0.0
 0020082,-0.00002982,0.00018030,0.00025626,-0.00024760,0.00018515,-0.00
 000181,-0.00001323,0.00001708,-0.00002384,-0.00001521,-0.00000356,0.00
 002536,-0.00000033,-0.00005599,-0.01621385,0.00678040,-0.00513649,0.27
 872908,-0.00010863,-0.00001415,0.00017830,-0.00006754,0.00035031,-0.00
 004498,0.00027004,0.00050998,-0.00010868,-0.00003485,0.00011719,-0.000
 06898,0.00063826,-0.00083593,-0.00053826,-0.00008598,-0.00006647,-0.00
 002011,0.00000334,0.00000121,0.00001548,-0.00004300,0.00004238,0.00010
 270,-0.00009455,-0.00006628,0.00008951,0.00003641,0.00000752,-0.000041
 21,0.00001466,-0.00004462,0.00001861,-0.00002473,0.00000394,0.00002069
 ,-0.00000348,0.00004104,0.00001771,0.00000105,-0.00001401,0.00000869,-
 0.00001989,-0.00001168,-0.00000677,0.00000484,-0.00004088,0.00002431,0
 .00000901,0.00000952,-0.00002257,-0.00010218,-0.00012727,0.00013536,-0
 .00100282,0.00074550,-0.00020314,-0.01633564,0.00479467,-0.00370283,-0
 .00014618,-0.00170241,-0.00266455,0.00080315,-0.00028452,-0.00039722,0
 .00001052,-0.00003197,0.00000811,-0.00000732,0.00000011,0.00002109,0.0
 0000671,0.00001806,0.00001863,-0.00003954,-0.00003713,-0.00001703,-0.0
 0000932,0.00000295,0.00001955,0.00002656,-0.00000164,-0.00011314,-0.00
 052212,-0.00002497,0.00040710,0.00030691,-0.00030907,0.00002291,-0.000
 04286,-0.00002316,0.00001318,-0.00001624,-0.00001636,0.00001151,0.0000
 1065,-0.00000982,-0.00002098,0.00000190,-0.00000416,-0.00001404,-0.000
 00002,-0.00000256,0.00000303,0.00000078,-0.00000171,0.00000147,0.00000
 225,-0.00000623,0.00000642,0.00000399,-0.00000490,-0.00000298,0.000005
 45,-0.00000138,-0.00000221,-0.00000416,-0.00000124,0.00000179,-0.00000
 570,-0.00000244,-0.00000023,-0.00000050,0.00003923,-0.00000087,0.00002
 690,-0.00001010,-0.00001655,-0.00001426,0.00000165,0.00001427,-0.00000
 340,0.00000048,0.00002417,0.00001090,-0.00000605,-0.00000227,0.0000239
 4,0.00001854,-0.00003451,0.00004466,0.00002027,0.00000371,0.00003619,0
 .00078256,0.00074768,0.08021875,-0.07424601,0.02111024,-0.00007623,-0.
 00006951,-0.00038968,0.00002135,-0.00001096,0.00014161,0.00015604,0.00
 004966,0.00011682,-0.00019766,0.00033308,-0.00015240,-0.00000545,-0.00
 000386,0.00002037,-0.00000969,-0.00000427,0.00000295,0.00000712,-0.000
 00082,-0.00000594,-0.00435548,0.00014665,-0.00096977,-0.08821982,0.078
 07626,0.00005225,0.00011394,0.00017007,0.00019212,0.00003854,-0.000003
 05,-0.00143830,0.00029702,0.00045852,-0.00003114,0.00017611,-0.0001252
 6,0.00025720,-0.00029619,-0.00047452,-0.00022979,-0.00016056,0.0001678
 2,-0.00000238,0.00010741,0.00004197,-0.00004751,0.00000760,0.00008731,
 0.00013843,0.00002754,0.00000573,-0.00003500,-0.00003968,0.00003484,-0
 .00000936,0.00005496,-0.00000322,0.00001374,0.00000200,0.00000648,-0.0
 0002981,-0.00001222,0.00001862,0.00001258,0.00000896,0.00002775,-0.000
 00726,0.00000972,-0.00001576,-0.00001327,-0.00000357,-0.00005271,0.000
 00816,-0.00001108,0.00003317,-0.00020196,0.00013096,0.00008343,-0.0016
 5776,0.00044879,0.00018637,-0.02211033,0.00981906,-0.00679819,-0.00021
 110,-0.00305335,-0.00350500,0.00066709,-0.00089587,0.00031486,0.000018
 97,0.00002679,0.00000497,-0.00000527,0.00001315,0.00003615,0.00000650,
 0.00002911,0.00002543,0.00000376,0.00002594,-0.00003160,-0.00000451,-0
 .00001000,-0.00001074,-0.00005281,-0.00003414,0.00000121,0.00034044,-0
 .00003706,-0.00014446,-0.00000948,0.00009365,0.00007163,-0.00000916,-0
 .00000026,0.00000216,-0.00000894,-0.00002266,-0.00000123,-0.00001041,0
 .00000203,0.00000671,-0.00001859,0.00001863,0.00002237,0.00000530,0.00
 000062,-0.00000198,-0.00001329,-0.00000171,0.00000317,0.00000597,0.000
 00179,-0.00000366,-0.00001780,-0.00000111,0.00000188,-0.00000454,0.000
 00661,-0.00000008,-0.00000736,0.00000637,-0.00000119,-0.00002093,-0.00
 000100,-0.00000283,0.00000817,0.00000693,0.00002030,0.00000843,-0.0000
 0023,0.00000157,0.00000979,0.00000067,-0.00000860,-0.00000634,-0.00000
 247,-0.00003371,-0.00000959,0.00000082,0.00001471,0.00003262,-0.000033
 09,0.00000799,0.00014961,0.00000935,0.00000869,0.00060241,0.00009484,0
 .00090410,-0.05567202,0.02095341,-0.05859655,-0.00007056,-0.00009383,-
 0.00064822,0.00001672,-0.00006029,-0.00001222,-0.00049538,-0.00021185,
 -0.00014287,0.00039470,-0.00019178,-0.00009246,0.00000545,-0.00000711,
 0.00005337,-0.00002926,-0.00000813,-0.00000812,0.00001024,-0.00000102,
 -0.00006236,0.02267662,-0.00931856,0.00682179,0.06313298,-0.01991008,0
 .06353981,-0.00003995,0.00000517,0.00018362,-0.00014470,0.00042785,-0.
 00017643,0.00047411,0.00055536,-0.00012286,0.00005521,0.00009819,-0.00
 006148,-0.00001366,-0.00006254,-0.00016328,-0.00012275,-0.00010191,0.0
 0008313,0.00000550,0.00003085,-0.00000029,-0.00004600,0.00002406,0.000
 11929,-0.00008815,-0.00010494,-0.00000611,-0.00003563,-0.00005460,-0.0
 0004240,0.00000176,0.00001168,-0.00000227,0.00000303,-0.00001694,-0.00
 000184,-0.00000878,0.00001116,0.00000909,-0.00000085,-0.00004675,-0.00
 000051,-0.00000655,-0.00001751,-0.00000100,0.00004318,-0.00005729,0.00
 001842,0.00000499,0.00000588,-0.00002461,-0.00000261,-0.00011362,0.000
 03528,0.00006062,0.00024645,-0.00020948,-0.00196325,-0.01107772,0.0022
 8973,0.00075040,-0.00173599,0.00062101,0.00037951,-0.00019911,-0.00017
 391,0.00000500,-0.00002277,-0.00000068,-0.00001141,0.00000258,0.000025
 07,0.00000248,0.00002821,0.00001778,0.00001289,0.00003003,-0.00002488,
 0.00000340,0.00001130,0.00001567,0.00008724,0.00004442,-0.00007244,-0.
 00072553,-0.00014559,0.00011619,-0.00027303,-0.00029111,0.00057309,-0.
 00003732,0.00000875,0.00000171,0.00002226,0.00001430,-0.00001418,0.000
 01906,-0.00001142,-0.00002710,-0.00001427,-0.00001635,0.00001004,-0.00
 000993,-0.00000002,0.00001198,0.00000979,-0.00000236,0.00000175,0.0000
 0604,-0.00000975,0.00000323,0.00000960,-0.00000147,-0.00000144,0.00000
 843,-0.00000839,0.00000126,0.00000635,-0.00000030,0.00000116,-0.000000
 61,-0.00000905,0.00000950,0.00000168,0.00001296,0.00001150,0.00001163,
 -0.00000939,-0.00000390,-0.00001660,0.00000617,0.00000955,0.00001578,0
 .00001038,0.00002628,0.00001908,-0.00001418,-0.00000396,0.00007361,0.0
 0004985,-0.00003566,-0.00005716,0.00000675,-0.00000068,-0.00034649,-0.
 00108635,-0.00182598,-0.04784268,-0.01862136,0.00447007,-0.00004622,0.
 00002402,0.00002610,-0.00003209,0.00009647,0.00014952,0.00004817,0.000
 08912,-0.00002920,-0.00044497,0.00044555,-0.00024530,-0.00001113,0.000
 00004,-0.00002124,-0.00000060,-0.00000439,0.00000335,-0.00000199,0.000
 00329,0.00003803,-0.00176400,-0.01897575,0.00339899,0.00221288,0.02889
 693,-0.00627905,0.04975523,0.00003156,0.00004177,-0.00003581,0.0000390
 9,-0.00011933,0.00007709,-0.00038676,-0.00031353,0.00035644,0.00005443
 ,-0.00003000,-0.00002072,-0.00003776,0.00005508,0.00004047,-0.00000167
 ,0.00001259,0.00000674,0.00000182,-0.00000207,-0.00000836,0.00000853,-
 0.00000907,-0.00000450,0.00010942,-0.00008670,0.00007252,-0.00005911,-
 0.00005817,0.00006602,-0.00001836,0.00007983,-0.00002152,0.00000991,-0
 .00000923,-0.00001664,0.00002181,0.00001998,-0.00000912,0.00000148,-0.
 00002373,-0.00002320,0.00000859,0.00000223,0.00000925,0.00000765,0.000
 01391,-0.00000007,-0.00000220,0.00000055,0.00000178,0.00007212,0.00005
 393,0.00000986,0.00009445,0.00026716,0.00003229,-0.00116486,-0.0156944
 7,0.00046030,0.00083461,0.00061108,0.00055178,-0.00004256,-0.00002820,
 -0.00002494,-0.00000629,0.00000823,-0.00000416,0.00000045,-0.00000062,
 -0.00000184,-0.00000010,-0.00000319,-0.00000421,0.00005940,0.00007996,
 -0.00002558,0.00000838,-0.00000144,-0.00000275,-0.00004536,-0.00004102
 ,-0.00000223,-0.00006287,-0.00176746,0.00142217,-0.00016333,0.00024926
 ,-0.00012238,0.00000493,0.00001221,-0.00001037,0.00000936,0.00001020,-
 0.00000645,-0.00000089,0.00000516,0.00000504,-0.00000338,-0.00000753,0
 .00000932,0.00000056,-0.00000152,0.00000247,0.00000478,0.00000178,-0.0
 0000314,-0.00000378,0.00000134,0.00000037,0.00000196,0.00000144,-0.000
 00077,-0.00000117,0.00000078,0.00000210,0.00000793,0.00000429,-0.00000
 633,0.00000405,-0.00000085,0.00000342,-0.00000004,-0.00001109,0.000000
 26,-0.00000693,0.00000294,0.00000237,0.00000135,0.00000521,0.00000454,
 -0.00000075,0.00001538,0.00000125,-0.00000516,0.00000446,-0.00000059,0
 .00004685,0.00005109,-0.00002301,-0.00000577,-0.00001561,0.00001687,-0
 .00125483,-0.00021375,-0.00232609,-0.01848193,-0.29396972,0.05619688,0
 .00000242,0.00002062,-0.00001581,0.00005476,0.00003737,0.00018346,0.00
 007794,0.00005439,0.00007966,-0.00069981,0.00044002,-0.00025237,0.0000
 0428,0.00000044,0.00000931,0.00000250,0.00000195,0.00000182,-0.0000043
 8,-0.00000069,0.00001123,0.00052830,0.00011200,-0.00020415,-0.00127677
 ,-0.00807423,0.00188558,0.02162115,0.31820459,0.00017470,0.00010709,-0
 .00010475,0.00015077,-0.00029897,0.00008172,-0.00059869,-0.00231035,0.
 00091915,-0.00016609,0.00008308,0.00004202,-0.00004853,-0.00001613,0.0
 0006782,0.00000783,0.00003384,0.00000095,-0.00000464,0.00002144,0.0000
 1700,0.00001722,-0.00001146,-0.00009005,0.00021951,0.00002535,0.000039
 74,-0.00011385,-0.00018444,0.00004755,0.00000269,0.00014461,-0.0000466
 8,0.00004313,-0.00003489,-0.00003126,0.00002035,-0.00000817,-0.0000201
 7,-0.00000906,0.00014309,0.00006537,-0.00003039,0.00000976,-0.00003219
 ,-0.00009961,0.00006640,-0.00004797,0.00000932,-0.00000603,0.00004745,
 0.00011394,0.00009653,-0.00001903,0.00007836,-0.00009536,0.00013818,-0
 .00233417,-0.02657934,0.00358168,0.00137313,-0.00048280,0.00062677,-0.
 00006162,0.00001503,-0.00005187,0.00000325,0.00000891,-0.00000523,0.00
 001240,0.00000825,-0.00000328,0.00000370,-0.00000807,-0.00000029,0.000
 06124,0.00020879,-0.00006904,0.00001065,-0.00001514,-0.00002350,0.0000
 0003,-0.00005688,-0.00005349,-0.00028108,0.00108431,-0.00047959,0.0008
 5104,-0.00025303,-0.00063016,0.00001496,-0.00001576,0.00003389,-0.0000
 4049,-0.00004569,0.00000981,-0.00002215,0.00000874,0.00002721,0.000020
 35,0.00001669,-0.00001661,0.00002041,0.00000737,-0.00000312,-0.0000239
 7,-0.00000256,0.00000670,-0.00000741,0.00000813,-0.00000833,-0.0000245
 4,-0.00000251,0.00000162,-0.00000251,0.00000423,0.00000099,0.00000836,
 0.00000483,-0.00001389,-0.00001945,0.00001569,-0.00001772,0.00001239,0
 .00001354,-0.00000617,-0.00000210,0.00000536,-0.00000313,0.00001040,-0
 .00000218,-0.00001343,-0.00000133,-0.00001982,-0.00002756,-0.00001626,
 0.00000730,0.00000992,-0.00014201,-0.00008070,-0.00011820,0.00004175,0
 .00003356,-0.00003034,-0.00248550,-0.00310345,-0.00408079,0.00458137,0
 .05936451,-0.05726443,0.00003110,0.00008834,-0.00003984,0.00003454,0.0
 0012912,0.00003833,0.00008032,0.00010227,0.00002861,-0.00036918,0.0005
 2266,0.00031908,-0.00000544,-0.00000442,0.00002064,0.00000127,0.000028
 33,0.00003166,0.00000170,-0.00001174,-0.00003009,0.00017817,0.02343420
 ,-0.00498118,0.00142895,0.00614402,-0.00240431,-0.00270921,-0.05834549
 ,0.06456389\\-0.00001312,0.00001922,-0.00001824,-0.00001465,-0.0000014
 9,0.00001663,0.00000809,0.00000177,-0.00000029,0.00001319,-0.00001050,
 0.00000142,-0.00000248,0.00000410,-0.00000139,0.00000618,-0.00000827,-
 0.00000242,-0.00000138,-0.00000173,0.00000558,-0.00000226,0.00000127,0
 .00000081,0.00000243,0.00000003,0.00001048,-0.00000528,-0.00001674,-0.
 00001413,-0.00000179,0.00000047,-0.00000235,0.00000339,0.00000319,-0.0
 0000206,-0.00000148,-0.00000393,-0.00000607,0.00001487,0.00000314,0.00
 000735,-0.00000145,-0.00000018,0.00000370,-0.00000257,0.00001465,-0.00
 001740,-0.00000019,0.00000230,0.00000563,-0.00000365,0.00000615,-0.000
 00482,0.00000193,-0.00000291,-0.00000426,-0.00001397,-0.00001041,-0.00
 000602,-0.00000027,-0.00000578,0.00000170,0.00000016,-0.00000374,0.000
 00407,-0.00000010,0.00000262,0.00000007,0.00000439,0.00000178,-0.00000
 310,0.00000357,0.00000243,0.00000085,0.00000551,0.00000502,0.00000182,
 0.00000265,0.00000162,0.00000297,-0.00000290,0.00000151,0.00000346,-0.
 00000415,0.00000437,0.00000447,0.00000065,-0.00000432,-0.00001052,-0.0
 0000133,-0.00000040,0.00000225,-0.00000457,0.00000161,-0.00000204,0.00
 000294,-0.00000091,0.00000480,-0.00000011,-0.00000476,0.00000873,-0.00
 000208,0.00000094,0.00000363,-0.00000087,0.00000316,0.00000358,0.00000
 024,0.00000265,0.00000012,0.00000127,0.00000439,0.00000423,0.00000421,
 0.00000022,-0.00000132,0.00000290,0.00000032,-0.00000016,-0.00000066,0
 .00000019,0.00000330,-0.00000014,0.00000008,0.00000126,0.00000013,0.00
 000243,0.00000298,0.00000044,0.00000245,0.00000179,0.00000102,0.000002
 85,0.00000015,0.00000076,0.00000358,0.00000205,0.00000166,-0.00000478,
 -0.00000060,0.00000045,-0.00000235,-0.00000351,0.00000285,0.00000168,-
 0.00000047,0.00000276,-0.00000026,0.00000016,-0.00000165,-0.00000415,-
 0.00000189,0.00000176,-0.00000231,-0.00000237,-0.00000046,-0.00000101,
 -0.00000235,-0.00000061,-0.00000333,-0.00000154,0.00000043,-0.00000022
 ,0.00000058,0.00000150,0.00000018,-0.00000077,0.00000011,-0.00000069,-
 0.00000119,-0.00000197,-0.00000211,-0.00000009,-0.00000289,-0.00000250
 ,0.00000011,-0.00000345,-0.00000260,0.00000060\\\@


 YOU CAN LEAD A BOY TO COLLEGE....
 BUT YOU CANNOT MAKE HIM THINK....
           ELBERT HUBBARD
 Job cpu time:       0 days  4 hours 58 minutes 58.3 seconds.
 File lengths (MBytes):  RWF=   2047 Int=      0 D2E=      0 Chk=     80 Scr=      1
 Normal termination of Gaussian 09 at Tue Nov 16 15:16:19 2021.
