 Entering Gaussian System, Link 0=g09
 Input=RR_Me_Ferrolane_3_SPE_NoPd.com
 Output=RR_Me_Ferrolane_3_SPE_NoPd.log
 Initial command:
 /gstore/apps/gaussian/g09.e01-foss-2017a/g09/l1.exe "/local/22791347/Gau-29973.inp" -scrdir="/local/22791347/"
 Entering Link 1 = /gstore/apps/gaussian/g09.e01-foss-2017a/g09/l1.exe PID=     29975.
  
 Copyright (c) 1988,1990,1992,1993,1995,1998,2003,2009,2015,
            Gaussian, Inc.  All Rights Reserved.
  
 This is part of the Gaussian(R) 09 program.  It is based on
 the Gaussian(R) 03 system (copyright 2003, Gaussian, Inc.),
 the Gaussian(R) 98 system (copyright 1998, Gaussian, Inc.),
 the Gaussian(R) 94 system (copyright 1995, Gaussian, Inc.),
 the Gaussian 92(TM) system (copyright 1992, Gaussian, Inc.),
 the Gaussian 90(TM) system (copyright 1990, Gaussian, Inc.),
 the Gaussian 88(TM) system (copyright 1988, Gaussian, Inc.),
 the Gaussian 86(TM) system (copyright 1986, Carnegie Mellon
 University), and the Gaussian 82(TM) system (copyright 1983,
 Carnegie Mellon University). Gaussian is a federally registered
 trademark of Gaussian, Inc.
  
 This software contains proprietary and confidential information,
 including trade secrets, belonging to Gaussian, Inc.
  
 This software is provided under written license and may be
 used, copied, transmitted, or stored only in accord with that
 written license.
  
 The following legend is applicable only to US Government
 contracts under FAR:
  
                    RESTRICTED RIGHTS LEGEND
  
 Use, reproduction and disclosure by the US Government is
 subject to restrictions as set forth in subparagraphs (a)
 and (c) of the Commercial Computer Software - Restricted
 Rights clause in FAR 52.227-19.
  
 Gaussian, Inc.
 340 Quinnipiac St., Bldg. 40, Wallingford CT 06492
  
  
 ---------------------------------------------------------------
 Warning -- This program may not be used in any manner that
 competes with the business of Gaussian, Inc. or will provide
 assistance to any competitor of Gaussian, Inc.  The licensee
 of this program is prohibited from giving any competitor of
 Gaussian, Inc. access to this program.  By using this program,
 the user acknowledges that Gaussian, Inc. is engaged in the
 business of creating and licensing software in the field of
 computational chemistry and represents and warrants to the
 licensee that it is not a competitor of Gaussian, Inc. and that
 it will not use this program in any manner prohibited above.
 ---------------------------------------------------------------
  

 Cite this work as:
 Gaussian 09, Revision E.01,
 M. J. Frisch, G. W. Trucks, H. B. Schlegel, G. E. Scuseria, 
 M. A. Robb, J. R. Cheeseman, G. Scalmani, V. Barone, B. Mennucci, 
 G. A. Petersson, H. Nakatsuji, M. Caricato, X. Li, H. P. Hratchian, 
 A. F. Izmaylov, J. Bloino, G. Zheng, J. L. Sonnenberg, M. Hada, 
 M. Ehara, K. Toyota, R. Fukuda, J. Hasegawa, M. Ishida, T. Nakajima, 
 Y. Honda, O. Kitao, H. Nakai, T. Vreven, J. A. Montgomery, Jr., 
 J. E. Peralta, F. Ogliaro, M. Bearpark, J. J. Heyd, E. Brothers, 
 K. N. Kudin, V. N. Staroverov, T. Keith, R. Kobayashi, J. Normand, 
 K. Raghavachari, A. Rendell, J. C. Burant, S. S. Iyengar, J. Tomasi, 
 M. Cossi, N. Rega, J. M. Millam, M. Klene, J. E. Knox, J. B. Cross, 
 V. Bakken, C. Adamo, J. Jaramillo, R. Gomperts, R. E. Stratmann, 
 O. Yazyev, A. J. Austin, R. Cammi, C. Pomelli, J. W. Ochterski, 
 R. L. Martin, K. Morokuma, V. G. Zakrzewski, G. A. Voth, 
 P. Salvador, J. J. Dannenberg, S. Dapprich, A. D. Daniels, 
 O. Farkas, J. B. Foresman, J. V. Ortiz, J. Cioslowski, 
 and D. J. Fox, Gaussian, Inc., Wallingford CT, 2013.
 
 ******************************************
 Gaussian 09:  ES64L-G09RevE.01 30-Nov-2015
                 5-Dec-2021 
 ******************************************
 %nprocs=14
 Will use up to   14 processors via shared memory.
 %mem=128GB
 %chk=RR_Me_Ferrolane_3_SPE_NoPd.chk
 ----------------------------------------------------------------------
 # PBE1PBE gen pseudo=read int=(grid=ultrafine) empiricaldispersion=GD3
 BJ nmr=giao
 ----------------------------------------------------------------------
 1/38=1/1;
 2/12=2,17=6,18=5,40=1/2;
 3/5=7,11=2,16=1,17=8,25=1,30=1,74=-13,75=-5,124=41/1,2,8,3;
 4//1;
 5/5=2,38=5/2;
 8/6=1,10=90,11=11/1;
 10/13=100,45=16/2;
 6/7=2,8=2,9=2,10=2,28=1/1;
 99/9=1/99;
 -----------------------
 RR_Me_Ferrolane_3 title
 -----------------------
 Symbolic Z-matrix:
 Charge =  0 Multiplicity = 1
 Fe                   -0.04105   2.61344  -0.02528 
 P                    -1.77664  -0.26719  -0.0335 
 P                     1.80004  -0.22246  -0.00208 
 C                    -1.53259   1.43108  -0.64212 
 C                    -0.68422   1.78458  -1.75851 
 C                    -0.6754    3.21282  -1.88705 
 C                    -1.52908   3.75748  -0.87075 
 C                    -2.06607   2.66778  -0.10632 
 C                     1.49797   1.4794    0.57758 
 C                     1.9834    2.74237   0.05764 
 C                     1.40372   3.80218   0.83323 
 C                     0.57232   3.21438   1.84372 
 C                     0.6352    1.78952   1.69737 
 C                    -3.35349  -0.84978  -0.90963 
 C                    -4.31432  -1.14511   0.26606 
 C                    -2.56247  -0.04181   1.66339 
 C                    -4.07989  -0.09871   1.37017 
 C                     3.28113  -0.71571   1.04871 
 C                     4.46672  -0.15649   0.23903 
 C                     2.7698   -0.03323  -1.60976 
 C                     4.20363  -0.4876   -1.23767 
 H                    -0.10448   1.07787  -2.35272 
 H                    -0.08221   3.78507  -2.60105 
 H                    -1.69727   4.81697  -0.67364 
 H                    -2.72413   2.76114   0.7578 
 H                     2.63453   2.87687  -0.80576 
 H                     0.09256   1.05299   2.29066 
 H                    -3.08664  -1.78641  -1.42255 
 C                    -3.91065   0.16852  -1.91131 
 H                    -2.26483   0.95533   2.03197 
 C                    -2.08885  -1.11216   2.65725 
 H                    -4.09414  -2.15463   0.65301 
 H                    -5.36272  -1.13817  -0.08344 
 H                    -4.43378   0.89222   1.02789 
 H                    -4.64118  -0.3433    2.29016 
 H                     1.53226   4.86929   0.64787 
 H                    -0.04067   3.7555    2.5653 
 H                    -4.80908  -0.25642  -2.39321 
 H                    -3.18352   0.40832  -2.7048 
 H                    -4.20163   1.11778  -1.42927 
 H                    -2.30449  -2.12921   2.29189 
 H                    -0.99675  -1.06003   2.8108 
 H                    -2.58797  -0.96452   3.63177 
 H                     3.28722  -1.81764   0.98479 
 C                     3.21888  -0.27922   2.51081 
 H                     2.77139   1.04846  -1.83523 
 C                     2.183    -0.79852  -2.79999 
 H                     5.41607  -0.59625   0.59501 
 H                     4.54027   0.93956   0.38584 
 H                     4.94287  -0.01929  -1.91173 
 H                     4.26639  -1.58162  -1.38005 
 H                     4.1164   -0.64037   3.04338 
 H                     3.18261   0.81898   2.61283 
 H                     2.33772  -0.70436   3.0214 
 H                     2.84116  -0.67869  -3.6795 
 H                     1.17932  -0.43424  -3.0773 
 H                     2.09525  -1.87139  -2.56369 
 
 Stoichiometry    C22H32FeP2
 Framework group  C1[X(C22H32FeP2)]
 Deg. of freedom   165
 Full point group                 C1      NOp   1
 Largest Abelian subgroup         C1      NOp   1
 Largest concise Abelian subgroup C1      NOp   1
                         Standard orientation:                         
 ---------------------------------------------------------------------
 Center     Atomic      Atomic             Coordinates (Angstroms)
 Number     Number       Type             X           Y           Z
 ---------------------------------------------------------------------
      1         26           0       -0.012444    1.711173   -0.221524
      2         15           0        1.768248   -1.098225    0.275224
      3         15           0       -1.807933   -1.122975    0.198328
      4          6           0        1.489124    0.671886    0.595993
      5          6           0        0.620215    1.187373    1.630537
      6          6           0        0.587043    2.617085    1.524262
      7          6           0        1.445692    3.004015    0.442004
      8          6           0        2.010184    1.814082   -0.128580
      9          6           0       -1.525006    0.466819   -0.647900
     10          6           0       -2.037371    1.788770   -0.346216
     11          6           0       -1.464073    2.718216   -1.277995
     12          6           0       -0.609856    1.988554   -2.170035
     13          6           0       -0.652156    0.605687   -1.793895
     14          6           0        3.342099   -1.502089    1.251628
     15          6           0        4.323341   -1.967844    0.150306
     16          6           0        2.573347   -1.138346   -1.427118
     17          6           0        4.087364   -1.119650   -1.112179
     18          6           0       -3.266655   -1.807157   -0.773850
     19          6           0       -4.471811   -1.144717   -0.079083
     20          6           0       -2.802273   -0.691667    1.743041
     21          6           0       -4.223559   -1.226066    1.434597
     22          1           0        0.043728    0.576690    2.325781
     23          1           0       -0.024752    3.287344    2.128906
     24          1           0        1.599752    4.020062    0.076526
     25          1           0        2.678332    1.777124   -0.989208
     26          1           0       -2.702195    2.050507    0.476599
     27          1           0       -0.089925   -0.207869   -2.253197
     28          1           0        3.083183   -2.347247    1.907559
     29          6           0        3.869448   -0.324435    2.079728
     30          1           0        2.264982   -0.220046   -1.956605
     31          6           0        2.130240   -2.364585   -2.238109
     32          1           0        4.124432   -3.030678   -0.069137
     33          1           0        5.366664   -1.885368    0.505288
     34          1           0        4.420849   -0.080046   -0.932331
     35          1           0        4.664872   -1.500815   -1.973829
     36          1           0       -1.611992    3.798805   -1.270592
     37          1           0        0.004218    2.415724   -2.963559
     38          1           0        4.767871   -0.649093    2.634163
     39          1           0        3.127919    0.028445    2.815577
     40          1           0        4.151869    0.538649    1.452471
     41          1           0        2.356977   -3.304509   -1.709431
     42          1           0        1.039637   -2.357640   -2.409888
     43          1           0        2.640133   -2.368810   -3.218213
     44          1           0       -3.256161   -2.883880   -0.531102
     45          6           0       -3.191504   -1.613665   -2.286815
     46          1           0       -2.824037    0.412110    1.789005
     47          6           0       -2.219617   -1.242235    3.048429
     48          1           0       -5.409168   -1.653449   -0.368791
     49          1           0       -4.560704   -0.088717   -0.403513
     50          1           0       -4.979186   -0.667450    2.015221
     51          1           0       -4.270917   -2.283217    1.752856
     52          1           0       -4.075891   -2.072695   -2.762988
     53          1           0       -3.171237   -0.546291   -2.566215
     54          1           0       -2.296879   -2.100531   -2.711671
     55          1           0       -2.891461   -0.992456    3.889458
     56          1           0       -1.225683   -0.819805    3.273421
     57          1           0       -2.111711   -2.337532    2.991273
 ---------------------------------------------------------------------
 Rotational constants (GHZ):      0.2721410      0.1557011      0.1402927
 General basis read from cards:  (5D, 7F)
 ======================================================================================================
                                       Pseudopotential Parameters
 ======================================================================================================
  Center     Atomic      Valence      Angular      Power
  Number     Number     Electrons     Momentum     of R      Exponent        Coefficient   SO-Coeffient
 ======================================================================================================
    1         26           16
                                      F and up 
                                                     2        1.0000000        0.00000000    0.00000000
                                      S - F
                                                     2       20.9300000      253.74958800    0.00000000
                                                     2        9.4450000       37.92284500    0.00000000
                                      P - F
                                                     2       21.7600000      161.03681200    0.00000000
                                                     2        9.1780000       27.65129800    0.00000000
                                      D - F
                                                     2       25.9000000      -24.43127600    0.00000000
                                                     2        8.8350000       -1.43425100    0.00000000
    2         15
                                   No pseudopotential on this center.
    3         15
                                   No pseudopotential on this center.
    4          6
                                   No pseudopotential on this center.
    5          6
                                   No pseudopotential on this center.
    6          6
                                   No pseudopotential on this center.
    7          6
                                   No pseudopotential on this center.
    8          6
                                   No pseudopotential on this center.
    9          6
                                   No pseudopotential on this center.
   10          6
                                   No pseudopotential on this center.
   11          6
                                   No pseudopotential on this center.
   12          6
                                   No pseudopotential on this center.
   13          6
                                   No pseudopotential on this center.
   14          6
                                   No pseudopotential on this center.
   15          6
                                   No pseudopotential on this center.
   16          6
                                   No pseudopotential on this center.
   17          6
                                   No pseudopotential on this center.
   18          6
                                   No pseudopotential on this center.
   19          6
                                   No pseudopotential on this center.
   20          6
                                   No pseudopotential on this center.
   21          6
                                   No pseudopotential on this center.
   22          1
                                   No pseudopotential on this center.
   23          1
                                   No pseudopotential on this center.
   24          1
                                   No pseudopotential on this center.
   25          1
                                   No pseudopotential on this center.
   26          1
                                   No pseudopotential on this center.
   27          1
                                   No pseudopotential on this center.
   28          1
                                   No pseudopotential on this center.
   29          6
                                   No pseudopotential on this center.
   30          1
                                   No pseudopotential on this center.
   31          6
                                   No pseudopotential on this center.
   32          1
                                   No pseudopotential on this center.
   33          1
                                   No pseudopotential on this center.
   34          1
                                   No pseudopotential on this center.
   35          1
                                   No pseudopotential on this center.
   36          1
                                   No pseudopotential on this center.
   37          1
                                   No pseudopotential on this center.
   38          1
                                   No pseudopotential on this center.
   39          1
                                   No pseudopotential on this center.
   40          1
                                   No pseudopotential on this center.
   41          1
                                   No pseudopotential on this center.
   42          1
                                   No pseudopotential on this center.
   43          1
                                   No pseudopotential on this center.
   44          1
                                   No pseudopotential on this center.
   45          6
                                   No pseudopotential on this center.
   46          1
                                   No pseudopotential on this center.
   47          6
                                   No pseudopotential on this center.
   48          1
                                   No pseudopotential on this center.
   49          1
                                   No pseudopotential on this center.
   50          1
                                   No pseudopotential on this center.
   51          1
                                   No pseudopotential on this center.
   52          1
                                   No pseudopotential on this center.
   53          1
                                   No pseudopotential on this center.
   54          1
                                   No pseudopotential on this center.
   55          1
                                   No pseudopotential on this center.
   56          1
                                   No pseudopotential on this center.
   57          1
                                   No pseudopotential on this center.
 ======================================================================================================
 There are  1117 symmetry adapted cartesian basis functions of A   symmetry.
 There are   991 symmetry adapted basis functions of A   symmetry.
   991 basis functions,  1591 primitive gaussians,  1117 cartesian basis functions
   105 alpha electrons      105 beta electrons
       nuclear repulsion energy      3041.6143436389 Hartrees.
 NAtoms=   57 NActive=   57 NUniq=   57 SFac= 1.00D+00 NAtFMM=   60 NAOKFM=F Big=F
 Integral buffers will be    131072 words long.
 Raffenetti 2 integral format.
 Two-electron integral symmetry is turned on.
 Nuclear repulsion after empirical dispersion term =     3041.5347135744 Hartrees.
 One-electron integrals computed using PRISM.
   1 Symmetry operations used in ECPInt.
 ECPInt:  NShTT=   84666 NPrTT=  251649 LenC2=   74601 LenP2D=  156702.
 LDataN:  DoStor=T MaxTD1= 6 Len=  172
 NBasis=   991 RedAO= T EigKep=  1.50D-05  NBF=   991
 NBsUse=   991 1.00D-06 EigRej= -1.00D+00 NBFU=   991
 ExpMin= 1.00D-02 ExpMax= 5.24D+04 ExpMxC= 1.79D+03 IAcc=3 IRadAn=         5 AccDes= 0.00D+00
 Harris functional with IExCor= 1009 and IRadAn=       5 diagonalized for initial guess.
 HarFok:  IExCor= 1009 AccDes= 0.00D+00 IRadAn=         5 IDoV= 1 UseB2=F ITyADJ=14
 ICtDFT=  3500011 ScaDFX=  1.000000  1.000000  1.000000  1.000000
 FoFCou: FMM=F IPFlag=           0 FMFlag=      100000 FMFlg1=           0
         NFxFlg=           0 DoJE=T BraDBF=F KetDBF=T FulRan=T
         wScrn=  0.000000 ICntrl=     500 IOpCl=  0 I1Cent=   200000004 NGrid=           0
         NMat0=    1 NMatS0=      1 NMatT0=    0 NMatD0=    1 NMtDS0=    0 NMtDT0=    0
 Petite list used in FoFCou.
 Requested convergence on RMS density matrix=1.00D-08 within 128 cycles.
 Requested convergence on MAX density matrix=1.00D-06.
 Requested convergence on             energy=1.00D-06.
 No special actions if energy rises.
 SCF Done:  E(RPBE1PBE) =  -1663.30577405     A.U. after   19 cycles
            NFock= 19  Conv=0.24D-08     -V/T= 2.0368
 DoSCS=F DFT=T ScalE2(SS,OS)=  1.000000  1.000000
 Range of M.O.s used for correlation:     1   991
 NBasis=   991 NAE=   105 NBE=   105 NFC=     0 NFV=     0
 NROrb=    991 NOA=   105 NOB=   105 NVA=   886 NVB=   886

 **** Warning!!: The largest alpha MO coefficient is  0.37807778D+02

          Differentiating once with respect to magnetic field using GIAOs.
          Electric field/nuclear overlap derivatives assumed to be zero.
 FoFCou: FMM=F IPFlag=           0 FMFlag=      100000 FMFlg1=           0
         NFxFlg=           0 DoJE=F BraDBF=F KetDBF=T FulRan=T
         wScrn=  0.000000 ICntrl=    6100 IOpCl=  0 I1Cent=           7 NGrid=          57
         NMat0=    1 NMatS0=      1 NMatT0=    0 NMatD0=    1 NMtDS0=    0 NMtDT0=    0
 Symmetry not used in FoFCou.
   1 Symmetry operations used in ECPInt.
 ECPInt:  NShTT=   84666 NPrTT=  251649 LenC2=   84667 LenP2D=  251649.
 LDataN:  DoStor=T MaxTD1= 7 Len=  274
 FoFJK:  IHMeth= 1 ICntrl=    6127 DoSepK=F KAlg= 0 I1Cent=   0 FoldK=F
 IRaf=         1 NMat=   1 IRICut=       1 DoRegI=T DoRafI=F ISym2E= 0.
          There are     3 degrees of freedom in the 1st order CPHF.  IDoFFX=0 NUNeed=     3.
      3 vectors produced by pass  0 Test12= 3.10D-12 3.33D-08 XBig12= 8.39D+01 1.47D+00.
 AX will form     3 AO Fock derivatives at one time.
      3 vectors produced by pass  1 Test12= 3.10D-12 3.33D-08 XBig12= 8.77D-01 5.78D-01.
      3 vectors produced by pass  2 Test12= 3.10D-12 3.33D-08 XBig12= 2.71D-02 3.06D-02.
      3 vectors produced by pass  3 Test12= 3.10D-12 3.33D-08 XBig12= 2.30D-04 5.14D-03.
      3 vectors produced by pass  4 Test12= 3.10D-12 3.33D-08 XBig12= 1.23D-05 1.20D-03.
      3 vectors produced by pass  5 Test12= 3.10D-12 3.33D-08 XBig12= 1.14D-07 7.05D-05.
      3 vectors produced by pass  6 Test12= 3.10D-12 3.33D-08 XBig12= 5.39D-10 7.18D-06.
      3 vectors produced by pass  7 Test12= 3.10D-12 3.33D-08 XBig12= 8.28D-12 1.30D-06.
      2 vectors produced by pass  8 Test12= 3.10D-12 3.33D-08 XBig12= 1.74D-13 1.18D-07.
 InvSVY:  IOpt=1 It=  1 EMax= 7.11D-15
 Solved reduced A of dimension    26 with     3 vectors.
 Calculating GIAO nuclear magnetic shielding tensors.
 SCF GIAO Magnetic shielding tensor (ppm):
      1  Fe   Isotropic = -5890.7649   Anisotropy =  7920.7716
   XX= -3803.9008   YX=   648.6394   ZX=  3866.2145
   XY=   629.4086   YY= -8533.3199   ZY=   515.5462
   XZ=  3731.4155   YZ=   499.6940   ZZ= -5335.0740
   Eigenvalues: -8618.1809 -8443.8632  -610.2505
      2  P    Isotropic =   288.5269   Anisotropy =    79.4567
   XX=   309.5152   YX=   -22.3995   ZX=    27.8624
   XY=   -28.0457   YY=   226.3372   ZY=    -5.3983
   XZ=     6.3153   YZ=     0.6406   ZZ=   329.7284
   Eigenvalues:   219.2368   304.8459   341.4980
      3  P    Isotropic =   297.2313   Anisotropy =    60.5791
   XX=   316.2087   YX=    -0.9851   ZX=    12.6984
   XY=    13.8310   YY=   250.0570   ZY=    35.0246
   XZ=     7.1228   YZ=    10.0551   ZZ=   325.4282
   Eigenvalues:   243.6533   310.4232   337.6174
      4  C    Isotropic =   103.0043   Anisotropy =    93.0990
   XX=   118.1001   YX=    26.9514   ZX=    39.6225
   XY=    19.2732   YY=    66.2201   ZY=    11.9694
   XZ=    34.3930   YZ=    14.2658   ZZ=   124.6927
   Eigenvalues:    57.3988    86.5438   165.0703
      5  C    Isotropic =   104.8500   Anisotropy =    84.0188
   XX=   137.0563   YX=    -1.2534   ZX=    38.3684
   XY=    -7.1979   YY=    95.8541   ZY=    28.7067
   XZ=    42.5358   YZ=    37.5695   ZZ=    81.6398
   Eigenvalues:    41.8045   111.8831   160.8626
      6  C    Isotropic =   108.7261   Anisotropy =    88.3224
   XX=   140.7985   YX=     6.4513   ZX=    38.2379
   XY=    15.0285   YY=    89.7643   ZY=   -22.4384
   XZ=    49.1111   YZ=   -28.2981   ZZ=    95.6154
   Eigenvalues:    50.1972   108.3733   167.6077
      7  C    Isotropic =   109.7018   Anisotropy =    88.2063
   XX=   134.5792   YX=   -28.9615   ZX=    36.5066
   XY=   -17.0648   YY=    61.3686   ZY=    11.2886
   XZ=    29.7059   YZ=     0.2476   ZZ=   133.1576
   Eigenvalues:    51.6985   108.9009   168.5060
      8  C    Isotropic =   111.6497   Anisotropy =    81.7819
   XX=    98.1169   YX=     5.6152   ZX=    64.5759
   XY=    -2.0207   YY=   117.6807   ZY=     7.5531
   XZ=    47.3267   YZ=     3.5403   ZZ=   119.1516
   Eigenvalues:    51.6323   117.1459   166.1710
      9  C    Isotropic =   103.5859   Anisotropy =    89.6201
   XX=   119.9142   YX=   -16.3578   ZX=    43.7292
   XY=    -9.9836   YY=    65.2430   ZY=     6.5581
   XZ=    36.7622   YZ=     5.1764   ZZ=   125.6005
   Eigenvalues:    57.5548    89.8702   163.3326
     10  C    Isotropic =   112.4763   Anisotropy =    83.6165
   XX=   100.7605   YX=    16.7245   ZX=    62.9312
   XY=    18.6799   YY=   113.2101   ZY=    -5.7607
   XZ=    45.3052   YZ=    -6.1665   ZZ=   123.4585
   Eigenvalues:    51.7965   117.4118   168.2207
     11  C    Isotropic =   110.3104   Anisotropy =    87.9627
   XX=   135.5314   YX=    38.3567   ZX=    24.3133
   XY=    25.6261   YY=    65.8271   ZY=    12.4430
   XZ=    22.7256   YZ=    23.8952   ZZ=   129.5725
   Eigenvalues:    52.3446   109.6343   168.9521
     12  C    Isotropic =   108.6294   Anisotropy =    88.0762
   XX=   140.7741   YX=     6.4428   ZX=    38.2700
   XY=     1.5778   YY=   106.2073   ZY=    18.6158
   XZ=    51.0225   YZ=    24.9292   ZZ=    78.9069
   Eigenvalues:    49.9639   108.5775   167.3469
     13  C    Isotropic =   104.0780   Anisotropy =    87.1724
   XX=   137.6909   YX=    13.0372   ZX=    37.7845
   XY=    19.0939   YY=    72.0494   ZY=   -25.0854
   XZ=    38.4915   YZ=   -35.2813   ZZ=   102.4937
   Eigenvalues:    40.8194   109.2216   162.1930
     14  C    Isotropic =   149.6875   Anisotropy =    22.8448
   XX=   162.1402   YX=    -8.9913   ZX=    -1.4584
   XY=   -11.2934   YY=   127.5591   ZY=     6.6364
   XZ=     2.5160   YZ=    -5.4086   ZZ=   159.3631
   Eigenvalues:   124.7885   159.3566   164.9173
     15  C    Isotropic =   148.2039   Anisotropy =    38.1711
   XX=   157.3992   YX=   -13.8513   ZX=   -10.4693
   XY=   -28.5407   YY=   122.9472   ZY=   -11.8837
   XZ=    -9.9261   YZ=     1.8834   ZZ=   164.2652
   Eigenvalues:   111.3390   159.6214   173.6512
     16  C    Isotropic =   148.1245   Anisotropy =    21.9210
   XX=   158.9951   YX=    -9.8900   ZX=    -3.7006
   XY=    -2.4490   YY=   131.6219   ZY=     1.2608
   XZ=    -6.2635   YZ=    -3.6462   ZZ=   153.7564
   Eigenvalues:   130.0824   151.5526   162.7384
     17  C    Isotropic =   149.2614   Anisotropy =    34.3461
   XX=   171.6086   YX=    -4.6724   ZX=    -3.4104
   XY=    -4.9345   YY=   124.3509   ZY=   -11.7211
   XZ=     4.6343   YZ=     0.9154   ZZ=   151.8247
   Eigenvalues:   122.8905   152.7348   172.1588
     18  C    Isotropic =   145.2878   Anisotropy =    22.1774
   XX=   156.3089   YX=     3.5049   ZX=   -12.0961
   XY=     1.5265   YY=   129.6500   ZY=     6.8035
   XZ=    -0.2709   YZ=     0.4231   ZZ=   149.9043
   Eigenvalues:   128.5500   147.2406   160.0727
     19  C    Isotropic =   146.2412   Anisotropy =    31.5706
   XX=   157.6400   YX=    -2.1862   ZX=    -9.4444
   XY=   -12.5773   YY=   117.8311   ZY=     2.7148
   XZ=     0.8963   YZ=    10.1215   ZZ=   163.2524
   Eigenvalues:   115.8445   155.5908   167.2882
     20  C    Isotropic =   148.1216   Anisotropy =    27.2498
   XX=   165.6262   YX=     2.6939   ZX=     3.9660
   XY=     7.0948   YY=   124.0804   ZY=     9.8261
   XZ=    -7.5848   YZ=     4.2428   ZZ=   154.6584
   Eigenvalues:   121.9283   156.1485   166.2882
     21  C    Isotropic =   145.5718   Anisotropy =    33.1645
   XX=   156.2966   YX=     8.0225   ZX=    12.9888
   XY=    13.6755   YY=   118.0260   ZY=    -6.2916
   XZ=     1.4702   YZ=     2.9894   ZZ=   162.3928
   Eigenvalues:   114.9099   154.1240   167.6815
     22  H    Isotropic =    27.4624   Anisotropy =     6.4955
   XX=    28.7496   YX=     1.9370   ZX=    -2.4222
   XY=     2.5383   YY=    26.5783   ZY=    -0.5403
   XZ=    -3.1014   YZ=    -1.0367   ZZ=    27.0593
   Eigenvalues:    24.5952    25.9993    31.7927
     23  H    Isotropic =    27.4100   Anisotropy =     7.5559
   XX=    25.7740   YX=    -1.1109   ZX=    -1.9718
   XY=    -1.5359   YY=    29.4595   ZY=     3.1191
   XZ=    -2.3842   YZ=     3.2052   ZZ=    26.9967
   Eigenvalues:    23.8974    25.8854    32.4473
     24  H    Isotropic =    27.4348   Anisotropy =     8.4954
   XX=    25.0692   YX=     1.5217   ZX=    -0.9228
   XY=     1.3220   YY=    32.5824   ZY=    -1.4015
   XZ=    -0.8930   YZ=    -1.2464   ZZ=    24.6528
   Eigenvalues:    23.9262    25.2798    33.0984
     25  H    Isotropic =    27.7416   Anisotropy =     3.6115
   XX=    26.8874   YX=    -0.6017   ZX=    -3.6621
   XY=    -0.1917   YY=    30.1000   ZY=    -0.6094
   XZ=    -3.0069   YZ=    -0.1572   ZZ=    26.2373
   Eigenvalues:    23.1684    29.9071    30.1492
     26  H    Isotropic =    27.6972   Anisotropy =     3.9252
   XX=    26.8600   YX=    -0.5304   ZX=    -3.8905
   XY=    -0.9223   YY=    29.8306   ZY=    -0.3488
   XZ=    -3.1443   YZ=    -0.4690   ZZ=    26.4010
   Eigenvalues:    23.0128    29.7648    30.3140
     27  H    Isotropic =    27.5090   Anisotropy =     5.7189
   XX=    29.4998   YX=    -1.8406   ZX=    -1.3889
   XY=    -2.6899   YY=    27.1090   ZY=     0.2379
   XZ=    -1.7261   YZ=     0.6568   ZZ=    25.9182
   Eigenvalues:    25.1754    26.0300    31.3215
     28  H    Isotropic =    29.1976   Anisotropy =     9.0873
   XX=    26.9918   YX=     0.1082   ZX=    -0.4235
   XY=     0.7768   YY=    30.9439   ZY=    -4.4064
   XZ=    -0.7892   YZ=    -5.2893   ZZ=    29.6571
   Eigenvalues:    25.3926    26.9444    35.2558
     29  C    Isotropic =   167.0061   Anisotropy =    19.4982
   XX=   172.6642   YX=     2.0294   ZX=     9.2026
   XY=    -3.6015   YY=   164.3662   ZY=    12.3590
   XZ=     7.6747   YZ=     9.2718   ZZ=   163.9880
   Eigenvalues:   151.2265   169.7869   180.0049
     30  H    Isotropic =    28.6052   Anisotropy =     7.0655
   XX=    26.9763   YX=    -3.6003   ZX=     0.4968
   XY=    -3.0487   YY=    31.2856   ZY=    -1.3339
   XZ=     0.4212   YZ=    -0.7465   ZZ=    27.5537
   Eigenvalues:    25.1654    27.3348    33.3155
     31  C    Isotropic =   164.5263   Anisotropy =    33.7003
   XX=   162.4274   YX=     2.7436   ZX=    -5.4205
   XY=     7.5369   YY=   161.9510   ZY=    23.1394
   XZ=    -5.4693   YZ=    19.0142   ZZ=   169.2005
   Eigenvalues:   141.5381   165.0477   186.9931
     32  H    Isotropic =    29.3462   Anisotropy =     9.9960
   XX=    26.5485   YX=    -3.7719   ZX=    -0.1351
   XY=    -3.5780   YY=    34.4599   ZY=     0.7488
   XZ=    -0.0544   YZ=     1.2789   ZZ=    27.0303
   Eigenvalues:    25.0624    26.9661    36.0102
     33  H    Isotropic =    29.8080   Anisotropy =    11.8515
   XX=    35.9268   YX=    -3.4051   ZX=     2.1089
   XY=    -4.6016   YY=    25.5312   ZY=    -0.4761
   XZ=     1.7569   YZ=    -0.7098   ZZ=    27.9661
   Eigenvalues:    24.1671    27.5480    37.7090
     34  H    Isotropic =    29.4022   Anisotropy =     7.3331
   XX=    31.3024   YX=     2.6891   ZX=    -1.7793
   XY=     3.0146   YY=    31.1098   ZY=    -1.1993
   XZ=    -0.0461   YZ=    -0.9463   ZZ=    25.7945
   Eigenvalues:    25.5566    28.3590    34.2909
     35  H    Isotropic =    29.8310   Anisotropy =    11.2077
   XX=    32.6377   YX=    -1.8863   ZX=    -5.5951
   XY=    -0.8261   YY=    25.0218   ZY=     0.9552
   XZ=    -4.1076   YZ=     0.7155   ZZ=    31.8336
   Eigenvalues:    24.7875    27.4028    37.3028
     36  H    Isotropic =    27.4448   Anisotropy =     8.5721
   XX=    25.0127   YX=    -1.7886   ZX=    -0.3755
   XY=    -1.5666   YY=    32.6209   ZY=    -1.2516
   XZ=    -0.3935   YZ=    -1.4602   ZZ=    24.7007
   Eigenvalues:    23.9348    25.2400    33.1595
     37  H    Isotropic =    27.4034   Anisotropy =     7.4477
   XX=    25.7253   YX=     0.4010   ZX=    -2.1858
   XY=     0.6064   YY=    27.3629   ZY=    -3.2384
   XZ=    -2.8013   YZ=    -3.1591   ZZ=    29.1220
   Eigenvalues:    23.8720    25.9697    32.3685
     38  H    Isotropic =    30.8158   Anisotropy =    13.2343
   XX=    33.7464   YX=    -2.3042   ZX=     6.3848
   XY=    -0.2033   YY=    26.8926   ZY=     0.6186
   XZ=     7.0915   YZ=    -0.2460   ZZ=    31.8084
   Eigenvalues:    25.3507    27.4580    39.6386
     39  H    Isotropic =    31.0214   Anisotropy =     6.6599
   XX=    31.6230   YX=    -4.2583   ZX=     1.1476
   XY=    -3.0852   YY=    26.9726   ZY=     3.9839
   XZ=     0.6942   YZ=     1.6975   ZZ=    34.4686
   Eigenvalues:    24.1181    33.4848    35.4613
     40  H    Isotropic =    30.9469   Anisotropy =     4.2648
   XX=    32.2000   YX=     0.2912   ZX=     1.6246
   XY=     1.9721   YY=    32.3648   ZY=    -1.0010
   XZ=     4.0129   YZ=    -1.8790   ZZ=    28.2758
   Eigenvalues:    26.2703    32.7802    33.7901
     41  H    Isotropic =    30.1456   Anisotropy =     7.7501
   XX=    27.2594   YX=    -0.3452   ZX=     0.8903
   XY=    -0.2178   YY=    35.1968   ZY=     0.7468
   XZ=     1.2216   YZ=     1.0710   ZZ=    27.9805
   Eigenvalues:    26.4375    28.6869    35.3123
     42  H    Isotropic =    29.7867   Anisotropy =     7.8858
   XX=    34.4202   YX=     0.1094   ZX=     1.5804
   XY=     1.3030   YY=    27.6279   ZY=     3.5485
   XZ=     1.4380   YZ=     3.4256   ZZ=    27.3120
   Eigenvalues:    23.9434    30.3727    35.0439
     43  H    Isotropic =    30.2661   Anisotropy =    12.0269
   XX=    27.4818   YX=     0.1473   ZX=    -2.6696
   XY=    -0.8909   YY=    27.2755   ZY=     4.7092
   XZ=    -3.1346   YZ=     3.1134   ZZ=    36.0411
   Eigenvalues:    25.4405    27.0738    38.2840
     44  H    Isotropic =    29.7471   Anisotropy =     8.6097
   XX=    26.8644   YX=     2.3822   ZX=     0.2962
   XY=     1.1267   YY=    35.0857   ZY=     1.0958
   XZ=    -0.1789   YZ=     0.0842   ZZ=    27.2913
   Eigenvalues:    26.5007    27.2537    35.4869
     45  C    Isotropic =   169.7846   Anisotropy =    19.3390
   XX=   160.4616   YX=    -0.8583   ZX=    -1.1429
   XY=     2.6582   YY=   166.9115   ZY=     3.8561
   XZ=    -3.5735   YZ=     1.6336   ZZ=   181.9807
   Eigenvalues:   159.9919   166.6848   182.6773
     46  H    Isotropic =    28.8235   Anisotropy =     5.4179
   XX=    26.2707   YX=     1.1521   ZX=    -2.6931
   XY=     1.0446   YY=    32.1579   ZY=     0.1968
   XZ=    -1.6300   YZ=    -0.5173   ZZ=    28.0419
   Eigenvalues:    24.7278    29.3073    32.4354
     47  C    Isotropic =   163.5615   Anisotropy =    27.2782
   XX=   158.0867   YX=     0.2691   ZX=     6.3794
   XY=    -1.2806   YY=   156.5894   ZY=    -8.4672
   XZ=    10.5289   YZ=    -7.7055   ZZ=   176.0083
   Eigenvalues:   152.0526   156.8848   181.7469
     48  H    Isotropic =    29.6934   Anisotropy =    12.1085
   XX=    36.4245   YX=     3.8914   ZX=     1.6299
   XY=     2.6083   YY=    25.1269   ZY=     0.9963
   XZ=     2.1051   YZ=     2.0161   ZZ=    27.5287
   Eigenvalues:    23.9632    27.3512    37.7657
     49  H    Isotropic =    30.1267   Anisotropy =     5.2375
   XX=    32.2483   YX=    -1.1596   ZX=    -0.0660
   XY=    -1.8464   YY=    30.7312   ZY=    -2.0469
   XZ=     1.7858   YZ=    -1.3698   ZZ=    27.4007
   Eigenvalues:    26.6715    30.0903    33.6184
     50  H    Isotropic =    29.2003   Anisotropy =    10.7617
   XX=    33.3094   YX=    -1.4395   ZX=    -4.5546
   XY=    -0.9875   YY=    25.1441   ZY=     1.1661
   XZ=    -4.0560   YZ=     2.5507   ZZ=    29.1474
   Eigenvalues:    24.3774    26.8487    36.3748
     51  H    Isotropic =    30.2585   Anisotropy =     9.0837
   XX=    29.5090   YX=     4.3777   ZX=    -1.4051
   XY=     4.0527   YY=    31.1555   ZY=    -3.8211
   XZ=    -0.2956   YZ=    -3.0083   ZZ=    30.1111
   Eigenvalues:    25.4029    29.0584    36.3143
     52  H    Isotropic =    30.4924   Anisotropy =    12.6909
   XX=    31.3839   YX=     4.3026   ZX=     4.0362
   XY=     3.4750   YY=    27.3986   ZY=     2.9554
   XZ=     5.0452   YZ=     4.0023   ZZ=    32.6948
   Eigenvalues:    24.9337    27.5905    38.9531
     53  H    Isotropic =    31.3088   Anisotropy =     6.1751
   XX=    29.7598   YX=     4.7464   ZX=     3.1101
   XY=     2.5790   YY=    32.3671   ZY=    -1.6852
   XZ=     3.2617   YZ=    -0.1825   ZZ=    31.7995
   Eigenvalues:    25.5617    32.9392    35.4256
     54  H    Isotropic =    30.3670   Anisotropy =     9.1458
   XX=    31.2363   YX=    -0.1319   ZX=    -2.2342
   XY=    -1.4621   YY=    27.7649   ZY=     3.6730
   XZ=    -3.2156   YZ=     5.5467   ZZ=    32.0999
   Eigenvalues:    24.7312    29.9057    36.4642
     55  H    Isotropic =    29.9449   Anisotropy =    11.2942
   XX=    28.1279   YX=    -0.7996   ZX=    -2.7034
   XY=    -0.3658   YY=    25.3154   ZY=    -0.1533
   XZ=    -3.6290   YZ=     0.4671   ZZ=    36.3914
   Eigenvalues:    25.1726    27.1877    37.4743
     56  H    Isotropic =    29.5938   Anisotropy =     7.2317
   XX=    32.7003   YX=     3.1249   ZX=     1.7210
   XY=     2.8205   YY=    25.4865   ZY=    -1.2202
   XZ=     2.2973   YZ=    -1.0415   ZZ=    30.5946
   Eigenvalues:    23.9459    30.4206    34.4150
     57  H    Isotropic =    30.2097   Anisotropy =     7.9419
   XX=    27.5089   YX=    -1.3187   ZX=     0.1280
   XY=    -1.2095   YY=    33.5039   ZY=    -2.9248
   XZ=     0.3721   YZ=    -3.5037   ZZ=    29.6163
   Eigenvalues:    27.0968    28.0280    35.5043
 End of Minotr F.D. properties file   721 does not exist.
 End of Minotr F.D. properties file   722 does not exist.
 End of Minotr F.D. properties file   788 does not exist.

 **********************************************************************

            Population analysis using the SCF density.

 **********************************************************************

 Orbital symmetries:
       Occupied  (A) (A) (A) (A) (A) (A) (A) (A) (A) (A) (A) (A)
                 (A) (A) (A) (A) (A) (A) (A) (A) (A) (A) (A) (A)
                 (A) (A) (A) (A) (A) (A) (A) (A) (A) (A) (A) (A)
                 (A) (A) (A) (A) (A) (A) (A) (A) (A) (A) (A) (A)
                 (A) (A) (A) (A) (A) (A) (A) (A) (A) (A) (A) (A)
                 (A) (A) (A) (A) (A) (A) (A) (A) (A) (A) (A) (A)
                 (A) (A) (A) (A) (A) (A) (A) (A) (A) (A) (A) (A)
                 (A) (A) (A) (A) (A) (A) (A) (A) (A) (A) (A) (A)
                 (A) (A) (A) (A) (A) (A) (A) (A) (A)
       Virtual   (A) (A) (A) (A) (A) (A) (A) (A) (A) (A) (A) (A)
                 (A) (A) (A) (A) (A) (A) (A) (A) (A) (A) (A) (A)
                 (A) (A) (A) (A) (A) (A) (A) (A) (A) (A) (A) (A)
                 (A) (A) (A) (A) (A) (A) (A) (A) (A) (A) (A) (A)
                 (A) (A) (A) (A) (A) (A) (A) (A) (A) (A) (A) (A)
                 (A) (A) (A) (A) (A) (A) (A) (A) (A) (A) (A) (A)
                 (A) (A) (A) (A) (A) (A) (A) (A) (A) (A) (A) (A)
                 (A) (A) (A) (A) (A) (A) (A) (A) (A) (A) (A) (A)
                 (A) (A) (A) (A) (A) (A) (A) (A) (A) (A) (A) (A)
                 (A) (A) (A) (A) (A) (A) (A) (A) (A) (A) (A) (A)
                 (A) (A) (A) (A) (A) (A) (A) (A) (A) (A) (A) (A)
                 (A) (A) (A) (A) (A) (A) (A) (A) (A) (A) (A) (A)
                 (A) (A) (A) (A) (A) (A) (A) (A) (A) (A) (A) (A)
                 (A) (A) (A) (A) (A) (A) (A) (A) (A) (A) (A) (A)
                 (A) (A) (A) (A) (A) (A) (A) (A) (A) (A) (A) (A)
                 (A) (A) (A) (A) (A) (A) (A) (A) (A) (A) (A) (A)
                 (A) (A) (A) (A) (A) (A) (A) (A) (A) (A) (A) (A)
                 (A) (A) (A) (A) (A) (A) (A) (A) (A) (A) (A) (A)
                 (A) (A) (A) (A) (A) (A) (A) (A) (A) (A) (A) (A)
                 (A) (A) (A) (A) (A) (A) (A) (A) (A) (A) (A) (A)
                 (A) (A) (A) (A) (A) (A) (A) (A) (A) (A) (A) (A)
                 (A) (A) (A) (A) (A) (A) (A) (A) (A) (A) (A) (A)
                 (A) (A) (A) (A) (A) (A) (A) (A) (A) (A) (A) (A)
                 (A) (A) (A) (A) (A) (A) (A) (A) (A) (A) (A) (A)
                 (A) (A) (A) (A) (A) (A) (A) (A) (A) (A) (A) (A)
                 (A) (A) (A) (A) (A) (A) (A) (A) (A) (A) (A) (A)
                 (A) (A) (A) (A) (A) (A) (A) (A) (A) (A) (A) (A)
                 (A) (A) (A) (A) (A) (A) (A) (A) (A) (A) (A) (A)
                 (A) (A) (A) (A) (A) (A) (A) (A) (A) (A) (A) (A)
                 (A) (A) (A) (A) (A) (A) (A) (A) (A) (A) (A) (A)
                 (A) (A) (A) (A) (A) (A) (A) (A) (A) (A) (A) (A)
                 (A) (A) (A) (A) (A) (A) (A) (A) (A) (A) (A) (A)
                 (A) (A) (A) (A) (A) (A) (A) (A) (A) (A) (A) (A)
                 (A) (A) (A) (A) (A) (A) (A) (A) (A) (A) (A) (A)
                 (A) (A) (A) (A) (A) (A) (A) (A) (A) (A) (A) (A)
                 (A) (A) (A) (A) (A) (A) (A) (A) (A) (A) (A) (A)
                 (A) (A) (A) (A) (A) (A) (A) (A) (A) (A) (A) (A)
                 (A) (A) (A) (A) (A) (A) (A) (A) (A) (A) (A) (A)
                 (A) (A) (A) (A) (A) (A) (A) (A) (A) (A) (A) (A)
                 (A) (A) (A) (A) (A) (A) (A) (A) (A) (A) (A) (A)
                 (A) (A) (A) (A) (A) (A) (A) (A) (A) (A) (A) (A)
                 (A) (A) (A) (A) (A) (A) (A) (A) (A) (A) (A) (A)
                 (A) (A) (A) (A) (A) (A) (A) (A) (A) (A) (A) (A)
                 (A) (A) (A) (A) (A) (A) (A) (A) (A) (A) (A) (A)
                 (A) (A) (A) (A) (A) (A) (A) (A) (A) (A) (A) (A)
                 (A) (A) (A) (A) (A) (A) (A) (A) (A) (A) (A) (A)
                 (A) (A) (A) (A) (A) (A) (A) (A) (A) (A) (A) (A)
                 (A) (A) (A) (A) (A) (A) (A) (A) (A) (A) (A) (A)
                 (A) (A) (A) (A) (A) (A) (A) (A) (A) (A) (A) (A)
                 (A) (A) (A) (A) (A) (A) (A) (A) (A) (A) (A) (A)
                 (A) (A) (A) (A) (A) (A) (A) (A) (A) (A) (A) (A)
                 (A) (A) (A) (A) (A) (A) (A) (A) (A) (A) (A) (A)
                 (A) (A) (A) (A) (A) (A) (A) (A) (A) (A) (A) (A)
                 (A) (A) (A) (A) (A) (A) (A) (A) (A) (A) (A) (A)
                 (A) (A) (A) (A) (A) (A) (A) (A) (A) (A) (A) (A)
                 (A) (A) (A) (A) (A) (A) (A) (A) (A) (A) (A) (A)
                 (A) (A) (A) (A) (A) (A) (A) (A) (A) (A) (A) (A)
                 (A) (A) (A) (A) (A) (A) (A) (A) (A) (A) (A) (A)
                 (A) (A) (A) (A) (A) (A) (A) (A) (A) (A) (A) (A)
                 (A) (A) (A) (A) (A) (A) (A) (A) (A) (A) (A) (A)
                 (A) (A) (A) (A) (A) (A) (A) (A) (A) (A) (A) (A)
                 (A) (A) (A) (A) (A) (A) (A) (A) (A) (A) (A) (A)
                 (A) (A) (A) (A) (A) (A) (A) (A) (A) (A) (A) (A)
                 (A) (A) (A) (A) (A) (A) (A) (A) (A) (A) (A) (A)
                 (A) (A) (A) (A) (A) (A) (A) (A) (A) (A) (A) (A)
                 (A) (A) (A) (A) (A) (A) (A) (A) (A) (A) (A) (A)
                 (A) (A) (A) (A) (A) (A) (A) (A) (A) (A) (A) (A)
                 (A) (A) (A) (A) (A) (A) (A) (A) (A) (A) (A) (A)
                 (A) (A) (A) (A) (A) (A) (A) (A) (A) (A) (A) (A)
                 (A) (A) (A) (A) (A) (A) (A) (A) (A) (A) (A) (A)
                 (A) (A) (A) (A) (A) (A) (A) (A) (A) (A) (A) (A)
                 (A) (A) (A) (A) (A) (A) (A) (A) (A) (A) (A) (A)
                 (A) (A) (A) (A) (A) (A) (A) (A) (A) (A) (A) (A)
                 (A) (A) (A) (A) (A) (A) (A) (A) (A) (A)
 The electronic state is 1-A.
 Alpha  occ. eigenvalues --  -77.17799 -77.17668 -10.23827 -10.23805 -10.23804
 Alpha  occ. eigenvalues --  -10.23757 -10.23745 -10.23733 -10.23621 -10.23609
 Alpha  occ. eigenvalues --  -10.23594 -10.23502 -10.22987 -10.22843 -10.22426
 Alpha  occ. eigenvalues --  -10.22319 -10.22099 -10.21998 -10.21847 -10.21756
 Alpha  occ. eigenvalues --  -10.21388 -10.21270 -10.20993 -10.20661  -6.57456
 Alpha  occ. eigenvalues --   -6.57327  -4.71059  -4.71003  -4.70926  -4.70885
 Alpha  occ. eigenvalues --   -4.70577  -4.70441  -3.60103  -2.24678  -2.20404
 Alpha  occ. eigenvalues --   -2.20398  -0.91575  -0.89562  -0.84610  -0.84509
 Alpha  occ. eigenvalues --   -0.78278  -0.77893  -0.74331  -0.74133  -0.73310
 Alpha  occ. eigenvalues --   -0.73270  -0.72738  -0.72196  -0.66159  -0.65270
 Alpha  occ. eigenvalues --   -0.65206  -0.65104  -0.57942  -0.57327  -0.56537
 Alpha  occ. eigenvalues --   -0.56408  -0.55548  -0.55449  -0.55253  -0.54112
 Alpha  occ. eigenvalues --   -0.50361  -0.49650  -0.48306  -0.47450  -0.46179
 Alpha  occ. eigenvalues --   -0.45827  -0.43938  -0.43874  -0.42806  -0.42523
 Alpha  occ. eigenvalues --   -0.42280  -0.42036  -0.41676  -0.41283  -0.40802
 Alpha  occ. eigenvalues --   -0.40644  -0.40189  -0.39763  -0.39517  -0.39468
 Alpha  occ. eigenvalues --   -0.39293  -0.38971  -0.37549  -0.37026  -0.36778
 Alpha  occ. eigenvalues --   -0.36549  -0.34053  -0.33698  -0.33665  -0.33353
 Alpha  occ. eigenvalues --   -0.33303  -0.33037  -0.32448  -0.32100  -0.30505
 Alpha  occ. eigenvalues --   -0.30126  -0.28336  -0.27940  -0.26813  -0.26543
 Alpha  occ. eigenvalues --   -0.25032  -0.22384  -0.22378  -0.22167  -0.18705
 Alpha virt. eigenvalues --   -0.00416   0.00167   0.00245   0.01873   0.02277
 Alpha virt. eigenvalues --    0.02379   0.03255   0.04121   0.04836   0.04968
 Alpha virt. eigenvalues --    0.05470   0.05791   0.06269   0.06356   0.06987
 Alpha virt. eigenvalues --    0.07449   0.07679   0.08051   0.08390   0.08803
 Alpha virt. eigenvalues --    0.09106   0.09406   0.09563   0.10554   0.10731
 Alpha virt. eigenvalues --    0.10939   0.11081   0.11269   0.12178   0.12301
 Alpha virt. eigenvalues --    0.12654   0.13115   0.13461   0.14131   0.14420
 Alpha virt. eigenvalues --    0.14504   0.14777   0.14917   0.15070   0.15186
 Alpha virt. eigenvalues --    0.15732   0.15863   0.16156   0.16614   0.17010
 Alpha virt. eigenvalues --    0.17122   0.17753   0.18189   0.18321   0.18781
 Alpha virt. eigenvalues --    0.18950   0.19201   0.19710   0.20015   0.20052
 Alpha virt. eigenvalues --    0.20520   0.21061   0.21090   0.21423   0.21922
 Alpha virt. eigenvalues --    0.22348   0.22585   0.22807   0.23579   0.23767
 Alpha virt. eigenvalues --    0.23938   0.24218   0.24529   0.24900   0.25711
 Alpha virt. eigenvalues --    0.25980   0.26169   0.26380   0.26752   0.27453
 Alpha virt. eigenvalues --    0.27656   0.28400   0.28657   0.28957   0.29186
 Alpha virt. eigenvalues --    0.29369   0.30433   0.30857   0.31019   0.31318
 Alpha virt. eigenvalues --    0.31541   0.31974   0.32545   0.32992   0.33344
 Alpha virt. eigenvalues --    0.33567   0.33919   0.34303   0.35214   0.35627
 Alpha virt. eigenvalues --    0.36212   0.36748   0.37070   0.37299   0.37793
 Alpha virt. eigenvalues --    0.38092   0.38537   0.39021   0.39181   0.39971
 Alpha virt. eigenvalues --    0.40107   0.40335   0.41014   0.41175   0.41398
 Alpha virt. eigenvalues --    0.41619   0.41894   0.42152   0.42493   0.42921
 Alpha virt. eigenvalues --    0.43451   0.43700   0.43799   0.44034   0.44292
 Alpha virt. eigenvalues --    0.44563   0.44724   0.44932   0.45217   0.45435
 Alpha virt. eigenvalues --    0.45629   0.45761   0.46141   0.46347   0.46840
 Alpha virt. eigenvalues --    0.46932   0.47186   0.47344   0.47627   0.47835
 Alpha virt. eigenvalues --    0.48166   0.48201   0.48354   0.48585   0.48981
 Alpha virt. eigenvalues --    0.49113   0.49420   0.49769   0.50156   0.50421
 Alpha virt. eigenvalues --    0.50509   0.51065   0.51508   0.51712   0.51993
 Alpha virt. eigenvalues --    0.52128   0.52951   0.53196   0.53551   0.54240
 Alpha virt. eigenvalues --    0.54431   0.54716   0.55452   0.55693   0.55949
 Alpha virt. eigenvalues --    0.56347   0.56662   0.56987   0.57464   0.57992
 Alpha virt. eigenvalues --    0.58187   0.58912   0.59255   0.59706   0.59864
 Alpha virt. eigenvalues --    0.60432   0.60633   0.61419   0.61848   0.62164
 Alpha virt. eigenvalues --    0.62483   0.63004   0.63089   0.63233   0.64441
 Alpha virt. eigenvalues --    0.64592   0.64834   0.65397   0.66685   0.66841
 Alpha virt. eigenvalues --    0.67287   0.67544   0.68122   0.69146   0.69358
 Alpha virt. eigenvalues --    0.69947   0.70313   0.71074   0.71299   0.71675
 Alpha virt. eigenvalues --    0.72181   0.72806   0.73253   0.73672   0.74345
 Alpha virt. eigenvalues --    0.74550   0.75214   0.75543   0.76213   0.76768
 Alpha virt. eigenvalues --    0.77806   0.78755   0.79200   0.79509   0.80230
 Alpha virt. eigenvalues --    0.81385   0.81756   0.82360   0.83366   0.84184
 Alpha virt. eigenvalues --    0.85254   0.85564   0.86158   0.86733   0.87167
 Alpha virt. eigenvalues --    0.87985   0.88210   0.88951   0.89104   0.89800
 Alpha virt. eigenvalues --    0.90322   0.90925   0.91559   0.91741   0.92031
 Alpha virt. eigenvalues --    0.92182   0.92879   0.93485   0.94107   0.94767
 Alpha virt. eigenvalues --    0.94821   0.95328   0.95948   0.96387   0.96914
 Alpha virt. eigenvalues --    0.97158   0.97798   0.97927   0.99520   0.99683
 Alpha virt. eigenvalues --    1.00555   1.01563   1.02065   1.02525   1.02788
 Alpha virt. eigenvalues --    1.03307   1.04289   1.04728   1.05629   1.06511
 Alpha virt. eigenvalues --    1.07387   1.07951   1.08764   1.09535   1.10276
 Alpha virt. eigenvalues --    1.10371   1.11073   1.11232   1.12173   1.12441
 Alpha virt. eigenvalues --    1.12604   1.13125   1.14380   1.14934   1.15093
 Alpha virt. eigenvalues --    1.15411   1.16395   1.16975   1.17555   1.18943
 Alpha virt. eigenvalues --    1.19299   1.19700   1.19758   1.19901   1.20508
 Alpha virt. eigenvalues --    1.20822   1.21136   1.21848   1.22214   1.22604
 Alpha virt. eigenvalues --    1.23169   1.23650   1.23782   1.24435   1.25013
 Alpha virt. eigenvalues --    1.25711   1.26609   1.26672   1.26959   1.27249
 Alpha virt. eigenvalues --    1.27666   1.28248   1.28465   1.28733   1.29440
 Alpha virt. eigenvalues --    1.30046   1.30820   1.31926   1.33017   1.33245
 Alpha virt. eigenvalues --    1.34109   1.34365   1.34514   1.35472   1.36464
 Alpha virt. eigenvalues --    1.36646   1.37325   1.38268   1.38772   1.40093
 Alpha virt. eigenvalues --    1.40354   1.40500   1.41576   1.41877   1.43082
 Alpha virt. eigenvalues --    1.44144   1.44783   1.45131   1.46214   1.46968
 Alpha virt. eigenvalues --    1.47505   1.48783   1.49752   1.50416   1.51131
 Alpha virt. eigenvalues --    1.51793   1.52079   1.52629   1.53203   1.53909
 Alpha virt. eigenvalues --    1.54440   1.55155   1.55817   1.56378   1.56683
 Alpha virt. eigenvalues --    1.56998   1.57250   1.57983   1.58364   1.58648
 Alpha virt. eigenvalues --    1.59132   1.59519   1.59903   1.60490   1.60651
 Alpha virt. eigenvalues --    1.61000   1.61885   1.62068   1.62869   1.63211
 Alpha virt. eigenvalues --    1.63867   1.64156   1.64747   1.64882   1.65188
 Alpha virt. eigenvalues --    1.66000   1.66480   1.66756   1.67014   1.67614
 Alpha virt. eigenvalues --    1.67897   1.68091   1.68707   1.69227   1.69425
 Alpha virt. eigenvalues --    1.70086   1.70487   1.70741   1.71556   1.72073
 Alpha virt. eigenvalues --    1.73033   1.73324   1.73643   1.73886   1.75114
 Alpha virt. eigenvalues --    1.75830   1.76813   1.77626   1.78221   1.78836
 Alpha virt. eigenvalues --    1.79528   1.79780   1.81075   1.81299   1.81566
 Alpha virt. eigenvalues --    1.81745   1.82364   1.83706   1.84053   1.85709
 Alpha virt. eigenvalues --    1.85804   1.86161   1.86677   1.87100   1.88140
 Alpha virt. eigenvalues --    1.88489   1.89547   1.89983   1.90115   1.91049
 Alpha virt. eigenvalues --    1.91838   1.92518   1.93344   1.93823   1.94849
 Alpha virt. eigenvalues --    1.95543   1.96491   1.97265   1.97837   1.98507
 Alpha virt. eigenvalues --    1.99394   1.99744   2.00280   2.00699   2.01800
 Alpha virt. eigenvalues --    2.02241   2.03364   2.04270   2.05054   2.05742
 Alpha virt. eigenvalues --    2.05902   2.06168   2.06638   2.07491   2.08090
 Alpha virt. eigenvalues --    2.08694   2.09706   2.09952   2.10485   2.11392
 Alpha virt. eigenvalues --    2.11839   2.12979   2.13279   2.14423   2.15039
 Alpha virt. eigenvalues --    2.16103   2.16379   2.16600   2.16950   2.17923
 Alpha virt. eigenvalues --    2.18522   2.18962   2.19972   2.20797   2.21019
 Alpha virt. eigenvalues --    2.21908   2.22648   2.23460   2.23990   2.24671
 Alpha virt. eigenvalues --    2.25692   2.25941   2.26752   2.27924   2.29045
 Alpha virt. eigenvalues --    2.29585   2.30051   2.30358   2.31440   2.32557
 Alpha virt. eigenvalues --    2.32989   2.33818   2.34271   2.35085   2.35534
 Alpha virt. eigenvalues --    2.36496   2.37073   2.37401   2.37989   2.38429
 Alpha virt. eigenvalues --    2.39226   2.39880   2.40877   2.41628   2.41890
 Alpha virt. eigenvalues --    2.42429   2.43039   2.43711   2.44088   2.44805
 Alpha virt. eigenvalues --    2.45548   2.46116   2.46569   2.47093   2.47423
 Alpha virt. eigenvalues --    2.47658   2.48289   2.48707   2.49057   2.50243
 Alpha virt. eigenvalues --    2.51060   2.51364   2.51935   2.52626   2.53320
 Alpha virt. eigenvalues --    2.53446   2.53967   2.54365   2.54780   2.55021
 Alpha virt. eigenvalues --    2.55887   2.56301   2.56585   2.57097   2.57408
 Alpha virt. eigenvalues --    2.58233   2.59418   2.59481   2.60221   2.60271
 Alpha virt. eigenvalues --    2.60592   2.60734   2.61310   2.61659   2.62557
 Alpha virt. eigenvalues --    2.63232   2.63294   2.63565   2.63742   2.64222
 Alpha virt. eigenvalues --    2.65043   2.65975   2.66610   2.66723   2.66857
 Alpha virt. eigenvalues --    2.67055   2.67476   2.68070   2.68620   2.68990
 Alpha virt. eigenvalues --    2.69452   2.70744   2.70832   2.71587   2.71866
 Alpha virt. eigenvalues --    2.72485   2.73175   2.73450   2.74079   2.75182
 Alpha virt. eigenvalues --    2.75290   2.75382   2.76329   2.76777   2.77134
 Alpha virt. eigenvalues --    2.77396   2.78539   2.78710   2.79464   2.79954
 Alpha virt. eigenvalues --    2.80309   2.80880   2.81421   2.81862   2.83169
 Alpha virt. eigenvalues --    2.83712   2.85207   2.85828   2.86091   2.86837
 Alpha virt. eigenvalues --    2.87058   2.87414   2.87680   2.88989   2.90138
 Alpha virt. eigenvalues --    2.90520   2.91147   2.91309   2.92227   2.92996
 Alpha virt. eigenvalues --    2.93683   2.94101   2.95294   2.95828   2.96089
 Alpha virt. eigenvalues --    2.96938   2.97323   2.97911   2.98533   2.99055
 Alpha virt. eigenvalues --    2.99991   3.00548   3.01226   3.01950   3.02178
 Alpha virt. eigenvalues --    3.04343   3.05254   3.05731   3.06215   3.06662
 Alpha virt. eigenvalues --    3.07148   3.08112   3.08663   3.09761   3.10152
 Alpha virt. eigenvalues --    3.10766   3.11437   3.12079   3.12506   3.12613
 Alpha virt. eigenvalues --    3.13850   3.14316   3.14495   3.15083   3.15642
 Alpha virt. eigenvalues --    3.16512   3.17276   3.17569   3.18175   3.18501
 Alpha virt. eigenvalues --    3.19366   3.19753   3.20257   3.20841   3.21465
 Alpha virt. eigenvalues --    3.22147   3.22350   3.22947   3.23240   3.24030
 Alpha virt. eigenvalues --    3.24243   3.24729   3.24988   3.26176   3.26725
 Alpha virt. eigenvalues --    3.27073   3.27837   3.28779   3.29191   3.29585
 Alpha virt. eigenvalues --    3.30552   3.30944   3.31488   3.31974   3.32216
 Alpha virt. eigenvalues --    3.32684   3.33431   3.33664   3.34302   3.34521
 Alpha virt. eigenvalues --    3.35657   3.36035   3.36343   3.37043   3.37325
 Alpha virt. eigenvalues --    3.37830   3.38066   3.38261   3.38680   3.39337
 Alpha virt. eigenvalues --    3.39862   3.40063   3.40253   3.40881   3.41050
 Alpha virt. eigenvalues --    3.42029   3.42678   3.42973   3.43250   3.43870
 Alpha virt. eigenvalues --    3.44295   3.44432   3.44965   3.45226   3.45524
 Alpha virt. eigenvalues --    3.45880   3.46777   3.47505   3.47692   3.48403
 Alpha virt. eigenvalues --    3.48601   3.49122   3.49578   3.49817   3.50237
 Alpha virt. eigenvalues --    3.50751   3.51344   3.52175   3.52322   3.52818
 Alpha virt. eigenvalues --    3.53508   3.54391   3.54592   3.55098   3.55990
 Alpha virt. eigenvalues --    3.56262   3.56965   3.57275   3.57744   3.58820
 Alpha virt. eigenvalues --    3.59369   3.60278   3.60905   3.62012   3.62619
 Alpha virt. eigenvalues --    3.63500   3.64494   3.65659   3.66730   3.67041
 Alpha virt. eigenvalues --    3.67725   3.68767   3.69177   3.69542   3.70775
 Alpha virt. eigenvalues --    3.72558   3.73001   3.73713   3.74575   3.75977
 Alpha virt. eigenvalues --    3.77639   3.78878   3.79845   3.81934   3.82287
 Alpha virt. eigenvalues --    3.82770   3.83806   3.84390   3.84812   3.85407
 Alpha virt. eigenvalues --    3.86260   3.87441   3.88444   3.88981   3.89963
 Alpha virt. eigenvalues --    3.91278   3.92822   3.93050   3.94903   3.95646
 Alpha virt. eigenvalues --    3.96254   3.97245   3.97426   3.97667   3.98810
 Alpha virt. eigenvalues --    3.98985   3.99644   4.00326   4.01250   4.01590
 Alpha virt. eigenvalues --    4.02006   4.02739   4.03208   4.04848   4.04888
 Alpha virt. eigenvalues --    4.05781   4.06355   4.06834   4.10392   4.10714
 Alpha virt. eigenvalues --    4.11726   4.12334   4.12753   4.13184   4.13572
 Alpha virt. eigenvalues --    4.14581   4.14829   4.15759   4.16197   4.16790
 Alpha virt. eigenvalues --    4.17241   4.18200   4.18778   4.19944   4.20397
 Alpha virt. eigenvalues --    4.20648   4.21234   4.22505   4.23344   4.24122
 Alpha virt. eigenvalues --    4.24634   4.25441   4.27724   4.29224   4.30057
 Alpha virt. eigenvalues --    4.30920   4.32013   4.34330   4.35035   4.35523
 Alpha virt. eigenvalues --    4.35792   4.37037   4.38795   4.39707   4.40324
 Alpha virt. eigenvalues --    4.41556   4.42421   4.42489   4.43127   4.43946
 Alpha virt. eigenvalues --    4.45945   4.47688   4.47834   4.49590   4.50249
 Alpha virt. eigenvalues --    4.50832   4.53093   4.53826   4.54783   4.57737
 Alpha virt. eigenvalues --    4.58768   4.59220   4.60578   4.61090   4.61777
 Alpha virt. eigenvalues --    4.63282   4.65823   4.67208   4.67942   4.69556
 Alpha virt. eigenvalues --    4.71650   4.71946   4.73249   4.73855   4.81065
 Alpha virt. eigenvalues --    4.85763   4.87679   4.88460   4.90575   4.91460
 Alpha virt. eigenvalues --    4.92803   4.93482   4.94747   4.95890   4.96594
 Alpha virt. eigenvalues --    4.98480   5.01918   5.04288   5.06230   5.07377
 Alpha virt. eigenvalues --    5.09151   5.10795   5.12381   5.13618   5.16485
 Alpha virt. eigenvalues --    5.18972   5.20229   5.21996   5.22409   5.24231
 Alpha virt. eigenvalues --    5.27114   5.28125   5.35043   5.43627   5.45370
 Alpha virt. eigenvalues --    5.63262   5.64468   7.79383   7.82005   7.90783
 Alpha virt. eigenvalues --    7.92495   8.06979   8.07630  15.70943  15.74422
 Alpha virt. eigenvalues --   22.40154  22.43628  22.47386  22.49459  22.51620
 Alpha virt. eigenvalues --   22.52295  22.58273  22.58849  22.63478  22.63923
 Alpha virt. eigenvalues --   22.64810  22.66385  22.69501  22.70835  22.72728
 Alpha virt. eigenvalues --   22.75510  22.78314  22.80290  22.90110  22.91662
 Alpha virt. eigenvalues --   23.03578  23.06493  40.36925  40.38268  41.15902
 Alpha virt. eigenvalues --   56.89903
          Condensed to atoms (all electrons):
 Mulliken charges:
               1
     1  Fe  -0.579982
     2  P    0.015908
     3  P    0.037585
     4  C    0.141174
     5  C   -0.063228
     6  C   -0.066070
     7  C   -0.060426
     8  C   -0.133162
     9  C    0.169722
    10  C   -0.127559
    11  C   -0.099818
    12  C   -0.049848
    13  C   -0.158035
    14  C   -0.042078
    15  C   -0.215832
    16  C   -0.121907
    17  C   -0.198125
    18  C   -0.074961
    19  C   -0.188019
    20  C   -0.106393
    21  C   -0.185610
    22  H    0.089523
    23  H    0.116831
    24  H    0.115214
    25  H    0.128044
    26  H    0.119208
    27  H    0.118360
    28  H    0.101659
    29  C   -0.404729
    30  H    0.113563
    31  C   -0.384085
    32  H    0.113808
    33  H    0.100517
    34  H    0.112759
    35  H    0.099128
    36  H    0.114633
    37  H    0.116640
    38  H    0.119383
    39  H    0.129743
    40  H    0.128968
    41  H    0.119674
    42  H    0.129894
    43  H    0.120562
    44  H    0.097379
    45  C   -0.395631
    46  H    0.083945
    47  C   -0.363776
    48  H    0.098782
    49  H    0.108108
    50  H    0.107918
    51  H    0.096818
    52  H    0.122507
    53  H    0.144269
    54  H    0.121499
    55  H    0.120822
    56  H    0.123023
    57  H    0.121706
 Sum of Mulliken charges =  -0.00000
 Mulliken charges with hydrogens summed into heavy atoms:
               1
     1  Fe  -0.579982
     2  P    0.015908
     3  P    0.037585
     4  C    0.141174
     5  C    0.026295
     6  C    0.050761
     7  C    0.054788
     8  C   -0.005117
     9  C    0.169722
    10  C   -0.008352
    11  C    0.014815
    12  C    0.066791
    13  C   -0.039675
    14  C    0.059581
    15  C   -0.001506
    16  C   -0.008345
    17  C    0.013762
    18  C    0.022418
    19  C    0.018871
    20  C   -0.022449
    21  C    0.019127
    29  C   -0.026635
    31  C   -0.013955
    45  C   -0.007357
    47  C    0.001775
 Electronic spatial extent (au):  <R**2>=           9106.6391
 Charge=             -0.0000 electrons
 Dipole moment (field-independent basis, Debye):
    X=             -0.1981    Y=              1.3022    Z=             -0.2896  Tot=              1.3486
 Quadrupole moment (field-independent basis, Debye-Ang):
   XX=           -172.1278   YY=           -170.7029   ZZ=           -173.5141
   XY=             -0.8371   XZ=             -6.6842   YZ=             -0.1254
 Traceless Quadrupole moment (field-independent basis, Debye-Ang):
   XX=             -0.0129   YY=              1.4120   ZZ=             -1.3992
   XY=             -0.8371   XZ=             -6.6842   YZ=             -0.1254
 Octapole moment (field-independent basis, Debye-Ang**2):
  XXX=             -3.4711  YYY=             67.2268  ZZZ=             -4.8517  XYY=             -6.3720
  XXY=              0.9535  XXZ=              0.9977  XZZ=              2.1130  YZZ=             14.6709
  YYZ=             -6.3356  XYZ=            -12.5466
 Hexadecapole moment (field-independent basis, Debye-Ang**3):
 XXXX=          -7302.0886 YYYY=          -2962.7181 ZZZZ=          -2447.0904 XXXY=              1.1814
 XXXZ=            -39.1850 YYYX=             -4.3008 YYYZ=            -32.0241 ZZZX=            -53.0190
 ZZZY=            -16.1611 XXYY=          -1699.8057 XXZZ=          -1631.6899 YYZZ=           -913.5297
 XXYZ=             -5.5331 YYXZ=            -22.0411 ZZXY=             -8.5249
 N-N= 3.041534713574D+03 E-N=-9.983346762175D+03  KE= 1.604272200548D+03
 1\1\GINC-NC102\SP\RPBE1PBE\Gen\C22H32Fe1P2\MACKK4\05-Dec-2021\0\\# PBE
 1PBE gen pseudo=read int=(grid=ultrafine) empiricaldispersion=GD3BJ nm
 r=giao\\RR_Me_Ferrolane_3 title\\0,1\Fe,0,-0.0410485214,2.61343565,-0.
 025282636\P,0,-1.7766356896,-0.267190305,-0.0334958701\P,0,1.800039176
 4,-0.2224607338,-0.0020810666\C,0,-1.5325881541,1.4310766105,-0.642123
 297\C,0,-0.684224738,1.7845824403,-1.7585114477\C,0,-0.6753980716,3.21
 28225021,-1.8870471089\C,0,-1.529075697,3.7574776597,-0.8707490125\C,0
 ,-2.066074162,2.6677787479,-0.1063238303\C,0,1.4979691047,1.4794018205
 ,0.5775840876\C,0,1.983401862,2.7423728562,0.0576389488\C,0,1.40371869
 29,3.8021767548,0.8332268693\C,0,0.572322779,3.2143782036,1.8437226138
 \C,0,0.6352034669,1.7895214565,1.69736853\C,0,-3.3534856737,-0.8497816
 067,-0.9096293102\C,0,-4.3143239184,-1.1451128929,0.2660586568\C,0,-2.
 5624691625,-0.0418108593,1.6633932156\C,0,-4.0798907704,-0.0987062408,
 1.370169951\C,0,3.2811346453,-0.7157144303,1.0487100033\C,0,4.46672087
 69,-0.1564934087,0.2390273817\C,0,2.7698012244,-0.0332337876,-1.609760
 4673\C,0,4.2036335426,-0.4875950557,-1.2376684093\H,0,-0.1044816087,1.
 0778669394,-2.3527220957\H,0,-0.0822098856,3.7850667829,-2.6010497836\
 H,0,-1.6972684574,4.8169671037,-0.6736367657\H,0,-2.724128723,2.761138
 1684,0.7578047295\H,0,2.6345339681,2.8768692474,-0.805760928\H,0,0.092
 5550513,1.0529922185,2.2906596807\H,0,-3.086641017,-1.786414132,-1.422
 5511384\C,0,-3.9106514543,0.1685153744,-1.9113052132\H,0,-2.2648252577
 ,0.9553264325,2.0319651299\C,0,-2.0888464666,-1.1121607426,2.657247103
 2\H,0,-4.0941443684,-2.1546294521,0.6530120999\H,0,-5.3627223441,-1.13
 8172622,-0.0834415675\H,0,-4.4337764827,0.8922234267,1.0278883017\H,0,
 -4.6411779487,-0.343297988,2.2901557897\H,0,1.5322627077,4.8692878779,
 0.6478661094\H,0,-0.0406670342,3.755499237,2.5652998348\H,0,-4.8090764
 169,-0.2564161259,-2.3932077561\H,0,-3.1835162152,0.4083222359,-2.7047
 981293\H,0,-4.2016256927,1.1177814567,-1.4292739897\H,0,-2.3044862885,
 -2.1292053141,2.2918903357\H,0,-0.9967499863,-1.0600263116,2.810799644
 5\H,0,-2.5879735274,-0.9645164264,3.6317650852\H,0,3.2872159253,-1.817
 6422683,0.9847923977\C,0,3.2188819824,-0.2792208558,2.5108141633\H,0,2
 .7713888713,1.0484649088,-1.8352305222\C,0,2.1829958683,-0.7985241807,
 -2.7999878368\H,0,5.4160696376,-0.5962508326,0.5950142101\H,0,4.540272
 6157,0.9395579857,0.385842644\H,0,4.9428717919,-0.019289532,-1.9117347
 042\H,0,4.2663904704,-1.5816195043,-1.3800544083\H,0,4.11639952,-0.640
 3688542,3.0433781141\H,0,3.1826092139,0.8189768648,2.6128316115\H,0,2.
 337716183,-0.7043569456,3.0214026963\H,0,2.8411623865,-0.6786850711,-3
 .6795031036\H,0,1.1793180336,-0.4342402042,-3.0773014368\H,0,2.0952546
 112,-1.8713946022,-2.563689984\\Version=ES64L-G09RevE.01\State=1-A\HF=
 -1663.3057741\RMSD=2.358e-09\Dipole=0.0700326,0.5251964,0.0278679\Quad
 rupole=-0.1388293,1.0177214,-0.8788921,-0.2174443,-5.0117834,-0.324383
 7\PG=C01 [X(C22H32Fe1P2)]\\@


 IF YOU BELIEVE CERTAIN WORDS, YOU BELIEVE THEIR HIDDEN ARGUMENTS.
 WHEN YOU BELIEVE SOMETHING IS RIGHT OR WRONG, TRUE OR FALSE, 
 YOU BELIEVE THE ASSUMPTIONS IN THE WORDS WHICH EXPRESS THE ARGUMENTS.
 SUCH ASSUMPTIONS ARE OFTEN FULL OF HOLES, BUT REMAIN MOST PRECIOUS 
 TO THE CONVINCED.

                 -- THE OPEN-ENDED PROOF FROM THE PANOPLIA PROPHETICA
                    CHILDREN OF DUNE BY FRANK HERBERT
 Job cpu time:       0 days 15 hours 17 minutes  4.1 seconds.
 File lengths (MBytes):  RWF=    551 Int=      0 D2E=      0 Chk=     80 Scr=      1
 Normal termination of Gaussian 09 at Sun Dec  5 03:02:49 2021.
 Initial command:
 /gstore/apps/gaussian/g09.e01-foss-2017a/g09/l1.exe "/local/22791347/Gau-29973.inp" -scrdir="/local/22791347/"
 Entering Link 1 = /gstore/apps/gaussian/g09.e01-foss-2017a/g09/l1.exe PID=     19094.
  
 Copyright (c) 1988,1990,1992,1993,1995,1998,2003,2009,2015,
            Gaussian, Inc.  All Rights Reserved.
  
 This is part of the Gaussian(R) 09 program.  It is based on
 the Gaussian(R) 03 system (copyright 2003, Gaussian, Inc.),
 the Gaussian(R) 98 system (copyright 1998, Gaussian, Inc.),
 the Gaussian(R) 94 system (copyright 1995, Gaussian, Inc.),
 the Gaussian 92(TM) system (copyright 1992, Gaussian, Inc.),
 the Gaussian 90(TM) system (copyright 1990, Gaussian, Inc.),
 the Gaussian 88(TM) system (copyright 1988, Gaussian, Inc.),
 the Gaussian 86(TM) system (copyright 1986, Carnegie Mellon
 University), and the Gaussian 82(TM) system (copyright 1983,
 Carnegie Mellon University). Gaussian is a federally registered
 trademark of Gaussian, Inc.
  
 This software contains proprietary and confidential information,
 including trade secrets, belonging to Gaussian, Inc.
  
 This software is provided under written license and may be
 used, copied, transmitted, or stored only in accord with that
 written license.
  
 The following legend is applicable only to US Government
 contracts under FAR:
  
                    RESTRICTED RIGHTS LEGEND
  
 Use, reproduction and disclosure by the US Government is
 subject to restrictions as set forth in subparagraphs (a)
 and (c) of the Commercial Computer Software - Restricted
 Rights clause in FAR 52.227-19.
  
 Gaussian, Inc.
 340 Quinnipiac St., Bldg. 40, Wallingford CT 06492
  
  
 ---------------------------------------------------------------
 Warning -- This program may not be used in any manner that
 competes with the business of Gaussian, Inc. or will provide
 assistance to any competitor of Gaussian, Inc.  The licensee
 of this program is prohibited from giving any competitor of
 Gaussian, Inc. access to this program.  By using this program,
 the user acknowledges that Gaussian, Inc. is engaged in the
 business of creating and licensing software in the field of
 computational chemistry and represents and warrants to the
 licensee that it is not a competitor of Gaussian, Inc. and that
 it will not use this program in any manner prohibited above.
 ---------------------------------------------------------------
  

 Cite this work as:
 Gaussian 09, Revision E.01,
 M. J. Frisch, G. W. Trucks, H. B. Schlegel, G. E. Scuseria, 
 M. A. Robb, J. R. Cheeseman, G. Scalmani, V. Barone, B. Mennucci, 
 G. A. Petersson, H. Nakatsuji, M. Caricato, X. Li, H. P. Hratchian, 
 A. F. Izmaylov, J. Bloino, G. Zheng, J. L. Sonnenberg, M. Hada, 
 M. Ehara, K. Toyota, R. Fukuda, J. Hasegawa, M. Ishida, T. Nakajima, 
 Y. Honda, O. Kitao, H. Nakai, T. Vreven, J. A. Montgomery, Jr., 
 J. E. Peralta, F. Ogliaro, M. Bearpark, J. J. Heyd, E. Brothers, 
 K. N. Kudin, V. N. Staroverov, T. Keith, R. Kobayashi, J. Normand, 
 K. Raghavachari, A. Rendell, J. C. Burant, S. S. Iyengar, J. Tomasi, 
 M. Cossi, N. Rega, J. M. Millam, M. Klene, J. E. Knox, J. B. Cross, 
 V. Bakken, C. Adamo, J. Jaramillo, R. Gomperts, R. E. Stratmann, 
 O. Yazyev, A. J. Austin, R. Cammi, C. Pomelli, J. W. Ochterski, 
 R. L. Martin, K. Morokuma, V. G. Zakrzewski, G. A. Voth, 
 P. Salvador, J. J. Dannenberg, S. Dapprich, A. D. Daniels, 
 O. Farkas, J. B. Foresman, J. V. Ortiz, J. Cioslowski, 
 and D. J. Fox, Gaussian, Inc., Wallingford CT, 2013.
 
 ******************************************
 Gaussian 09:  ES64L-G09RevE.01 30-Nov-2015
                 5-Dec-2021 
 ******************************************
 %nprocs=14
 Will use up to   14 processors via shared memory.
 %mem=128GB
 %chk=RR_Me_Ferrolane_3_SPE_NoPd.chk
 ----------------------------------------------------------------------
 # PBE1PBE gen pseudo=read int=(grid=ultrafine) empiricaldispersion=GD3
 BJ pop=nbo guess=read geom=check
 ----------------------------------------------------------------------
 1/29=2,38=1/1;
 2/12=2,40=1/2;
 3/5=7,11=2,14=-4,16=1,17=8,25=1,30=1,74=-13,75=-5,116=-2,124=41/1,2,3;
 4/5=1/1;
 5/5=2,38=6/2;
 6/7=2,8=2,9=2,10=2,28=1,40=1/1,7;
 99/5=1,9=1/99;
 -----------------------
 RR_Me_Ferrolane_3 title
 -----------------------
 Structure from the checkpoint file:  "RR_Me_Ferrolane_3_SPE_NoPd.chk"
 Charge =  0 Multiplicity = 1
 Z-Matrix found in file.
 Fe,0,-0.0410485214,2.61343565,-0.025282636
 P,0,-1.7766356896,-0.267190305,-0.0334958701
 P,0,1.8000391764,-0.2224607338,-0.0020810666
 C,0,-1.5325881541,1.4310766105,-0.642123297
 C,0,-0.684224738,1.7845824403,-1.7585114477
 C,0,-0.6753980716,3.2128225021,-1.8870471089
 C,0,-1.529075697,3.7574776597,-0.8707490125
 C,0,-2.066074162,2.6677787479,-0.1063238303
 C,0,1.4979691047,1.4794018205,0.5775840876
 C,0,1.983401862,2.7423728562,0.0576389488
 C,0,1.4037186929,3.8021767548,0.8332268693
 C,0,0.572322779,3.2143782036,1.8437226138
 C,0,0.6352034669,1.7895214565,1.69736853
 C,0,-3.3534856737,-0.8497816067,-0.9096293102
 C,0,-4.3143239184,-1.1451128929,0.2660586568
 C,0,-2.5624691625,-0.0418108593,1.6633932156
 C,0,-4.0798907704,-0.0987062408,1.370169951
 C,0,3.2811346453,-0.7157144303,1.0487100033
 C,0,4.4667208769,-0.1564934087,0.2390273817
 C,0,2.7698012244,-0.0332337876,-1.6097604673
 C,0,4.2036335426,-0.4875950557,-1.2376684093
 H,0,-0.1044816087,1.0778669394,-2.3527220957
 H,0,-0.0822098856,3.7850667829,-2.6010497836
 H,0,-1.6972684574,4.8169671037,-0.6736367657
 H,0,-2.724128723,2.7611381684,0.7578047295
 H,0,2.6345339681,2.8768692474,-0.805760928
 H,0,0.0925550513,1.0529922185,2.2906596807
 H,0,-3.086641017,-1.786414132,-1.4225511384
 C,0,-3.9106514543,0.1685153744,-1.9113052132
 H,0,-2.2648252577,0.9553264325,2.0319651299
 C,0,-2.0888464666,-1.1121607426,2.6572471032
 H,0,-4.0941443684,-2.1546294521,0.6530120999
 H,0,-5.3627223441,-1.138172622,-0.0834415675
 H,0,-4.4337764827,0.8922234267,1.0278883017
 H,0,-4.6411779487,-0.343297988,2.2901557897
 H,0,1.5322627077,4.8692878779,0.6478661094
 H,0,-0.0406670342,3.755499237,2.5652998348
 H,0,-4.8090764169,-0.2564161259,-2.3932077561
 H,0,-3.1835162152,0.4083222359,-2.7047981293
 H,0,-4.2016256927,1.1177814567,-1.4292739897
 H,0,-2.3044862885,-2.1292053141,2.2918903357
 H,0,-0.9967499863,-1.0600263116,2.8107996445
 H,0,-2.5879735274,-0.9645164264,3.6317650852
 H,0,3.2872159253,-1.8176422683,0.9847923977
 C,0,3.2188819824,-0.2792208558,2.5108141633
 H,0,2.7713888713,1.0484649088,-1.8352305222
 C,0,2.1829958683,-0.7985241807,-2.7999878368
 H,0,5.4160696376,-0.5962508326,0.5950142101
 H,0,4.5402726157,0.9395579857,0.385842644
 H,0,4.9428717919,-0.019289532,-1.9117347042
 H,0,4.2663904704,-1.5816195043,-1.3800544083
 H,0,4.11639952,-0.6403688542,3.0433781141
 H,0,3.1826092139,0.8189768648,2.6128316115
 H,0,2.337716183,-0.7043569456,3.0214026963
 H,0,2.8411623865,-0.6786850711,-3.6795031036
 H,0,1.1793180336,-0.4342402042,-3.0773014368
 H,0,2.0952546112,-1.8713946022,-2.563689984
 Recover connectivity data from disk.
 Stoichiometry    C22H32FeP2
 Framework group  C1[X(C22H32FeP2)]
 Deg. of freedom   165
 Full point group                 C1      NOp   1
 Largest Abelian subgroup         C1      NOp   1
 Largest concise Abelian subgroup C1      NOp   1
                         Standard orientation:                         
 ---------------------------------------------------------------------
 Center     Atomic      Atomic             Coordinates (Angstroms)
 Number     Number       Type             X           Y           Z
 ---------------------------------------------------------------------
      1         26           0       -0.012444    1.711173   -0.221524
      2         15           0        1.768248   -1.098225    0.275224
      3         15           0       -1.807933   -1.122975    0.198328
      4          6           0        1.489124    0.671886    0.595993
      5          6           0        0.620215    1.187373    1.630537
      6          6           0        0.587043    2.617085    1.524262
      7          6           0        1.445692    3.004015    0.442004
      8          6           0        2.010184    1.814082   -0.128580
      9          6           0       -1.525006    0.466819   -0.647900
     10          6           0       -2.037371    1.788770   -0.346216
     11          6           0       -1.464073    2.718216   -1.277995
     12          6           0       -0.609856    1.988554   -2.170035
     13          6           0       -0.652156    0.605687   -1.793895
     14          6           0        3.342099   -1.502089    1.251628
     15          6           0        4.323341   -1.967844    0.150306
     16          6           0        2.573347   -1.138346   -1.427118
     17          6           0        4.087364   -1.119650   -1.112179
     18          6           0       -3.266655   -1.807157   -0.773850
     19          6           0       -4.471811   -1.144717   -0.079083
     20          6           0       -2.802273   -0.691667    1.743041
     21          6           0       -4.223559   -1.226066    1.434597
     22          1           0        0.043728    0.576690    2.325781
     23          1           0       -0.024752    3.287344    2.128906
     24          1           0        1.599752    4.020062    0.076526
     25          1           0        2.678332    1.777124   -0.989208
     26          1           0       -2.702195    2.050507    0.476599
     27          1           0       -0.089925   -0.207869   -2.253197
     28          1           0        3.083183   -2.347247    1.907559
     29          6           0        3.869448   -0.324435    2.079728
     30          1           0        2.264982   -0.220046   -1.956605
     31          6           0        2.130240   -2.364585   -2.238109
     32          1           0        4.124432   -3.030678   -0.069137
     33          1           0        5.366664   -1.885368    0.505288
     34          1           0        4.420849   -0.080046   -0.932331
     35          1           0        4.664872   -1.500815   -1.973829
     36          1           0       -1.611992    3.798805   -1.270592
     37          1           0        0.004218    2.415724   -2.963559
     38          1           0        4.767871   -0.649093    2.634163
     39          1           0        3.127919    0.028445    2.815577
     40          1           0        4.151869    0.538649    1.452471
     41          1           0        2.356977   -3.304509   -1.709431
     42          1           0        1.039637   -2.357640   -2.409888
     43          1           0        2.640133   -2.368810   -3.218213
     44          1           0       -3.256161   -2.883880   -0.531102
     45          6           0       -3.191504   -1.613665   -2.286815
     46          1           0       -2.824037    0.412110    1.789005
     47          6           0       -2.219617   -1.242235    3.048429
     48          1           0       -5.409168   -1.653449   -0.368791
     49          1           0       -4.560704   -0.088717   -0.403513
     50          1           0       -4.979186   -0.667450    2.015221
     51          1           0       -4.270917   -2.283217    1.752856
     52          1           0       -4.075891   -2.072695   -2.762988
     53          1           0       -3.171237   -0.546291   -2.566215
     54          1           0       -2.296879   -2.100531   -2.711671
     55          1           0       -2.891461   -0.992456    3.889458
     56          1           0       -1.225683   -0.819805    3.273421
     57          1           0       -2.111711   -2.337532    2.991273
 ---------------------------------------------------------------------
 Rotational constants (GHZ):      0.2721410      0.1557011      0.1402927
 General basis read from cards:  (5D, 7F)
 ======================================================================================================
                                       Pseudopotential Parameters
 ======================================================================================================
  Center     Atomic      Valence      Angular      Power
  Number     Number     Electrons     Momentum     of R      Exponent        Coefficient   SO-Coeffient
 ======================================================================================================
    1         26           16
                                      F and up 
                                                     2        1.0000000        0.00000000    0.00000000
                                      S - F
                                                     2       20.9300000      253.74958800    0.00000000
                                                     2        9.4450000       37.92284500    0.00000000
                                      P - F
                                                     2       21.7600000      161.03681200    0.00000000
                                                     2        9.1780000       27.65129800    0.00000000
                                      D - F
                                                     2       25.9000000      -24.43127600    0.00000000
[...]
   589. RY*(   2) C  19                  0.00204     1.80464   
   590. RY*(   3) C  19                  0.00098     1.66143   
   591. RY*(   4) C  19                  0.00053     1.60571   
   592. RY*(   5) C  19                  0.00046     1.44933   
   593. RY*(   6) C  19                  0.00029     1.91966   
   594. RY*(   7) C  19                  0.00024     1.57855   
   595. RY*(   8) C  19                  0.00023     1.82354   
   596. RY*(   9) C  19                  0.00017     1.91864   
   597. RY*(  10) C  19                  0.00011     2.22060   
   598. RY*(  11) C  19                  0.00006     2.95738   
   599. RY*(  12) C  19                  0.00002     1.96534   
   600. RY*(  13) C  19                  0.00001     3.21912   
   601. RY*(  14) C  19                  0.00002     1.67181   
   602. RY*(  15) C  19                  0.00001     3.17196   
   603. RY*(  16) C  19                  0.00001     3.00795   
   604. RY*(  17) C  19                  0.00001     2.34486   
   605. RY*(  18) C  19                  0.00001     3.98231   
   606. RY*(  19) C  19                  0.00001     2.97637   
   607. RY*(  20) C  19                  0.00000    19.69033   
   608. RY*(  21) C  19                  0.00001     3.55917   
   609. RY*(  22) C  19                  0.00000     3.50154   
   610. RY*(  23) C  19                  0.00000     3.25670   
   611. RY*(  24) C  19                  0.00000     3.30084   
   612. RY*(  25) C  19                  0.00000     3.26112   
   613. RY*(  26) C  19                  0.00000     3.57563   
   614. RY*(   1) C  20                  0.00331     1.48540   
   615. RY*(   2) C  20                  0.00216     1.44748   
   616. RY*(   3) C  20                  0.00171     1.41605   
   617. RY*(   4) C  20                  0.00113     1.66006   
   618. RY*(   5) C  20                  0.00082     1.39998   
   619. RY*(   6) C  20                  0.00062     1.75999   
   620. RY*(   7) C  20                  0.00047     1.80855   
   621. RY*(   8) C  20                  0.00037     2.05123   
   622. RY*(   9) C  20                  0.00025     1.99421   
   623. RY*(  10) C  20                  0.00017     2.26440   
   624. RY*(  11) C  20                  0.00012     2.01468   
   625. RY*(  12) C  20                  0.00012     2.28118   
   626. RY*(  13) C  20                  0.00008     2.49077   
   627. RY*(  14) C  20                  0.00002     1.94799   
   628. RY*(  15) C  20                  0.00002     2.97588   
   629. RY*(  16) C  20                  0.00001     3.32623   
   630. RY*(  17) C  20                  0.00001     2.43871   
   631. RY*(  18) C  20                  0.00002     3.33923   
   632. RY*(  19) C  20                  0.00000    21.20943   
   633. RY*(  20) C  20                  0.00000     3.43261   
   634. RY*(  21) C  20                  0.00001     2.03787   
   635. RY*(  22) C  20                  0.00000     3.58168   
   636. RY*(  23) C  20                  0.00000     3.31194   
   637. RY*(  24) C  20                  0.00000     3.37658   
   638. RY*(  25) C  20                  0.00000     3.42177   
   639. RY*(  26) C  20                  0.00000     3.44612   
   640. RY*(   1) C  21                  0.00235     1.28837   
   641. RY*(   2) C  21                  0.00201     1.54058   
   642. RY*(   3) C  21                  0.00112     1.01890   
   643. RY*(   4) C  21                  0.00056     1.75527   
   644. RY*(   5) C  21                  0.00033     2.01777   
   645. RY*(   6) C  21                  0.00029     1.85364   
   646. RY*(   7) C  21                  0.00025     2.64659   
   647. RY*(   8) C  21                  0.00016     1.77678   
   648. RY*(   9) C  21                  0.00013     2.19212   
   649. RY*(  10) C  21                  0.00008     2.33666   
   650. RY*(  11) C  21                  0.00005     1.99294   
   651. RY*(  12) C  21                  0.00005     2.07077   
   652. RY*(  13) C  21                  0.00003     1.90604   
   653. RY*(  14) C  21                  0.00001     2.38841   
   654. RY*(  15) C  21                  0.00001     1.85347   
   655. RY*(  16) C  21                  0.00000     2.89106   
   656. RY*(  17) C  21                  0.00000    20.89624   
   657. RY*(  18) C  21                  0.00001     2.73204   
   658. RY*(  19) C  21                  0.00001     3.46826   
   659. RY*(  20) C  21                  0.00000     3.61068   
   660. RY*(  21) C  21                  0.00000     3.36948   
   661. RY*(  22) C  21                  0.00000     3.47759   
   662. RY*(  23) C  21                  0.00000     3.53291   
   663. RY*(  24) C  21                  0.00000     3.66179   
   664. RY*(  25) C  21                  0.00000     3.30764   
   665. RY*(  26) C  21                  0.00000     3.46316   
   686. RY*(   1) H  26                  0.00076     1.02518   
   687. RY*(   2) H  26                  0.00040     2.18200   
   688. RY*(   3) H  26                  0.00021     1.95290   
   689. RY*(   4) H  26                  0.00011     2.65574   
   690. RY*(   5) H  26                  0.00001     3.10319   
   691. RY*(   1) H  27                  0.00141     0.77379   
   692. RY*(   2) H  27                  0.00041     2.34938   
   693. RY*(   3) H  27                  0.00029     2.34596   
   694. RY*(   4) H  27                  0.00011     2.67972   
   695. RY*(   5) H  27                  0.00002     3.19286   
   778. RY*(   1) H  36                  0.00039     2.03943   
   779. RY*(   2) H  36                  0.00032     2.21761   
   780. RY*(   3) H  36                  0.00010     2.64382   
   781. RY*(   4) H  36                  0.00003     1.03099   
   782. RY*(   5) H  36                  0.00001     3.02961   
   783. RY*(   1) H  37                  0.00039     2.04180   
   784. RY*(   2) H  37                  0.00031     2.23566   
   785. RY*(   3) H  37                  0.00010     2.64332   
   786. RY*(   4) H  37                  0.00003     1.04607   
   787. RY*(   5) H  37                  0.00001     3.01911   
   818. RY*(   1) H  44                  0.00071     1.33687   
   819. RY*(   2) H  44                  0.00018     2.43202   
   820. RY*(   3) H  44                  0.00014     2.31584   
   821. RY*(   4) H  44                  0.00008     1.77394   
   822. RY*(   5) H  44                  0.00001     3.01225   
   823. RY*(   1) C  45                  0.00188     1.26655   
   824. RY*(   2) C  45                  0.00142     1.38355   
   825. RY*(   3) C  45                  0.00049     1.37035   
   826. RY*(   4) C  45                  0.00028     1.03891   
   827. RY*(   5) C  45                  0.00019     1.51098   
   828. RY*(   6) C  45                  0.00018     1.52334   
   829. RY*(   7) C  45                  0.00011     1.24437   
   830. RY*(   8) C  45                  0.00009     1.50940   
   831. RY*(   9) C  45                  0.00005     1.87218   
   832. RY*(  10) C  45                  0.00002     2.59222   
   833. RY*(  11) C  45                  0.00002     1.76358   
   834. RY*(  12) C  45                  0.00001     1.94183   
   835. RY*(  13) C  45                  0.00001     2.82288   
   836. RY*(  14) C  45                  0.00001     2.43885   
   837. RY*(  15) C  45                  0.00000    20.94358   
   838. RY*(  16) C  45                  0.00001     2.96504   
   839. RY*(  17) C  45                  0.00000     3.15996   
   840. RY*(  18) C  45                  0.00000     2.85785   
   841. RY*(  19) C  45                  0.00000     3.00518   
   842. RY*(  20) C  45                  0.00000     3.60895   
   843. RY*(  21) C  45                  0.00001     2.91893   
   844. RY*(  22) C  45                  0.00000     3.02296   
   845. RY*(  23) C  45                  0.00000     3.48920   
   846. RY*(  24) C  45                  0.00000     3.51449   
   847. RY*(  25) C  45                  0.00000     3.10300   
   848. RY*(  26) C  45                  0.00000     3.68942   
   849. RY*(   1) H  46                  0.00127     0.86473   
   850. RY*(   2) H  46                  0.00029     2.41466   
   851. RY*(   3) H  46                  0.00020     2.56128   
   852. RY*(   4) H  46                  0.00011     2.51939   
   853. RY*(   5) H  46                  0.00002     3.08955   
   854. RY*(   1) C  47                  0.00207     0.89705   
   855. RY*(   2) C  47                  0.00130     1.06182   
   856. RY*(   3) C  47                  0.00031     1.30142   
   857. RY*(   4) C  47                  0.00026     1.65417   
   858. RY*(   5) C  47                  0.00024     1.41856   
   859. RY*(   6) C  47                  0.00008     1.54780   
   860. RY*(   7) C  47                  0.00007     2.33363   
   861. RY*(   8) C  47                  0.00005     1.62164   
   862. RY*(   9) C  47                  0.00004     1.50592   
   863. RY*(  10) C  47                  0.00003     1.46723   
   864. RY*(  11) C  47                  0.00000     3.08000   
   865. RY*(  12) C  47                  0.00001     1.52347   
   866. RY*(  13) C  47                  0.00001     2.92977   
   867. RY*(  14) C  47                  0.00001     1.65808   
   868. RY*(  15) C  47                  0.00000     3.04673   
   869. RY*(  16) C  47                  0.00000    21.15748   
   870. RY*(  17) C  47                  0.00000     2.90433   
   871. RY*(  18) C  47                  0.00001     1.73477   
   872. RY*(  19) C  47                  0.00000     2.90101   
   873. RY*(  20) C  47                  0.00000     3.38043   
   874. RY*(  21) C  47                  0.00000     3.69809   
   875. RY*(  22) C  47                  0.00000     3.53452   
   876. RY*(  23) C  47                  0.00001     3.30647   
   877. RY*(  24) C  47                  0.00000     3.43375   
   878. RY*(  25) C  47                  0.00000     3.18498   
   879. RY*(  26) C  47                  0.00000     3.62465   
   880. RY*(   1) H  48                  0.00105     1.02271   
   881. RY*(   2) H  48                  0.00020     2.14844   
   882. RY*(   3) H  48                  0.00017     2.27684   
   883. RY*(   4) H  48                  0.00008     2.00919   
   884. RY*(   5) H  48                  0.00001     3.03666   
   885. RY*(   1) H  49                  0.00098     0.94687   
   886. RY*(   2) H  49                  0.00024     2.34714   
   887. RY*(   3) H  49                  0.00015     2.37647   
   888. RY*(   4) H  49                  0.00006     2.22497   
   889. RY*(   5) H  49                  0.00003     3.11045   
   890. RY*(   1) H  50                  0.00069     1.01052   
   891. RY*(   2) H  50                  0.00020     2.19661   
   892. RY*(   3) H  50                  0.00016     2.09004   
   893. RY*(   4) H  50                  0.00007     2.24916   
   894. RY*(   5) H  50                  0.00002     2.94285   
   895. RY*(   1) H  51                  0.00103     1.12834   
   896. RY*(   2) H  51                  0.00018     2.43038   
   897. RY*(   3) H  51                  0.00012     1.88823   
   898. RY*(   4) H  51                  0.00008     2.13459   
   899. RY*(   5) H  51                  0.00002     2.96894   
   900. RY*(   1) H  52                  0.00089     0.90475   
   901. RY*(   2) H  52                  0.00019     1.88362   
   902. RY*(   3) H  52                  0.00012     2.17311   
   903. RY*(   4) H  52                  0.00006     2.10793   
   904. RY*(   5) H  52                  0.00001     2.99698   
   905. RY*(   1) H  53                  0.00111     0.80948   
   906. RY*(   2) H  53                  0.00024     2.30080   
   907. RY*(   3) H  53                  0.00009     2.30885   
   908. RY*(   4) H  53                  0.00005     2.15344   
   909. RY*(   5) H  53                  0.00003     3.08413   
   910. RY*(   1) H  54                  0.00060     1.02082   
   911. RY*(   2) H  54                  0.00019     1.97870   
   912. RY*(   3) H  54                  0.00012     2.29173   
   913. RY*(   4) H  54                  0.00008     1.94456   
   914. RY*(   5) H  54                  0.00002     3.05541   
   915. RY*(   1) H  55                  0.00078     0.88036   
   916. RY*(   2) H  55                  0.00018     1.85459   
   917. RY*(   3) H  55                  0.00010     2.19093   
   918. RY*(   4) H  55                  0.00007     2.15507   
   919. RY*(   5) H  55                  0.00001     2.97033   
   920. RY*(   1) H  56                  0.00055     1.44083   
   921. RY*(   2) H  56                  0.00014     2.04786   
   922. RY*(   3) H  56                  0.00011     2.18471   
   923. RY*(   4) H  56                  0.00006     1.80440   
   924. RY*(   5) H  56                  0.00002     2.96341   
   925. RY*(   1) H  57                  0.00090     1.08402   
   926. RY*(   2) H  57                  0.00013     1.89465   
   927. RY*(   3) H  57                  0.00010     2.14446   
   928. RY*(   4) H  57                  0.00008     2.01035   
   929. RY*(   5) H  57                  0.00001     2.94178   
   933. BD*(   1) P   3 - C   9          0.03384     0.24378   
   934. BD*(   1) P   3 - C  18          0.04827     0.20743   
   935. BD*(   1) P   3 - C  20          0.03507     0.20142   
   947. BD*(   1) C   9 - C  10          0.03793     0.44585   
   948. BD*(   1) C   9 - C  13          0.04762     0.41752   
   949. BD*(   2) C   9 - C  13          0.48426     0.04237  951(v),111(v),937(r),948(g)
                                                    103(r),105(r),934(v),435(g)
                                                    944(r),933(g),332(g),957(g)
                                                    329(g),433(g),357(v),114(r)
                                                    106(r),110(r),119(r),107(r)
                                                    104(r),121(r),125(r),120(r)
                                                    127(r),131(r),138(r),122(r)
                                                    117(r),102(r),123(r),113(r)
                                                    134(r),112(r),132(r),201(r)
   950. BD*(   1) C  10 - C  11          0.03441     0.43486   
   951. BD*(   2) C  10 - C  11          0.43821     0.04276  949(v),111(v),950(g),106(r)
                                                    103(r),102(r),105(r),944(r)
                                                    381(g),937(r),383(g),355(g)
                                                    358(g),952(g),954(g),113(r)
                                                    107(r)
   952. BD*(   1) C  10 - H  26          0.01626     0.41153   
   953. BD*(   1) C  11 - C  12          0.02867     0.44247   
   954. BD*(   1) C  11 - H  36          0.01427     0.40892   
   955. BD*(   1) C  12 - C  13          0.02978     0.44629   
   956. BD*(   1) C  12 - H  37          0.01552     0.40937   
   957. BD*(   1) C  13 - H  27          0.01623     0.42013   
   969. BD*(   1) C  18 - C  19          0.02572     0.34712   
   970. BD*(   1) C  18 - H  44          0.02450     0.36683   
   971. BD*(   1) C  18 - C  45          0.01051     0.36659   
   972. BD*(   1) C  19 - C  21          0.00920     0.35996   
   973. BD*(   1) C  19 - H  48          0.01875     0.37302   
   974. BD*(   1) C  19 - H  49          0.01851     0.36965   
   975. BD*(   1) C  20 - C  21          0.02442     0.33939   
   976. BD*(   1) C  20 - H  46          0.02441     0.36908   
   977. BD*(   1) C  20 - C  47          0.01147     0.35684   
   978. BD*(   1) C  21 - H  50          0.01446     0.37264   
   979. BD*(   1) C  21 - H  51          0.01768     0.36296   
   986. BD*(   1) C  45 - H  52          0.00974     0.37952   
   987. BD*(   1) C  45 - H  53          0.00953     0.38922   
   988. BD*(   1) C  45 - H  54          0.00713     0.38083   
   989. BD*(   1) C  47 - H  55          0.01034     0.37318   
   990. BD*(   1) C  47 - H  56          0.00708     0.38524   
   991. BD*(   1) C  47 - H  57          0.00945     0.37751   
       -------------------------------
              Total Lewis   95.13275  ( 98.2481%)
        Valence non-Lewis    1.53323  (  1.5834%)
        Rydberg non-Lewis    0.16314  (  0.1685%)
       -------------------------------
            Total unit  3   96.82912  (100.0000%)
           Charge unit  3    0.17088
 1\1\GINC-NC102\SP\RPBE1PBE\Gen\C22H32Fe1P2\MACKK4\05-Dec-2021\0\\# PBE
 1PBE gen pseudo=read int=(grid=ultrafine) empiricaldispersion=GD3BJ po
 p=nbo guess=read geom=check\\RR_Me_Ferrolane_3 title\\0,1\Fe,0,-0.0410
 485214,2.61343565,-0.025282636\P,0,-1.7766356896,-0.267190305,-0.03349
 58701\P,0,1.8000391764,-0.2224607338,-0.0020810666\C,0,-1.5325881541,1
 .4310766105,-0.642123297\C,0,-0.684224738,1.7845824403,-1.7585114477\C
 ,0,-0.6753980716,3.2128225021,-1.8870471089\C,0,-1.529075697,3.7574776
 597,-0.8707490125\C,0,-2.066074162,2.6677787479,-0.1063238303\C,0,1.49
 79691047,1.4794018205,0.5775840876\C,0,1.983401862,2.7423728562,0.0576
 389488\C,0,1.4037186929,3.8021767548,0.8332268693\C,0,0.572322779,3.21
 43782036,1.8437226138\C,0,0.6352034669,1.7895214565,1.69736853\C,0,-3.
 3534856737,-0.8497816067,-0.9096293102\C,0,-4.3143239184,-1.1451128929
 ,0.2660586568\C,0,-2.5624691625,-0.0418108593,1.6633932156\C,0,-4.0798
 907704,-0.0987062408,1.370169951\C,0,3.2811346453,-0.7157144303,1.0487
 100033\C,0,4.4667208769,-0.1564934087,0.2390273817\C,0,2.7698012244,-0
 .0332337876,-1.6097604673\C,0,4.2036335426,-0.4875950557,-1.2376684093
 \H,0,-0.1044816087,1.0778669394,-2.3527220957\H,0,-0.0822098856,3.7850
 667829,-2.6010497836\H,0,-1.6972684574,4.8169671037,-0.6736367657\H,0,
 -2.724128723,2.7611381684,0.7578047295\H,0,2.6345339681,2.8768692474,-
 0.805760928\H,0,0.0925550513,1.0529922185,2.2906596807\H,0,-3.08664101
 7,-1.786414132,-1.4225511384\C,0,-3.9106514543,0.1685153744,-1.9113052
 132\H,0,-2.2648252577,0.9553264325,2.0319651299\C,0,-2.0888464666,-1.1
 121607426,2.6572471032\H,0,-4.0941443684,-2.1546294521,0.6530120999\H,
 0,-5.3627223441,-1.138172622,-0.0834415675\H,0,-4.4337764827,0.8922234
 267,1.0278883017\H,0,-4.6411779487,-0.343297988,2.2901557897\H,0,1.532
 2627077,4.8692878779,0.6478661094\H,0,-0.0406670342,3.755499237,2.5652
 998348\H,0,-4.8090764169,-0.2564161259,-2.3932077561\H,0,-3.1835162152
 ,0.4083222359,-2.7047981293\H,0,-4.2016256927,1.1177814567,-1.42927398
 97\H,0,-2.3044862885,-2.1292053141,2.2918903357\H,0,-0.9967499863,-1.0
 600263116,2.8107996445\H,0,-2.5879735274,-0.9645164264,3.6317650852\H,
 0,3.2872159253,-1.8176422683,0.9847923977\C,0,3.2188819824,-0.27922085
 58,2.5108141633\H,0,2.7713888713,1.0484649088,-1.8352305222\C,0,2.1829
 958683,-0.7985241807,-2.7999878368\H,0,5.4160696376,-0.5962508326,0.59
 50142101\H,0,4.5402726157,0.9395579857,0.385842644\H,0,4.9428717919,-0
 .019289532,-1.9117347042\H,0,4.2663904704,-1.5816195043,-1.3800544083\
 H,0,4.11639952,-0.6403688542,3.0433781141\H,0,3.1826092139,0.818976864
 8,2.6128316115\H,0,2.337716183,-0.7043569456,3.0214026963\H,0,2.841162
 3865,-0.6786850711,-3.6795031036\H,0,1.1793180336,-0.4342402042,-3.077
 3014368\H,0,2.0952546112,-1.8713946022,-2.563689984\\Version=ES64L-G09
 RevE.01\State=1-A\HF=-1663.3057741\RMSD=1.040e-09\Dipole=0.0700337,0.5
 251953,0.0278687\Quadrupole=-0.1388287,1.0177208,-0.878892,-0.2174392,
 -5.0117756,-0.3243862\PG=C01 [X(C22H32Fe1P2)]\\@


 ON A TOMBSTONE, "HERE LIES LESTER MOORE,
 FOUR SLUGS FROM A 44, NO LES, NO MORE".
 Job cpu time:       0 days  0 hours 58 minutes  7.6 seconds.
 File lengths (MBytes):  RWF=    506 Int=      0 D2E=      0 Chk=     80 Scr=      1
 Normal termination of Gaussian 09 at Sun Dec  5 03:07:08 2021.
