 Entering Gaussian System, Link 0=g09
 Input=RR_Me_Ferrolane_2_SPE.com
 Output=RR_Me_Ferrolane_2_SPE.log
 Initial command:
 /gstore/apps/gaussian/g09.e01-foss-2017a/g09/l1.exe "/local/22791344/Gau-11922.inp" -scrdir="/local/22791344/"
 Entering Link 1 = /gstore/apps/gaussian/g09.e01-foss-2017a/g09/l1.exe PID=     11923.
  
 Copyright (c) 1988,1990,1992,1993,1995,1998,2003,2009,2015,
            Gaussian, Inc.  All Rights Reserved.
  
 This is part of the Gaussian(R) 09 program.  It is based on
 the Gaussian(R) 03 system (copyright 2003, Gaussian, Inc.),
 the Gaussian(R) 98 system (copyright 1998, Gaussian, Inc.),
 the Gaussian(R) 94 system (copyright 1995, Gaussian, Inc.),
 the Gaussian 92(TM) system (copyright 1992, Gaussian, Inc.),
 the Gaussian 90(TM) system (copyright 1990, Gaussian, Inc.),
 the Gaussian 88(TM) system (copyright 1988, Gaussian, Inc.),
 the Gaussian 86(TM) system (copyright 1986, Carnegie Mellon
 University), and the Gaussian 82(TM) system (copyright 1983,
 Carnegie Mellon University). Gaussian is a federally registered
 trademark of Gaussian, Inc.
  
 This software contains proprietary and confidential information,
 including trade secrets, belonging to Gaussian, Inc.
  
 This software is provided under written license and may be
 used, copied, transmitted, or stored only in accord with that
 written license.
  
 The following legend is applicable only to US Government
 contracts under FAR:
  
                    RESTRICTED RIGHTS LEGEND
  
 Use, reproduction and disclosure by the US Government is
 subject to restrictions as set forth in subparagraphs (a)
 and (c) of the Commercial Computer Software - Restricted
 Rights clause in FAR 52.227-19.
  
 Gaussian, Inc.
 340 Quinnipiac St., Bldg. 40, Wallingford CT 06492
  
  
 ---------------------------------------------------------------
 Warning -- This program may not be used in any manner that
 competes with the business of Gaussian, Inc. or will provide
 assistance to any competitor of Gaussian, Inc.  The licensee
 of this program is prohibited from giving any competitor of
 Gaussian, Inc. access to this program.  By using this program,
 the user acknowledges that Gaussian, Inc. is engaged in the
 business of creating and licensing software in the field of
 computational chemistry and represents and warrants to the
 licensee that it is not a competitor of Gaussian, Inc. and that
 it will not use this program in any manner prohibited above.
 ---------------------------------------------------------------
  

 Cite this work as:
 Gaussian 09, Revision E.01,
 M. J. Frisch, G. W. Trucks, H. B. Schlegel, G. E. Scuseria, 
 M. A. Robb, J. R. Cheeseman, G. Scalmani, V. Barone, B. Mennucci, 
 G. A. Petersson, H. Nakatsuji, M. Caricato, X. Li, H. P. Hratchian, 
 A. F. Izmaylov, J. Bloino, G. Zheng, J. L. Sonnenberg, M. Hada, 
 M. Ehara, K. Toyota, R. Fukuda, J. Hasegawa, M. Ishida, T. Nakajima, 
 Y. Honda, O. Kitao, H. Nakai, T. Vreven, J. A. Montgomery, Jr., 
 J. E. Peralta, F. Ogliaro, M. Bearpark, J. J. Heyd, E. Brothers, 
 K. N. Kudin, V. N. Staroverov, T. Keith, R. Kobayashi, J. Normand, 
 K. Raghavachari, A. Rendell, J. C. Burant, S. S. Iyengar, J. Tomasi, 
 M. Cossi, N. Rega, J. M. Millam, M. Klene, J. E. Knox, J. B. Cross, 
 V. Bakken, C. Adamo, J. Jaramillo, R. Gomperts, R. E. Stratmann, 
 O. Yazyev, A. J. Austin, R. Cammi, C. Pomelli, J. W. Ochterski, 
 R. L. Martin, K. Morokuma, V. G. Zakrzewski, G. A. Voth, 
 P. Salvador, J. J. Dannenberg, S. Dapprich, A. D. Daniels, 
 O. Farkas, J. B. Foresman, J. V. Ortiz, J. Cioslowski, 
 and D. J. Fox, Gaussian, Inc., Wallingford CT, 2013.
 
 ******************************************
 Gaussian 09:  ES64L-G09RevE.01 30-Nov-2015
                 5-Dec-2021 
 ******************************************
 %nprocs=14
 Will use up to   14 processors via shared memory.
 %mem=128GB
 %chk=RR_Me_Ferrolane_2_SPE.chk
 ----------------------------------------------------------------------
 # PBE1PBE gen pseudo=read int=(grid=ultrafine) empiricaldispersion=GD3
 BJ nmr=giao
 ----------------------------------------------------------------------
 1/38=1/1;
 2/12=2,17=6,18=5,40=1/2;
 3/5=7,11=2,16=1,17=8,25=1,30=1,74=-13,75=-5,124=41/1,2,8,3;
 4//1;
 5/5=2,38=5/2;
 8/6=1,10=90,11=11/1;
 10/13=100,45=16/2;
 6/7=2,8=2,9=2,10=2,28=1/1;
 99/9=1/99;
 -----------------------
 RR_Me_Ferrolane_2 title
 -----------------------
 Symbolic Z-matrix:
 Charge =  0 Multiplicity = 1
 Fe                   -0.03362   2.61223   0.10655 
 P                    -1.81115  -0.26286   0.06658 
 P                     1.76656  -0.22791   0.09639 
 C                    -1.54727   1.44851  -0.50362 
 C                    -0.69056   1.78292  -1.62104 
 C                    -0.65815   3.20949  -1.75999 
 C                    -1.50285   3.77404  -0.74725 
 C                    -2.06029   2.69803   0.02234 
 C                     1.48441   1.4603    0.71636 
 C                     1.98952   2.71291   0.19018 
 C                     1.42673   3.7842    0.96213 
 C                     0.58509   3.2124    1.97354 
 C                     0.62717   1.78577   1.83445 
 C                    -3.28076  -0.78326  -0.98729 
 C                    -4.47835  -0.25352  -0.1755 
 C                    -2.78518  -0.10394   1.67497 
 C                    -4.20903  -0.5863    1.29972 
 C                     3.35636  -0.78084   0.96856 
 C                     4.32304  -1.04721  -0.20922 
 C                     2.54677   0.02625  -1.59908 
 C                     4.06518   0.00092  -1.30644 
 H                    -0.13161   1.0612   -2.21737 
 H                    -0.05636   3.7674   -2.47819 
 H                    -1.65437   4.83718  -0.55649 
 H                    -2.71464   2.81386   0.88602 
 H                     2.64607   2.82789  -0.67251 
 H                     0.0637    1.06132   2.42293 
 Cl                   -1.7001   -3.38862   0.33749 
 Cl                    1.65701  -3.41145   0.11541 
 Pd                   -0.01092  -1.69579   0.14495 
 H                    -3.26291  -1.88534  -0.92873 
 C                    -3.22768  -0.33835  -2.44723 
 H                    -2.80941   0.97607   1.90706 
 C                    -2.18253  -0.86398   2.86069 
 H                    -5.41805  -0.71148  -0.53416 
 H                    -4.57507   0.84144  -0.31688 
 H                    -4.95828  -0.13697   1.97563 
 H                    -4.24893  -1.68209   1.43667 
 H                     1.57058   4.84872   0.77307 
 H                    -0.02179   3.7653    2.69126 
 H                    -2.33748  -0.74184  -2.95971 
 H                    -3.21514   0.76087  -2.54378 
 H                    -4.11715  -0.71615  -2.98173 
 H                    -1.18726  -0.4796    3.14117 
 H                    -2.07122  -1.93313   2.61759 
 H                    -2.84367  -0.76425   3.74048 
 H                     3.11064  -1.72637   1.47565 
 C                     3.89096   0.24339   1.97643 
 H                     2.22718   1.01922  -1.9605 
 C                     2.09661  -1.04738  -2.60017 
 H                     4.12499  -2.05877  -0.60273 
 H                     5.37117  -1.01946   0.14006 
 H                     4.39719   0.99721  -0.95785 
 H                     4.63149  -0.22529  -2.22805 
 H                     4.16052   1.2019    1.50029 
 H                     4.79883  -0.16434   2.45551 
 H                     3.15893   0.46195   2.77156 
 H                     2.33489  -2.06188  -2.24183 
 H                     2.59201  -0.8821   -3.57376 
 H                     1.00358  -1.0185   -2.75322 
 
 Stoichiometry    C22H32Cl2FeP2Pd
 Framework group  C1[X(C22H32Cl2FeP2Pd)]
 Deg. of freedom   174
 Full point group                 C1      NOp   1
 Largest Abelian subgroup         C1      NOp   1
 Largest concise Abelian subgroup C1      NOp   1
                         Standard orientation:                         
 ---------------------------------------------------------------------
 Center     Atomic      Atomic             Coordinates (Angstroms)
 Number     Number       Type             X           Y           Z
 ---------------------------------------------------------------------
      1         26           0       -0.057703    2.604935   -0.041111
      2         15           0        1.806126   -0.214034    0.042108
      3         15           0       -1.769757   -0.289172   -0.055359
      4          6           0        1.479094    1.490007    0.601453
      5          6           0        0.591479    1.801040    1.701366
      6          6           0        0.512679    3.226317    1.834856
      7          6           0        1.358723    3.813743    0.836345
      8          6           0        1.963416    2.753231    0.081053
      9          6           0       -1.527833    1.405175   -0.675586
     10          6           0       -2.081034    2.643134   -0.163259
     11          6           0       -1.536828    3.729054   -0.928062
     12          6           0       -0.659007    3.180577   -1.921462
     13          6           0       -0.659917    1.753730   -1.778378
     14          6           0        3.270755   -0.686062    1.125282
     15          6           0        4.466715   -0.122024    0.334471
     16          6           0        2.805164   -0.029734   -1.548131
     17          6           0        4.235773   -0.467039   -1.144443
     18          6           0       -3.325012   -0.893146   -0.955509
     19          6           0       -4.305231   -1.185814    0.204697
     20          6           0       -2.589430   -0.054378    1.624213
     21          6           0       -4.100520   -0.127194    1.303050
     22          1           0        0.043719    1.064147    2.289466
     23          1           0       -0.119463    3.767467    2.539689
     24          1           0        1.481136    4.880498    0.644895
     25          1           0        2.630169    2.886716   -0.770508
     26          1           0       -2.757045    2.740281    0.686492
     27          1           0       -0.063423    1.045303   -2.353672
     28         17           0        1.796206   -3.342473   -0.220302
     29         17           0       -1.562228   -3.467873   -0.061562
     30         46           0        0.052524   -1.701839   -0.065397
     31          1           0        3.287846   -1.788324    1.070117
     32          6           0        3.176356   -0.238912    2.582451
     33          1           0        2.800641    1.049860   -1.783366
     34          6           0        2.248724   -0.811246   -2.742446
     35          1           0        5.413049   -0.549875    0.712344
     36          1           0        4.527087    0.975788    0.473949
     37          1           0        4.983574    0.003222   -1.807595
     38          1           0        4.311868   -1.561460   -1.276912
     39          1           0       -1.716842    4.789180   -0.745344
     40          1           0       -0.055871    3.749873   -2.629460
     41          1           0        2.289399   -0.668147    3.079396
     42          1           0        3.128266    0.859663    2.675039
     43          1           0        4.066704   -0.587696    3.134918
     44          1           0        1.247631   -0.458430   -3.042957
     45          1           0        2.165689   -1.882636   -2.497883
     46          1           0        2.923074   -0.693700   -3.609934
     47          1           0       -3.040810   -1.832090   -1.454682
     48          6           0       -3.871567    0.111340   -1.976747
     49          1           0       -2.307370    0.948946    1.988255
     50          6           0       -2.125615   -1.110865    2.637243
     51          1           0       -4.083737   -2.189709    0.605290
     52          1           0       -5.346904   -1.191283   -0.164394
     53          1           0       -4.456265    0.857441    0.944898
     54          1           0       -4.677002   -0.368135    2.214562
     55          1           0       -4.179393    1.062440   -1.509017
     56          1           0       -4.757245   -0.325436   -2.471502
     57          1           0       -3.131629    0.350085   -2.758642
     58          1           0       -2.325810   -2.133204    2.277894
     59          1           0       -2.644227   -0.958171    3.600745
     60          1           0       -1.037085   -1.047970    2.810807
 ---------------------------------------------------------------------
 Rotational constants (GHZ):      0.1515690      0.1462967      0.0959364
 General basis read from cards:  (5D, 7F)
 ======================================================================================================
                                       Pseudopotential Parameters
 ======================================================================================================
  Center     Atomic      Valence      Angular      Power
  Number     Number     Electrons     Momentum     of R      Exponent        Coefficient   SO-Coeffient
 ======================================================================================================
    1         26           16
                                      F and up 
                                                     2        1.0000000        0.00000000    0.00000000
                                      S - F
                                                     2       20.9300000      253.74958800    0.00000000
                                                     2        9.4450000       37.92284500    0.00000000
                                      P - F
                                                     2       21.7600000      161.03681200    0.00000000
                                                     2        9.1780000       27.65129800    0.00000000
                                      D - F
                                                     2       25.9000000      -24.43127600    0.00000000
                                                     2        8.8350000       -1.43425100    0.00000000
    2         15
                                   No pseudopotential on this center.
    3         15
                                   No pseudopotential on this center.
    4          6
                                   No pseudopotential on this center.
    5          6
                                   No pseudopotential on this center.
    6          6
                                   No pseudopotential on this center.
    7          6
                                   No pseudopotential on this center.
    8          6
                                   No pseudopotential on this center.
    9          6
                                   No pseudopotential on this center.
   10          6
                                   No pseudopotential on this center.
   11          6
                                   No pseudopotential on this center.
   12          6
                                   No pseudopotential on this center.
   13          6
                                   No pseudopotential on this center.
   14          6
                                   No pseudopotential on this center.
   15          6
                                   No pseudopotential on this center.
   16          6
                                   No pseudopotential on this center.
   17          6
                                   No pseudopotential on this center.
   18          6
                                   No pseudopotential on this center.
   19          6
                                   No pseudopotential on this center.
   20          6
                                   No pseudopotential on this center.
   21          6
                                   No pseudopotential on this center.
   22          1
                                   No pseudopotential on this center.
   23          1
                                   No pseudopotential on this center.
   24          1
                                   No pseudopotential on this center.
   25          1
                                   No pseudopotential on this center.
   26          1
                                   No pseudopotential on this center.
   27          1
                                   No pseudopotential on this center.
   28         17
                                   No pseudopotential on this center.
   29         17
                                   No pseudopotential on this center.
   30         46           18
                                      G and up 
                                                     2        1.0000000        0.00000000    0.00000000
                                      S - G
                                                     2       12.4300000      240.22904000    0.00000000
                                                     2        6.1707590       35.17194300    0.00000000
                                      P - G
                                                     2       11.0800000      170.41727600    0.00000000
                                                     2        5.8295540       28.47213300    0.00000000
                                      D - G
                                                     2        9.5100000       69.01384500    0.00000000
                                                     2        4.1397810       11.75086200    0.00000000
                                      F - G
                                                     2       13.2700000      -31.92955400    0.00000000
                                                     2        6.6300000       -5.39821700    0.00000000
   31          1
                                   No pseudopotential on this center.
   32          6
                                   No pseudopotential on this center.
   33          1
                                   No pseudopotential on this center.
   34          6
                                   No pseudopotential on this center.
   35          1
                                   No pseudopotential on this center.
   36          1
                                   No pseudopotential on this center.
   37          1
                                   No pseudopotential on this center.
   38          1
                                   No pseudopotential on this center.
   39          1
                                   No pseudopotential on this center.
   40          1
                                   No pseudopotential on this center.
   41          1
                                   No pseudopotential on this center.
   42          1
                                   No pseudopotential on this center.
   43          1
                                   No pseudopotential on this center.
   44          1
                                   No pseudopotential on this center.
   45          1
                                   No pseudopotential on this center.
   46          1
                                   No pseudopotential on this center.
   47          1
                                   No pseudopotential on this center.
   48          6
                                   No pseudopotential on this center.
   49          1
                                   No pseudopotential on this center.
   50          6
                                   No pseudopotential on this center.
   51          1
                                   No pseudopotential on this center.
   52          1
                                   No pseudopotential on this center.
   53          1
                                   No pseudopotential on this center.
   54          1
                                   No pseudopotential on this center.
   55          1
                                   No pseudopotential on this center.
   56          1
                                   No pseudopotential on this center.
   57          1
                                   No pseudopotential on this center.
   58          1
                                   No pseudopotential on this center.
   59          1
                                   No pseudopotential on this center.
   60          1
                                   No pseudopotential on this center.
 ======================================================================================================
 There are  1240 symmetry adapted cartesian basis functions of A   symmetry.
 There are  1101 symmetry adapted basis functions of A   symmetry.
  1101 basis functions,  1794 primitive gaussians,  1240 cartesian basis functions
   131 alpha electrons      131 beta electrons
       nuclear repulsion energy      4489.9344212082 Hartrees.
 NAtoms=   60 NActive=   60 NUniq=   60 SFac= 1.00D+00 NAtFMM=   60 NAOKFM=T Big=T
 Integral buffers will be    131072 words long.
 Raffenetti 2 integral format.
 Two-electron integral symmetry is turned on.
 Nuclear repulsion after empirical dispersion term =     4489.8307976314 Hartrees.
 One-electron integrals computed using PRISM.
   1 Symmetry operations used in ECPInt.
 ECPInt:  NShTT=  101926 NPrTT=  307682 LenC2=   89564 LenP2D=  189281.
 LDataN:  DoStor=T MaxTD1= 7 Len=  274
 NBasis=  1101 RedAO= T EigKep=  1.42D-05  NBF=  1101
 NBsUse=  1101 1.00D-06 EigRej= -1.00D+00 NBFU=  1101
 Defaulting to unpruned grid for atomic number  46.
 ExpMin= 1.00D-02 ExpMax= 6.95D+04 ExpMxC= 2.37D+03 IAcc=3 IRadAn=         5 AccDes= 0.00D+00
 Harris functional with IExCor= 1009 and IRadAn=       5 diagonalized for initial guess.
 HarFok:  IExCor= 1009 AccDes= 0.00D+00 IRadAn=         5 IDoV= 1 UseB2=F ITyADJ=14
 ICtDFT=  3500011 ScaDFX=  1.000000  1.000000  1.000000  1.000000
 Defaulting to unpruned grid for atomic number  46.
 Defaulting to unpruned grid for atomic number  46.
 Defaulting to unpruned grid for atomic number  46.
 Defaulting to unpruned grid for atomic number  46.
 Defaulting to unpruned grid for atomic number  46.
 Defaulting to unpruned grid for atomic number  46.
 Defaulting to unpruned grid for atomic number  46.
 Defaulting to unpruned grid for atomic number  46.
 Defaulting to unpruned grid for atomic number  46.
 Defaulting to unpruned grid for atomic number  46.
 Defaulting to unpruned grid for atomic number  46.
 Defaulting to unpruned grid for atomic number  46.
 Defaulting to unpruned grid for atomic number  46.
 Defaulting to unpruned grid for atomic number  46.
 FoFCou: FMM=F IPFlag=           0 FMFlag=      100000 FMFlg1=        2001
         NFxFlg=           0 DoJE=T BraDBF=F KetDBF=T FulRan=T
         wScrn=  0.000000 ICntrl=     500 IOpCl=  0 I1Cent=   200000004 NGrid=           0
         NMat0=    1 NMatS0=      1 NMatT0=    0 NMatD0=    1 NMtDS0=    0 NMtDT0=    0
 Petite list used in FoFCou.
 Requested convergence on RMS density matrix=1.00D-08 within 128 cycles.
 Requested convergence on MAX density matrix=1.00D-06.
 Requested convergence on             energy=1.00D-06.
 No special actions if energy rises.
 Defaulting to unpruned grid for atomic number  46.
 Defaulting to unpruned grid for atomic number  46.
 Defaulting to unpruned grid for atomic number  46.
 Defaulting to unpruned grid for atomic number  46.
 Defaulting to unpruned grid for atomic number  46.
 Defaulting to unpruned grid for atomic number  46.
 Defaulting to unpruned grid for atomic number  46.
 Defaulting to unpruned grid for atomic number  46.
 Defaulting to unpruned grid for atomic number  46.
 Defaulting to unpruned grid for atomic number  46.
 Defaulting to unpruned grid for atomic number  46.
 Defaulting to unpruned grid for atomic number  46.
 Defaulting to unpruned grid for atomic number  46.
 Defaulting to unpruned grid for atomic number  46.
 EnCoef did     3 forward-backward iterations
 EnCoef did   100 forward-backward iterations
 EnCoef did     4 forward-backward iterations
 EnCoef did     5 forward-backward iterations
 EnCoef did     4 forward-backward iterations
 EnCoef did     4 forward-backward iterations
 EnCoef did     1 forward-backward iterations
 Restarting incremental Fock formation.
 SCF Done:  E(RPBE1PBE) =  -2711.51113095     A.U. after   25 cycles
            NFock= 25  Conv=0.37D-08     -V/T= 2.0547
 DoSCS=F DFT=T ScalE2(SS,OS)=  1.000000  1.000000
 Range of M.O.s used for correlation:     1  1101
 NBasis=  1101 NAE=   131 NBE=   131 NFC=     0 NFV=     0
 NROrb=   1101 NOA=   131 NOB=   131 NVA=   970 NVB=   970

 **** Warning!!: The largest alpha MO coefficient is  0.32565877D+02

          Differentiating once with respect to magnetic field using GIAOs.
          Electric field/nuclear overlap derivatives assumed to be zero.
 Defaulting to unpruned grid for atomic number  46.
 FoFCou: FMM=F IPFlag=           0 FMFlag=      100000 FMFlg1=        2001
         NFxFlg=           0 DoJE=F BraDBF=F KetDBF=T FulRan=T
         wScrn=  0.000000 ICntrl=    6100 IOpCl=  0 I1Cent=           7 NGrid=          60
         NMat0=    1 NMatS0=      1 NMatT0=    0 NMatD0=    1 NMtDS0=    0 NMtDT0=    0
 Symmetry not used in FoFCou.
   1 Symmetry operations used in ECPInt.
 ECPInt:  NShTT=  101926 NPrTT=  307682 LenC2=  101927 LenP2D=  307682.
 LDataN:  DoStor=T MaxTD1= 8 Len=  415
 FoFJK:  IHMeth= 1 ICntrl=    6127 DoSepK=F KAlg= 0 I1Cent=   0 FoldK=F
 IRaf=         1 NMat=   1 IRICut=       1 DoRegI=T DoRafI=F ISym2E= 0.
 Defaulting to unpruned grid for atomic number  46.
 Defaulting to unpruned grid for atomic number  46.
 Defaulting to unpruned grid for atomic number  46.
 Defaulting to unpruned grid for atomic number  46.
 Defaulting to unpruned grid for atomic number  46.
 Defaulting to unpruned grid for atomic number  46.
 Defaulting to unpruned grid for atomic number  46.
 Defaulting to unpruned grid for atomic number  46.
 Defaulting to unpruned grid for atomic number  46.
 Defaulting to unpruned grid for atomic number  46.
 Defaulting to unpruned grid for atomic number  46.
 Defaulting to unpruned grid for atomic number  46.
 Defaulting to unpruned grid for atomic number  46.
 Defaulting to unpruned grid for atomic number  46.
          There are     3 degrees of freedom in the 1st order CPHF.  IDoFFX=0 NUNeed=     3.
      3 vectors produced by pass  0 Test12= 4.24D-12 3.33D-08 XBig12= 1.04D+02 2.03D+00.
 AX will form     3 AO Fock derivatives at one time.
      3 vectors produced by pass  1 Test12= 4.24D-12 3.33D-08 XBig12= 9.41D-01 5.05D-01.
      3 vectors produced by pass  2 Test12= 4.24D-12 3.33D-08 XBig12= 3.35D-02 4.86D-02.
      3 vectors produced by pass  3 Test12= 4.24D-12 3.33D-08 XBig12= 3.88D-04 7.57D-03.
      3 vectors produced by pass  4 Test12= 4.24D-12 3.33D-08 XBig12= 1.47D-05 1.24D-03.
      3 vectors produced by pass  5 Test12= 4.24D-12 3.33D-08 XBig12= 2.80D-07 2.13D-04.
      3 vectors produced by pass  6 Test12= 4.24D-12 3.33D-08 XBig12= 8.34D-09 4.72D-05.
      3 vectors produced by pass  7 Test12= 4.24D-12 3.33D-08 XBig12= 7.48D-11 3.97D-06.
      3 vectors produced by pass  8 Test12= 4.24D-12 3.33D-08 XBig12= 5.30D-13 2.62D-07.
 InvSVY:  IOpt=1 It=  1 EMax= 5.33D-15
 Solved reduced A of dimension    27 with     3 vectors.
 Calculating GIAO nuclear magnetic shielding tensors.
 SCF GIAO Magnetic shielding tensor (ppm):
      1  Fe   Isotropic = -5863.9742   Anisotropy =  7806.3270
   XX= -3808.6277   YX=   142.1281   ZX=  3899.4959
   XY=   139.3455   YY= -8503.4365   ZY=   153.5584
   XZ=  3718.0567   YZ=   147.4497   ZZ= -5279.8584
   Eigenvalues: -8516.3087 -8415.8578  -659.7562
      2  P    Isotropic =   213.3942   Anisotropy =   126.9505
   XX=   280.0628   YX=    53.2263   ZX=    12.1637
   XY=    37.1632   YY=   181.8244   ZY=   -20.0426
   XZ=     8.0307   YZ=     3.0579   ZZ=   178.2954
   Eigenvalues:   157.6186   184.5361   298.0278
      3  P    Isotropic =   202.2905   Anisotropy =   103.3367
   XX=   266.8046   YX=   -26.0743   ZX=    12.0477
   XY=   -15.9262   YY=   165.7581   ZY=    24.4015
   XZ=   -12.6979   YZ=    15.0009   ZZ=   174.3088
   Eigenvalues:   147.6065   188.0834   271.1816
      4  C    Isotropic =   106.9618   Anisotropy =    82.5560
   XX=   124.9416   YX=    29.3804   ZX=    32.0506
   XY=    20.3912   YY=    72.7057   ZY=     2.7210
   XZ=    32.3235   YZ=    10.0556   ZZ=   123.2380
   Eigenvalues:    61.9753    96.9110   161.9991
      5  C    Isotropic =   103.4801   Anisotropy =    88.9627
   XX=   136.2564   YX=    -7.6728   ZX=    40.9264
   XY=    -8.9550   YY=    84.7106   ZY=    28.7729
   XZ=    43.6128   YZ=    40.1836   ZZ=    89.4732
   Eigenvalues:    38.9280   108.7236   162.7886
      6  C    Isotropic =   106.7659   Anisotropy =    90.4931
   XX=   138.7976   YX=     1.3739   ZX=    41.0038
   XY=     8.7533   YY=    95.2688   ZY=   -21.2105
   XZ=    52.4532   YZ=   -27.9012   ZZ=    86.2313
   Eigenvalues:    47.0641   106.1390   167.0946
      7  C    Isotropic =   110.6436   Anisotropy =    87.5878
   XX=   136.9082   YX=   -29.8314   ZX=    30.1973
   XY=   -18.6109   YY=    59.4458   ZY=     1.1734
   XZ=    26.0900   YZ=   -15.4517   ZZ=   135.5768
   Eigenvalues:    52.4848   110.4105   169.0355
      8  C    Isotropic =   107.8383   Anisotropy =    79.3937
   XX=    98.4329   YX=   -10.0100   ZX=    60.6398
   XY=   -13.7808   YY=   112.3605   ZY=     8.8086
   XZ=    48.4180   YZ=     4.0206   ZZ=   112.7217
   Eigenvalues:    47.8879   114.8596   160.7675
      9  C    Isotropic =   105.6991   Anisotropy =    84.5774
   XX=   125.3572   YX=   -23.0558   ZX=    34.9234
   XY=   -16.2193   YY=    69.5348   ZY=     1.8381
   XZ=    36.0874   YZ=    -6.5638   ZZ=   122.2053
   Eigenvalues:    61.6705    93.3428   162.0840
     10  C    Isotropic =   108.0034   Anisotropy =    80.4984
   XX=    97.0931   YX=     7.2527   ZX=    62.2383
   XY=    13.1368   YY=   113.9738   ZY=    -6.1024
   XZ=    48.8465   YZ=     1.8196   ZZ=   112.9434
   Eigenvalues:    47.6591   114.6822   161.6690
     11  C    Isotropic =   110.1473   Anisotropy =    87.6171
   XX=   133.3997   YX=    34.3712   ZX=    30.3525
   XY=    22.7065   YY=    61.6744   ZY=     0.9562
   XZ=    24.3207   YZ=    17.8886   ZZ=   135.3678
   Eigenvalues:    51.7046   110.1786   168.5587
     12  C    Isotropic =   106.8315   Anisotropy =    90.8993
   XX=   139.1739   YX=     1.1979   ZX=    39.9375
   XY=    -5.7685   YY=    95.5969   ZY=    23.1554
   XZ=    51.7425   YZ=    30.1355   ZZ=    85.7237
   Eigenvalues:    47.0161   106.0475   167.4310
     13  C    Isotropic =   104.1384   Anisotropy =    85.9811
   XX=   134.1741   YX=    11.3163   ZX=    40.6246
   XY=    13.4313   YY=    87.4656   ZY=   -27.6044
   XZ=    45.4757   YZ=   -38.9155   ZZ=    90.7756
   Eigenvalues:    39.0398   111.9163   161.4592
     14  C    Isotropic =   138.5221   Anisotropy =    32.3493
   XX=   157.4183   YX=    -5.0792   ZX=     2.7534
   XY=     1.1688   YY=   118.2223   ZY=    -8.5578
   XZ=    11.0688   YZ=    -0.4947   ZZ=   139.9256
   Eigenvalues:   117.3079   138.1700   160.0883
     15  C    Isotropic =   147.5913   Anisotropy =    29.7806
   XX=   157.3268   YX=     2.7564   ZX=   -10.1412
   XY=    12.6384   YY=   121.7381   ZY=     2.2881
   XZ=    -1.4393   YZ=    -1.6860   ZZ=   163.7089
   Eigenvalues:   120.0942   155.2346   167.4450
     16  C    Isotropic =   143.5958   Anisotropy =    28.8721
   XX=   160.3380   YX=     2.8477   ZX=    -0.8005
   XY=    -2.4041   YY=   118.7553   ZY=    -3.1786
   XZ=    -9.6063   YZ=    -3.6957   ZZ=   151.6941
   Eigenvalues:   118.3980   149.5455   162.8438
     17  C    Isotropic =   146.8460   Anisotropy =    26.6246
   XX=   161.3367   YX=    -3.8834   ZX=    10.1534
   XY=    -9.0054   YY=   124.1404   ZY=     8.7693
   XZ=     0.5333   YZ=     3.0985   ZZ=   155.0609
   Eigenvalues:   121.6767   154.2655   164.5957
     18  C    Isotropic =   140.2512   Anisotropy =    35.8735
   XX=   158.1287   YX=     6.7978   ZX=    11.6566
   XY=    13.1678   YY=   125.3340   ZY=    -4.4389
   XZ=     7.9751   YZ=     3.2105   ZZ=   137.2909
   Eigenvalues:   121.7465   134.8402   164.1669
     19  C    Isotropic =   146.5126   Anisotropy =    39.6054
   XX=   162.0374   YX=    10.9574   ZX=   -11.9177
   XY=    20.0180   YY=   125.4531   ZY=    12.6379
   XZ=   -13.4218   YZ=    -1.4920   ZZ=   152.0474
   Eigenvalues:   116.9963   149.6255   172.9162
     20  C    Isotropic =   142.1752   Anisotropy =    30.2397
   XX=   154.4662   YX=     4.9947   ZX=    -8.8142
   XY=    -1.5062   YY=   122.0518   ZY=     7.2401
   XZ=   -10.0899   YZ=     9.4153   ZZ=   150.0076
   Eigenvalues:   119.2266   144.9640   162.3350
     21  C    Isotropic =   149.9400   Anisotropy =    34.6014
   XX=   172.4349   YX=     4.3861   ZX=    -2.9577
   XY=     5.3044   YY=   128.1225   ZY=    15.1832
   XZ=     2.9484   YZ=     4.1145   ZZ=   149.2626
   Eigenvalues:   123.9586   152.8538   173.0076
     22  H    Isotropic =    27.3480   Anisotropy =     3.8728
   XX=    27.7176   YX=     1.4783   ZX=    -1.7870
   XY=     2.3122   YY=    28.2205   ZY=     1.6139
   XZ=    -2.0973   YZ=     0.8618   ZZ=    26.1058
   Eigenvalues:    23.7949    28.3191    29.9298
     23  H    Isotropic =    27.2044   Anisotropy =     8.0852
   XX=    25.2742   YX=    -0.9432   ZX=    -2.2386
   XY=    -1.1687   YY=    28.7078   ZY=     3.6853
   XZ=    -2.7193   YZ=     3.4480   ZZ=    27.6312
   Eigenvalues:    23.3799    25.6388    32.5945
     24  H    Isotropic =    27.3669   Anisotropy =     9.3267
   XX=    24.6360   YX=     1.7978   ZX=    -0.6795
   XY=     1.4832   YY=    33.2742   ZY=    -0.0009
   XZ=    -0.7867   YZ=    -0.3329   ZZ=    24.1905
   Eigenvalues:    23.5632    24.9529    33.5847
     25  H    Isotropic =    27.5735   Anisotropy =     5.1681
   XX=    26.9286   YX=     0.7784   ZX=    -4.1345
   XY=     0.8200   YY=    30.2103   ZY=    -0.4548
   XZ=    -3.2463   YZ=    -0.4484   ZZ=    25.5817
   Eigenvalues:    22.5002    29.2015    31.0189
     26  H    Isotropic =    27.5711   Anisotropy =     4.8590
   XX=    26.9641   YX=    -0.9572   ZX=    -3.9411
   XY=    -0.9155   YY=    30.3450   ZY=    -0.0717
   XZ=    -3.0707   YZ=    -0.1859   ZZ=    25.4042
   Eigenvalues:    22.5318    29.3711    30.8105
     27  H    Isotropic =    27.2028   Anisotropy =     4.7736
   XX=    27.0475   YX=    -2.2859   ZX=    -2.1612
   XY=    -3.0646   YY=    28.0188   ZY=    -1.5466
   XZ=    -2.5409   YZ=    -0.8282   ZZ=    26.5421
   Eigenvalues:    22.9542    28.2690    30.3852
     28  Cl   Isotropic =   892.7911   Anisotropy =   403.2297
   XX=   728.0113   YX=  -129.1191   ZX=    32.1494
   XY=  -152.2245   YY=   796.2855   ZY=     9.0477
   XZ=    71.0822   YZ=    66.6027   ZZ=  1154.0766
   Eigenvalues:   609.8775   906.8849  1161.6109
     29  Cl   Isotropic =   914.3017   Anisotropy =   409.4913
   XX=   712.3181   YX=   168.1349   ZX=    42.6278
   XY=   164.3831   YY=   854.5366   ZY=     1.5896
   XZ=   100.4479   YZ=   -74.4128   ZZ=  1176.0505
   Eigenvalues:   591.7079   963.9013  1187.2959
     30  Pd   Isotropic =  -153.3210   Anisotropy =   247.9963
   XX=    11.4598   YX=     0.5720   ZX=     4.2542
   XY=    -3.8448   YY=     7.0517   ZY=    17.6764
   XZ=     5.5782   YZ=    24.2608   ZZ=  -478.4744
   Eigenvalues:  -479.4288     7.4560    12.0099
     31  H    Isotropic =    26.8824   Anisotropy =     8.8902
   XX=    25.4860   YX=     1.1737   ZX=     3.4504
   XY=     2.4208   YY=    31.6408   ZY=     1.2617
   XZ=     3.3423   YZ=     1.8085   ZZ=    23.5204
   Eigenvalues:    20.9653    26.8727    32.8092
     32  C    Isotropic =   169.8987   Anisotropy =    18.8603
   XX=   161.6449   YX=    -0.0052   ZX=     0.1990
   XY=    -2.8164   YY=   165.6214   ZY=    -1.0227
   XZ=    -2.0371   YZ=     1.2493   ZZ=   182.4298
   Eigenvalues:   161.1619   166.0620   182.4722
     33  H    Isotropic =    28.8871   Anisotropy =     6.1827
   XX=    26.7251   YX=    -0.7555   ZX=    -3.3379
   XY=    -0.4208   YY=    32.6441   ZY=    -1.5641
   XZ=    -2.1216   YZ=    -1.3165   ZZ=    27.2922
   Eigenvalues:    24.0340    29.6184    33.0090
     34  C    Isotropic =   164.2637   Anisotropy =    20.5224
   XX=   163.0068   YX=     0.9350   ZX=     2.2743
   XY=     2.2484   YY=   156.4512   ZY=     7.7030
   XZ=     7.1615   YZ=     7.6105   ZZ=   173.3332
   Eigenvalues:   153.4904   161.3554   177.9453
     35  H    Isotropic =    29.5458   Anisotropy =    12.6695
   XX=    36.9040   YX=    -2.6645   ZX=     2.4980
   XY=    -1.2686   YY=    24.4267   ZY=    -0.2212
   XZ=     3.1521   YZ=    -1.1533   ZZ=    27.3068
   Eigenvalues:    24.0998    26.5455    37.9922
     36  H    Isotropic =    30.2432   Anisotropy =     7.0112
   XX=    32.7039   YX=     1.9624   ZX=    -0.1643
   XY=     3.0896   YY=    31.6336   ZY=     1.5192
   XZ=     1.3938   YZ=     0.7382   ZZ=    26.3921
   Eigenvalues:    26.1578    29.6545    34.9174
     37  H    Isotropic =    29.3922   Anisotropy =    12.1094
   XX=    34.0758   YX=     1.5931   ZX=    -5.1737
   XY=     1.5852   YY=    24.7549   ZY=    -0.9194
   XZ=    -4.5514   YZ=    -1.9178   ZZ=    29.3458
   Eigenvalues:    24.3438    26.3676    37.4651
     38  H    Isotropic =    29.3711   Anisotropy =     7.3308
   XX=    30.5022   YX=    -3.0020   ZX=    -1.6432
   XY=    -2.4342   YY=    30.8650   ZY=     2.4048
   XZ=    -1.0155   YZ=     2.0097   ZZ=    26.7461
   Eigenvalues:    25.7810    28.0740    34.2583
     39  H    Isotropic =    27.3534   Anisotropy =     9.2316
   XX=    24.8665   YX=    -2.1977   ZX=    -0.6179
   XY=    -1.8883   YY=    33.0207   ZY=    -0.2100
   XZ=    -0.8678   YZ=     0.2474   ZZ=    24.1731
   Eigenvalues:    23.5499    25.0026    33.5078
     40  H    Isotropic =    27.2017   Anisotropy =     8.1537
   XX=    25.1904   YX=     0.7630   ZX=    -2.1367
   XY=     0.9958   YY=    28.6325   ZY=    -3.7914
   XZ=    -2.5150   YZ=    -3.6862   ZZ=    27.7823
   Eigenvalues:    23.3815    25.5861    32.6376
     41  H    Isotropic =    30.1688   Anisotropy =     7.8086
   XX=    30.7103   YX=     0.5298   ZX=    -0.8997
   XY=     1.5613   YY=    25.7383   ZY=    -1.5099
   XZ=    -2.1989   YZ=    -3.2876   ZZ=    34.0578
   Eigenvalues:    25.0269    30.1050    35.3745
     42  H    Isotropic =    31.3721   Anisotropy =     5.7384
   XX=    29.9862   YX=    -3.6500   ZX=     4.5068
   XY=    -1.3772   YY=    32.6336   ZY=     2.3093
   XZ=     4.0387   YZ=     0.7777   ZZ=    31.4966
   Eigenvalues:    25.2469    33.6718    35.1977
     43  H    Isotropic =    30.3904   Anisotropy =    13.6531
   XX=    31.7905   YX=    -3.0735   ZX=     5.7799
   XY=    -2.0977   YY=    25.7281   ZY=    -1.2619
   XZ=     6.2776   YZ=    -2.2941   ZZ=    33.6526
   Eigenvalues:    24.7319    26.9468    39.4925
     44  H    Isotropic =    29.8315   Anisotropy =     5.7189
   XX=    32.0219   YX=    -2.0846   ZX=     1.0739
   XY=    -1.6400   YY=    25.5847   ZY=     0.1338
   XZ=     1.8730   YZ=     0.1036   ZZ=    31.8879
   Eigenvalues:    25.0472    30.8032    33.6441
     45  H    Isotropic =    28.4282   Anisotropy =     6.8961
   XX=    23.9718   YX=     1.5635   ZX=    -3.3375
   XY=     1.6655   YY=    31.5884   ZY=    -1.2686
   XZ=    -2.6167   YZ=    -0.9370   ZZ=    29.7243
   Eigenvalues:    22.5802    29.6787    33.0256
     46  H    Isotropic =    30.0434   Anisotropy =    12.6385
   XX=    28.4011   YX=     0.5941   ZX=    -4.1863
   XY=     0.1434   YY=    25.1766   ZY=     0.9176
   XZ=    -4.5426   YZ=     0.5439   ZZ=    36.5527
   Eigenvalues:    24.9083    26.7529    38.4691
     47  H    Isotropic =    27.3501   Anisotropy =     7.9076
   XX=    26.5903   YX=    -3.1604   ZX=     2.8274
   XY=    -4.1077   YY=    30.4300   ZY=     1.4923
   XZ=     2.7785   YZ=     1.6431   ZZ=    25.0300
   Eigenvalues:    21.4893    27.9391    32.6218
     48  C    Isotropic =   166.7263   Anisotropy =    22.5267
   XX=   173.8781   YX=     0.7234   ZX=    10.9021
   XY=     4.9598   YY=   159.5395   ZY=   -12.7210
   XZ=     9.1472   YZ=    -8.1952   ZZ=   166.7614
   Eigenvalues:   149.2080   169.2269   181.7441
     49  H    Isotropic =    28.5869   Anisotropy =     6.3966
   XX=    26.9953   YX=     2.4680   ZX=    -1.1845
   XY=     1.7609   YY=    31.9510   ZY=     1.4144
   XZ=    -1.0035   YZ=     1.1626   ZZ=    26.8144
   Eigenvalues:    24.9765    27.9329    32.8513
     50  C    Isotropic =   162.0891   Anisotropy =    25.4611
   XX=   166.7587   YX=    -4.9722   ZX=    -8.7859
   XY=   -10.0884   YY=   147.4238   ZY=   -15.5855
   XZ=    -3.2114   YZ=   -12.6930   ZZ=   172.0848
   Eigenvalues:   137.9524   169.2518   179.0631
     51  H    Isotropic =    28.4385   Anisotropy =     6.9091
   XX=    28.6134   YX=     1.5352   ZX=    -1.5132
   XY=     1.2624   YY=    31.9601   ZY=    -1.4452
   XZ=    -1.5548   YZ=    -2.0567   ZZ=    24.7419
   Eigenvalues:    24.0112    28.2597    33.0446
     52  H    Isotropic =    29.8206   Anisotropy =    12.8398
   XX=    37.1031   YX=     3.4060   ZX=     1.6327
   XY=     3.9433   YY=    25.5989   ZY=     0.6944
   XZ=     1.1144   YZ=     0.8724   ZZ=    26.7596
   Eigenvalues:    24.4620    26.6192    38.3804
     53  H    Isotropic =    29.4438   Anisotropy =     8.7885
   XX=    32.0187   YX=    -3.5234   ZX=    -1.4158
   XY=    -3.7566   YY=    31.1868   ZY=     0.2426
   XZ=     0.1039   YZ=     0.1141   ZZ=    25.1260
   Eigenvalues:    25.0577    27.9709    35.3028
     54  H    Isotropic =    29.6300   Anisotropy =    12.2469
   XX=    32.8622   YX=     0.4787   ZX=    -6.3144
   XY=    -0.4283   YY=    24.6405   ZY=     0.3878
   XZ=    -4.9148   YZ=     0.5902   ZZ=    31.3873
   Eigenvalues:    24.5561    26.5393    37.7946
     55  H    Isotropic =    31.0647   Anisotropy =     5.7452
   XX=    32.6670   YX=    -0.7102   ZX=     2.0187
   XY=    -2.1613   YY=    32.8452   ZY=    -0.0708
   XZ=     4.3786   YZ=     0.7607   ZZ=    27.6819
   Eigenvalues:    25.9874    32.3119    34.8948
     56  H    Isotropic =    30.6576   Anisotropy =    13.9569
   XX=    34.0378   YX=     3.0473   ZX=     6.5359
   XY=     1.1869   YY=    26.6093   ZY=     0.0366
   XZ=     7.1687   YZ=     1.0513   ZZ=    31.3257
   Eigenvalues:    25.0406    26.9700    39.9622
     57  H    Isotropic =    30.9319   Anisotropy =     6.6717
   XX=    31.4368   YX=     3.6986   ZX=     1.1300
   XY=     2.5352   YY=    26.5043   ZY=    -3.4212
   XZ=     0.6802   YZ=    -0.8625   ZZ=    34.8546
   Eigenvalues:    24.4763    32.9398    35.3797
     58  H    Isotropic =    28.6598   Anisotropy =     4.8593
   XX=    24.6203   YX=    -0.1765   ZX=    -2.3635
   XY=    -0.1556   YY=    31.7272   ZY=     0.3809
   XZ=    -2.1656   YZ=     0.5416   ZZ=    29.6320
   Eigenvalues:    23.7486    30.3316    31.8994
     59  H    Isotropic =    30.2246   Anisotropy =    13.0332
   XX=    27.6713   YX=    -0.8069   ZX=    -3.8303
   XY=     0.0193   YY=    25.5560   ZY=    -1.8808
   XZ=    -3.9776   YZ=    -0.8292   ZZ=    37.4465
   Eigenvalues:    24.9605    26.7998    38.9134
     60  H    Isotropic =    29.6953   Anisotropy =     5.4153
   XX=    33.1346   YX=    -0.1640   ZX=     0.0043
   XY=    -1.3223   YY=    24.9753   ZY=    -1.3981
   XZ=     0.6756   YZ=    -1.4553   ZZ=    30.9761
   Eigenvalues:    24.6036    31.1768    33.3055
 End of Minotr F.D. properties file   721 does not exist.
 End of Minotr F.D. properties file   722 does not exist.
 End of Minotr F.D. properties file   788 does not exist.

 **********************************************************************

            Population analysis using the SCF density.

 **********************************************************************

 Orbital symmetries:
       Occupied  (A) (A) (A) (A) (A) (A) (A) (A) (A) (A) (A) (A)
                 (A) (A) (A) (A) (A) (A) (A) (A) (A) (A) (A) (A)
                 (A) (A) (A) (A) (A) (A) (A) (A) (A) (A) (A) (A)
                 (A) (A) (A) (A) (A) (A) (A) (A) (A) (A) (A) (A)
                 (A) (A) (A) (A) (A) (A) (A) (A) (A) (A) (A) (A)
                 (A) (A) (A) (A) (A) (A) (A) (A) (A) (A) (A) (A)
                 (A) (A) (A) (A) (A) (A) (A) (A) (A) (A) (A) (A)
                 (A) (A) (A) (A) (A) (A) (A) (A) (A) (A) (A) (A)
                 (A) (A) (A) (A) (A) (A) (A) (A) (A) (A) (A) (A)
                 (A) (A) (A) (A) (A) (A) (A) (A) (A) (A) (A) (A)
                 (A) (A) (A) (A) (A) (A) (A) (A) (A) (A) (A)
       Virtual   (A) (A) (A) (A) (A) (A) (A) (A) (A) (A) (A) (A)
                 (A) (A) (A) (A) (A) (A) (A) (A) (A) (A) (A) (A)
                 (A) (A) (A) (A) (A) (A) (A) (A) (A) (A) (A) (A)
                 (A) (A) (A) (A) (A) (A) (A) (A) (A) (A) (A) (A)
                 (A) (A) (A) (A) (A) (A) (A) (A) (A) (A) (A) (A)
                 (A) (A) (A) (A) (A) (A) (A) (A) (A) (A) (A) (A)
                 (A) (A) (A) (A) (A) (A) (A) (A) (A) (A) (A) (A)
                 (A) (A) (A) (A) (A) (A) (A) (A) (A) (A) (A) (A)
                 (A) (A) (A) (A) (A) (A) (A) (A) (A) (A) (A) (A)
                 (A) (A) (A) (A) (A) (A) (A) (A) (A) (A) (A) (A)
                 (A) (A) (A) (A) (A) (A) (A) (A) (A) (A) (A) (A)
                 (A) (A) (A) (A) (A) (A) (A) (A) (A) (A) (A) (A)
                 (A) (A) (A) (A) (A) (A) (A) (A) (A) (A) (A) (A)
                 (A) (A) (A) (A) (A) (A) (A) (A) (A) (A) (A) (A)
                 (A) (A) (A) (A) (A) (A) (A) (A) (A) (A) (A) (A)
                 (A) (A) (A) (A) (A) (A) (A) (A) (A) (A) (A) (A)
                 (A) (A) (A) (A) (A) (A) (A) (A) (A) (A) (A) (A)
                 (A) (A) (A) (A) (A) (A) (A) (A) (A) (A) (A) (A)
                 (A) (A) (A) (A) (A) (A) (A) (A) (A) (A) (A) (A)
                 (A) (A) (A) (A) (A) (A) (A) (A) (A) (A) (A) (A)
                 (A) (A) (A) (A) (A) (A) (A) (A) (A) (A) (A) (A)
                 (A) (A) (A) (A) (A) (A) (A) (A) (A) (A) (A) (A)
                 (A) (A) (A) (A) (A) (A) (A) (A) (A) (A) (A) (A)
                 (A) (A) (A) (A) (A) (A) (A) (A) (A) (A) (A) (A)
                 (A) (A) (A) (A) (A) (A) (A) (A) (A) (A) (A) (A)
                 (A) (A) (A) (A) (A) (A) (A) (A) (A) (A) (A) (A)
                 (A) (A) (A) (A) (A) (A) (A) (A) (A) (A) (A) (A)
                 (A) (A) (A) (A) (A) (A) (A) (A) (A) (A) (A) (A)
                 (A) (A) (A) (A) (A) (A) (A) (A) (A) (A) (A) (A)
                 (A) (A) (A) (A) (A) (A) (A) (A) (A) (A) (A) (A)
                 (A) (A) (A) (A) (A) (A) (A) (A) (A) (A) (A) (A)
                 (A) (A) (A) (A) (A) (A) (A) (A) (A) (A) (A) (A)
                 (A) (A) (A) (A) (A) (A) (A) (A) (A) (A) (A) (A)
                 (A) (A) (A) (A) (A) (A) (A) (A) (A) (A) (A) (A)
                 (A) (A) (A) (A) (A) (A) (A) (A) (A) (A) (A) (A)
                 (A) (A) (A) (A) (A) (A) (A) (A) (A) (A) (A) (A)
                 (A) (A) (A) (A) (A) (A) (A) (A) (A) (A) (A) (A)
                 (A) (A) (A) (A) (A) (A) (A) (A) (A) (A) (A) (A)
                 (A) (A) (A) (A) (A) (A) (A) (A) (A) (A) (A) (A)
                 (A) (A) (A) (A) (A) (A) (A) (A) (A) (A) (A) (A)
                 (A) (A) (A) (A) (A) (A) (A) (A) (A) (A) (A) (A)
                 (A) (A) (A) (A) (A) (A) (A) (A) (A) (A) (A) (A)
                 (A) (A) (A) (A) (A) (A) (A) (A) (A) (A) (A) (A)
                 (A) (A) (A) (A) (A) (A) (A) (A) (A) (A) (A) (A)
                 (A) (A) (A) (A) (A) (A) (A) (A) (A) (A) (A) (A)
                 (A) (A) (A) (A) (A) (A) (A) (A) (A) (A) (A) (A)
                 (A) (A) (A) (A) (A) (A) (A) (A) (A) (A) (A) (A)
                 (A) (A) (A) (A) (A) (A) (A) (A) (A) (A) (A) (A)
                 (A) (A) (A) (A) (A) (A) (A) (A) (A) (A) (A) (A)
                 (A) (A) (A) (A) (A) (A) (A) (A) (A) (A) (A) (A)
                 (A) (A) (A) (A) (A) (A) (A) (A) (A) (A) (A) (A)
                 (A) (A) (A) (A) (A) (A) (A) (A) (A) (A) (A) (A)
                 (A) (A) (A) (A) (A) (A) (A) (A) (A) (A) (A) (A)
                 (A) (A) (A) (A) (A) (A) (A) (A) (A) (A) (A) (A)
                 (A) (A) (A) (A) (A) (A) (A) (A) (A) (A) (A) (A)
                 (A) (A) (A) (A) (A) (A) (A) (A) (A) (A) (A) (A)
                 (A) (A) (A) (A) (A) (A) (A) (A) (A) (A) (A) (A)
                 (A) (A) (A) (A) (A) (A) (A) (A) (A) (A) (A) (A)
                 (A) (A) (A) (A) (A) (A) (A) (A) (A) (A) (A) (A)
                 (A) (A) (A) (A) (A) (A) (A) (A) (A) (A) (A) (A)
                 (A) (A) (A) (A) (A) (A) (A) (A) (A) (A) (A) (A)
                 (A) (A) (A) (A) (A) (A) (A) (A) (A) (A) (A) (A)
                 (A) (A) (A) (A) (A) (A) (A) (A) (A) (A) (A) (A)
                 (A) (A) (A) (A) (A) (A) (A) (A) (A) (A) (A) (A)
                 (A) (A) (A) (A) (A) (A) (A) (A) (A) (A) (A) (A)
                 (A) (A) (A) (A) (A) (A) (A) (A) (A) (A) (A) (A)
                 (A) (A) (A) (A) (A) (A) (A) (A) (A) (A) (A) (A)
                 (A) (A) (A) (A) (A) (A) (A) (A) (A) (A) (A) (A)
                 (A) (A) (A) (A) (A) (A) (A) (A) (A) (A) (A) (A)
                 (A) (A) (A) (A) (A) (A) (A) (A) (A) (A) (A) (A)
                 (A) (A) (A) (A) (A) (A) (A) (A) (A) (A) (A) (A)
                 (A) (A) (A) (A) (A) (A) (A) (A) (A) (A) (A) (A)
                 (A) (A) (A) (A) (A) (A) (A) (A) (A) (A) (A) (A)
                 (A) (A) (A) (A) (A) (A) (A) (A) (A) (A) (A) (A)
                 (A) (A) (A) (A) (A) (A) (A) (A) (A) (A) (A) (A)
                 (A) (A) (A) (A) (A) (A) (A) (A) (A) (A) (A) (A)
                 (A) (A) (A) (A) (A) (A) (A) (A) (A) (A) (A) (A)
                 (A) (A) (A) (A) (A) (A) (A) (A) (A) (A) (A) (A)
                 (A) (A) (A) (A) (A) (A) (A) (A) (A) (A) (A) (A)
                 (A) (A) (A) (A) (A) (A) (A) (A) (A) (A) (A) (A)
                 (A) (A) (A) (A) (A) (A) (A) (A) (A) (A)
 The electronic state is 1-A.
 Alpha  occ. eigenvalues -- -101.61815-101.61634 -77.25518 -77.25448 -10.27077
 Alpha  occ. eigenvalues --  -10.27074 -10.26794 -10.26745 -10.26558 -10.26550
 Alpha  occ. eigenvalues --  -10.26524 -10.26518 -10.26491 -10.26480 -10.25677
 Alpha  occ. eigenvalues --  -10.25605 -10.24448 -10.24296 -10.23878 -10.23538
 Alpha  occ. eigenvalues --  -10.23399 -10.22869 -10.22465 -10.22389 -10.22065
 Alpha  occ. eigenvalues --  -10.21916  -9.44333  -9.44151  -7.17513  -7.17334
 Alpha  occ. eigenvalues --   -7.17061  -7.17020  -7.16879  -7.16836  -6.64772
 Alpha  occ. eigenvalues --   -6.64699  -4.78384  -4.78316  -4.78296  -4.78216
 Alpha  occ. eigenvalues --   -4.78107  -4.78039  -3.63122  -3.51934  -2.27678
 Alpha  occ. eigenvalues --   -2.23455  -2.23395  -2.19781  -2.19440  -2.16183
 Alpha  occ. eigenvalues --   -0.94570  -0.92550  -0.86781  -0.86724  -0.79927
 Alpha  occ. eigenvalues --   -0.79773  -0.77436  -0.77164  -0.76185  -0.76135
 Alpha  occ. eigenvalues --   -0.74866  -0.74328  -0.73954  -0.73751  -0.68374
 Alpha  occ. eigenvalues --   -0.68312  -0.67605  -0.66555  -0.60312  -0.59817
 Alpha  occ. eigenvalues --   -0.59332  -0.58944  -0.58272  -0.57963  -0.57362
 Alpha  occ. eigenvalues --   -0.56839  -0.53150  -0.52494  -0.49906  -0.49579
 Alpha  occ. eigenvalues --   -0.48952  -0.48560  -0.46462  -0.45858  -0.45240
 Alpha  occ. eigenvalues --   -0.44771  -0.44393  -0.43967  -0.43639  -0.43312
 Alpha  occ. eigenvalues --   -0.42967  -0.42638  -0.42512  -0.42370  -0.42261
 Alpha  occ. eigenvalues --   -0.41916  -0.41472  -0.40420  -0.40112  -0.39632
 Alpha  occ. eigenvalues --   -0.39429  -0.38567  -0.37013  -0.36817  -0.36052
 Alpha  occ. eigenvalues --   -0.35814  -0.35295  -0.35107  -0.35009  -0.34853
 Alpha  occ. eigenvalues --   -0.34663  -0.34103  -0.33807  -0.33505  -0.32910
 Alpha  occ. eigenvalues --   -0.31490  -0.31336  -0.30722  -0.30086  -0.29658
 Alpha  occ. eigenvalues --   -0.29279  -0.28447  -0.28179  -0.27250  -0.25966
 Alpha  occ. eigenvalues --   -0.25226  -0.25176  -0.25146  -0.24739  -0.24114
 Alpha  occ. eigenvalues --   -0.24041
 Alpha virt. eigenvalues --   -0.07275  -0.02707  -0.02649  -0.01799  -0.01791
 Alpha virt. eigenvalues --    0.00116   0.00650   0.01209   0.01664   0.02061
 Alpha virt. eigenvalues --    0.02802   0.03103   0.03166   0.03951   0.04284
 Alpha virt. eigenvalues --    0.04630   0.04897   0.05269   0.05669   0.06214
 Alpha virt. eigenvalues --    0.06806   0.07335   0.07770   0.08022   0.08441
 Alpha virt. eigenvalues --    0.08714   0.08800   0.09176   0.09467   0.09724
 Alpha virt. eigenvalues --    0.10067   0.10677   0.10837   0.11332   0.11762
 Alpha virt. eigenvalues --    0.12210   0.12410   0.12730   0.12871   0.12959
 Alpha virt. eigenvalues --    0.13444   0.13816   0.14039   0.14111   0.14616
 Alpha virt. eigenvalues --    0.15021   0.15328   0.15381   0.15630   0.15819
 Alpha virt. eigenvalues --    0.16006   0.16396   0.16575   0.16990   0.17179
 Alpha virt. eigenvalues --    0.17364   0.17794   0.18214   0.18468   0.18580
 Alpha virt. eigenvalues --    0.18868   0.19338   0.19600   0.19898   0.20443
 Alpha virt. eigenvalues --    0.20717   0.20922   0.21079   0.21522   0.21841
 Alpha virt. eigenvalues --    0.21937   0.22366   0.22429   0.22856   0.23360
 Alpha virt. eigenvalues --    0.23730   0.24022   0.24289   0.24540   0.25247
 Alpha virt. eigenvalues --    0.25495   0.25875   0.26042   0.26370   0.26902
 Alpha virt. eigenvalues --    0.27085   0.27484   0.27779   0.28186   0.28478
 Alpha virt. eigenvalues --    0.28990   0.29268   0.29360   0.29467   0.29986
 Alpha virt. eigenvalues --    0.30086   0.30872   0.31171   0.31647   0.31809
 Alpha virt. eigenvalues --    0.32194   0.32651   0.33077   0.33666   0.34209
 Alpha virt. eigenvalues --    0.34646   0.34881   0.35198   0.36023   0.36250
 Alpha virt. eigenvalues --    0.36356   0.36677   0.37053   0.37411   0.37713
 Alpha virt. eigenvalues --    0.37813   0.38061   0.38392   0.39132   0.39378
 Alpha virt. eigenvalues --    0.39625   0.40089   0.40202   0.40675   0.40941
 Alpha virt. eigenvalues --    0.41294   0.41555   0.41573   0.41819   0.42195
 Alpha virt. eigenvalues --    0.42275   0.42588   0.42963   0.43097   0.43468
 Alpha virt. eigenvalues --    0.43553   0.43946   0.44046   0.44579   0.44858
 Alpha virt. eigenvalues --    0.44933   0.45053   0.45334   0.45496   0.45726
 Alpha virt. eigenvalues --    0.45914   0.46052   0.46365   0.46656   0.46705
 Alpha virt. eigenvalues --    0.46911   0.47286   0.47660   0.47860   0.47977
 Alpha virt. eigenvalues --    0.48481   0.48607   0.48987   0.49265   0.49654
 Alpha virt. eigenvalues --    0.49917   0.50425   0.50690   0.50968   0.51078
 Alpha virt. eigenvalues --    0.51603   0.52065   0.52280   0.52423   0.52665
 Alpha virt. eigenvalues --    0.53116   0.53306   0.53580   0.54235   0.54334
 Alpha virt. eigenvalues --    0.54645   0.54766   0.54922   0.55450   0.55602
 Alpha virt. eigenvalues --    0.55918   0.56121   0.56170   0.56745   0.57173
 Alpha virt. eigenvalues --    0.57715   0.57835   0.58361   0.58455   0.58859
 Alpha virt. eigenvalues --    0.59135   0.59490   0.59915   0.60035   0.60591
 Alpha virt. eigenvalues --    0.60937   0.61298   0.61530   0.61875   0.62106
 Alpha virt. eigenvalues --    0.62159   0.63551   0.63940   0.64082   0.64497
 Alpha virt. eigenvalues --    0.65271   0.65586   0.65871   0.66184   0.66435
 Alpha virt. eigenvalues --    0.66972   0.67572   0.67959   0.68114   0.68443
 Alpha virt. eigenvalues --    0.69024   0.69237   0.69604   0.69774   0.69986
 Alpha virt. eigenvalues --    0.71410   0.71665   0.72219   0.72463   0.72719
 Alpha virt. eigenvalues --    0.73664   0.74518   0.74949   0.75335   0.75629
 Alpha virt. eigenvalues --    0.76404   0.76685   0.77850   0.78273   0.78294
 Alpha virt. eigenvalues --    0.79007   0.79535   0.80430   0.80683   0.81368
 Alpha virt. eigenvalues --    0.81802   0.82278   0.82553   0.83056   0.83985
 Alpha virt. eigenvalues --    0.84589   0.85084   0.85950   0.86473   0.86597
 Alpha virt. eigenvalues --    0.87329   0.87858   0.88047   0.88498   0.88962
 Alpha virt. eigenvalues --    0.89524   0.90214   0.90755   0.90928   0.91226
 Alpha virt. eigenvalues --    0.92313   0.92496   0.93119   0.93556   0.93848
 Alpha virt. eigenvalues --    0.94061   0.94281   0.94848   0.95520   0.95873
 Alpha virt. eigenvalues --    0.96189   0.97035   0.97344   0.97407   0.97930
 Alpha virt. eigenvalues --    0.98579   0.99161   0.99921   1.00143   1.00976
 Alpha virt. eigenvalues --    1.01540   1.02067   1.02447   1.03646   1.04159
 Alpha virt. eigenvalues --    1.04514   1.05540   1.05583   1.06486   1.07240
 Alpha virt. eigenvalues --    1.07637   1.07705   1.09085   1.09353   1.09781
 Alpha virt. eigenvalues --    1.10163   1.10926   1.11226   1.11875   1.11984
 Alpha virt. eigenvalues --    1.12835   1.13078   1.13544   1.14042   1.14460
 Alpha virt. eigenvalues --    1.15192   1.15367   1.16246   1.16862   1.17490
 Alpha virt. eigenvalues --    1.17886   1.18483   1.18986   1.19281   1.19805
 Alpha virt. eigenvalues --    1.20183   1.20431   1.20619   1.21543   1.21727
 Alpha virt. eigenvalues --    1.22332   1.22516   1.23292   1.23622   1.23762
 Alpha virt. eigenvalues --    1.24231   1.24454   1.24730   1.24979   1.25584
 Alpha virt. eigenvalues --    1.25983   1.26657   1.26903   1.27324   1.27367
 Alpha virt. eigenvalues --    1.28188   1.28670   1.29461   1.30023   1.30309
 Alpha virt. eigenvalues --    1.31184   1.31670   1.32990   1.33645   1.33853
 Alpha virt. eigenvalues --    1.34415   1.34894   1.35432   1.35675   1.36595
 Alpha virt. eigenvalues --    1.37221   1.37932   1.38114   1.38673   1.39402
 Alpha virt. eigenvalues --    1.39864   1.40306   1.41224   1.41947   1.42077
 Alpha virt. eigenvalues --    1.43394   1.44500   1.45417   1.45709   1.46460
 Alpha virt. eigenvalues --    1.47234   1.48460   1.49129   1.49555   1.50142
 Alpha virt. eigenvalues --    1.50483   1.51831   1.52117   1.52341   1.53997
 Alpha virt. eigenvalues --    1.54265   1.54574   1.55119   1.55657   1.55858
 Alpha virt. eigenvalues --    1.56853   1.57213   1.57581   1.57720   1.58901
 Alpha virt. eigenvalues --    1.59313   1.59635   1.59765   1.60257   1.60864
 Alpha virt. eigenvalues --    1.61192   1.61559   1.61983   1.62656   1.62927
 Alpha virt. eigenvalues --    1.63205   1.64052   1.64184   1.64567   1.64927
 Alpha virt. eigenvalues --    1.65104   1.65389   1.66078   1.66811   1.67190
 Alpha virt. eigenvalues --    1.67456   1.68153   1.68518   1.68905   1.69365
 Alpha virt. eigenvalues --    1.69586   1.69870   1.70049   1.70975   1.71806
 Alpha virt. eigenvalues --    1.72641   1.73273   1.73353   1.73614   1.74057
 Alpha virt. eigenvalues --    1.75393   1.76468   1.77372   1.78184   1.78472
 Alpha virt. eigenvalues --    1.78922   1.79449   1.79762   1.80068   1.80730
 Alpha virt. eigenvalues --    1.81156   1.82366   1.82543   1.83294   1.83469
 Alpha virt. eigenvalues --    1.84552   1.85111   1.85507   1.86451   1.87141
 Alpha virt. eigenvalues --    1.87529   1.88206   1.88645   1.89669   1.89994
 Alpha virt. eigenvalues --    1.90835   1.91180   1.91903   1.92280   1.92719
 Alpha virt. eigenvalues --    1.93387   1.93864   1.94726   1.95235   1.95685
 Alpha virt. eigenvalues --    1.96253   1.97002   1.97236   1.98023   1.98326
 Alpha virt. eigenvalues --    1.98690   1.99228   2.00081   2.00670   2.01264
 Alpha virt. eigenvalues --    2.01762   2.02459   2.02744   2.03507   2.04222
 Alpha virt. eigenvalues --    2.04413   2.04816   2.05084   2.05262   2.05661
 Alpha virt. eigenvalues --    2.06545   2.07376   2.07589   2.08181   2.08460
 Alpha virt. eigenvalues --    2.08752   2.09520   2.09854   2.10837   2.11332
 Alpha virt. eigenvalues --    2.11617   2.12845   2.13572   2.13990   2.14365
 Alpha virt. eigenvalues --    2.14652   2.15115   2.15447   2.15831   2.16840
 Alpha virt. eigenvalues --    2.17070   2.17401   2.17997   2.18120   2.18586
 Alpha virt. eigenvalues --    2.18816   2.19562   2.19705   2.20190   2.20669
 Alpha virt. eigenvalues --    2.20782   2.21432   2.21507   2.21885   2.22881
 Alpha virt. eigenvalues --    2.23315   2.23677   2.24279   2.24819   2.25483
 Alpha virt. eigenvalues --    2.26374   2.26629   2.27099   2.27536   2.27892
 Alpha virt. eigenvalues --    2.28359   2.30034   2.30689   2.30955   2.31544
 Alpha virt. eigenvalues --    2.32758   2.33142   2.33671   2.34105   2.34322
 Alpha virt. eigenvalues --    2.34890   2.35527   2.36065   2.36439   2.37136
 Alpha virt. eigenvalues --    2.37758   2.38350   2.38724   2.38812   2.39573
 Alpha virt. eigenvalues --    2.40390   2.40883   2.41325   2.42575   2.42876
 Alpha virt. eigenvalues --    2.43111   2.43633   2.44351   2.45020   2.45482
 Alpha virt. eigenvalues --    2.46336   2.46369   2.46601   2.46990   2.47734
 Alpha virt. eigenvalues --    2.48022   2.48352   2.48755   2.48881   2.49761
 Alpha virt. eigenvalues --    2.50073   2.50490   2.51479   2.51824   2.52645
 Alpha virt. eigenvalues --    2.53003   2.53140   2.53254   2.53607   2.54230
 Alpha virt. eigenvalues --    2.54518   2.54848   2.55824   2.56003   2.56429
 Alpha virt. eigenvalues --    2.56666   2.57193   2.57803   2.57931   2.58482
 Alpha virt. eigenvalues --    2.58979   2.59400   2.59611   2.60175   2.60504
 Alpha virt. eigenvalues --    2.60812   2.61436   2.61984   2.62439   2.62932
 Alpha virt. eigenvalues --    2.63041   2.63269   2.64166   2.64529   2.64910
 Alpha virt. eigenvalues --    2.65353   2.65936   2.66165   2.66670   2.67249
 Alpha virt. eigenvalues --    2.67847   2.68056   2.68200   2.69295   2.69706
 Alpha virt. eigenvalues --    2.69827   2.70168   2.70782   2.70930   2.71707
 Alpha virt. eigenvalues --    2.71991   2.72813   2.73080   2.73652   2.74484
 Alpha virt. eigenvalues --    2.75282   2.76068   2.76269   2.76554   2.77257
 Alpha virt. eigenvalues --    2.77584   2.77874   2.78491   2.78967   2.79337
 Alpha virt. eigenvalues --    2.80005   2.80280   2.81019   2.82183   2.82667
 Alpha virt. eigenvalues --    2.83621   2.84096   2.84702   2.84897   2.85953
 Alpha virt. eigenvalues --    2.86031   2.86964   2.87612   2.88345   2.89033
 Alpha virt. eigenvalues --    2.89333   2.89425   2.90256   2.91052   2.91555
 Alpha virt. eigenvalues --    2.92731   2.92995   2.94104   2.94613   2.95077
 Alpha virt. eigenvalues --    2.95469   2.96414   2.97132   2.98003   2.98749
 Alpha virt. eigenvalues --    2.98975   3.00048   3.00815   3.01456   3.02646
 Alpha virt. eigenvalues --    3.03298   3.03994   3.04451   3.05345   3.05638
 Alpha virt. eigenvalues --    3.05936   3.06495   3.07018   3.08621   3.09226
 Alpha virt. eigenvalues --    3.09281   3.10176   3.10704   3.10977   3.12105
 Alpha virt. eigenvalues --    3.12339   3.13516   3.13595   3.14391   3.15492
 Alpha virt. eigenvalues --    3.15626   3.15840   3.16261   3.17399   3.17630
 Alpha virt. eigenvalues --    3.18242   3.18734   3.19841   3.20003   3.21041
 Alpha virt. eigenvalues --    3.21394   3.21823   3.22129   3.22548   3.23229
 Alpha virt. eigenvalues --    3.23294   3.23699   3.24390   3.24870   3.25740
 Alpha virt. eigenvalues --    3.26322   3.26953   3.27743   3.27966   3.28669
 Alpha virt. eigenvalues --    3.29481   3.29732   3.29952   3.30114   3.30400
 Alpha virt. eigenvalues --    3.31521   3.31698   3.32661   3.33030   3.33653
 Alpha virt. eigenvalues --    3.33886   3.34289   3.34996   3.35280   3.35534
 Alpha virt. eigenvalues --    3.36565   3.36778   3.37176   3.37559   3.37955
 Alpha virt. eigenvalues --    3.38250   3.38420   3.38849   3.39491   3.39732
 Alpha virt. eigenvalues --    3.40208   3.40559   3.41195   3.41433   3.42127
 Alpha virt. eigenvalues --    3.42710   3.42913   3.43165   3.43462   3.43980
 Alpha virt. eigenvalues --    3.44384   3.44675   3.45562   3.46030   3.46388
 Alpha virt. eigenvalues --    3.47030   3.47340   3.47794   3.48714   3.49232
 Alpha virt. eigenvalues --    3.49960   3.50448   3.51124   3.51521   3.51778
 Alpha virt. eigenvalues --    3.52435   3.52754   3.53584   3.54472   3.55089
 Alpha virt. eigenvalues --    3.55341   3.55777   3.56727   3.57413   3.57780
 Alpha virt. eigenvalues --    3.58281   3.58869   3.60119   3.60494   3.61096
 Alpha virt. eigenvalues --    3.62547   3.62949   3.63419   3.64257   3.65674
 Alpha virt. eigenvalues --    3.65978   3.67119   3.67909   3.68265   3.69121
 Alpha virt. eigenvalues --    3.69362   3.70190   3.72672   3.73147   3.74224
 Alpha virt. eigenvalues --    3.74800   3.75977   3.76712   3.77187   3.79336
 Alpha virt. eigenvalues --    3.81183   3.81732   3.82147   3.83277   3.83772
 Alpha virt. eigenvalues --    3.84380   3.85152   3.86197   3.86727   3.87570
 Alpha virt. eigenvalues --    3.87716   3.88253   3.90224   3.91258   3.92098
 Alpha virt. eigenvalues --    3.93585   3.93869   3.94677   3.95649   3.96233
 Alpha virt. eigenvalues --    3.96922   3.97041   3.98153   3.98740   3.99200
 Alpha virt. eigenvalues --    4.00143   4.00484   4.00907   4.02071   4.02732
 Alpha virt. eigenvalues --    4.03874   4.04123   4.04522   4.05131   4.06233
 Alpha virt. eigenvalues --    4.08477   4.09591   4.10086   4.10401   4.10540
 Alpha virt. eigenvalues --    4.12039   4.12660   4.13667   4.13885   4.13925
 Alpha virt. eigenvalues --    4.14319   4.14886   4.15959   4.16357   4.16969
 Alpha virt. eigenvalues --    4.18258   4.18911   4.19330   4.20549   4.20948
 Alpha virt. eigenvalues --    4.21969   4.22519   4.23328   4.23982   4.25545
 Alpha virt. eigenvalues --    4.27229   4.28035   4.29372   4.30681   4.32489
 Alpha virt. eigenvalues --    4.33636   4.34778   4.35025   4.35995   4.37135
 Alpha virt. eigenvalues --    4.38755   4.39567   4.41009   4.41484   4.41772
 Alpha virt. eigenvalues --    4.42453   4.43746   4.44403   4.46344   4.46834
 Alpha virt. eigenvalues --    4.47806   4.50392   4.50745   4.52614   4.53343
 Alpha virt. eigenvalues --    4.54407   4.56101   4.57654   4.58890   4.59154
 Alpha virt. eigenvalues --    4.60391   4.60759   4.62170   4.66346   4.67062
 Alpha virt. eigenvalues --    4.68499   4.68986   4.70717   4.71125   4.71486
 Alpha virt. eigenvalues --    4.72056   4.80193   4.83557   4.85821   4.86361
 Alpha virt. eigenvalues --    4.89018   4.90231   4.91890   4.93500   4.94669
 Alpha virt. eigenvalues --    4.95491   4.96307   4.98927   5.01658   5.02631
 Alpha virt. eigenvalues --    5.04171   5.06908   5.07539   5.10006   5.12013
 Alpha virt. eigenvalues --    5.13704   5.14267   5.16511   5.17596   5.19476
 Alpha virt. eigenvalues --    5.19821   5.21694   5.24841   5.26265   5.32382
 Alpha virt. eigenvalues --    5.41096   5.43146   5.60449   5.62061   7.86094
 Alpha virt. eigenvalues --    7.87663   7.89834   7.93242   8.05018   8.05986
 Alpha virt. eigenvalues --   10.93170  10.93686  10.99059  11.05160  11.05815
 Alpha virt. eigenvalues --   11.07600  15.79988  15.87647  22.44944  22.47362
 Alpha virt. eigenvalues --   22.48058  22.49836  22.52200  22.53804  22.58165
 Alpha virt. eigenvalues --   22.59261  22.62361  22.64439  22.65333  22.68145
 Alpha virt. eigenvalues --   22.70402  22.70900  22.73197  22.75644  22.78123
 Alpha virt. eigenvalues --   22.80001  22.88286  22.89552  23.05380  23.07736
 Alpha virt. eigenvalues --   25.48762  25.70967  40.20347  40.34432  40.36331
 Alpha virt. eigenvalues --   40.75843  41.04559  41.13624  52.13174  56.93168
          Condensed to atoms (all electrons):
 Mulliken charges:
               1
     1  Fe  -0.581961
     2  P    0.142789
     3  P    0.133221
     4  C    0.127841
     5  C   -0.166665
     6  C   -0.016910
     7  C   -0.121604
     8  C   -0.078852
     9  C    0.068914
    10  C   -0.076099
    11  C   -0.082745
    12  C   -0.037144
    13  C   -0.059492
    14  C   -0.061983
    15  C   -0.218695
    16  C   -0.087016
    17  C   -0.191067
    18  C   -0.073972
    19  C   -0.231451
    20  C   -0.106203
    21  C   -0.214365
    22  H    0.128852
    23  H    0.126544
    24  H    0.125171
    25  H    0.135152
    26  H    0.141478
    27  H    0.099805
    28  Cl  -0.424232
    29  Cl  -0.424745
    30  Pd   0.191403
    31  H    0.149400
    32  C   -0.403553
    33  H    0.091780
    34  C   -0.387063
    35  H    0.120018
    36  H    0.109482
    37  H    0.113712
    38  H    0.133309
    39  H    0.125816
    40  H    0.126869
    41  H    0.139460
    42  H    0.137225
    43  H    0.134942
    44  H    0.125102
    45  H    0.172501
    46  H    0.125565
    47  H    0.156199
    48  C   -0.387403
    49  H    0.120351
    50  C   -0.399229
    51  H    0.156510
    52  H    0.108910
    53  H    0.115698
    54  H    0.115325
    55  H    0.124585
    56  H    0.137787
    57  H    0.134658
    58  H    0.169595
    59  H    0.128214
    60  H    0.138266
 Sum of Mulliken charges =  -0.00000
 Mulliken charges with hydrogens summed into heavy atoms:
               1
     1  Fe  -0.581961
     2  P    0.142789
     3  P    0.133221
     4  C    0.127841
     5  C   -0.037813
     6  C    0.109634
     7  C    0.003566
     8  C    0.056300
     9  C    0.068914
    10  C    0.065379
    11  C    0.043071
    12  C    0.089725
    13  C    0.040313
    14  C    0.087417
    15  C    0.010806
    16  C    0.004764
    17  C    0.055955
    18  C    0.082227
    19  C    0.033968
    20  C    0.014148
    21  C    0.016658
    28  Cl  -0.424232
    29  Cl  -0.424745
    30  Pd   0.191403
    32  C    0.008074
    34  C    0.036105
    48  C    0.009627
    50  C    0.036845
 Electronic spatial extent (au):  <R**2>=          11632.8041
 Charge=             -0.0000 electrons
 Dipole moment (field-independent basis, Debye):
    X=             -0.2757    Y=             11.5708    Z=              0.5079  Tot=             11.5852
 Quadrupole moment (field-independent basis, Debye-Ang):
   XX=           -204.3491   YY=           -243.5483   ZZ=           -212.6678
   XY=              1.0359   XZ=             -5.9570   YZ=             -2.3351
 Traceless Quadrupole moment (field-independent basis, Debye-Ang):
   XX=             15.8393   YY=            -23.3599   ZZ=              7.5206
   XY=              1.0359   XZ=             -5.9570   YZ=             -2.3351
 Octapole moment (field-independent basis, Debye-Ang**2):
  XXX=              4.3213  YYY=            154.0422  ZZZ=             -4.4842  XYY=             -3.5936
  XXY=             -9.8502  XXZ=              0.2882  XZZ=              1.1363  YZZ=            -13.4663
  YYZ=              2.3250  XYZ=            -18.6924
 Hexadecapole moment (field-independent basis, Debye-Ang**3):
 XXXX=          -7359.6609 YYYY=          -6078.2135 ZZZZ=          -2466.1319 XXXY=              0.0870
 XXXZ=            -31.8509 YYYX=            -11.4987 YYYZ=            -17.5407 ZZZX=            -56.7809
 ZZZY=             -2.1107 XXYY=          -2334.4287 XXZZ=          -1650.1194 YYZZ=          -1389.1692
 XXYZ=            -11.0800 YYXZ=            -42.5383 ZZXY=              1.2072
 N-N= 4.489830797631D+03 E-N=-1.534065421130D+04  KE= 2.570910954025D+03
 1\1\GINC-NC125\SP\RPBE1PBE\Gen\C22H32Cl2Fe1P2Pd1\MACKK4\05-Dec-2021\0\
 \# PBE1PBE gen pseudo=read int=(grid=ultrafine) empiricaldispersion=GD
 3BJ nmr=giao\\RR_Me_Ferrolane_2 title\\0,1\Fe,0,-0.0336217657,2.612232
 6121,0.1065494476\P,0,-1.8111456149,-0.2628644246,0.0665822269\P,0,1.7
 665603782,-0.2279128791,0.0963948527\C,0,-1.547272802,1.448511135,-0.5
 036245111\C,0,-0.6905624137,1.782921255,-1.6210442581\C,0,-0.658151880
 4,3.2094857689,-1.7599856346\C,0,-1.5028539013,3.7740406908,-0.7472464
 773\C,0,-2.0602903492,2.6980286104,0.0223409721\C,0,1.4844135294,1.460
 2954182,0.7163647795\C,0,1.9895232713,2.712910578,0.1901793069\C,0,1.4
 267260838,3.7841950459,0.9621340144\C,0,0.58509239,3.2123964677,1.9735
 379022\C,0,0.6271656462,1.785774096,1.8344482184\C,0,-3.2807584792,-0.
 7832647003,-0.9872851727\C,0,-4.4783499373,-0.2535243593,-0.1755038561
 \C,0,-2.7851770992,-0.1039415394,1.6749687746\C,0,-4.2090321802,-0.586
 2981746,1.2997201763\C,0,3.356364605,-0.7808391119,0.9685570738\C,0,4.
 3230390432,-1.0472054951,-0.2092155573\C,0,2.5467731013,0.0262521548,-
 1.5990759155\C,0,4.0651808887,0.0009222616,-1.3064391991\H,0,-0.131608
 1297,1.0612024321,-2.2173711367\H,0,-0.0563644937,3.7673966536,-2.4781
 942236\H,0,-1.6543678537,4.8371775131,-0.5564891398\H,0,-2.7146366534,
 2.8138645317,0.8860234083\H,0,2.6460655109,2.8278870448,-0.6725129469\
 H,0,0.0637000019,1.0613227188,2.4229330594\Cl,0,-1.7000999632,-3.38862
 24946,0.337492755\Cl,0,1.6570064511,-3.411446714,0.1154119276\Pd,0,-0.
 0109154553,-1.6957894069,0.1449512044\H,0,-3.2629095385,-1.8853393188,
 -0.9287272235\C,0,-3.2276768126,-0.338348426,-2.4472260403\H,0,-2.8094
 062124,0.9760708358,1.9070598925\C,0,-2.1825259079,-0.8639771225,2.860
 6892133\H,0,-5.4180489106,-0.7114846791,-0.5341571314\H,0,-4.575066425
 5,0.8414416085,-0.3168768025\H,0,-4.9582834958,-0.1369694715,1.9756255
 683\H,0,-4.2489312222,-1.6820856815,1.4366656963\H,0,1.5705812896,4.84
 87230029,0.7730729273\H,0,-0.0217870872,3.7653024548,2.6912589619\H,0,
 -2.3374829815,-0.7418391739,-2.9597094991\H,0,-3.2151396276,0.76086608
 87,-2.543777919\H,0,-4.1171516961,-0.7161497073,-2.9817250245\H,0,-1.1
 872583711,-0.479596584,3.1411653712\H,0,-2.0712247291,-1.9331339526,2.
 6175886907\H,0,-2.8436742163,-0.7642520068,3.7404841482\H,0,3.11063700
 33,-1.7263726969,1.4756529188\C,0,3.8909617078,0.2433850877,1.97643252
 07\H,0,2.2271786864,1.0192151181,-1.9605020691\C,0,2.0966145749,-1.047
 3819125,-2.600169162\H,0,4.1249901882,-2.0587707051,-0.6027285562\H,0,
 5.3711706357,-1.0194635203,0.1400579257\H,0,4.3971856072,0.9972121603,
 -0.9578530836\H,0,4.6314870162,-0.2252904921,-2.2280483826\H,0,4.16051
 75319,1.2018984513,1.5002910602\H,0,4.7988313352,-0.1643364919,2.45551
 19514\H,0,3.1589273344,0.4619496172,2.7715553225\H,0,2.3348931608,-2.0
 618781688,-2.2418289922\H,0,2.5920055962,-0.8820983517,-3.573760339\H,
 0,1.003583638,-1.0185036506,-2.7532240156\\Version=ES64L-G09RevE.01\St
 ate=1-A\HF=-2711.5111309\RMSD=3.650e-09\Dipole=-0.035332,4.5527947,-0.
 2145568\Quadrupole=11.6245771,-17.3762617,5.7516846,0.1416149,-4.59457
 48,1.674495\PG=C01 [X(C22H32Cl2Fe1P2Pd1)]\\@


 IF THERE IS ONE WAY BETTER THAN ANOTHER IT IS THE WAY OF NATURE.

                          -- ARISTOTLE
 Job cpu time:       0 days 22 hours 48 minutes 53.2 seconds.
 File lengths (MBytes):  RWF=    679 Int=      0 D2E=      0 Chk=     96 Scr=      1
 Normal termination of Gaussian 09 at Sun Dec  5 03:32:52 2021.
 Initial command:
 /gstore/apps/gaussian/g09.e01-foss-2017a/g09/l1.exe "/local/22791344/Gau-11922.inp" -scrdir="/local/22791344/"
 Entering Link 1 = /gstore/apps/gaussian/g09.e01-foss-2017a/g09/l1.exe PID=      7187.
  
 Copyright (c) 1988,1990,1992,1993,1995,1998,2003,2009,2015,
            Gaussian, Inc.  All Rights Reserved.
  
 This is part of the Gaussian(R) 09 program.  It is based on
 the Gaussian(R) 03 system (copyright 2003, Gaussian, Inc.),
 the Gaussian(R) 98 system (copyright 1998, Gaussian, Inc.),
 the Gaussian(R) 94 system (copyright 1995, Gaussian, Inc.),
 the Gaussian 92(TM) system (copyright 1992, Gaussian, Inc.),
 the Gaussian 90(TM) system (copyright 1990, Gaussian, Inc.),
 the Gaussian 88(TM) system (copyright 1988, Gaussian, Inc.),
 the Gaussian 86(TM) system (copyright 1986, Carnegie Mellon
 University), and the Gaussian 82(TM) system (copyright 1983,
 Carnegie Mellon University). Gaussian is a federally registered
 trademark of Gaussian, Inc.
  
 This software contains proprietary and confidential information,
 including trade secrets, belonging to Gaussian, Inc.
  
 This software is provided under written license and may be
 used, copied, transmitted, or stored only in accord with that
 written license.
  
 The following legend is applicable only to US Government
 contracts under FAR:
  
                    RESTRICTED RIGHTS LEGEND
  
 Use, reproduction and disclosure by the US Government is
 subject to restrictions as set forth in subparagraphs (a)
 and (c) of the Commercial Computer Software - Restricted
 Rights clause in FAR 52.227-19.
  
 Gaussian, Inc.
 340 Quinnipiac St., Bldg. 40, Wallingford CT 06492
  
  
 ---------------------------------------------------------------
 Warning -- This program may not be used in any manner that
 competes with the business of Gaussian, Inc. or will provide
 assistance to any competitor of Gaussian, Inc.  The licensee
 of this program is prohibited from giving any competitor of
 Gaussian, Inc. access to this program.  By using this program,
 the user acknowledges that Gaussian, Inc. is engaged in the
 business of creating and licensing software in the field of
 computational chemistry and represents and warrants to the
 licensee that it is not a competitor of Gaussian, Inc. and that
 it will not use this program in any manner prohibited above.
 ---------------------------------------------------------------
  

 Cite this work as:
 Gaussian 09, Revision E.01,
 M. J. Frisch, G. W. Trucks, H. B. Schlegel, G. E. Scuseria, 
 M. A. Robb, J. R. Cheeseman, G. Scalmani, V. Barone, B. Mennucci, 
 G. A. Petersson, H. Nakatsuji, M. Caricato, X. Li, H. P. Hratchian, 
 A. F. Izmaylov, J. Bloino, G. Zheng, J. L. Sonnenberg, M. Hada, 
 M. Ehara, K. Toyota, R. Fukuda, J. Hasegawa, M. Ishida, T. Nakajima, 
 Y. Honda, O. Kitao, H. Nakai, T. Vreven, J. A. Montgomery, Jr., 
 J. E. Peralta, F. Ogliaro, M. Bearpark, J. J. Heyd, E. Brothers, 
 K. N. Kudin, V. N. Staroverov, T. Keith, R. Kobayashi, J. Normand, 
 K. Raghavachari, A. Rendell, J. C. Burant, S. S. Iyengar, J. Tomasi, 
 M. Cossi, N. Rega, J. M. Millam, M. Klene, J. E. Knox, J. B. Cross, 
 V. Bakken, C. Adamo, J. Jaramillo, R. Gomperts, R. E. Stratmann, 
 O. Yazyev, A. J. Austin, R. Cammi, C. Pomelli, J. W. Ochterski, 
 R. L. Martin, K. Morokuma, V. G. Zakrzewski, G. A. Voth, 
 P. Salvador, J. J. Dannenberg, S. Dapprich, A. D. Daniels, 
 O. Farkas, J. B. Foresman, J. V. Ortiz, J. Cioslowski, 
 and D. J. Fox, Gaussian, Inc., Wallingford CT, 2013.
 
 ******************************************
 Gaussian 09:  ES64L-G09RevE.01 30-Nov-2015
                 5-Dec-2021 
 ******************************************
 %nprocs=14
 Will use up to   14 processors via shared memory.
 %mem=128GB
 %chk=RR_Me_Ferrolane_2_SPE.chk
 ----------------------------------------------------------------------
 # PBE1PBE gen pseudo=read int=(grid=ultrafine) empiricaldispersion=GD3
 BJ pop=nbo guess=read geom=check
 ----------------------------------------------------------------------
 1/29=2,38=1/1;
 2/12=2,40=1/2;
 3/5=7,11=2,14=-4,16=1,17=8,25=1,30=1,74=-13,75=-5,116=-2,124=41/1,2,3;
 4/5=1/1;
 5/5=2,38=6/2;
 6/7=2,8=2,9=2,10=2,28=1,40=1/1,7;
 99/5=1,9=1/99;
 -----------------------
 RR_Me_Ferrolane_2 title
 -----------------------
 Structure from the checkpoint file:  "RR_Me_Ferrolane_2_SPE.chk"
 Charge =  0 Multiplicity = 1
 Z-Matrix found in file.
 Fe,0,-0.0336217657,2.6122326121,0.1065494476
 P,0,-1.8111456149,-0.2628644246,0.0665822269
 P,0,1.7665603782,-0.2279128791,0.0963948527
 C,0,-1.547272802,1.448511135,-0.5036245111
 C,0,-0.6905624137,1.782921255,-1.6210442581
 C,0,-0.6581518804,3.2094857689,-1.7599856346
 C,0,-1.5028539013,3.7740406908,-0.7472464773
 C,0,-2.0602903492,2.6980286104,0.0223409721
 C,0,1.4844135294,1.4602954182,0.7163647795
 C,0,1.9895232713,2.712910578,0.1901793069
 C,0,1.4267260838,3.7841950459,0.9621340144
 C,0,0.58509239,3.2123964677,1.9735379022
 C,0,0.6271656462,1.785774096,1.8344482184
 C,0,-3.2807584792,-0.7832647003,-0.9872851727
 C,0,-4.4783499373,-0.2535243593,-0.1755038561
 C,0,-2.7851770992,-0.1039415394,1.6749687746
 C,0,-4.2090321802,-0.5862981746,1.2997201763
 C,0,3.356364605,-0.7808391119,0.9685570738
 C,0,4.3230390432,-1.0472054951,-0.2092155573
 C,0,2.5467731013,0.0262521548,-1.5990759155
 C,0,4.0651808887,0.0009222616,-1.3064391991
 H,0,-0.1316081297,1.0612024321,-2.2173711367
 H,0,-0.0563644937,3.7673966536,-2.4781942236
 H,0,-1.6543678537,4.8371775131,-0.5564891398
 H,0,-2.7146366534,2.8138645317,0.8860234083
 H,0,2.6460655109,2.8278870448,-0.6725129469
 H,0,0.0637000019,1.0613227188,2.4229330594
 Cl,0,-1.7000999632,-3.3886224946,0.337492755
 Cl,0,1.6570064511,-3.411446714,0.1154119276
[...]
                                                    409(v),303(r),251(v),227(v)
                                                    231(v),1059(g),329(r)
                                                    1040(v),384(g),927(r),381(g)
                                                    139(g),275(r),777(r),389(g)
                                                    327(r),387(g),301(r),305(r)
                                                    441(v),199(r),278(r),469(v)
                                                    230(v),328(r),285(r),196(r)
                                                    434(v),365(v),401(g),312(r)
                                                    1088(r),1047(r),363(v)
                                                    790(r),382(g),953(r),783(r)
                                                    311(r),1043(r),386(g),415(v)
                                                    261(v),315(r),197(r),257(v)
                                                    712(v),330(r),202(r),366(v)
                                                    475(v),195(r),420(v),831(r)
                                                    414(v),465(v)
  1038. BD*(   1)Fe   1 - C  12          0.32790     0.41187  1036(g),1061(g),143(g)
                                                    1039(g),1034(g),1035(g)
                                                    137(g),355(v),144(g),153(g)
                                                    150(g),120(g),1063(g),148(g)
                                                    5(g),457(v),149(g),142(g)
                                                    458(v),1037(g),158(g),407(v)
                                                    146(g),380(v),460(v),163(g)
                                                    356(v),226(v),432(g),379(v)
                                                    431(g),121(g),408(v),225(v)
                                                    1052(r),330(r),405(v)
                                                    1048(v),2(g),139(g),459(v)
                                                    151(g),156(g),138(g),328(r)
                                                    145(g),381(v),409(v),1060(v)
                                                    469(v),164(g),406(v),231(v)
                                                    232(v),434(g),1054(r),227(v)
                                                    166(g),335(r),439(g),354(v)
                                                    465(v),329(r),382(v),1051(v)
                                                    461(v),777(r),140(g),1059(v)
                                                    365(v),927(r),440(g),202(r)
                                                    1053(r),396(v),361(v),389(v)
                                                    159(g),475(v),357(v),447(g)
                                                    716(r),230(v),1047(r)
                                                    1057(v),888(v),1043(r)
                                                    122(r),327(r),155(g),699(r)
                                                    887(v),783(r),414(v),953(r)
                                                    285(r),444(g),199(r),312(r)
                                                    124(r),445(g),790(r),332(r)
                                                    147(g),1065(v),462(v),467(v)
                                                    468(v),303(r),1040(v),433(g)
                                                    410(v),464(v),331(r),304(r)
                                                    338(r),333(r),1049(v),284(r)
                                                    196(r),422(v),448(g)
  1039. BD*(   1)Fe   1 - C  13          0.40464     0.23788  1034(g),1036(g),1037(g)
                                                    1038(g),5(g),144(g),1035(g)
                                                    355(v),137(g),148(g),153(g)
                                                    150(g),142(g),158(g),149(g)
                                                    146(g),225(v),356(v),226(v)
                                                    143(g),121(g),379(v),380(v)
                                                    407(r),432(v),457(g),458(g)
                                                    431(v),156(g),361(v),147(g)
                                                    249(v),405(r),154(g),122(r)
                                                    459(g),250(v),1058(g),330(r)
                                                    227(v),329(r),382(v),252(v)
                                                    232(v),231(v),151(g),120(g)
                                                    357(v),409(r),164(g),328(r)
                                                    166(g),152(g),251(v),381(v)
                                                    1063(g),408(r),434(v)
                                                    1040(v),469(g),303(r),327(r)
                                                    927(r),460(g),777(r),461(g)
                                                    145(g),475(g),163(g),389(v)
                                                    465(g),441(v),277(r),301(r)
                                                    305(r),275(r),199(r),2(g)
                                                    196(r),230(v),790(r),312(r)
                                                    396(v),365(v),953(r),159(g)
                                                    285(r),433(v),202(r),474(g)
                                                    783(r),176(r),363(v),1047(r)
                                                    366(v),440(v),311(r),416(r)
                                                    168(r),1043(r),197(r),462(g)
                                                    138(g),235(v),1045(r),415(r)
                                                    831(r),261(v),338(r),139(g)
                                                    717(v),705(r),169(r),420(r)
  1040. BD*(   1) P   2 - C   4          0.07902     0.21597   
  1041. BD*(   1) P   2 - C  14          0.08060     0.16322   
  1042. BD*(   1) P   2 - C  16          0.06990     0.16077   
  1043. BD*(   1) P   2 -Pd  30          0.16653     0.55905  1047(g),792(g),795(g),787(g)
                                                    167(g),195(v),786(g),783(g)
                                                    796(g),778(g),725(v),223(v)
                                                    754(v),790(g),353(r),789(g)
                                                    777(g),587(r),1088(g),174(g)
                                                    483(v),171(g),757(v),199(v)
                                                    535(v),753(v),175(g),728(v)
                                                    203(v),176(g),1019(r),785(g)
                                                    788(g),639(r),640(r),202(v)
                                                    184(g),204(v),730(v),758(v)
                                                    691(r),182(g),360(r),173(g)
                                                    168(g),459(r),251(r),780(g)
                                                    178(g),230(v),913(r),207(v)
                                                    205(v),966(r),724(v),509(r)
                                                    149(r),596(r),329(r),756(v)
                                                    590(r),200(v),212(v),234(v)
                                                    600(r),897(r),356(r),487(v)
                                                    665(r),716(r),215(v),965(r)
                                                    137(r),208(v),591(r),1004(r)
                                                    912(r),808(r),750(v),512(r)
                                                    844(r),540(v),1022(r),751(v)
                                                    201(v),1034(v),366(r),769(v)
                                                    253(r),183(g),915(r),381(r)
                                                    206(v),963(r),485(v),547(v)
                                                    1036(r),721(v),723(v)
                                                    1067(v),741(v),517(r),385(r)
                                                    138(r),143(r),593(r),224(v)
                                                    811(r),775(v),514(r),987(r)
                                                    537(v),170(g),641(r),761(v)
                                                    237(v),929(r),145(r),935(r)
                                                    491(v),121(r),666(r),1044(v)
                                                    493(v),1020(r),179(g),645(r)
  1044. BD*(   1) P   3 - C   9          0.07400     0.21869   
  1045. BD*(   1) P   3 - C  18          0.08335     0.15902   
  1046. BD*(   1) P   3 - C  20          0.07003     0.15935   
  1047. BD*(   1) P   3 -Pd  30          0.16482     0.55667  1043(g),792(g),795(g),195(g)
                                                    787(g),167(v),786(g),783(g)
                                                    796(g),778(g),754(v),353(v)
                                                    725(v),223(r),790(g),777(g)
                                                    1089(g),483(r),788(g),587(v)
                                                    174(v),753(v),789(g),728(v)
                                                    199(g),171(v),203(g),535(r)
                                                    204(g),782(g),785(g),757(v)
                                                    730(v),639(v),175(v),360(v)
                                                    780(g),1019(r),640(v),173(v)
                                                    176(v),459(r),202(g),184(v)
                                                    691(r),178(v),251(r),215(g)
                                                    596(v),1036(v),207(g),716(r)
                                                    182(v),485(r),212(g),912(r)
                                                    149(r),230(r),200(g),758(v)
                                                    205(g),208(g),356(v),756(v)
                                                    509(r),168(v),913(r),665(r)
                                                    1078(v),329(r),366(v),590(v)
                                                    726(v),1004(r),844(r),966(r)
                                                    487(r),137(r),897(r),722(v)
                                                    600(v),512(r),751(v),1022(r)
                                                    234(r),724(v),385(r),741(v)
                                                    381(r),201(g),808(r),929(r)
                                                    183(v),591(v),537(r),915(r)
                                                    769(v),965(r),540(r),1020(r)
                                                    514(r),593(v),253(r),517(r)
                                                    645(v),364(v),589(v),987(r)
                                                    761(v),1101(r),748(v),143(r)
                                                    210(g),547(r),491(r),493(r)
                                                    935(r),461(r),198(g),666(r)
                                                    811(r),641(v),362(v),842(r)
                                                    179(v),206(g),879(r),536(r)
                                                    224(r)
  1048. BD*(   1) C   4 - C   5          0.03451     0.40340   
  1049. BD*(   1) C   4 - C   8          0.04721     0.39392   
  1050. BD*(   1) C   5 - C   6          0.02802     0.41589   
  1051. BD*(   1) C   5 - H  22          0.01716     0.39712   
  1052. BD*(   1) C   6 - C   7          0.03071     0.40652   
  1053. BD*(   1) C   6 - H  23          0.01499     0.38476   
  1054. BD*(   1) C   7 - C   8          0.03365     0.40454   
  1055. BD*(   1) C   7 - H  24          0.01505     0.38464   
  1056. BD*(   1) C   8 - H  25          0.01714     0.38590   
  1057. BD*(   1) C   9 - C  10          0.03943     0.40139   
  1058. BD*(   1) C   9 - C  13          0.03412     0.40597   
  1059. BD*(   1) C  10 - C  11          0.02826     0.41232   
  1060. BD*(   1) C  10 - H  26          0.01710     0.38609   
  1061. BD*(   1) C  11 - C  12          0.02634     0.41252   
  1062. BD*(   1) C  11 - H  39          0.01506     0.38462   
  1063. BD*(   1) C  12 - C  13          0.02055     0.42318   
  1064. BD*(   1) C  12 - H  40          0.01506     0.38539   
  1065. BD*(   1) C  13 - H  27          0.01857     0.39867   
  1066. BD*(   1) C  14 - C  15          0.02216     0.33026   
  1067. BD*(   1) C  14 - H  31          0.02793     0.36735   
  1068. BD*(   1) C  14 - C  32          0.01186     0.34893   
  1069. BD*(   1) C  15 - C  17          0.00895     0.34473   
  1070. BD*(   1) C  15 - H  35          0.01501     0.35999   
  1071. BD*(   1) C  15 - H  36          0.01904     0.35137   
  1072. BD*(   1) C  16 - C  17          0.02179     0.32182   
  1073. BD*(   1) C  16 - H  33          0.02366     0.34963   
  1074. BD*(   1) C  16 - C  34          0.00996     0.34295   
  1075. BD*(   1) C  17 - H  37          0.01377     0.35915   
  1076. BD*(   1) C  17 - H  38          0.01645     0.36165   
  1077. BD*(   1) C  18 - C  19          0.02030     0.33003   
  1078. BD*(   1) C  18 - H  47          0.02083     0.38152   
  1079. BD*(   1) C  18 - C  48          0.01552     0.34291   
  1080. BD*(   1) C  19 - C  21          0.01365     0.33684   
  1081. BD*(   1) C  19 - H  51          0.01508     0.37585   
  1082. BD*(   1) C  19 - H  52          0.01466     0.36284   
  1083. BD*(   1) C  20 - C  21          0.02335     0.32045   
  1084. BD*(   1) C  20 - H  49          0.02087     0.35345   
  1085. BD*(   1) C  20 - C  50          0.01281     0.33613   
  1086. BD*(   1) C  21 - H  53          0.01526     0.35064   
  1087. BD*(   1) C  21 - H  54          0.01500     0.35833   
  1088. BD*(   1)Cl  28 -Pd  30          0.19408     0.16188  1089(g),1041(v),1043(g)
                                                    1042(v),1045(v),167(v)
                                                    1046(v),795(g),789(g),786(g)
                                                    195(v),725(g),223(r),787(g)
                                                    796(g),783(g),721(g),353(r)
                                                    174(v),1040(v),793(g),587(r)
                                                    1094(r),754(v),1067(r)
                                                    797(g)
  1089. BD*(   1)Cl  29 -Pd  30          0.19248     0.16053  1088(g),1045(v),1042(v)
                                                    1047(g),195(v),795(g),786(g)
                                                    1041(v),1046(v),167(v)
                                                    788(g),353(r),796(g),753(g)
                                                    782(g),754(g),749(g),223(r)
                                                    787(g),783(g),725(v),483(r)
                                                    203(v),793(g)
  1090. BD*(   1) C  32 - H  41          0.00632     0.37098   
  1091. BD*(   1) C  32 - H  42          0.00961     0.37294   
  1092. BD*(   1) C  32 - H  43          0.00843     0.36852   
  1093. BD*(   1) C  34 - H  44          0.00683     0.37573   
  1094. BD*(   1) C  34 - H  45          0.01158     0.39363   
  1095. BD*(   1) C  34 - H  46          0.00956     0.37238   
  1096. BD*(   1) C  48 - H  55          0.00990     0.36892   
  1097. BD*(   1) C  48 - H  56          0.00843     0.36920   
  1098. BD*(   1) C  48 - H  57          0.00685     0.37296   
  1099. BD*(   1) C  50 - H  58          0.01100     0.38872   
  1100. BD*(   1) C  50 - H  59          0.01010     0.37277   
  1101. BD*(   1) C  50 - H  60          0.00616     0.37728   
       -------------------------------
              Total Lewis  292.47614  ( 97.4920%)
        Valence non-Lewis    7.09334  (  2.3644%)
        Rydberg non-Lewis    0.43053  (  0.1435%)
       -------------------------------
            Total unit  1  300.00000  (100.0000%)
           Charge unit  1    0.00000
 1\1\GINC-NC125\SP\RPBE1PBE\Gen\C22H32Cl2Fe1P2Pd1\MACKK4\05-Dec-2021\0\
 \# PBE1PBE gen pseudo=read int=(grid=ultrafine) empiricaldispersion=GD
 3BJ pop=nbo guess=read geom=check\\RR_Me_Ferrolane_2 title\\0,1\Fe,0,-
 0.0336217657,2.6122326121,0.1065494476\P,0,-1.8111456149,-0.2628644246
 ,0.0665822269\P,0,1.7665603782,-0.2279128791,0.0963948527\C,0,-1.54727
 2802,1.448511135,-0.5036245111\C,0,-0.6905624137,1.782921255,-1.621044
 2581\C,0,-0.6581518804,3.2094857689,-1.7599856346\C,0,-1.5028539013,3.
 7740406908,-0.7472464773\C,0,-2.0602903492,2.6980286104,0.0223409721\C
 ,0,1.4844135294,1.4602954182,0.7163647795\C,0,1.9895232713,2.712910578
 ,0.1901793069\C,0,1.4267260838,3.7841950459,0.9621340144\C,0,0.5850923
 9,3.2123964677,1.9735379022\C,0,0.6271656462,1.785774096,1.8344482184\
 C,0,-3.2807584792,-0.7832647003,-0.9872851727\C,0,-4.4783499373,-0.253
 5243593,-0.1755038561\C,0,-2.7851770992,-0.1039415394,1.6749687746\C,0
 ,-4.2090321802,-0.5862981746,1.2997201763\C,0,3.356364605,-0.780839111
 9,0.9685570738\C,0,4.3230390432,-1.0472054951,-0.2092155573\C,0,2.5467
 731013,0.0262521548,-1.5990759155\C,0,4.0651808887,0.0009222616,-1.306
 4391991\H,0,-0.1316081297,1.0612024321,-2.2173711367\H,0,-0.0563644937
 ,3.7673966536,-2.4781942236\H,0,-1.6543678537,4.8371775131,-0.55648913
 98\H,0,-2.7146366534,2.8138645317,0.8860234083\H,0,2.6460655109,2.8278
 870448,-0.6725129469\H,0,0.0637000019,1.0613227188,2.4229330594\Cl,0,-
 1.7000999632,-3.3886224946,0.337492755\Cl,0,1.6570064511,-3.411446714,
 0.1154119276\Pd,0,-0.0109154553,-1.6957894069,0.1449512044\H,0,-3.2629
 095385,-1.8853393188,-0.9287272235\C,0,-3.2276768126,-0.338348426,-2.4
 472260403\H,0,-2.8094062124,0.9760708358,1.9070598925\C,0,-2.182525907
 9,-0.8639771225,2.8606892133\H,0,-5.4180489106,-0.7114846791,-0.534157
 1314\H,0,-4.5750664255,0.8414416085,-0.3168768025\H,0,-4.9582834958,-0
 .1369694715,1.9756255683\H,0,-4.2489312222,-1.6820856815,1.4366656963\
 H,0,1.5705812896,4.8487230029,0.7730729273\H,0,-0.0217870872,3.7653024
 548,2.6912589619\H,0,-2.3374829815,-0.7418391739,-2.9597094991\H,0,-3.
 2151396276,0.7608660887,-2.543777919\H,0,-4.1171516961,-0.7161497073,-
 2.9817250245\H,0,-1.1872583711,-0.479596584,3.1411653712\H,0,-2.071224
 7291,-1.9331339526,2.6175886907\H,0,-2.8436742163,-0.7642520068,3.7404
 841482\H,0,3.1106370033,-1.7263726969,1.4756529188\C,0,3.8909617078,0.
 2433850877,1.9764325207\H,0,2.2271786864,1.0192151181,-1.9605020691\C,
 0,2.0966145749,-1.0473819125,-2.600169162\H,0,4.1249901882,-2.05877070
 51,-0.6027285562\H,0,5.3711706357,-1.0194635203,0.1400579257\H,0,4.397
 1856072,0.9972121603,-0.9578530836\H,0,4.6314870162,-0.2252904921,-2.2
 280483826\H,0,4.1605175319,1.2018984513,1.5002910602\H,0,4.7988313352,
 -0.1643364919,2.4555119514\H,0,3.1589273344,0.4619496172,2.7715553225\
 H,0,2.3348931608,-2.0618781688,-2.2418289922\H,0,2.5920055962,-0.88209
 83517,-3.573760339\H,0,1.003583638,-1.0185036506,-2.7532240156\\Versio
 n=ES64L-G09RevE.01\State=1-A\HF=-2711.5111309\RMSD=5.228e-09\Dipole=-0
 .035331,4.5527928,-0.2145545\Quadrupole=11.6245991,-17.3762676,5.75166
 85,0.1416032,-4.5945726,1.6744911\PG=C01 [X(C22H32Cl2Fe1P2Pd1)]\\@


 The mind is not a vessel to be filled but a fire to be kindled.
                                  -- Plutarch
 Job cpu time:       0 days  0 hours 45 minutes 19.1 seconds.
 File lengths (MBytes):  RWF=    614 Int=      0 D2E=      0 Chk=     96 Scr=      1
 Normal termination of Gaussian 09 at Sun Dec  5 03:36:15 2021.
