 Entering Gaussian System, Link 0=g09
 Input=RR_Me_Ferrolane_4_SPE_NoPd.com
 Output=RR_Me_Ferrolane_4_SPE_NoPd.log
 Initial command:
 /gstore/apps/gaussian/g09.e01-foss-2017a/g09/l1.exe "/local/22791349/Gau-3675.inp" -scrdir="/local/22791349/"
 Entering Link 1 = /gstore/apps/gaussian/g09.e01-foss-2017a/g09/l1.exe PID=      3676.
  
 Copyright (c) 1988,1990,1992,1993,1995,1998,2003,2009,2015,
            Gaussian, Inc.  All Rights Reserved.
  
 This is part of the Gaussian(R) 09 program.  It is based on
 the Gaussian(R) 03 system (copyright 2003, Gaussian, Inc.),
 the Gaussian(R) 98 system (copyright 1998, Gaussian, Inc.),
 the Gaussian(R) 94 system (copyright 1995, Gaussian, Inc.),
 the Gaussian 92(TM) system (copyright 1992, Gaussian, Inc.),
 the Gaussian 90(TM) system (copyright 1990, Gaussian, Inc.),
 the Gaussian 88(TM) system (copyright 1988, Gaussian, Inc.),
 the Gaussian 86(TM) system (copyright 1986, Carnegie Mellon
 University), and the Gaussian 82(TM) system (copyright 1983,
 Carnegie Mellon University). Gaussian is a federally registered
 trademark of Gaussian, Inc.
  
 This software contains proprietary and confidential information,
 including trade secrets, belonging to Gaussian, Inc.
  
 This software is provided under written license and may be
 used, copied, transmitted, or stored only in accord with that
 written license.
  
 The following legend is applicable only to US Government
 contracts under FAR:
  
                    RESTRICTED RIGHTS LEGEND
  
 Use, reproduction and disclosure by the US Government is
 subject to restrictions as set forth in subparagraphs (a)
 and (c) of the Commercial Computer Software - Restricted
 Rights clause in FAR 52.227-19.
  
 Gaussian, Inc.
 340 Quinnipiac St., Bldg. 40, Wallingford CT 06492
  
  
 ---------------------------------------------------------------
 Warning -- This program may not be used in any manner that
 competes with the business of Gaussian, Inc. or will provide
 assistance to any competitor of Gaussian, Inc.  The licensee
 of this program is prohibited from giving any competitor of
 Gaussian, Inc. access to this program.  By using this program,
 the user acknowledges that Gaussian, Inc. is engaged in the
 business of creating and licensing software in the field of
 computational chemistry and represents and warrants to the
 licensee that it is not a competitor of Gaussian, Inc. and that
 it will not use this program in any manner prohibited above.
 ---------------------------------------------------------------
  

 Cite this work as:
 Gaussian 09, Revision E.01,
 M. J. Frisch, G. W. Trucks, H. B. Schlegel, G. E. Scuseria, 
 M. A. Robb, J. R. Cheeseman, G. Scalmani, V. Barone, B. Mennucci, 
 G. A. Petersson, H. Nakatsuji, M. Caricato, X. Li, H. P. Hratchian, 
 A. F. Izmaylov, J. Bloino, G. Zheng, J. L. Sonnenberg, M. Hada, 
 M. Ehara, K. Toyota, R. Fukuda, J. Hasegawa, M. Ishida, T. Nakajima, 
 Y. Honda, O. Kitao, H. Nakai, T. Vreven, J. A. Montgomery, Jr., 
 J. E. Peralta, F. Ogliaro, M. Bearpark, J. J. Heyd, E. Brothers, 
 K. N. Kudin, V. N. Staroverov, T. Keith, R. Kobayashi, J. Normand, 
 K. Raghavachari, A. Rendell, J. C. Burant, S. S. Iyengar, J. Tomasi, 
 M. Cossi, N. Rega, J. M. Millam, M. Klene, J. E. Knox, J. B. Cross, 
 V. Bakken, C. Adamo, J. Jaramillo, R. Gomperts, R. E. Stratmann, 
 O. Yazyev, A. J. Austin, R. Cammi, C. Pomelli, J. W. Ochterski, 
 R. L. Martin, K. Morokuma, V. G. Zakrzewski, G. A. Voth, 
 P. Salvador, J. J. Dannenberg, S. Dapprich, A. D. Daniels, 
 O. Farkas, J. B. Foresman, J. V. Ortiz, J. Cioslowski, 
 and D. J. Fox, Gaussian, Inc., Wallingford CT, 2013.
 
 ******************************************
 Gaussian 09:  ES64L-G09RevE.01 30-Nov-2015
                 5-Dec-2021 
 ******************************************
 %nprocs=14
 Will use up to   14 processors via shared memory.
 %mem=128GB
 %chk=RR_Me_Ferrolane_4_SPE_NoPd.chk
 ----------------------------------------------------------------------
 # PBE1PBE gen pseudo=read int=(grid=ultrafine) empiricaldispersion=GD3
 BJ nmr=giao
 ----------------------------------------------------------------------
 1/38=1/1;
 2/12=2,17=6,18=5,40=1/2;
 3/5=7,11=2,16=1,17=8,25=1,30=1,74=-13,75=-5,124=41/1,2,8,3;
 4//1;
 5/5=2,38=5/2;
 8/6=1,10=90,11=11/1;
 10/13=100,45=16/2;
 6/7=2,8=2,9=2,10=2,28=1/1;
 99/9=1/99;
 -----------------------
 RR_Me_Ferrolane_4 title
 -----------------------
 Symbolic Z-matrix:
 Charge =  0 Multiplicity = 1
 Fe                   -0.03707   2.59186   0.04034 
 P                    -1.79383  -0.26806  -0.02415 
 P                     1.78321  -0.22841   0.08754 
 C                    -1.5201    1.42552  -0.63327 
 C                    -0.62515   1.76319  -1.71696 
 C                    -0.59115   3.19069  -1.84869 
 C                    -1.47627   3.75028  -0.86773 
 C                    -2.05732   2.67068  -0.1218 
 C                     1.47172   1.45489   0.70693 
 C                     1.98094   2.71484   0.20313 
 C                     1.37594   3.77661   0.95557 
 C                     0.5036    3.1914    1.93303 
 C                     0.5695    1.76585   1.7926 
 C                    -3.33402  -0.85198  -0.96315 
 C                    -4.35336  -1.11576   0.17029 
 C                    -2.65351  -0.01685   1.63378 
 C                    -4.15587  -0.05613   1.26898 
 C                     3.33617  -0.78343   1.02302 
 C                     4.36103  -1.01746  -0.11198 
 C                     2.63687   0.05204  -1.5688 
 C                     4.13977   0.04416  -1.20422 
 H                    -0.03867   1.04417  -2.29003 
 H                     0.03605   3.75286  -2.54137 
 H                    -1.63751   4.81267  -0.68077 
 H                    -2.74707   2.77569   0.71576 
 H                     2.66809   2.84036  -0.63375 
 H                    -0.0007    1.03041   2.36123 
 H                    -3.05261  -1.80061  -1.44536 
 C                    -3.83238   0.1525   -2.00877 
 H                    -2.35895   0.98083   2.0036 
 C                    -2.24349  -1.07802   2.66456 
 H                    -4.16625  -2.12196   0.58231 
 H                    -5.38404  -1.09951  -0.22825 
 H                    -4.4781    0.93444   0.89557 
 H                    -4.76405  -0.27869   2.16445 
 H                     1.51337   4.84346   0.7751 
 H                    -0.13599   3.73518   2.62906 
 H                    -3.06608   0.37116  -2.77101 
 H                    -4.13642   1.113    -1.55804 
 H                    -4.71107  -0.27265  -2.52561 
 H                    -2.78463  -0.90546   3.61224 
 H                    -2.45871  -2.09748   2.30653 
 H                    -1.15908  -1.04086   2.8682 
 H                     3.0761   -1.74103   1.49944 
 C                     3.81205   0.22557   2.07474 
 H                     2.32003   1.04512  -1.93255 
 C                     2.25058  -1.01175  -2.60603 
 H                     4.19643  -2.02506  -0.53012 
 H                     5.39113  -0.98059   0.28668 
 H                     4.43981   1.0394   -0.82478 
 H                     4.75268  -0.15931  -2.101 
 H                     4.70009  -0.18296   2.589 
 H                     4.09449   1.19535   1.62985 
 H                     3.04114   0.42241   2.83826 
 H                     2.48858  -2.02829  -2.2542 
 H                     2.78761  -0.82137  -3.55263 
 H                     1.16558  -0.99761  -2.80947 
 
 Stoichiometry    C22H32FeP2
 Framework group  C1[X(C22H32FeP2)]
 Deg. of freedom   165
 Full point group                 C1      NOp   1
 Largest Abelian subgroup         C1      NOp   1
 Largest concise Abelian subgroup C1      NOp   1
                         Standard orientation:                         
 ---------------------------------------------------------------------
 Center     Atomic      Atomic             Coordinates (Angstroms)
 Number     Number       Type             X           Y           Z
 ---------------------------------------------------------------------
      1         26           0        0.000010    1.706498   -0.000040
      2         15           0       -1.787760   -1.133788   -0.078835
      3         15           0        1.787763   -1.133796    0.078932
      4          6           0       -1.487217    0.554750   -0.689325
      5          6           0       -0.574643    0.879052   -1.762356
      6          6           0       -0.522934    2.305669   -1.897814
      7          6           0       -1.414286    2.878136   -0.930014
      8          6           0       -2.016973    1.807403   -0.188496
      9          6           0        1.487227    0.554780    0.689316
     10          6           0        2.017003    1.807402    0.188437
     11          6           0        1.414310    2.878177    0.929888
     12          6           0        0.522944    2.305766    1.897708
     13          6           0        0.574642    0.879142    1.762322
     14          6           0       -3.322179   -1.703332   -1.035939
     15          6           0       -4.358933   -1.952210    0.085012
     16          6           0       -2.665854   -0.867881    1.567103
     17          6           0       -4.163732   -0.891475    1.183053
     18          6           0        3.322219   -1.703271    1.036011
     19          6           0        4.358928   -1.952229   -0.084964
     20          6           0        2.665790   -0.868002   -1.567061
     21          6           0        4.163685   -0.891572   -1.183072
     22          1           0        0.011062    0.151765   -2.325687
     23          1           0        0.119409    2.858664   -2.583982
     24          1           0       -1.565989    3.942839   -0.748268
     25          1           0       -2.716238    1.922699    0.639772
     26          1           0        2.716250    1.922652   -0.639854
     27          1           0       -0.011053    0.151881    2.325696
     28          1           0       -3.045244   -2.656526   -1.511691
     29          6           0       -3.795720   -0.696557   -2.090850
     30          1           0       -2.364904    0.127576    1.937772
     31          6           0       -2.281082   -1.930398    2.606202
     32          1           0       -4.188453   -2.959165    0.502361
     33          1           0       -5.384141   -1.925661   -0.326860
     34          1           0       -4.469989    0.101484    0.802608
     35          1           0       -4.785855   -1.104469    2.071234
     36          1           0        1.566016    3.942869    0.748082
     37          1           0       -0.119419    2.858802    2.583824
     38          1           0       -3.017263   -0.488825   -2.843759
     39          1           0       -4.094744    0.268666   -1.646893
     40          1           0       -4.672401   -1.113443   -2.617741
     41          1           0       -2.832411   -1.748882    3.546307
     42          1           0       -2.503096   -2.948477    2.248410
     43          1           0       -1.199036   -1.904735    2.823720
     44          1           0        3.045304   -2.656431    1.511844
     45          6           0        3.795803   -0.696419    2.090830
     46          1           0        2.364828    0.127432   -1.937783
     47          6           0        2.280976   -1.930590   -2.606070
     48          1           0        4.188430   -2.959213   -0.502236
     49          1           0        5.384152   -1.925654    0.326866
     50          1           0        4.469959    0.101414   -0.802710
     51          1           0        4.785771   -1.104630   -2.071263
     52          1           0        4.672501   -1.113271    2.617720
     53          1           0        4.094816    0.268769    1.646789
     54          1           0        3.017375   -0.488626    2.843751
     55          1           0        2.503003   -2.948645   -2.248217
     56          1           0        2.832266   -1.749142   -3.546212
     57          1           0        1.198921   -1.904944   -2.823543
 ---------------------------------------------------------------------
 Rotational constants (GHZ):      0.2776792      0.1548157      0.1384461
 General basis read from cards:  (5D, 7F)
 ======================================================================================================
                                       Pseudopotential Parameters
 ======================================================================================================
  Center     Atomic      Valence      Angular      Power
  Number     Number     Electrons     Momentum     of R      Exponent        Coefficient   SO-Coeffient
 ======================================================================================================
    1         26           16
                                      F and up 
                                                     2        1.0000000        0.00000000    0.00000000
                                      S - F
                                                     2       20.9300000      253.74958800    0.00000000
                                                     2        9.4450000       37.92284500    0.00000000
                                      P - F
                                                     2       21.7600000      161.03681200    0.00000000
                                                     2        9.1780000       27.65129800    0.00000000
                                      D - F
                                                     2       25.9000000      -24.43127600    0.00000000
                                                     2        8.8350000       -1.43425100    0.00000000
    2         15
                                   No pseudopotential on this center.
    3         15
                                   No pseudopotential on this center.
    4          6
                                   No pseudopotential on this center.
    5          6
                                   No pseudopotential on this center.
    6          6
                                   No pseudopotential on this center.
    7          6
                                   No pseudopotential on this center.
    8          6
                                   No pseudopotential on this center.
    9          6
                                   No pseudopotential on this center.
   10          6
                                   No pseudopotential on this center.
   11          6
                                   No pseudopotential on this center.
   12          6
                                   No pseudopotential on this center.
   13          6
                                   No pseudopotential on this center.
   14          6
                                   No pseudopotential on this center.
   15          6
                                   No pseudopotential on this center.
   16          6
                                   No pseudopotential on this center.
   17          6
                                   No pseudopotential on this center.
   18          6
                                   No pseudopotential on this center.
   19          6
                                   No pseudopotential on this center.
   20          6
                                   No pseudopotential on this center.
   21          6
                                   No pseudopotential on this center.
   22          1
                                   No pseudopotential on this center.
   23          1
                                   No pseudopotential on this center.
   24          1
                                   No pseudopotential on this center.
   25          1
                                   No pseudopotential on this center.
   26          1
                                   No pseudopotential on this center.
   27          1
                                   No pseudopotential on this center.
   28          1
                                   No pseudopotential on this center.
   29          6
                                   No pseudopotential on this center.
   30          1
                                   No pseudopotential on this center.
   31          6
                                   No pseudopotential on this center.
   32          1
                                   No pseudopotential on this center.
   33          1
                                   No pseudopotential on this center.
   34          1
                                   No pseudopotential on this center.
   35          1
                                   No pseudopotential on this center.
   36          1
                                   No pseudopotential on this center.
   37          1
                                   No pseudopotential on this center.
   38          1
                                   No pseudopotential on this center.
   39          1
                                   No pseudopotential on this center.
   40          1
                                   No pseudopotential on this center.
   41          1
                                   No pseudopotential on this center.
   42          1
                                   No pseudopotential on this center.
   43          1
                                   No pseudopotential on this center.
   44          1
                                   No pseudopotential on this center.
   45          6
                                   No pseudopotential on this center.
   46          1
                                   No pseudopotential on this center.
   47          6
                                   No pseudopotential on this center.
   48          1
                                   No pseudopotential on this center.
   49          1
                                   No pseudopotential on this center.
   50          1
                                   No pseudopotential on this center.
   51          1
                                   No pseudopotential on this center.
   52          1
                                   No pseudopotential on this center.
   53          1
                                   No pseudopotential on this center.
   54          1
                                   No pseudopotential on this center.
   55          1
                                   No pseudopotential on this center.
   56          1
                                   No pseudopotential on this center.
   57          1
                                   No pseudopotential on this center.
 ======================================================================================================
 There are  1117 symmetry adapted cartesian basis functions of A   symmetry.
 There are   991 symmetry adapted basis functions of A   symmetry.
   991 basis functions,  1591 primitive gaussians,  1117 cartesian basis functions
   105 alpha electrons      105 beta electrons
       nuclear repulsion energy      3044.1408429074 Hartrees.
 NAtoms=   57 NActive=   57 NUniq=   57 SFac= 1.00D+00 NAtFMM=   60 NAOKFM=F Big=F
 Integral buffers will be    131072 words long.
 Raffenetti 2 integral format.
 Two-electron integral symmetry is turned on.
 Nuclear repulsion after empirical dispersion term =     3044.0606406568 Hartrees.
 One-electron integrals computed using PRISM.
   1 Symmetry operations used in ECPInt.
 ECPInt:  NShTT=   84666 NPrTT=  251649 LenC2=   74495 LenP2D=  156651.
 LDataN:  DoStor=T MaxTD1= 6 Len=  172
 NBasis=   991 RedAO= T EigKep=  1.49D-05  NBF=   991
 NBsUse=   991 1.00D-06 EigRej= -1.00D+00 NBFU=   991
 ExpMin= 1.00D-02 ExpMax= 5.24D+04 ExpMxC= 1.79D+03 IAcc=3 IRadAn=         5 AccDes= 0.00D+00
 Harris functional with IExCor= 1009 and IRadAn=       5 diagonalized for initial guess.
 HarFok:  IExCor= 1009 AccDes= 0.00D+00 IRadAn=         5 IDoV= 1 UseB2=F ITyADJ=14
 ICtDFT=  3500011 ScaDFX=  1.000000  1.000000  1.000000  1.000000
 FoFCou: FMM=F IPFlag=           0 FMFlag=      100000 FMFlg1=           0
         NFxFlg=           0 DoJE=T BraDBF=F KetDBF=T FulRan=T
         wScrn=  0.000000 ICntrl=     500 IOpCl=  0 I1Cent=   200000004 NGrid=           0
         NMat0=    1 NMatS0=      1 NMatT0=    0 NMatD0=    1 NMtDS0=    0 NMtDT0=    0
 Petite list used in FoFCou.
 Requested convergence on RMS density matrix=1.00D-08 within 128 cycles.
 Requested convergence on MAX density matrix=1.00D-06.
 Requested convergence on             energy=1.00D-06.
 No special actions if energy rises.
 SCF Done:  E(RPBE1PBE) =  -1663.30425226     A.U. after   18 cycles
            NFock= 18  Conv=0.35D-08     -V/T= 2.0368
 DoSCS=F DFT=T ScalE2(SS,OS)=  1.000000  1.000000
 Range of M.O.s used for correlation:     1   991
 NBasis=   991 NAE=   105 NBE=   105 NFC=     0 NFV=     0
 NROrb=    991 NOA=   105 NOB=   105 NVA=   886 NVB=   886

 **** Warning!!: The largest alpha MO coefficient is  0.39322093D+02

          Differentiating once with respect to magnetic field using GIAOs.
          Electric field/nuclear overlap derivatives assumed to be zero.
 FoFCou: FMM=F IPFlag=           0 FMFlag=      100000 FMFlg1=           0
         NFxFlg=           0 DoJE=F BraDBF=F KetDBF=T FulRan=T
         wScrn=  0.000000 ICntrl=    6100 IOpCl=  0 I1Cent=           7 NGrid=          57
         NMat0=    1 NMatS0=      1 NMatT0=    0 NMatD0=    1 NMtDS0=    0 NMtDT0=    0
 Symmetry not used in FoFCou.
   1 Symmetry operations used in ECPInt.
 ECPInt:  NShTT=   84666 NPrTT=  251649 LenC2=   84667 LenP2D=  251649.
 LDataN:  DoStor=T MaxTD1= 7 Len=  274
 FoFJK:  IHMeth= 1 ICntrl=    6127 DoSepK=F KAlg= 0 I1Cent=   0 FoldK=F
 IRaf=         1 NMat=   1 IRICut=       1 DoRegI=T DoRafI=F ISym2E= 0.
          There are     3 degrees of freedom in the 1st order CPHF.  IDoFFX=0 NUNeed=     3.
      3 vectors produced by pass  0 Test12= 3.10D-12 3.33D-08 XBig12= 8.09D+01 1.66D+00.
 AX will form     3 AO Fock derivatives at one time.
      3 vectors produced by pass  1 Test12= 3.10D-12 3.33D-08 XBig12= 8.97D-01 6.89D-01.
      3 vectors produced by pass  2 Test12= 3.10D-12 3.33D-08 XBig12= 2.81D-02 3.73D-02.
      3 vectors produced by pass  3 Test12= 3.10D-12 3.33D-08 XBig12= 2.36D-04 6.18D-03.
      3 vectors produced by pass  4 Test12= 3.10D-12 3.33D-08 XBig12= 1.27D-05 1.42D-03.
      3 vectors produced by pass  5 Test12= 3.10D-12 3.33D-08 XBig12= 1.19D-07 8.26D-05.
      3 vectors produced by pass  6 Test12= 3.10D-12 3.33D-08 XBig12= 5.94D-10 8.74D-06.
      3 vectors produced by pass  7 Test12= 3.10D-12 3.33D-08 XBig12= 6.31D-12 1.01D-06.
      2 vectors produced by pass  8 Test12= 3.10D-12 3.33D-08 XBig12= 1.14D-13 1.92D-07.
 InvSVY:  IOpt=1 It=  1 EMax= 1.78D-15
 Solved reduced A of dimension    26 with     3 vectors.
 Calculating GIAO nuclear magnetic shielding tensors.
 SCF GIAO Magnetic shielding tensor (ppm):
      1  Fe   Isotropic = -5943.3375   Anisotropy =  7929.2714
   XX= -4168.7519   YX=     0.0762   ZX=  3984.5328
   XY=     0.0727   YY= -8640.5359   ZY=     0.0916
   XZ=  3844.4098   YZ=     0.0902   ZZ= -5020.7246
   Eigenvalues: -8640.5359 -8532.3200  -657.1565
      2  P    Isotropic =   288.1839   Anisotropy =    77.7408
   XX=   311.6353   YX=    27.4856   ZX=    25.1841
   XY=    27.2906   YY=   228.7673   ZY=    23.8810
   XZ=    -2.1686   YZ=    15.5303   ZZ=   324.1493
   Eigenvalues:   218.1885   306.3523   340.0111
      3  P    Isotropic =   288.1847   Anisotropy =    77.7413
   XX=   311.6341   YX=   -27.4840   ZX=    25.1849
   XY=   -27.2915   YY=   228.7649   ZY=   -23.8710
   XZ=    -2.1644   YZ=   -15.5227   ZZ=   324.1550
   Eigenvalues:   218.1893   306.3525   340.0122
      4  C    Isotropic =   103.1797   Anisotropy =    92.2620
   XX=   115.1959   YX=   -20.5976   ZX=    43.1455
   XY=   -13.1123   YY=    64.4642   ZY=    -2.1677
   XZ=    36.2123   YZ=    -4.4618   ZZ=   129.8789
   Eigenvalues:    57.9298    86.9216   164.6876
      5  C    Isotropic =   103.1835   Anisotropy =    86.6189
   XX=   134.1872   YX=     8.2709   ZX=    39.6307
   XY=    13.2655   YY=    80.6986   ZY=   -27.7644
   XZ=    42.3070   YZ=   -37.8295   ZZ=    94.6647
   Eigenvalues:    40.5647   108.0564   160.9295
      6  C    Isotropic =   108.8367   Anisotropy =    88.4649
   XX=   137.8561   YX=    -1.2108   ZX=    40.4515
   XY=    -7.5607   YY=    98.2335   ZY=    21.0913
   XZ=    53.0592   YZ=    27.5100   ZZ=    90.4205
   Eigenvalues:    50.4694   108.2274   167.8133
      7  C    Isotropic =   110.0950   Anisotropy =    87.9739
   XX=   133.2144   YX=    33.8089   ZX=    30.6629
   XY=    21.4331   YY=    61.3937   ZY=     1.5598
   XZ=    26.2972   YZ=    13.4636   ZZ=   135.6769
   Eigenvalues:    51.9427   109.5980   168.7443
      8  C    Isotropic =   111.8317   Anisotropy =    81.4453
   XX=    94.0688   YX=     5.5480   ZX=    63.4283
   XY=    10.8199   YY=   116.3498   ZY=    -7.6484
   XZ=    45.3351   YZ=    -3.2068   ZZ=   125.0765
   Eigenvalues:    51.5415   117.8251   166.1286
      9  C    Isotropic =   103.1793   Anisotropy =    92.2616
   XX=   115.1965   YX=    20.5980   ZX=    43.1440
   XY=    13.1142   YY=    64.4634   ZY=     2.1705
   XZ=    36.2118   YZ=     4.4632   ZZ=   129.8779
   Eigenvalues:    57.9292    86.9217   164.6870
     10  C    Isotropic =   111.8323   Anisotropy =    81.4440
   XX=    94.0701   YX=    -5.5446   ZX=    63.4285
   XY=   -10.8173   YY=   116.3513   ZY=     7.6487
   XZ=    45.3349   YZ=     3.2075   ZZ=   125.0755
   Eigenvalues:    51.5427   117.8260   166.1283
     11  C    Isotropic =   110.0940   Anisotropy =    87.9731
   XX=   133.2137   YX=   -33.8051   ZX=    30.6643
   XY=   -21.4320   YY=    61.3915   ZY=    -1.5553
   XZ=    26.2989   YZ=   -13.4572   ZZ=   135.6767
   Eigenvalues:    51.9419   109.5973   168.7427
     12  C    Isotropic =   108.8373   Anisotropy =    88.4644
   XX=   137.8551   YX=     1.2138   ZX=    40.4517
   XY=     7.5645   YY=    98.2311   ZY=   -21.0914
   XZ=    53.0594   YZ=   -27.5103   ZZ=    90.4256
   Eigenvalues:    50.4703   108.2280   167.8135
     13  C    Isotropic =   103.1822   Anisotropy =    86.6193
   XX=   134.1842   YX=    -8.2701   ZX=    39.6337
   XY=   -13.2631   YY=    80.7010   ZY=    27.7658
   XZ=    42.3074   YZ=    37.8297   ZZ=    94.6614
   Eigenvalues:    40.5630   108.0551   160.9284
     14  C    Isotropic =   149.6073   Anisotropy =    23.1697
   XX=   162.4746   YX=     7.9413   ZX=    -2.6645
   XY=    11.3209   YY=   128.5472   ZY=    -0.5405
   XZ=     0.8253   YZ=    11.2852   ZZ=   157.8002
   Eigenvalues:   125.1022   158.6659   165.0538
     15  C    Isotropic =   148.1591   Anisotropy =    38.1563
   XX=   159.0017   YX=    11.2601   ZX=   -12.8332
   XY=    24.7689   YY=   125.5482   ZY=    20.1587
   XZ=   -14.7374   YZ=     5.6882   ZZ=   159.9275
   Eigenvalues:   111.3587   159.5221   173.5967
     16  C    Isotropic =   148.0469   Anisotropy =    21.8895
   XX=   159.2849   YX=     8.4632   ZX=    -5.3793
   XY=     0.7303   YY=   132.7235   ZY=     2.6452
   XZ=    -6.3257   YZ=     8.0840   ZZ=   152.1324
   Eigenvalues:   130.1043   151.3966   162.6399
     17  C    Isotropic =   149.3446   Anisotropy =    34.2451
   XX=   171.7036   YX=     3.3873   ZX=    -3.1707
   XY=     4.4073   YY=   127.3293   ZY=    16.5291
   XZ=     4.7543   YZ=     3.5574   ZZ=   149.0010
   Eigenvalues:   123.1603   152.6989   172.1747
     18  C    Isotropic =   149.6074   Anisotropy =    23.1694
   XX=   162.4745   YX=    -7.9421   ZX=    -2.6643
   XY=   -11.3206   YY=   128.5462   ZY=     0.5430
   XZ=     0.8256   YZ=   -11.2829   ZZ=   157.8016
   Eigenvalues:   125.1020   158.6666   165.0537
     19  C    Isotropic =   148.1591   Anisotropy =    38.1564
   XX=   159.0005   YX=   -11.2613   ZX=   -12.8323
   XY=   -24.7712   YY=   125.5463   ZY=   -20.1555
   XZ=   -14.7358   YZ=    -5.6855   ZZ=   159.9304
   Eigenvalues:   111.3583   159.5222   173.5967
     20  C    Isotropic =   148.0465   Anisotropy =    21.8899
   XX=   159.2841   YX=    -8.4642   ZX=    -5.3792
   XY=    -0.7317   YY=   132.7221   ZY=    -2.6447
   XZ=    -6.3261   YZ=    -8.0827   ZZ=   152.1334
   Eigenvalues:   130.1031   151.3966   162.6397
     21  C    Isotropic =   149.3445   Anisotropy =    34.2450
   XX=   171.7034   YX=    -3.3877   ZX=    -3.1713
   XY=    -4.4080   YY=   127.3280   ZY=   -16.5270
   XZ=     4.7535   YZ=    -3.5557   ZZ=   149.0021
   Eigenvalues:   123.1605   152.6985   172.1745
     22  H    Isotropic =    27.5335   Anisotropy =     6.1199
   XX=    29.3776   YX=    -2.1258   ZX=    -1.7277
   XY=    -2.8045   YY=    26.8939   ZY=     0.1103
   XZ=    -2.3818   YZ=     0.5731   ZZ=    26.3291
   Eigenvalues:    24.7441    26.2430    31.6135
     23  H    Isotropic =    27.4043   Anisotropy =     7.3858
   XX=    26.0592   YX=     0.8495   ZX=    -2.2210
   XY=     1.1725   YY=    28.3353   ZY=    -3.3178
   XZ=    -2.7233   YZ=    -3.2435   ZZ=    27.8185
   Eigenvalues:    23.8761    26.0087    32.3282
     24  H    Isotropic =    27.4778   Anisotropy =     8.4409
   XX=    25.1297   YX=    -1.5442   ZX=    -0.6491
   XY=    -1.3961   YY=    32.8339   ZY=    -0.0025
   XZ=    -0.6594   YZ=    -0.1463   ZZ=    24.4699
   Eigenvalues:    23.9791    25.3493    33.1051
     25  H    Isotropic =    27.7315   Anisotropy =     3.6745
   XX=    27.0643   YX=     0.0649   ZX=    -3.7272
   XY=    -0.2091   YY=    30.1121   ZY=    -0.0644
   XZ=    -2.9853   YZ=    -0.4756   ZZ=    26.0181
   Eigenvalues:    23.1353    29.8780    30.1811
     26  H    Isotropic =    27.7314   Anisotropy =     3.6741
   XX=    27.0644   YX=    -0.0650   ZX=    -3.7271
   XY=     0.2090   YY=    30.1118   ZY=     0.0641
   XZ=    -2.9853   YZ=     0.4753   ZZ=    26.0182
   Eigenvalues:    23.1355    29.8780    30.1808
     27  H    Isotropic =    27.5335   Anisotropy =     6.1196
   XX=    29.3775   YX=     2.1255   ZX=    -1.7278
   XY=     2.8042   YY=    26.8937   ZY=    -0.1102
   XZ=    -2.3821   YZ=    -0.5731   ZZ=    26.3293
   Eigenvalues:    24.7442    26.2431    31.6132
     28  H    Isotropic =    29.1922   Anisotropy =     9.0056
   XX=    27.0701   YX=    -0.3434   ZX=    -0.4514
   XY=    -1.0381   YY=    32.6395   ZY=     3.7944
   XZ=    -0.7630   YZ=     4.6328   ZZ=    27.8671
   Eigenvalues:    25.3913    26.9894    35.1960
     29  C    Isotropic =   167.0266   Anisotropy =    19.2289
   XX=   171.7300   YX=    -0.1446   ZX=     9.4004
   XY=     5.5021   YY=   160.6284   ZY=   -11.3334
   XZ=     7.1013   YZ=    -8.2790   ZZ=   168.7214
   Eigenvalues:   151.6098   169.6241   179.8459
     30  H    Isotropic =    28.6044   Anisotropy =     7.1961
   XX=    26.8484   YX=     3.7334   ZX=    -0.2214
   XY=     3.1642   YY=    31.5670   ZY=     0.7475
   XZ=    -0.2266   YZ=     0.1788   ZZ=    27.3979
   Eigenvalues:    24.9584    27.4530    33.4018
     31  C    Isotropic =   164.7350   Anisotropy =    33.8686
   XX=   162.9429   YX=    -3.0062   ZX=    -5.7851
   XY=    -7.4767   YY=   154.9538   ZY=   -20.9374
   XZ=    -4.8250   YZ=   -16.4258   ZZ=   176.3084
   Eigenvalues:   141.6697   165.2213   187.3141
     32  H    Isotropic =    29.3453   Anisotropy =    10.0129
   XX=    26.6421   YX=     3.8644   ZX=    -0.9288
   XY=     3.6789   YY=    33.7831   ZY=    -1.8375
   XZ=    -0.8222   YZ=    -2.3583   ZZ=    27.6109
   Eigenvalues:    25.0187    26.9968    36.0206
     33  H    Isotropic =    29.8033   Anisotropy =    11.8203
   XX=    35.8506   YX=     3.5974   ZX=     1.8092
   XY=     4.7293   YY=    25.7287   ZY=     1.0806
   XZ=     1.2375   YZ=     1.2613   ZZ=    27.8306
   Eigenvalues:    24.1357    27.5907    37.6835
     34  H    Isotropic =    29.4041   Anisotropy =     7.2091
   XX=    31.2475   YX=    -2.8695   ZX=    -1.0647
   XY=    -2.9036   YY=    31.3966   ZY=     0.0652
   XZ=     0.7163   YZ=    -0.2093   ZZ=    25.5681
   Eigenvalues:    25.5568    28.4452    34.2101
     35  H    Isotropic =    29.8255   Anisotropy =    11.2295
   XX=    33.0652   YX=     0.7684   ZX=    -5.8191
   XY=    -0.0116   YY=    24.9435   ZY=     0.3581
   XZ=    -4.1441   YZ=     0.6240   ZZ=    31.4678
   Eigenvalues:    24.7860    27.3787    37.3118
     36  H    Isotropic =    27.4777   Anisotropy =     8.4409
   XX=    25.1297   YX=     1.5442   ZX=    -0.6492
   XY=     1.3961   YY=    32.8337   ZY=     0.0020
   XZ=    -0.6594   YZ=     0.1460   ZZ=    24.4698
   Eigenvalues:    23.9790    25.3492    33.1050
     37  H    Isotropic =    27.4043   Anisotropy =     7.3857
   XX=    26.0593   YX=    -0.8496   ZX=    -2.2209
   XY=    -1.1726   YY=    28.3356   ZY=     3.3178
   XZ=    -2.7231   YZ=     3.2436   ZZ=    27.8181
   Eigenvalues:    23.8761    26.0087    32.3281
     38  H    Isotropic =    30.9891   Anisotropy =     6.7035
   XX=    31.6256   YX=     4.3397   ZX=     0.1484
   XY=     3.1831   YY=    26.1240   ZY=    -2.3271
   XZ=    -0.1884   YZ=     0.0372   ZZ=    35.2176
   Eigenvalues:    24.1223    33.3868    35.4581
     39  H    Isotropic =    30.9696   Anisotropy =     4.2314
   XX=    31.9203   YX=    -0.0157   ZX=     1.8467
   XY=    -1.2795   YY=    32.7291   ZY=     0.1318
   XZ=     4.4243   YZ=     1.0805   ZZ=    28.2595
   Eigenvalues:    26.3464    32.7719    33.7906
     40  H    Isotropic =    30.8011   Anisotropy =    13.1899
   XX=    33.1561   YX=     3.3477   ZX=     5.9028
   XY=     1.4587   YY=    26.9413   ZY=     0.3339
   XZ=     6.9470   YZ=     1.2911   ZZ=    32.3060
   Eigenvalues:    25.3661    27.4428    39.5944
     41  H    Isotropic =    30.2625   Anisotropy =    12.1094
   XX=    27.6259   YX=    -0.5981   ZX=    -3.0549
   XY=     0.4265   YY=    26.2271   ZY=    -2.8539
   XZ=    -3.6744   YZ=    -1.2810   ZZ=    36.9345
   Eigenvalues:    25.4521    26.9999    38.3355
     42  H    Isotropic =    30.1610   Anisotropy =     7.9085
   XX=    27.0549   YX=     0.6308   ZX=     0.7054
   XY=     0.5714   YY=    34.7259   ZY=    -2.0220
   XZ=     1.0240   YZ=    -2.3030   ZZ=    28.7022
   Eigenvalues:    26.4092    28.6405    35.4333
     43  H    Isotropic =    29.8027   Anisotropy =     7.4226
   XX=    33.8489   YX=     0.1827   ZX=     1.7780
   XY=    -1.0016   YY=    26.6114   ZY=    -3.4310
   XZ=     1.8305   YZ=    -3.2881   ZZ=    28.9479
   Eigenvalues:    24.1681    30.4890    34.7511
     44  H    Isotropic =    29.1922   Anisotropy =     9.0057
   XX=    27.0700   YX=     0.3433   ZX=    -0.4513
   XY=     1.0379   YY=    32.6389   ZY=    -3.7948
   XZ=    -0.7629   YZ=    -4.6333   ZZ=    27.8677
   Eigenvalues:    25.3913    26.9893    35.1960
     45  C    Isotropic =   167.0267   Anisotropy =    19.2291
   XX=   171.7309   YX=     0.1455   ZX=     9.4004
   XY=    -5.5009   YY=   160.6297   ZY=    11.3344
   XZ=     7.1013   YZ=     8.2798   ZZ=   168.7195
   Eigenvalues:   151.6097   169.6243   179.8461
     46  H    Isotropic =    28.6044   Anisotropy =     7.1962
   XX=    26.8486   YX=    -3.7335   ZX=    -0.2210
   XY=    -3.1643   YY=    31.5668   ZY=    -0.7477
   XZ=    -0.2263   YZ=    -0.1790   ZZ=    27.3977
   Eigenvalues:    24.9586    27.4527    33.4018
     47  C    Isotropic =   164.7350   Anisotropy =    33.8687
   XX=   162.9423   YX=     3.0064   ZX=    -5.7847
   XY=     7.4771   YY=   154.9564   ZY=    20.9384
   XZ=    -4.8251   YZ=    16.4271   ZZ=   176.3064
   Eigenvalues:   141.6697   165.2211   187.3141
     48  H    Isotropic =    29.3453   Anisotropy =    10.0129
   XX=    26.6420   YX=    -3.8643   ZX=    -0.9285
   XY=    -3.6789   YY=    33.7834   ZY=     1.8372
   XZ=    -0.8218   YZ=     2.3580   ZZ=    27.6106
   Eigenvalues:    25.0187    26.9968    36.0206
     49  H    Isotropic =    29.8033   Anisotropy =    11.8203
   XX=    35.8507   YX=    -3.5973   ZX=     1.8092
   XY=    -4.7293   YY=    25.7286   ZY=    -1.0803
   XZ=     1.2375   YZ=    -1.2610   ZZ=    27.8306
   Eigenvalues:    24.1358    27.5906    37.6835
     50  H    Isotropic =    29.4040   Anisotropy =     7.2092
   XX=    31.2475   YX=     2.8695   ZX=    -1.0651
   XY=     2.9037   YY=    31.3966   ZY=    -0.0657
   XZ=     0.7159   YZ=     0.2088   ZZ=    25.5680
   Eigenvalues:    25.5568    28.4451    34.2101
     51  H    Isotropic =    29.8255   Anisotropy =    11.2294
   XX=    33.0648   YX=    -0.7688   ZX=    -5.8190
   XY=     0.0112   YY=    24.9435   ZY=    -0.3576
   XZ=    -4.1442   YZ=    -0.6235   ZZ=    31.4682
   Eigenvalues:    24.7860    27.3787    37.3118
     52  H    Isotropic =    30.8011   Anisotropy =    13.1900
   XX=    33.1565   YX=    -3.3473   ZX=     5.9031
   XY=    -1.4583   YY=    26.9412   ZY=    -0.3334
   XZ=     6.9471   YZ=    -1.2906   ZZ=    32.3056
   Eigenvalues:    25.3661    27.4428    39.5944
     53  H    Isotropic =    30.9696   Anisotropy =     4.2314
   XX=    31.9204   YX=     0.0159   ZX=     1.8465
   XY=     1.2797   YY=    32.7290   ZY=    -0.1322
   XZ=     4.4242   YZ=    -1.0808   ZZ=    28.2593
   Eigenvalues:    26.3462    32.7719    33.7905
     54  H    Isotropic =    30.9891   Anisotropy =     6.7035
   XX=    31.6256   YX=    -4.3396   ZX=     0.1488
   XY=    -3.1831   YY=    26.1243   ZY=     2.3279
   XZ=    -0.1879   YZ=    -0.0364   ZZ=    35.2175
   Eigenvalues:    24.1224    33.3869    35.4581
     55  H    Isotropic =    30.1610   Anisotropy =     7.9084
   XX=    27.0550   YX=    -0.6307   ZX=     0.7055
   XY=    -0.5712   YY=    34.7262   ZY=     2.0216
   XZ=     1.0241   YZ=     2.3025   ZZ=    28.7018
   Eigenvalues:    26.4092    28.6406    35.4333
     56  H    Isotropic =    30.2625   Anisotropy =    12.1094
   XX=    27.6257   YX=     0.5979   ZX=    -3.0546
   XY=    -0.4266   YY=    26.2274   ZY=     2.8547
   XZ=    -3.6741   YZ=     1.2818   ZZ=    36.9344
   Eigenvalues:    25.4522    27.0000    38.3354
     57  H    Isotropic =    29.8027   Anisotropy =     7.4226
   XX=    33.8492   YX=    -0.1825   ZX=     1.7778
   XY=     1.0018   YY=    26.6119   ZY=     3.4312
   XZ=     1.8301   YZ=     3.2883   ZZ=    28.9471
   Eigenvalues:    24.1680    30.4890    34.7511
 End of Minotr F.D. properties file   721 does not exist.
 End of Minotr F.D. properties file   722 does not exist.
 End of Minotr F.D. properties file   788 does not exist.

 **********************************************************************

            Population analysis using the SCF density.

 **********************************************************************

 Orbital symmetries:
       Occupied  (A) (A) (A) (A) (A) (A) (A) (A) (A) (A) (A) (A)
                 (A) (A) (A) (A) (A) (A) (A) (A) (A) (A) (A) (A)
                 (A) (A) (A) (A) (A) (A) (A) (A) (A) (A) (A) (A)
                 (A) (A) (A) (A) (A) (A) (A) (A) (A) (A) (A) (A)
                 (A) (A) (A) (A) (A) (A) (A) (A) (A) (A) (A) (A)
                 (A) (A) (A) (A) (A) (A) (A) (A) (A) (A) (A) (A)
                 (A) (A) (A) (A) (A) (A) (A) (A) (A) (A) (A) (A)
                 (A) (A) (A) (A) (A) (A) (A) (A) (A) (A) (A) (A)
                 (A) (A) (A) (A) (A) (A) (A) (A) (A)
       Virtual   (A) (A) (A) (A) (A) (A) (A) (A) (A) (A) (A) (A)
                 (A) (A) (A) (A) (A) (A) (A) (A) (A) (A) (A) (A)
                 (A) (A) (A) (A) (A) (A) (A) (A) (A) (A) (A) (A)
                 (A) (A) (A) (A) (A) (A) (A) (A) (A) (A) (A) (A)
                 (A) (A) (A) (A) (A) (A) (A) (A) (A) (A) (A) (A)
                 (A) (A) (A) (A) (A) (A) (A) (A) (A) (A) (A) (A)
                 (A) (A) (A) (A) (A) (A) (A) (A) (A) (A) (A) (A)
                 (A) (A) (A) (A) (A) (A) (A) (A) (A) (A) (A) (A)
                 (A) (A) (A) (A) (A) (A) (A) (A) (A) (A) (A) (A)
                 (A) (A) (A) (A) (A) (A) (A) (A) (A) (A) (A) (A)
                 (A) (A) (A) (A) (A) (A) (A) (A) (A) (A) (A) (A)
                 (A) (A) (A) (A) (A) (A) (A) (A) (A) (A) (A) (A)
                 (A) (A) (A) (A) (A) (A) (A) (A) (A) (A) (A) (A)
                 (A) (A) (A) (A) (A) (A) (A) (A) (A) (A) (A) (A)
                 (A) (A) (A) (A) (A) (A) (A) (A) (A) (A) (A) (A)
                 (A) (A) (A) (A) (A) (A) (A) (A) (A) (A) (A) (A)
                 (A) (A) (A) (A) (A) (A) (A) (A) (A) (A) (A) (A)
                 (A) (A) (A) (A) (A) (A) (A) (A) (A) (A) (A) (A)
                 (A) (A) (A) (A) (A) (A) (A) (A) (A) (A) (A) (A)
                 (A) (A) (A) (A) (A) (A) (A) (A) (A) (A) (A) (A)
                 (A) (A) (A) (A) (A) (A) (A) (A) (A) (A) (A) (A)
                 (A) (A) (A) (A) (A) (A) (A) (A) (A) (A) (A) (A)
                 (A) (A) (A) (A) (A) (A) (A) (A) (A) (A) (A) (A)
                 (A) (A) (A) (A) (A) (A) (A) (A) (A) (A) (A) (A)
                 (A) (A) (A) (A) (A) (A) (A) (A) (A) (A) (A) (A)
                 (A) (A) (A) (A) (A) (A) (A) (A) (A) (A) (A) (A)
                 (A) (A) (A) (A) (A) (A) (A) (A) (A) (A) (A) (A)
                 (A) (A) (A) (A) (A) (A) (A) (A) (A) (A) (A) (A)
                 (A) (A) (A) (A) (A) (A) (A) (A) (A) (A) (A) (A)
                 (A) (A) (A) (A) (A) (A) (A) (A) (A) (A) (A) (A)
                 (A) (A) (A) (A) (A) (A) (A) (A) (A) (A) (A) (A)
                 (A) (A) (A) (A) (A) (A) (A) (A) (A) (A) (A) (A)
                 (A) (A) (A) (A) (A) (A) (A) (A) (A) (A) (A) (A)
                 (A) (A) (A) (A) (A) (A) (A) (A) (A) (A) (A) (A)
                 (A) (A) (A) (A) (A) (A) (A) (A) (A) (A) (A) (A)
                 (A) (A) (A) (A) (A) (A) (A) (A) (A) (A) (A) (A)
                 (A) (A) (A) (A) (A) (A) (A) (A) (A) (A) (A) (A)
                 (A) (A) (A) (A) (A) (A) (A) (A) (A) (A) (A) (A)
                 (A) (A) (A) (A) (A) (A) (A) (A) (A) (A) (A) (A)
                 (A) (A) (A) (A) (A) (A) (A) (A) (A) (A) (A) (A)
                 (A) (A) (A) (A) (A) (A) (A) (A) (A) (A) (A) (A)
                 (A) (A) (A) (A) (A) (A) (A) (A) (A) (A) (A) (A)
                 (A) (A) (A) (A) (A) (A) (A) (A) (A) (A) (A) (A)
                 (A) (A) (A) (A) (A) (A) (A) (A) (A) (A) (A) (A)
                 (A) (A) (A) (A) (A) (A) (A) (A) (A) (A) (A) (A)
                 (A) (A) (A) (A) (A) (A) (A) (A) (A) (A) (A) (A)
                 (A) (A) (A) (A) (A) (A) (A) (A) (A) (A) (A) (A)
                 (A) (A) (A) (A) (A) (A) (A) (A) (A) (A) (A) (A)
                 (A) (A) (A) (A) (A) (A) (A) (A) (A) (A) (A) (A)
                 (A) (A) (A) (A) (A) (A) (A) (A) (A) (A) (A) (A)
                 (A) (A) (A) (A) (A) (A) (A) (A) (A) (A) (A) (A)
                 (A) (A) (A) (A) (A) (A) (A) (A) (A) (A) (A) (A)
                 (A) (A) (A) (A) (A) (A) (A) (A) (A) (A) (A) (A)
                 (A) (A) (A) (A) (A) (A) (A) (A) (A) (A) (A) (A)
                 (A) (A) (A) (A) (A) (A) (A) (A) (A) (A) (A) (A)
                 (A) (A) (A) (A) (A) (A) (A) (A) (A) (A) (A) (A)
                 (A) (A) (A) (A) (A) (A) (A) (A) (A) (A) (A) (A)
                 (A) (A) (A) (A) (A) (A) (A) (A) (A) (A) (A) (A)
                 (A) (A) (A) (A) (A) (A) (A) (A) (A) (A) (A) (A)
                 (A) (A) (A) (A) (A) (A) (A) (A) (A) (A) (A) (A)
                 (A) (A) (A) (A) (A) (A) (A) (A) (A) (A) (A) (A)
                 (A) (A) (A) (A) (A) (A) (A) (A) (A) (A) (A) (A)
                 (A) (A) (A) (A) (A) (A) (A) (A) (A) (A) (A) (A)
                 (A) (A) (A) (A) (A) (A) (A) (A) (A) (A) (A) (A)
                 (A) (A) (A) (A) (A) (A) (A) (A) (A) (A) (A) (A)
                 (A) (A) (A) (A) (A) (A) (A) (A) (A) (A) (A) (A)
                 (A) (A) (A) (A) (A) (A) (A) (A) (A) (A) (A) (A)
                 (A) (A) (A) (A) (A) (A) (A) (A) (A) (A) (A) (A)
                 (A) (A) (A) (A) (A) (A) (A) (A) (A) (A) (A) (A)
                 (A) (A) (A) (A) (A) (A) (A) (A) (A) (A) (A) (A)
                 (A) (A) (A) (A) (A) (A) (A) (A) (A) (A) (A) (A)
                 (A) (A) (A) (A) (A) (A) (A) (A) (A) (A) (A) (A)
                 (A) (A) (A) (A) (A) (A) (A) (A) (A) (A) (A) (A)
                 (A) (A) (A) (A) (A) (A) (A) (A) (A) (A)
 The electronic state is 1-A.
 Alpha  occ. eigenvalues --  -77.17761 -77.17761 -10.23883 -10.23883 -10.23809
 Alpha  occ. eigenvalues --  -10.23809 -10.23797 -10.23796 -10.23691 -10.23691
 Alpha  occ. eigenvalues --  -10.23570 -10.23569 -10.22885 -10.22885 -10.22374
 Alpha  occ. eigenvalues --  -10.22374 -10.22033 -10.22033 -10.21884 -10.21884
 Alpha  occ. eigenvalues --  -10.21295 -10.21295 -10.20726 -10.20726  -6.57416
 Alpha  occ. eigenvalues --   -6.57416  -4.71016  -4.71016  -4.70974  -4.70973
 Alpha  occ. eigenvalues --   -4.70532  -4.70532  -3.60183  -2.24756  -2.20479
 Alpha  occ. eigenvalues --   -2.20478  -0.91635  -0.89626  -0.84562  -0.84540
 Alpha  occ. eigenvalues --   -0.77951  -0.77933  -0.74363  -0.74176  -0.73358
 Alpha  occ. eigenvalues --   -0.73337  -0.72275  -0.72224  -0.66200  -0.66194
 Alpha  occ. eigenvalues --   -0.65182  -0.65150  -0.57448  -0.56707  -0.56554
 Alpha  occ. eigenvalues --   -0.56063  -0.55655  -0.55350  -0.55279  -0.54278
 Alpha  occ. eigenvalues --   -0.50456  -0.50326  -0.48352  -0.48342  -0.45971
 Alpha  occ. eigenvalues --   -0.45852  -0.44230  -0.43334  -0.42685  -0.42315
 Alpha  occ. eigenvalues --   -0.42283  -0.41919  -0.41523  -0.40959  -0.40744
 Alpha  occ. eigenvalues --   -0.40321  -0.39781  -0.39665  -0.39607  -0.39503
 Alpha  occ. eigenvalues --   -0.39407  -0.39013  -0.38975  -0.37145  -0.36830
 Alpha  occ. eigenvalues --   -0.36639  -0.33778  -0.33675  -0.33399  -0.33372
 Alpha  occ. eigenvalues --   -0.33083  -0.33078  -0.32160  -0.32127  -0.30597
 Alpha  occ. eigenvalues --   -0.30314  -0.28369  -0.28015  -0.26807  -0.26530
 Alpha  occ. eigenvalues --   -0.25098  -0.22450  -0.22436  -0.22247  -0.18750
 Alpha virt. eigenvalues --   -0.00478   0.00125   0.00127   0.01867   0.02322
 Alpha virt. eigenvalues --    0.02324   0.03185   0.03778   0.04891   0.04990
 Alpha virt. eigenvalues --    0.05488   0.05832   0.06076   0.06297   0.07084
 Alpha virt. eigenvalues --    0.07841   0.07868   0.08318   0.08493   0.08750
 Alpha virt. eigenvalues --    0.08782   0.09524   0.09552   0.10200   0.10575
 Alpha virt. eigenvalues --    0.10630   0.11013   0.11200   0.11329   0.11970
 Alpha virt. eigenvalues --    0.12516   0.13169   0.13422   0.14103   0.14538
 Alpha virt. eigenvalues --    0.14673   0.15041   0.15108   0.15275   0.15391
 Alpha virt. eigenvalues --    0.15665   0.16241   0.16256   0.16742   0.17340
 Alpha virt. eigenvalues --    0.17521   0.17574   0.17872   0.18472   0.18596
 Alpha virt. eigenvalues --    0.19018   0.19153   0.19416   0.19924   0.20333
 Alpha virt. eigenvalues --    0.20566   0.20776   0.21229   0.22060   0.22366
 Alpha virt. eigenvalues --    0.22424   0.22694   0.22713   0.23185   0.23607
 Alpha virt. eigenvalues --    0.23687   0.24513   0.24655   0.25005   0.25601
 Alpha virt. eigenvalues --    0.26143   0.26364   0.26674   0.26749   0.27794
 Alpha virt. eigenvalues --    0.27977   0.28257   0.28513   0.28881   0.28909
 Alpha virt. eigenvalues --    0.29290   0.29644   0.30893   0.31219   0.31299
 Alpha virt. eigenvalues --    0.31698   0.31879   0.32163   0.32465   0.32488
 Alpha virt. eigenvalues --    0.34175   0.34224   0.35090   0.35205   0.35813
 Alpha virt. eigenvalues --    0.36100   0.36615   0.36983   0.37233   0.37456
 Alpha virt. eigenvalues --    0.38428   0.38649   0.38995   0.39115   0.39338
 Alpha virt. eigenvalues --    0.39897   0.40415   0.40631   0.41045   0.41190
 Alpha virt. eigenvalues --    0.41561   0.41882   0.42157   0.42467   0.42983
 Alpha virt. eigenvalues --    0.43148   0.43457   0.43593   0.43630   0.44164
 Alpha virt. eigenvalues --    0.44442   0.44591   0.44747   0.45166   0.45246
 Alpha virt. eigenvalues --    0.45398   0.45963   0.46026   0.46428   0.46463
 Alpha virt. eigenvalues --    0.46860   0.47277   0.47393   0.47868   0.48007
 Alpha virt. eigenvalues --    0.48072   0.48096   0.48282   0.48690   0.48800
 Alpha virt. eigenvalues --    0.49332   0.49664   0.49737   0.50333   0.50371
 Alpha virt. eigenvalues --    0.50978   0.51172   0.51487   0.52340   0.52419
 Alpha virt. eigenvalues --    0.52861   0.53399   0.53534   0.54028   0.54544
 Alpha virt. eigenvalues --    0.54783   0.54898   0.54924   0.55266   0.56039
 Alpha virt. eigenvalues --    0.56619   0.56633   0.57211   0.57288   0.57445
 Alpha virt. eigenvalues --    0.57787   0.57985   0.58772   0.59588   0.59990
 Alpha virt. eigenvalues --    0.60128   0.60336   0.61268   0.61329   0.61690
 Alpha virt. eigenvalues --    0.62008   0.62336   0.63376   0.64282   0.64427
 Alpha virt. eigenvalues --    0.64652   0.65113   0.65172   0.65450   0.65768
 Alpha virt. eigenvalues --    0.66989   0.67253   0.67968   0.68175   0.68296
 Alpha virt. eigenvalues --    0.69641   0.70313   0.70777   0.71216   0.71304
 Alpha virt. eigenvalues --    0.72482   0.73012   0.73128   0.73323   0.73890
 Alpha virt. eigenvalues --    0.74591   0.75512   0.76342   0.76862   0.77310
 Alpha virt. eigenvalues --    0.77483   0.77939   0.78880   0.79402   0.80594
 Alpha virt. eigenvalues --    0.80861   0.81451   0.82859   0.83563   0.84448
 Alpha virt. eigenvalues --    0.84595   0.85781   0.87075   0.87513   0.88142
 Alpha virt. eigenvalues --    0.88334   0.88894   0.89234   0.90175   0.90496
 Alpha virt. eigenvalues --    0.90793   0.90863   0.91668   0.91751   0.91912
 Alpha virt. eigenvalues --    0.93226   0.93386   0.93398   0.94067   0.94220
 Alpha virt. eigenvalues --    0.95383   0.95886   0.95947   0.96148   0.96704
 Alpha virt. eigenvalues --    0.97091   0.98141   0.98471   0.98930   0.99701
 Alpha virt. eigenvalues --    1.00375   1.01084   1.01374   1.02685   1.02857
 Alpha virt. eigenvalues --    1.03347   1.04983   1.05381   1.06638   1.06720
 Alpha virt. eigenvalues --    1.07868   1.08148   1.08527   1.08651   1.10050
 Alpha virt. eigenvalues --    1.10138   1.10469   1.11419   1.11757   1.12007
 Alpha virt. eigenvalues --    1.12549   1.14068   1.14165   1.15075   1.15245
 Alpha virt. eigenvalues --    1.15948   1.16430   1.18158   1.18561   1.19079
 Alpha virt. eigenvalues --    1.19282   1.19829   1.19931   1.20191   1.20440
 Alpha virt. eigenvalues --    1.21008   1.21375   1.21408   1.21949   1.21988
 Alpha virt. eigenvalues --    1.22099   1.23275   1.23493   1.23875   1.24661
 Alpha virt. eigenvalues --    1.25107   1.25202   1.26092   1.27201   1.27429
 Alpha virt. eigenvalues --    1.27679   1.28113   1.28710   1.29136   1.29761
 Alpha virt. eigenvalues --    1.30028   1.30736   1.31102   1.32160   1.32837
 Alpha virt. eigenvalues --    1.33850   1.34468   1.35417   1.35739   1.36003
 Alpha virt. eigenvalues --    1.36448   1.36734   1.37240   1.39020   1.40088
 Alpha virt. eigenvalues --    1.40100   1.41232   1.41845   1.43623   1.43719
 Alpha virt. eigenvalues --    1.43920   1.45107   1.45607   1.45956   1.47016
 Alpha virt. eigenvalues --    1.48482   1.48898   1.50639   1.50642   1.50829
 Alpha virt. eigenvalues --    1.51531   1.51680   1.52586   1.52821   1.53872
 Alpha virt. eigenvalues --    1.54832   1.54930   1.55706   1.55974   1.56109
 Alpha virt. eigenvalues --    1.56150   1.56533   1.57311   1.57573   1.58761
 Alpha virt. eigenvalues --    1.58828   1.59636   1.59753   1.60298   1.60596
 Alpha virt. eigenvalues --    1.61038   1.61980   1.62002   1.62149   1.63121
 Alpha virt. eigenvalues --    1.63494   1.64213   1.64563   1.65510   1.65857
 Alpha virt. eigenvalues --    1.66598   1.66848   1.67028   1.67398   1.67667
 Alpha virt. eigenvalues --    1.67760   1.68552   1.68635   1.69537   1.69729
 Alpha virt. eigenvalues --    1.70225   1.70356   1.70819   1.71328   1.72597
 Alpha virt. eigenvalues --    1.72780   1.73185   1.73504   1.74319   1.75189
 Alpha virt. eigenvalues --    1.75216   1.76319   1.77381   1.78178   1.78432
 Alpha virt. eigenvalues --    1.78707   1.79658   1.80590   1.81068   1.81512
 Alpha virt. eigenvalues --    1.82587   1.82874   1.84777   1.84808   1.85710
 Alpha virt. eigenvalues --    1.86306   1.86674   1.86922   1.87814   1.88354
 Alpha virt. eigenvalues --    1.88822   1.88948   1.89778   1.90348   1.90653
 Alpha virt. eigenvalues --    1.91112   1.91744   1.92701   1.94450   1.94566
 Alpha virt. eigenvalues --    1.95217   1.95362   1.97186   1.97813   1.99016
 Alpha virt. eigenvalues --    1.99417   1.99759   2.00375   2.01204   2.01588
 Alpha virt. eigenvalues --    2.02546   2.03088   2.03876   2.04156   2.04702
 Alpha virt. eigenvalues --    2.05924   2.05936   2.06248   2.07595   2.08034
 Alpha virt. eigenvalues --    2.08950   2.09357   2.10356   2.11610   2.12201
 Alpha virt. eigenvalues --    2.13118   2.13250   2.14466   2.14681   2.15809
 Alpha virt. eigenvalues --    2.16563   2.16645   2.17905   2.18397   2.18553
 Alpha virt. eigenvalues --    2.18687   2.19214   2.20889   2.20966   2.21322
 Alpha virt. eigenvalues --    2.22300   2.22725   2.23082   2.24732   2.25022
 Alpha virt. eigenvalues --    2.25701   2.26180   2.27286   2.27315   2.28281
 Alpha virt. eigenvalues --    2.29121   2.29583   2.29874   2.30778   2.31319
 Alpha virt. eigenvalues --    2.33192   2.33389   2.34173   2.34764   2.35100
 Alpha virt. eigenvalues --    2.35264   2.37387   2.37790   2.38067   2.38214
 Alpha virt. eigenvalues --    2.40006   2.40783   2.41542   2.41580   2.41678
 Alpha virt. eigenvalues --    2.42583   2.43230   2.43628   2.44145   2.44154
 Alpha virt. eigenvalues --    2.45769   2.46329   2.46568   2.47253   2.47682
 Alpha virt. eigenvalues --    2.47876   2.48695   2.48888   2.49783   2.49912
 Alpha virt. eigenvalues --    2.50503   2.50665   2.51802   2.52040   2.52645
 Alpha virt. eigenvalues --    2.53200   2.53646   2.53870   2.54490   2.54816
 Alpha virt. eigenvalues --    2.55095   2.55796   2.56324   2.56634   2.57246
 Alpha virt. eigenvalues --    2.57646   2.59075   2.59137   2.59637   2.59959
 Alpha virt. eigenvalues --    2.60605   2.60751   2.60928   2.61048   2.62015
 Alpha virt. eigenvalues --    2.62242   2.63167   2.63424   2.63543   2.64253
 Alpha virt. eigenvalues --    2.66013   2.66493   2.66538   2.66846   2.67431
 Alpha virt. eigenvalues --    2.67441   2.68028   2.68649   2.69121   2.69170
 Alpha virt. eigenvalues --    2.70997   2.71106   2.71641   2.71882   2.73069
 Alpha virt. eigenvalues --    2.73706   2.73859   2.74088   2.75165   2.75540
 Alpha virt. eigenvalues --    2.75559   2.76320   2.76638   2.76716   2.77641
 Alpha virt. eigenvalues --    2.77915   2.78337   2.78885   2.79692   2.80445
 Alpha virt. eigenvalues --    2.80475   2.80669   2.81613   2.82716   2.83288
 Alpha virt. eigenvalues --    2.83778   2.84700   2.85069   2.85924   2.86158
 Alpha virt. eigenvalues --    2.87033   2.87392   2.87756   2.89268   2.89941
 Alpha virt. eigenvalues --    2.90211   2.90945   2.91003   2.91698   2.92314
 Alpha virt. eigenvalues --    2.93213   2.93274   2.94050   2.95881   2.96271
 Alpha virt. eigenvalues --    2.96427   2.97159   2.97360   2.98408   2.98579
 Alpha virt. eigenvalues --    3.00816   3.00950   3.01128   3.01680   3.01829
 Alpha virt. eigenvalues --    3.04674   3.05659   3.05924   3.06170   3.06931
 Alpha virt. eigenvalues --    3.07511   3.07621   3.08358   3.09816   3.10039
 Alpha virt. eigenvalues --    3.10859   3.10860   3.11602   3.11844   3.12141
 Alpha virt. eigenvalues --    3.13279   3.13942   3.14379   3.15014   3.16220
 Alpha virt. eigenvalues --    3.16943   3.17369   3.17821   3.18093   3.18258
 Alpha virt. eigenvalues --    3.18825   3.19479   3.20478   3.21087   3.21511
 Alpha virt. eigenvalues --    3.22127   3.22477   3.22996   3.23170   3.23404
 Alpha virt. eigenvalues --    3.23972   3.24783   3.25366   3.25954   3.26458
 Alpha virt. eigenvalues --    3.27654   3.28639   3.28656   3.29483   3.30406
 Alpha virt. eigenvalues --    3.30711   3.31021   3.31352   3.31960   3.32437
 Alpha virt. eigenvalues --    3.32805   3.33647   3.34016   3.34450   3.34581
 Alpha virt. eigenvalues --    3.35740   3.36181   3.36652   3.36863   3.37213
 Alpha virt. eigenvalues --    3.37254   3.37793   3.37826   3.39071   3.39221
 Alpha virt. eigenvalues --    3.39565   3.39710   3.40276   3.40571   3.40966
 Alpha virt. eigenvalues --    3.41991   3.42476   3.43082   3.43707   3.44025
 Alpha virt. eigenvalues --    3.44389   3.44495   3.44887   3.45088   3.45384
 Alpha virt. eigenvalues --    3.45590   3.45685   3.46841   3.47520   3.48104
 Alpha virt. eigenvalues --    3.48354   3.48614   3.49244   3.49699   3.50077
 Alpha virt. eigenvalues --    3.50163   3.50928   3.51249   3.52741   3.52841
 Alpha virt. eigenvalues --    3.53933   3.54178   3.54920   3.55129   3.55907
 Alpha virt. eigenvalues --    3.56799   3.57153   3.57364   3.58040   3.60236
 Alpha virt. eigenvalues --    3.60525   3.60831   3.61851   3.62428   3.63592
 Alpha virt. eigenvalues --    3.65126   3.65786   3.65882   3.66441   3.67187
 Alpha virt. eigenvalues --    3.67863   3.67869   3.69111   3.69508   3.70989
 Alpha virt. eigenvalues --    3.72075   3.73314   3.73840   3.77408   3.77517
 Alpha virt. eigenvalues --    3.79174   3.80395   3.81654   3.82226   3.82532
 Alpha virt. eigenvalues --    3.82656   3.84541   3.84887   3.86215   3.86298
 Alpha virt. eigenvalues --    3.87078   3.87399   3.88596   3.89741   3.89866
 Alpha virt. eigenvalues --    3.91736   3.92286   3.93336   3.95671   3.96020
 Alpha virt. eigenvalues --    3.96995   3.97296   3.97311   3.98329   3.99148
 Alpha virt. eigenvalues --    4.00568   4.01438   4.01496   4.01663   4.02293
 Alpha virt. eigenvalues --    4.02439   4.02923   4.04318   4.05285   4.05287
 Alpha virt. eigenvalues --    4.05979   4.06432   4.07134   4.10031   4.10458
 Alpha virt. eigenvalues --    4.10949   4.11357   4.12486   4.12690   4.12743
 Alpha virt. eigenvalues --    4.14407   4.14645   4.15865   4.15929   4.16218
 Alpha virt. eigenvalues --    4.16936   4.18066   4.18771   4.18951   4.19488
 Alpha virt. eigenvalues --    4.19582   4.20506   4.21012   4.21364   4.22870
 Alpha virt. eigenvalues --    4.24072   4.25180   4.25838   4.28572   4.29955
 Alpha virt. eigenvalues --    4.30466   4.31103   4.35141   4.35276   4.35806
 Alpha virt. eigenvalues --    4.36201   4.37204   4.39014   4.39359   4.40727
 Alpha virt. eigenvalues --    4.41298   4.41774   4.42667   4.42935   4.43359
 Alpha virt. eigenvalues --    4.45952   4.47216   4.47974   4.48903   4.50305
 Alpha virt. eigenvalues --    4.50443   4.53146   4.53805   4.54203   4.55096
 Alpha virt. eigenvalues --    4.58913   4.59041   4.59549   4.60834   4.61470
 Alpha virt. eigenvalues --    4.62362   4.63866   4.65888   4.67463   4.68558
 Alpha virt. eigenvalues --    4.71620   4.71946   4.73098   4.73716   4.85743
 Alpha virt. eigenvalues --    4.86903   4.88535   4.89120   4.91039   4.91111
 Alpha virt. eigenvalues --    4.92609   4.92738   4.93828   4.96238   4.98082
 Alpha virt. eigenvalues --    4.98720   5.01608   5.01980   5.04678   5.06033
 Alpha virt. eigenvalues --    5.06414   5.07810   5.10283   5.13120   5.16700
 Alpha virt. eigenvalues --    5.18781   5.20145   5.22156   5.22372   5.24053
 Alpha virt. eigenvalues --    5.27186   5.28199   5.34429   5.43687   5.44762
 Alpha virt. eigenvalues --    5.62991   5.64147   7.81243   7.82196   7.90687
 Alpha virt. eigenvalues --    7.93108   8.06906   8.07411  15.70711  15.70941
 Alpha virt. eigenvalues --   22.42922  22.42973  22.49190  22.49587  22.51188
 Alpha virt. eigenvalues --   22.52973  22.57841  22.59235  22.63235  22.64758
 Alpha virt. eigenvalues --   22.66082  22.67104  22.69545  22.70048  22.71682
 Alpha virt. eigenvalues --   22.74257  22.78556  22.80314  22.89871  22.89981
 Alpha virt. eigenvalues --   23.03782  23.05816  40.36787  40.37990  41.16387
 Alpha virt. eigenvalues --   56.90006
          Condensed to atoms (all electrons):
 Mulliken charges:
               1
     1  Fe  -0.626002
     2  P    0.018766
     3  P    0.018766
     4  C    0.157634
     5  C   -0.104120
     6  C   -0.072244
     7  C   -0.061225
     8  C   -0.135321
     9  C    0.157621
    10  C   -0.135308
    11  C   -0.061211
    12  C   -0.072246
    13  C   -0.104117
    14  C   -0.043591
    15  C   -0.214605
    16  C   -0.122087
    17  C   -0.198555
    18  C   -0.043589
    19  C   -0.214605
    20  C   -0.122089
    21  C   -0.198556
    22  H    0.126114
    23  H    0.116371
    24  H    0.115571
    25  H    0.128614
    26  H    0.128614
    27  H    0.126113
    28  H    0.101737
    29  C   -0.404147
    30  H    0.113723
    31  C   -0.386499
    32  H    0.113432
    33  H    0.100594
    34  H    0.113073
    35  H    0.099445
    36  H    0.115571
    37  H    0.116371
    38  H    0.128795
    39  H    0.129366
    40  H    0.119922
    41  H    0.121013
    42  H    0.119750
    43  H    0.131467
    44  H    0.101737
    45  C   -0.404147
    46  H    0.113724
    47  C   -0.386499
    48  H    0.113432
    49  H    0.100594
    50  H    0.113072
    51  H    0.099445
    52  H    0.119922
    53  H    0.129366
    54  H    0.128796
    55  H    0.119750
    56  H    0.121013
    57  H    0.131468
 Sum of Mulliken charges =  -0.00000
 Mulliken charges with hydrogens summed into heavy atoms:
               1
     1  Fe  -0.626002
     2  P    0.018766
     3  P    0.018766
     4  C    0.157634
     5  C    0.021994
     6  C    0.044127
     7  C    0.054346
     8  C   -0.006708
     9  C    0.157621
    10  C   -0.006694
    11  C    0.054360
    12  C    0.044126
    13  C    0.021996
    14  C    0.058146
    15  C   -0.000579
    16  C   -0.008364
    17  C    0.013963
    18  C    0.058148
    19  C   -0.000579
    20  C   -0.008365
    21  C    0.013961
    29  C   -0.026064
    31  C   -0.014269
    45  C   -0.026064
    47  C   -0.014268
 Electronic spatial extent (au):  <R**2>=           9143.5870
 Charge=             -0.0000 electrons
 Dipole moment (field-independent basis, Debye):
    X=             -0.0000    Y=              1.4092    Z=             -0.0001  Tot=              1.4092
 Quadrupole moment (field-independent basis, Debye-Ang):
   XX=           -172.2251   YY=           -170.9795   ZZ=           -173.7767
   XY=             -0.0002   XZ=             -6.7174   YZ=              0.0000
 Traceless Quadrupole moment (field-independent basis, Debye-Ang):
   XX=              0.1020   YY=              1.3476   ZZ=             -1.4496
   XY=             -0.0002   XZ=             -6.7174   YZ=              0.0000
 Octapole moment (field-independent basis, Debye-Ang**2):
  XXX=             -0.0005  YYY=             69.7081  ZZZ=             -0.0008  XYY=             -0.0007
  XXY=              2.7361  XXZ=              0.0000  XZZ=              0.0005  YZZ=             11.8555
  YYZ=             -0.0014  XYZ=            -12.6887
 Hexadecapole moment (field-independent basis, Debye-Ang**3):
 XXXX=          -7460.8775 YYYY=          -2947.5084 ZZZZ=          -2344.3939 XXXY=             -0.0011
 XXXZ=            -32.3799 YYYX=             -0.0014 YYYZ=             -0.0050 ZZZX=            -60.8997
 ZZZY=             -0.0035 XXYY=          -1733.0440 XXZZ=          -1649.1136 YYZZ=           -899.9823
 XXYZ=             -0.0024 YYXZ=            -21.2386 ZZXY=             -0.0012
 N-N= 3.044060640657D+03 E-N=-9.988364009735D+03  KE= 1.604266334718D+03
 1\1\GINC-NC089\SP\RPBE1PBE\Gen\C22H32Fe1P2\MACKK4\05-Dec-2021\0\\# PBE
 1PBE gen pseudo=read int=(grid=ultrafine) empiricaldispersion=GD3BJ nm
 r=giao\\RR_Me_Ferrolane_4 title\\0,1\Fe,0,-0.0370662432,2.5918621113,0
 .0403403441\P,0,-1.7938316979,-0.2680628413,-0.0241488298\P,0,1.783207
 3222,-0.2284114458,0.0875397825\C,0,-1.5201008736,1.4255227836,-0.6332
 657467\C,0,-0.6251460669,1.7631870706,-1.7169616912\C,0,-0.5911478322,
 3.1906854953,-1.8486885895\C,0,-1.4762706175,3.7502756661,-0.867729459
 2\C,0,-2.0573175739,2.6706789509,-0.1218040615\C,0,1.4717171503,1.4548
 903729,0.7069340263\C,0,1.9809378963,2.7148399956,0.2031252311\C,0,1.3
 759362244,3.7766076118,0.9555674839\C,0,0.503603099,3.1913973679,1.933
 0273282\C,0,0.569498005,1.7658460123,1.7926001783\C,0,-3.3340205925,-0
 .8519827398,-0.9631508792\C,0,-4.3533607439,-1.1157621684,0.170292584\
 C,0,-2.6535102785,-0.0168499067,1.6337756014\C,0,-4.1558664658,-0.0561
 257159,1.2689840535\C,0,3.3361702837,-0.7834336025,1.0230157336\C,0,4.
 361031775,-1.0174576524,-0.1119826834\C,0,2.6368730545,0.052040487,-1.
 5688029544\C,0,4.1397721555,0.0441553056,-1.2042177519\H,0,-0.03867099
 56,1.0441719569,-2.2900260648\H,0,0.0360537674,3.7528619681,-2.5413713
 847\H,0,-1.6375099969,4.8126725018,-0.6807712819\H,0,-2.747071936,2.77
 56940186,0.7157550496\H,0,2.6680949768,2.8403559701,-0.6337473508\H,0,
 -0.0007024633,1.0304109951,2.361234621\H,0,-3.0526125912,-1.8006114207
 ,-1.4453596896\C,0,-3.8323769442,0.1525014674,-2.0087735029\H,0,-2.358
 9484092,0.9808311537,2.0035951462\C,0,-2.2434914258,-1.0780226812,2.66
 45588907\H,0,-4.1662543567,-2.1219591724,0.582313153\H,0,-5.384036104,
 -1.0995126567,-0.2282534973\H,0,-4.4780968141,0.934444811,0.8955710837
 \H,0,-4.7640452481,-0.2786889538,2.1644472636\H,0,1.5133661412,4.84346
 35309,0.7750965533\H,0,-0.1359879863,3.7351779837,2.6290586934\H,0,-3.
 06608191,0.3711612267,-2.7710065663\H,0,-4.1364161997,1.1130039396,-1.
 5580356212\H,0,-4.7110739187,-0.2726501057,-2.5256055449\H,0,-2.784626
 6859,-0.9054604829,3.6122432369\H,0,-2.4587096473,-2.097476171,2.30652
 90235\H,0,-1.1590809314,-1.0408570053,2.8681963569\H,0,3.0761003051,-1
 .7410307383,1.4994440263\C,0,3.8120511598,0.2255736381,2.074736583\H,0
 ,2.3200341831,1.0451158429,-1.9325546604\C,0,2.2505767554,-1.011750379
 ,-2.606030475\H,0,4.1964296182,-2.025064451,-0.5301175904\H,0,5.391128
 779,-0.9805863466,0.2866841029\H,0,4.4398111609,1.0393963191,-0.824782
 1506\H,0,4.7526780635,-0.1593055984,-2.1010009969\H,0,4.7000883613,-0.
 182955968,2.5890038611\H,0,4.0944912815,1.195353315,1.6298499152\H,0,3
 .0411379654,0.4224119569,2.8382592784\H,0,2.4885785192,-2.0282938718,-
 2.2541995949\H,0,2.7876134959,-0.8213731918,-3.5526343697\H,0,1.165583
 6837,-0.997610928,-2.8094653788\\Version=ES64L-G09RevE.01\State=1-A\HF
 =-1663.3042523\RMSD=3.506e-09\Dipole=-0.0062178,0.5543718,0.0016768\Qu
 adrupole=-0.0532302,1.002109,-0.9488788,0.0034458,-5.0071629,-0.049980
 9\PG=C01 [X(C22H32Fe1P2)]\\@


 NATURE GIVES TO EVERY TIME AND SEASON SOME BEAUTY OF ITS OWN.

                                                    --DICKENS
 Job cpu time:       0 days 14 hours 32 minutes  4.3 seconds.
 File lengths (MBytes):  RWF=    551 Int=      0 D2E=      0 Chk=     80 Scr=      1
 Normal termination of Gaussian 09 at Sun Dec  5 03:10:47 2021.
 Initial command:
 /gstore/apps/gaussian/g09.e01-foss-2017a/g09/l1.exe "/local/22791349/Gau-3675.inp" -scrdir="/local/22791349/"
 Entering Link 1 = /gstore/apps/gaussian/g09.e01-foss-2017a/g09/l1.exe PID=     22325.
  
 Copyright (c) 1988,1990,1992,1993,1995,1998,2003,2009,2015,
            Gaussian, Inc.  All Rights Reserved.
  
 This is part of the Gaussian(R) 09 program.  It is based on
 the Gaussian(R) 03 system (copyright 2003, Gaussian, Inc.),
 the Gaussian(R) 98 system (copyright 1998, Gaussian, Inc.),
 the Gaussian(R) 94 system (copyright 1995, Gaussian, Inc.),
 the Gaussian 92(TM) system (copyright 1992, Gaussian, Inc.),
 the Gaussian 90(TM) system (copyright 1990, Gaussian, Inc.),
 the Gaussian 88(TM) system (copyright 1988, Gaussian, Inc.),
 the Gaussian 86(TM) system (copyright 1986, Carnegie Mellon
 University), and the Gaussian 82(TM) system (copyright 1983,
 Carnegie Mellon University). Gaussian is a federally registered
 trademark of Gaussian, Inc.
  
 This software contains proprietary and confidential information,
 including trade secrets, belonging to Gaussian, Inc.
  
 This software is provided under written license and may be
 used, copied, transmitted, or stored only in accord with that
 written license.
  
 The following legend is applicable only to US Government
 contracts under FAR:
  
                    RESTRICTED RIGHTS LEGEND
  
 Use, reproduction and disclosure by the US Government is
 subject to restrictions as set forth in subparagraphs (a)
 and (c) of the Commercial Computer Software - Restricted
 Rights clause in FAR 52.227-19.
  
 Gaussian, Inc.
 340 Quinnipiac St., Bldg. 40, Wallingford CT 06492
  
  
 ---------------------------------------------------------------
 Warning -- This program may not be used in any manner that
 competes with the business of Gaussian, Inc. or will provide
 assistance to any competitor of Gaussian, Inc.  The licensee
 of this program is prohibited from giving any competitor of
 Gaussian, Inc. access to this program.  By using this program,
 the user acknowledges that Gaussian, Inc. is engaged in the
 business of creating and licensing software in the field of
 computational chemistry and represents and warrants to the
 licensee that it is not a competitor of Gaussian, Inc. and that
 it will not use this program in any manner prohibited above.
 ---------------------------------------------------------------
  

 Cite this work as:
 Gaussian 09, Revision E.01,
 M. J. Frisch, G. W. Trucks, H. B. Schlegel, G. E. Scuseria, 
 M. A. Robb, J. R. Cheeseman, G. Scalmani, V. Barone, B. Mennucci, 
 G. A. Petersson, H. Nakatsuji, M. Caricato, X. Li, H. P. Hratchian, 
 A. F. Izmaylov, J. Bloino, G. Zheng, J. L. Sonnenberg, M. Hada, 
 M. Ehara, K. Toyota, R. Fukuda, J. Hasegawa, M. Ishida, T. Nakajima, 
 Y. Honda, O. Kitao, H. Nakai, T. Vreven, J. A. Montgomery, Jr., 
 J. E. Peralta, F. Ogliaro, M. Bearpark, J. J. Heyd, E. Brothers, 
 K. N. Kudin, V. N. Staroverov, T. Keith, R. Kobayashi, J. Normand, 
 K. Raghavachari, A. Rendell, J. C. Burant, S. S. Iyengar, J. Tomasi, 
 M. Cossi, N. Rega, J. M. Millam, M. Klene, J. E. Knox, J. B. Cross, 
 V. Bakken, C. Adamo, J. Jaramillo, R. Gomperts, R. E. Stratmann, 
 O. Yazyev, A. J. Austin, R. Cammi, C. Pomelli, J. W. Ochterski, 
 R. L. Martin, K. Morokuma, V. G. Zakrzewski, G. A. Voth, 
 P. Salvador, J. J. Dannenberg, S. Dapprich, A. D. Daniels, 
 O. Farkas, J. B. Foresman, J. V. Ortiz, J. Cioslowski, 
 and D. J. Fox, Gaussian, Inc., Wallingford CT, 2013.
 
 ******************************************
 Gaussian 09:  ES64L-G09RevE.01 30-Nov-2015
                 5-Dec-2021 
 ******************************************
 %nprocs=14
 Will use up to   14 processors via shared memory.
 %mem=128GB
 %chk=RR_Me_Ferrolane_4_SPE_NoPd.chk
 ----------------------------------------------------------------------
 # PBE1PBE gen pseudo=read int=(grid=ultrafine) empiricaldispersion=GD3
 BJ pop=nbo guess=read geom=check
 ----------------------------------------------------------------------
 1/29=2,38=1/1;
 2/12=2,40=1/2;
 3/5=7,11=2,14=-4,16=1,17=8,25=1,30=1,74=-13,75=-5,116=-2,124=41/1,2,3;
 4/5=1/1;
 5/5=2,38=6/2;
 6/7=2,8=2,9=2,10=2,28=1,40=1/1,7;
 99/5=1,9=1/99;
 -----------------------
 RR_Me_Ferrolane_4 title
 -----------------------
 Structure from the checkpoint file:  "RR_Me_Ferrolane_4_SPE_NoPd.chk"
 Charge =  0 Multiplicity = 1
 Z-Matrix found in file.
 Fe,0,-0.0370662432,2.5918621113,0.0403403441
 P,0,-1.7938316979,-0.2680628413,-0.0241488298
 P,0,1.7832073222,-0.2284114458,0.0875397825
 C,0,-1.5201008736,1.4255227836,-0.6332657467
 C,0,-0.6251460669,1.7631870706,-1.7169616912
 C,0,-0.5911478322,3.1906854953,-1.8486885895
 C,0,-1.4762706175,3.7502756661,-0.8677294592
 C,0,-2.0573175739,2.6706789509,-0.1218040615
 C,0,1.4717171503,1.4548903729,0.7069340263
 C,0,1.9809378963,2.7148399956,0.2031252311
 C,0,1.3759362244,3.7766076118,0.9555674839
 C,0,0.503603099,3.1913973679,1.9330273282
 C,0,0.569498005,1.7658460123,1.7926001783
 C,0,-3.3340205925,-0.8519827398,-0.9631508792
 C,0,-4.3533607439,-1.1157621684,0.170292584
 C,0,-2.6535102785,-0.0168499067,1.6337756014
 C,0,-4.1558664658,-0.0561257159,1.2689840535
 C,0,3.3361702837,-0.7834336025,1.0230157336
 C,0,4.361031775,-1.0174576524,-0.1119826834
 C,0,2.6368730545,0.052040487,-1.5688029544
 C,0,4.1397721555,0.0441553056,-1.2042177519
 H,0,-0.0386709956,1.0441719569,-2.2900260648
 H,0,0.0360537674,3.7528619681,-2.5413713847
 H,0,-1.6375099969,4.8126725018,-0.6807712819
 H,0,-2.747071936,2.7756940186,0.7157550496
 H,0,2.6680949768,2.8403559701,-0.6337473508
 H,0,-0.0007024633,1.0304109951,2.361234621
 H,0,-3.0526125912,-1.8006114207,-1.4453596896
 C,0,-3.8323769442,0.1525014674,-2.0087735029
 H,0,-2.3589484092,0.9808311537,2.0035951462
 C,0,-2.2434914258,-1.0780226812,2.6645588907
 H,0,-4.1662543567,-2.1219591724,0.582313153
 H,0,-5.384036104,-1.0995126567,-0.2282534973
 H,0,-4.4780968141,0.934444811,0.8955710837
 H,0,-4.7640452481,-0.2786889538,2.1644472636
 H,0,1.5133661412,4.8434635309,0.7750965533
 H,0,-0.1359879863,3.7351779837,2.6290586934
 H,0,-3.06608191,0.3711612267,-2.7710065663
 H,0,-4.1364161997,1.1130039396,-1.5580356212
 H,0,-4.7110739187,-0.2726501057,-2.5256055449
 H,0,-2.7846266859,-0.9054604829,3.6122432369
 H,0,-2.4587096473,-2.097476171,2.3065290235
 H,0,-1.1590809314,-1.0408570053,2.8681963569
 H,0,3.0761003051,-1.7410307383,1.4994440263
 C,0,3.8120511598,0.2255736381,2.074736583
 H,0,2.3200341831,1.0451158429,-1.9325546604
 C,0,2.2505767554,-1.011750379,-2.606030475
 H,0,4.1964296182,-2.025064451,-0.5301175904
 H,0,5.391128779,-0.9805863466,0.2866841029
 H,0,4.4398111609,1.0393963191,-0.8247821506
 H,0,4.7526780635,-0.1593055984,-2.1010009969
 H,0,4.7000883613,-0.182955968,2.5890038611
 H,0,4.0944912815,1.195353315,1.6298499152
 H,0,3.0411379654,0.4224119569,2.8382592784
 H,0,2.4885785192,-2.0282938718,-2.2541995949
 H,0,2.7876134959,-0.8213731918,-3.5526343697
 H,0,1.1655836837,-0.997610928,-2.8094653788
 Recover connectivity data from disk.
 Stoichiometry    C22H32FeP2
 Framework group  C1[X(C22H32FeP2)]
 Deg. of freedom   165
 Full point group                 C1      NOp   1
 Largest Abelian subgroup         C1      NOp   1
 Largest concise Abelian subgroup C1      NOp   1
                         Standard orientation:                         
 ---------------------------------------------------------------------
 Center     Atomic      Atomic             Coordinates (Angstroms)
 Number     Number       Type             X           Y           Z
 ---------------------------------------------------------------------
      1         26           0        0.000010    1.706498   -0.000040
      2         15           0       -1.787760   -1.133788   -0.078835
      3         15           0        1.787763   -1.133796    0.078932
      4          6           0       -1.487217    0.554750   -0.689325
      5          6           0       -0.574643    0.879052   -1.762356
      6          6           0       -0.522934    2.305669   -1.897814
      7          6           0       -1.414286    2.878136   -0.930014
      8          6           0       -2.016973    1.807403   -0.188496
      9          6           0        1.487227    0.554780    0.689316
     10          6           0        2.017003    1.807402    0.188437
     11          6           0        1.414310    2.878177    0.929888
     12          6           0        0.522944    2.305766    1.897708
     13          6           0        0.574642    0.879142    1.762322
     14          6           0       -3.322179   -1.703332   -1.035939
     15          6           0       -4.358933   -1.952210    0.085012
     16          6           0       -2.665854   -0.867881    1.567103
     17          6           0       -4.163732   -0.891475    1.183053
     18          6           0        3.322219   -1.703271    1.036011
     19          6           0        4.358928   -1.952229   -0.084964
     20          6           0        2.665790   -0.868002   -1.567061
     21          6           0        4.163685   -0.891572   -1.183072
     22          1           0        0.011062    0.151765   -2.325687
     23          1           0        0.119409    2.858664   -2.583982
     24          1           0       -1.565989    3.942839   -0.748268
     25          1           0       -2.716238    1.922699    0.639772
     26          1           0        2.716250    1.922652   -0.639854
     27          1           0       -0.011053    0.151881    2.325696
     28          1           0       -3.045244   -2.656526   -1.511691
     29          6           0       -3.795720   -0.696557   -2.090850
     30          1           0       -2.364904    0.127576    1.937772
     31          6           0       -2.281082   -1.930398    2.606202
     32          1           0       -4.188453   -2.959165    0.502361
     33          1           0       -5.384141   -1.925661   -0.326860
     34          1           0       -4.469989    0.101484    0.802608
     35          1           0       -4.785855   -1.104469    2.071234
     36          1           0        1.566016    3.942869    0.748082
     37          1           0       -0.119419    2.858802    2.583824
     38          1           0       -3.017263   -0.488825   -2.843759
     39          1           0       -4.094744    0.268666   -1.646893
     40          1           0       -4.672401   -1.113443   -2.617741
     41          1           0       -2.832411   -1.748882    3.546307
     42          1           0       -2.503096   -2.948477    2.248410
     43          1           0       -1.199036   -1.904735    2.823720
     44          1           0        3.045304   -2.656431    1.511844
     45          6           0        3.795803   -0.696419    2.090830
     46          1           0        2.364828    0.127432   -1.937783
     47          6           0        2.280976   -1.930590   -2.606070
     48          1           0        4.188430   -2.959213   -0.502236
     49          1           0        5.384152   -1.925654    0.326866
     50          1           0        4.469959    0.101414   -0.802710
     51          1           0        4.785771   -1.104630   -2.071263
     52          1           0        4.672501   -1.113271    2.617720
     53          1           0        4.094816    0.268769    1.646789
     54          1           0        3.017375   -0.488626    2.843751
     55          1           0        2.503003   -2.948645   -2.248217
     56          1           0        2.832266   -1.749142   -3.546212
     57          1           0        1.198921   -1.904944   -2.823543
 ---------------------------------------------------------------------
 Rotational constants (GHZ):      0.2776792      0.1548157      0.1384461
 General basis read from cards:  (5D, 7F)
 ======================================================================================================
                                       Pseudopotential Parameters
 ======================================================================================================
  Center     Atomic      Valence      Angular      Power
  Number     Number     Electrons     Momentum     of R      Exponent        Coefficient   SO-Coeffient
 ======================================================================================================
    1         26           16
                                      F and up 
                                                     2        1.0000000        0.00000000    0.00000000
                                      S - F
                                                     2       20.9300000      253.74958800    0.00000000
                                                     2        9.4450000       37.92284500    0.00000000
                                      P - F
                                                     2       21.7600000      161.03681200    0.00000000
                                                     2        9.1780000       27.65129800    0.00000000
                                      D - F
                                                     2       25.9000000      -24.43127600    0.00000000
                                                     2        8.8350000       -1.43425100    0.00000000
    2         15
                                   No pseudopotential on this center.
    3         15
                                   No pseudopotential on this center.
    4          6
[...]
   590. RY*(   3) C  19                  0.00102     1.82913   
   591. RY*(   4) C  19                  0.00069     1.73040   
   592. RY*(   5) C  19                  0.00037     1.49126   
   593. RY*(   6) C  19                  0.00031     2.36310   
   594. RY*(   7) C  19                  0.00026     2.26221   
   595. RY*(   8) C  19                  0.00017     2.02832   
   596. RY*(   9) C  19                  0.00016     1.86669   
   597. RY*(  10) C  19                  0.00010     2.37863   
   598. RY*(  11) C  19                  0.00007     2.55240   
   599. RY*(  12) C  19                  0.00007     1.84210   
   600. RY*(  13) C  19                  0.00002     1.81514   
   601. RY*(  14) C  19                  0.00002     2.27566   
   602. RY*(  15) C  19                  0.00001     3.27719   
   603. RY*(  16) C  19                  0.00002     2.17934   
   604. RY*(  17) C  19                  0.00000     2.89393   
   605. RY*(  18) C  19                  0.00000    20.68137   
   606. RY*(  19) C  19                  0.00000     2.76185   
   607. RY*(  20) C  19                  0.00000     3.57785   
   608. RY*(  21) C  19                  0.00000     3.16302   
   609. RY*(  22) C  19                  0.00000     3.35763   
   610. RY*(  23) C  19                  0.00000     3.65158   
   611. RY*(  24) C  19                  0.00000     3.40195   
   612. RY*(  25) C  19                  0.00000     3.41523   
   613. RY*(  26) C  19                  0.00000     3.31166   
   614. RY*(   1) C  20                  0.00342     1.46667   
   615. RY*(   2) C  20                  0.00288     1.42874   
   616. RY*(   3) C  20                  0.00143     1.61079   
   617. RY*(   4) C  20                  0.00112     1.69536   
   618. RY*(   5) C  20                  0.00077     1.59336   
   619. RY*(   6) C  20                  0.00054     1.64120   
   620. RY*(   7) C  20                  0.00046     1.88802   
   621. RY*(   8) C  20                  0.00039     1.94303   
   622. RY*(   9) C  20                  0.00028     1.96828   
   623. RY*(  10) C  20                  0.00018     1.75756   
   624. RY*(  11) C  20                  0.00014     2.25380   
   625. RY*(  12) C  20                  0.00008     2.43116   
   626. RY*(  13) C  20                  0.00007     2.65852   
   627. RY*(  14) C  20                  0.00004     2.36278   
   628. RY*(  15) C  20                  0.00003     2.37950   
   629. RY*(  16) C  20                  0.00002     2.93651   
   630. RY*(  17) C  20                  0.00002     3.98403   
   631. RY*(  18) C  20                  0.00001     2.41588   
   632. RY*(  19) C  20                  0.00000    19.84424   
   633. RY*(  20) C  20                  0.00000     3.31797   
   634. RY*(  21) C  20                  0.00001     3.44133   
   635. RY*(  22) C  20                  0.00001     3.32757   
   636. RY*(  23) C  20                  0.00001     4.00347   
   637. RY*(  24) C  20                  0.00001     3.43007   
   638. RY*(  25) C  20                  0.00000     3.42400   
   639. RY*(  26) C  20                  0.00000     3.58424   
   640. RY*(   1) C  21                  0.00245     1.30548   
   641. RY*(   2) C  21                  0.00178     1.64521   
   642. RY*(   3) C  21                  0.00117     1.36686   
   643. RY*(   4) C  21                  0.00060     1.87775   
   644. RY*(   5) C  21                  0.00037     2.07948   
   645. RY*(   6) C  21                  0.00027     2.03468   
   646. RY*(   7) C  21                  0.00021     1.64609   
   647. RY*(   8) C  21                  0.00018     2.31648   
   648. RY*(   9) C  21                  0.00012     2.04585   
   649. RY*(  10) C  21                  0.00009     2.30837   
   650. RY*(  11) C  21                  0.00006     2.41296   
   651. RY*(  12) C  21                  0.00005     2.33768   
   652. RY*(  13) C  21                  0.00003     2.14482   
   653. RY*(  14) C  21                  0.00003     2.06418   
   654. RY*(  15) C  21                  0.00003     2.58332   
   655. RY*(  16) C  21                  0.00000    20.66167   
   656. RY*(  17) C  21                  0.00000     2.97713   
   657. RY*(  18) C  21                  0.00001     2.94172   
   658. RY*(  19) C  21                  0.00001     2.80153   
   659. RY*(  20) C  21                  0.00000     2.98452   
   660. RY*(  21) C  21                  0.00000     3.60111   
   661. RY*(  22) C  21                  0.00000     3.39992   
   662. RY*(  23) C  21                  0.00000     3.36971   
   663. RY*(  24) C  21                  0.00000     3.48312   
   664. RY*(  25) C  21                  0.00000     3.46623   
   665. RY*(  26) C  21                  0.00000     3.49064   
   686. RY*(   1) H  26                  0.00102     0.70966   
   687. RY*(   2) H  26                  0.00040     2.24366   
   688. RY*(   3) H  26                  0.00025     2.21633   
   689. RY*(   4) H  26                  0.00011     2.67738   
   690. RY*(   5) H  26                  0.00001     3.11807   
   691. RY*(   1) H  27                  0.00129     0.78237   
   692. RY*(   2) H  27                  0.00040     2.33844   
   693. RY*(   3) H  27                  0.00027     2.33731   
   694. RY*(   4) H  27                  0.00011     2.67434   
   695. RY*(   5) H  27                  0.00002     3.17794   
   778. RY*(   1) H  36                  0.00040     2.03892   
   779. RY*(   2) H  36                  0.00032     2.21259   
   780. RY*(   3) H  36                  0.00010     2.64391   
   781. RY*(   4) H  36                  0.00003     0.97957   
   782. RY*(   5) H  36                  0.00001     3.08951   
   783. RY*(   1) H  37                  0.00040     2.04104   
   784. RY*(   2) H  37                  0.00030     2.23982   
   785. RY*(   3) H  37                  0.00010     2.64550   
   786. RY*(   4) H  37                  0.00004     1.06727   
   787. RY*(   5) H  37                  0.00001     2.99128   
   818. RY*(   1) H  44                  0.00044     1.30537   
   819. RY*(   2) H  44                  0.00017     2.39652   
   820. RY*(   3) H  44                  0.00015     2.49943   
   821. RY*(   4) H  44                  0.00009     1.63371   
   822. RY*(   5) H  44                  0.00001     3.05276   
   823. RY*(   1) C  45                  0.00197     1.52471   
   824. RY*(   2) C  45                  0.00172     1.21185   
   825. RY*(   3) C  45                  0.00061     1.46405   
   826. RY*(   4) C  45                  0.00043     1.04290   
   827. RY*(   5) C  45                  0.00027     1.42820   
   828. RY*(   6) C  45                  0.00021     1.18464   
   829. RY*(   7) C  45                  0.00015     1.55939   
   830. RY*(   8) C  45                  0.00013     1.66141   
   831. RY*(   9) C  45                  0.00004     2.04127   
   832. RY*(  10) C  45                  0.00003     1.83586   
   833. RY*(  11) C  45                  0.00004     2.68280   
   834. RY*(  12) C  45                  0.00001     2.27506   
   835. RY*(  13) C  45                  0.00001     1.52611   
   836. RY*(  14) C  45                  0.00001     1.64176   
   837. RY*(  15) C  45                  0.00001     3.40836   
   838. RY*(  16) C  45                  0.00000    21.00526   
   839. RY*(  17) C  45                  0.00000     3.17001   
   840. RY*(  18) C  45                  0.00000     2.68371   
   841. RY*(  19) C  45                  0.00001     3.03394   
   842. RY*(  20) C  45                  0.00000     3.54904   
   843. RY*(  21) C  45                  0.00000     3.31114   
   844. RY*(  22) C  45                  0.00000     3.37446   
   845. RY*(  23) C  45                  0.00000     3.60651   
   846. RY*(  24) C  45                  0.00000     3.43155   
   847. RY*(  25) C  45                  0.00000     3.37568   
   848. RY*(  26) C  45                  0.00000     3.55738   
   849. RY*(   1) H  46                  0.00094     0.87731   
   850. RY*(   2) H  46                  0.00026     2.45465   
   851. RY*(   3) H  46                  0.00018     2.60400   
   852. RY*(   4) H  46                  0.00011     2.54242   
   853. RY*(   5) H  46                  0.00002     3.05375   
   854. RY*(   1) C  47                  0.00225     0.90409   
   855. RY*(   2) C  47                  0.00130     1.05746   
   856. RY*(   3) C  47                  0.00034     1.44041   
   857. RY*(   4) C  47                  0.00031     1.70821   
   858. RY*(   5) C  47                  0.00023     1.27789   
   859. RY*(   6) C  47                  0.00011     1.71554   
   860. RY*(   7) C  47                  0.00010     1.52491   
   861. RY*(   8) C  47                  0.00007     1.63576   
   862. RY*(   9) C  47                  0.00005     1.76692   
   863. RY*(  10) C  47                  0.00003     1.78438   
   864. RY*(  11) C  47                  0.00002     1.95335   
   865. RY*(  12) C  47                  0.00001     1.59229   
   866. RY*(  13) C  47                  0.00000     2.74704   
   867. RY*(  14) C  47                  0.00000     3.06023   
   868. RY*(  15) C  47                  0.00000     3.42455   
   869. RY*(  16) C  47                  0.00000    21.05669   
   870. RY*(  17) C  47                  0.00001     2.92957   
   871. RY*(  18) C  47                  0.00001     1.65652   
   872. RY*(  19) C  47                  0.00000     2.58778   
   873. RY*(  20) C  47                  0.00000     3.43322   
   874. RY*(  21) C  47                  0.00000     3.65341   
   875. RY*(  22) C  47                  0.00000     3.38748   
   876. RY*(  23) C  47                  0.00000     3.35324   
   877. RY*(  24) C  47                  0.00000     3.42170   
   878. RY*(  25) C  47                  0.00000     3.53893   
   879. RY*(  26) C  47                  0.00000     3.39658   
   880. RY*(   1) H  48                  0.00065     1.15028   
   881. RY*(   2) H  48                  0.00019     2.49444   
   882. RY*(   3) H  48                  0.00013     2.17740   
   883. RY*(   4) H  48                  0.00007     1.76193   
   884. RY*(   5) H  48                  0.00003     3.04122   
   885. RY*(   1) H  49                  0.00111     0.85730   
   886. RY*(   2) H  49                  0.00018     2.15194   
   887. RY*(   3) H  49                  0.00014     2.31296   
   888. RY*(   4) H  49                  0.00010     2.17521   
   889. RY*(   5) H  49                  0.00002     3.02184   
   890. RY*(   1) H  50                  0.00062     1.32928   
   891. RY*(   2) H  50                  0.00021     2.16899   
   892. RY*(   3) H  50                  0.00012     2.26296   
   893. RY*(   4) H  50                  0.00007     2.10358   
   894. RY*(   5) H  50                  0.00002     2.87709   
   895. RY*(   1) H  51                  0.00100     0.96286   
   896. RY*(   2) H  51                  0.00017     2.27736   
   897. RY*(   3) H  51                  0.00013     2.25189   
   898. RY*(   4) H  51                  0.00009     2.05500   
   899. RY*(   5) H  51                  0.00002     2.97749   
   900. RY*(   1) H  52                  0.00109     0.90341   
   901. RY*(   2) H  52                  0.00018     1.85882   
   902. RY*(   3) H  52                  0.00011     2.20829   
   903. RY*(   4) H  52                  0.00006     2.09894   
   904. RY*(   5) H  52                  0.00001     2.98123   
   905. RY*(   1) H  53                  0.00109     0.72156   
   906. RY*(   2) H  53                  0.00023     2.37011   
   907. RY*(   3) H  53                  0.00013     2.35225   
   908. RY*(   4) H  53                  0.00007     2.27369   
   909. RY*(   5) H  53                  0.00003     2.98146   
   910. RY*(   1) H  54                  0.00048     1.45055   
   911. RY*(   2) H  54                  0.00017     1.84444   
   912. RY*(   3) H  54                  0.00012     2.35705   
   913. RY*(   4) H  54                  0.00007     1.68800   
   914. RY*(   5) H  54                  0.00002     3.04278   
   915. RY*(   1) H  55                  0.00091     0.87403   
   916. RY*(   2) H  55                  0.00018     2.26440   
   917. RY*(   3) H  55                  0.00012     1.97177   
   918. RY*(   4) H  55                  0.00008     2.11060   
   919. RY*(   5) H  55                  0.00001     2.94944   
   920. RY*(   1) H  56                  0.00094     0.82552   
   921. RY*(   2) H  56                  0.00016     1.85980   
   922. RY*(   3) H  56                  0.00011     2.17893   
   923. RY*(   4) H  56                  0.00007     2.16154   
   924. RY*(   5) H  56                  0.00002     2.98472   
   925. RY*(   1) H  57                  0.00064     1.08846   
   926. RY*(   2) H  57                  0.00012     1.90256   
   927. RY*(   3) H  57                  0.00011     2.23768   
   928. RY*(   4) H  57                  0.00009     2.10482   
   929. RY*(   5) H  57                  0.00003     3.01298   
   933. BD*(   1) P   3 - C   9          0.03095     0.24781   
   934. BD*(   1) P   3 - C  18          0.05183     0.20337   
   935. BD*(   1) P   3 - C  20          0.03641     0.19964   
   947. BD*(   1) C   9 - C  10          0.03849     0.44611   
   948. BD*(   1) C   9 - C  13          0.04719     0.42110   
   949. BD*(   2) C   9 - C  13          0.48144     0.04289  951(v),111(v),948(g),944(r)
                                                    103(r),105(r),934(v),933(g)
                                                    332(g),957(g),435(g),357(v)
                                                    433(g),329(g),939(r),170(v)
                                                    114(r),107(r),102(r),121(r)
                                                    125(r),104(r),113(r),128(r)
                                                    133(r),123(r),117(r),118(r)
                                                    138(r),124(r),137(r),106(r)
                                                    112(r),131(r),201(r),227(r)
   950. BD*(   1) C  10 - C  11          0.03409     0.43507   
   951. BD*(   2) C  10 - C  11          0.43515     0.04300  949(v),944(r),111(v),950(g)
                                                    102(r),103(r),106(r),105(r)
                                                    939(r),381(g),383(g),952(g)
                                                    954(g),110(r),107(r),113(r)
                                                    114(r)
   952. BD*(   1) C  10 - H  26          0.01587     0.41157   
   953. BD*(   1) C  11 - C  12          0.02868     0.44155   
   954. BD*(   1) C  11 - H  36          0.01432     0.40822   
   955. BD*(   1) C  12 - C  13          0.02944     0.44490   
   956. BD*(   1) C  12 - H  37          0.01544     0.40901   
   957. BD*(   1) C  13 - H  27          0.01624     0.41701   
   969. BD*(   1) C  18 - C  19          0.02304     0.34419   
   970. BD*(   1) C  18 - H  44          0.02071     0.38039   
   971. BD*(   1) C  18 - C  45          0.01503     0.35989   
   972. BD*(   1) C  19 - C  21          0.01540     0.35085   
   973. BD*(   1) C  19 - H  48          0.01425     0.37253   
   974. BD*(   1) C  19 - H  49          0.01571     0.37357   
   975. BD*(   1) C  20 - C  21          0.02539     0.34240   
   976. BD*(   1) C  20 - H  46          0.02037     0.37748   
   977. BD*(   1) C  20 - C  47          0.01523     0.35268   
   978. BD*(   1) C  21 - H  50          0.01468     0.36994   
   979. BD*(   1) C  21 - H  51          0.01791     0.37341   
   986. BD*(   1) C  45 - H  52          0.01085     0.38346   
   987. BD*(   1) C  45 - H  53          0.00946     0.38768   
   988. BD*(   1) C  45 - H  54          0.00729     0.39002   
   989. BD*(   1) C  47 - H  55          0.00937     0.37922   
   990. BD*(   1) C  47 - H  56          0.01065     0.37481   
   991. BD*(   1) C  47 - H  57          0.00636     0.38220   
       -------------------------------
              Total Lewis   95.14068  ( 98.2545%)
        Valence non-Lewis    1.52723  (  1.5772%)
        Rydberg non-Lewis    0.16298  (  0.1683%)
       -------------------------------
            Total unit  3   96.83088  (100.0000%)
           Charge unit  3    0.16912
 1\1\GINC-NC089\SP\RPBE1PBE\Gen\C22H32Fe1P2\MACKK4\05-Dec-2021\0\\# PBE
 1PBE gen pseudo=read int=(grid=ultrafine) empiricaldispersion=GD3BJ po
 p=nbo guess=read geom=check\\RR_Me_Ferrolane_4 title\\0,1\Fe,0,-0.0370
 662432,2.5918621113,0.0403403441\P,0,-1.7938316979,-0.2680628413,-0.02
 41488298\P,0,1.7832073222,-0.2284114458,0.0875397825\C,0,-1.5201008736
 ,1.4255227836,-0.6332657467\C,0,-0.6251460669,1.7631870706,-1.71696169
 12\C,0,-0.5911478322,3.1906854953,-1.8486885895\C,0,-1.4762706175,3.75
 02756661,-0.8677294592\C,0,-2.0573175739,2.6706789509,-0.1218040615\C,
 0,1.4717171503,1.4548903729,0.7069340263\C,0,1.9809378963,2.7148399956
 ,0.2031252311\C,0,1.3759362244,3.7766076118,0.9555674839\C,0,0.5036030
 99,3.1913973679,1.9330273282\C,0,0.569498005,1.7658460123,1.7926001783
 \C,0,-3.3340205925,-0.8519827398,-0.9631508792\C,0,-4.3533607439,-1.11
 57621684,0.170292584\C,0,-2.6535102785,-0.0168499067,1.6337756014\C,0,
 -4.1558664658,-0.0561257159,1.2689840535\C,0,3.3361702837,-0.783433602
 5,1.0230157336\C,0,4.361031775,-1.0174576524,-0.1119826834\C,0,2.63687
 30545,0.052040487,-1.5688029544\C,0,4.1397721555,0.0441553056,-1.20421
 77519\H,0,-0.0386709956,1.0441719569,-2.2900260648\H,0,0.0360537674,3.
 7528619681,-2.5413713847\H,0,-1.6375099969,4.8126725018,-0.6807712819\
 H,0,-2.747071936,2.7756940186,0.7157550496\H,0,2.6680949768,2.84035597
 01,-0.6337473508\H,0,-0.0007024633,1.0304109951,2.361234621\H,0,-3.052
 6125912,-1.8006114207,-1.4453596896\C,0,-3.8323769442,0.1525014674,-2.
 0087735029\H,0,-2.3589484092,0.9808311537,2.0035951462\C,0,-2.24349142
 58,-1.0780226812,2.6645588907\H,0,-4.1662543567,-2.1219591724,0.582313
 153\H,0,-5.384036104,-1.0995126567,-0.2282534973\H,0,-4.4780968141,0.9
 34444811,0.8955710837\H,0,-4.7640452481,-0.2786889538,2.1644472636\H,0
 ,1.5133661412,4.8434635309,0.7750965533\H,0,-0.1359879863,3.7351779837
 ,2.6290586934\H,0,-3.06608191,0.3711612267,-2.7710065663\H,0,-4.136416
 1997,1.1130039396,-1.5580356212\H,0,-4.7110739187,-0.2726501057,-2.525
 6055449\H,0,-2.7846266859,-0.9054604829,3.6122432369\H,0,-2.4587096473
 ,-2.097476171,2.3065290235\H,0,-1.1590809314,-1.0408570053,2.868196356
 9\H,0,3.0761003051,-1.7410307383,1.4994440263\C,0,3.8120511598,0.22557
 36381,2.074736583\H,0,2.3200341831,1.0451158429,-1.9325546604\C,0,2.25
 05767554,-1.011750379,-2.606030475\H,0,4.1964296182,-2.025064451,-0.53
 01175904\H,0,5.391128779,-0.9805863466,0.2866841029\H,0,4.4398111609,1
 .0393963191,-0.8247821506\H,0,4.7526780635,-0.1593055984,-2.1010009969
 \H,0,4.7000883613,-0.182955968,2.5890038611\H,0,4.0944912815,1.1953533
 15,1.6298499152\H,0,3.0411379654,0.4224119569,2.8382592784\H,0,2.48857
 85192,-2.0282938718,-2.2541995949\H,0,2.7876134959,-0.8213731918,-3.55
 26343697\H,0,1.1655836837,-0.997610928,-2.8094653788\\Version=ES64L-G0
 9RevE.01\State=1-A\HF=-1663.3042523\RMSD=1.385e-09\Dipole=-0.0062177,0
 .5543697,0.0016768\Quadrupole=-0.05323,1.0021122,-0.9488822,0.0034465,
 -5.0071477,-0.0499808\PG=C01 [X(C22H32Fe1P2)]\\@


  DISAPPOINTMENT IS THE NURSE OF WISDOM.               
                              SIR BOYLE ROCHE                 
 Job cpu time:       0 days  1 hours  2 minutes 33.4 seconds.
 File lengths (MBytes):  RWF=    506 Int=      0 D2E=      0 Chk=     80 Scr=      1
 Normal termination of Gaussian 09 at Sun Dec  5 03:15:36 2021.
