 Entering Gaussian System, Link 0=g09
 Input=RR_Me_Ferrolane_4.com
 Output=RR_Me_Ferrolane_4.log
 Initial command:
 /gstore/apps/gaussian/g09.e01-foss-2017a/g09/l1.exe "/local/21251377/Gau-14071.inp" -scrdir="/local/21251377/"
 Entering Link 1 = /gstore/apps/gaussian/g09.e01-foss-2017a/g09/l1.exe PID=     14072.
  
 Copyright (c) 1988,1990,1992,1993,1995,1998,2003,2009,2015,
            Gaussian, Inc.  All Rights Reserved.
  
 This is part of the Gaussian(R) 09 program.  It is based on
 the Gaussian(R) 03 system (copyright 2003, Gaussian, Inc.),
 the Gaussian(R) 98 system (copyright 1998, Gaussian, Inc.),
 the Gaussian(R) 94 system (copyright 1995, Gaussian, Inc.),
 the Gaussian 92(TM) system (copyright 1992, Gaussian, Inc.),
 the Gaussian 90(TM) system (copyright 1990, Gaussian, Inc.),
 the Gaussian 88(TM) system (copyright 1988, Gaussian, Inc.),
 the Gaussian 86(TM) system (copyright 1986, Carnegie Mellon
 University), and the Gaussian 82(TM) system (copyright 1983,
 Carnegie Mellon University). Gaussian is a federally registered
 trademark of Gaussian, Inc.
  
 This software contains proprietary and confidential information,
 including trade secrets, belonging to Gaussian, Inc.
  
 This software is provided under written license and may be
 used, copied, transmitted, or stored only in accord with that
 written license.
  
 The following legend is applicable only to US Government
 contracts under FAR:
  
                    RESTRICTED RIGHTS LEGEND
  
 Use, reproduction and disclosure by the US Government is
 subject to restrictions as set forth in subparagraphs (a)
 and (c) of the Commercial Computer Software - Restricted
 Rights clause in FAR 52.227-19.
  
 Gaussian, Inc.
 340 Quinnipiac St., Bldg. 40, Wallingford CT 06492
  
  
 ---------------------------------------------------------------
 Warning -- This program may not be used in any manner that
 competes with the business of Gaussian, Inc. or will provide
 assistance to any competitor of Gaussian, Inc.  The licensee
 of this program is prohibited from giving any competitor of
 Gaussian, Inc. access to this program.  By using this program,
 the user acknowledges that Gaussian, Inc. is engaged in the
 business of creating and licensing software in the field of
 computational chemistry and represents and warrants to the
 licensee that it is not a competitor of Gaussian, Inc. and that
 it will not use this program in any manner prohibited above.
 ---------------------------------------------------------------
  

 Cite this work as:
 Gaussian 09, Revision E.01,
 M. J. Frisch, G. W. Trucks, H. B. Schlegel, G. E. Scuseria, 
 M. A. Robb, J. R. Cheeseman, G. Scalmani, V. Barone, B. Mennucci, 
 G. A. Petersson, H. Nakatsuji, M. Caricato, X. Li, H. P. Hratchian, 
 A. F. Izmaylov, J. Bloino, G. Zheng, J. L. Sonnenberg, M. Hada, 
 M. Ehara, K. Toyota, R. Fukuda, J. Hasegawa, M. Ishida, T. Nakajima, 
 Y. Honda, O. Kitao, H. Nakai, T. Vreven, J. A. Montgomery, Jr., 
 J. E. Peralta, F. Ogliaro, M. Bearpark, J. J. Heyd, E. Brothers, 
 K. N. Kudin, V. N. Staroverov, T. Keith, R. Kobayashi, J. Normand, 
 K. Raghavachari, A. Rendell, J. C. Burant, S. S. Iyengar, J. Tomasi, 
 M. Cossi, N. Rega, J. M. Millam, M. Klene, J. E. Knox, J. B. Cross, 
 V. Bakken, C. Adamo, J. Jaramillo, R. Gomperts, R. E. Stratmann, 
 O. Yazyev, A. J. Austin, R. Cammi, C. Pomelli, J. W. Ochterski, 
 R. L. Martin, K. Morokuma, V. G. Zakrzewski, G. A. Voth, 
 P. Salvador, J. J. Dannenberg, S. Dapprich, A. D. Daniels, 
 O. Farkas, J. B. Foresman, J. V. Ortiz, J. Cioslowski, 
 and D. J. Fox, Gaussian, Inc., Wallingford CT, 2013.
 
 ******************************************
 Gaussian 09:  ES64L-G09RevE.01 30-Nov-2015
                16-Nov-2021 
 ******************************************
 %nprocs=14
 Will use up to   14 processors via shared memory.
 %mem=128GB
 %chk=RR_Me_Ferrolane_4.chk
 ----------------------------------------------------------------------
 # PBEPBE gen 6D pseudo=read scf=maxcycles=500 denfit int=(grid=ultrafi
 ne) empiricaldispersion=GD3BJ opt freq=noraman
 ----------------------------------------------------------------------
 1/14=-1,18=20,19=15,26=4,38=1/1,3;
 2/9=110,12=2,17=6,18=5,40=1/2;
 3/5=7,8=2,11=2,16=1,17=8,25=1,30=1,71=1,74=1009,75=-5,82=47,124=41/1,2,3;
 4//1;
 5/5=2,7=500,38=5/2;
 6/7=2,8=2,9=2,10=2,28=1/1;
 7//1,2,3,16;
 1/14=-1,18=20,19=15,26=4/3(2);
 2/9=110/2;
 99//99;
 2/9=110/2;
 3/5=7,6=1,8=2,11=2,16=1,17=8,25=1,30=1,71=1,74=1009,75=-5,82=7,124=41/1,2,3;
 4/5=5,16=3,69=1/1;
 5/5=2,7=500,38=5/2;
 7//1,2,3,16;
 1/14=-1,18=20,19=15,26=4/3(-5);
 2/9=110/2;
 6/7=2,8=2,9=2,10=2,19=2,28=1/1;
 99/9=1/99;
 ---------------
 RR_Me_Ferrolane
 ---------------
 Symbolic Z-matrix:
 Charge =  0 Multiplicity = 1
 Fe                   -0.0402    2.6661    0.0393 
 P                    -1.8156   -0.2659   -0.045 
 P                     1.8067   -0.2283    0.1078 
 C                    -1.5141    1.4865   -0.6598 
 C                    -0.6302    1.8401   -1.7309 
 C                    -0.6067    3.2637   -1.8637 
 C                    -1.4988    3.8086   -0.8892 
 C                    -2.069     2.7171   -0.1575 
 C                     1.461     1.5123    0.7295 
 C                     1.9898    2.7588    0.2384 
 C                     1.3936    3.832     0.9769 
 C                     0.5136    3.2602    1.947 
 C                     0.568     1.8386    1.8021 
 C                    -3.2895   -0.8545   -0.9845 
 C                    -4.3218   -1.131     0.1187 
 C                    -2.6084   -0.0218    1.5885 
 C                    -4.1079   -0.1554    1.2885 
 C                     3.2921   -0.7883    1.046 
 C                     4.3313   -1.0355   -0.0577 
 C                     2.5952    0.0441   -1.5232 
 C                     4.097    -0.0584   -1.2223 
 H                    -0.0373    1.1476   -2.3086 
 H                     0.0071    3.8279   -2.5511 
 H                    -1.6805    4.8585   -0.7088 
 H                    -2.7616    2.8129    0.6657 
 H                     2.6811    2.8764   -0.583 
 H                    -0.0069    1.1287    2.3767 
 Cl                   -1.5661   -3.5888   -0.0467 
 Cl                    1.6291   -3.5546    0.0859 
 Pd                    0.013    -1.8646    0.0254 
 H                    -3.0671   -1.7757   -1.5231 
 C                    -3.7959    0.1798   -2.002 
 H                    -2.3983    0.9605    2.0096 
 C                    -2.1004   -1.0917    2.5632 
 H                    -4.1826   -2.1498    0.483 
 H                    -5.3432   -1.0809   -0.2602 
 H                    -4.4944    0.8222    0.9964 
 H                    -4.6735   -0.4591    2.1701 
 H                     1.5527    4.887     0.8053 
 H                    -0.1124    3.8052    2.6389 
 H                    -3.0327    0.4085   -2.7461 
 H                    -4.0874    1.1146   -1.523 
 H                    -4.6671   -0.1966   -2.5379 
 H                    -2.5431   -0.9577    3.5506 
 H                    -2.355    -2.097     2.2287 
 H                    -1.0178   -1.043     2.6813 
 H                     3.0899   -1.7173    1.5794 
 C                     3.7733    0.2523    2.0692 
 H                     2.3638    1.0244   -1.9379 
 C                     2.1116   -1.0299   -2.5057 
 H                     4.2152   -2.0551   -0.4278 
 H                     5.351    -0.9649    0.3228 
 H                     4.4617    0.9258   -0.9245 
 H                     4.67     -0.3447   -2.105 
 H                     4.6524   -0.1064    2.6042 
 H                     4.0434    1.196     1.595 
 H                     3.0041    0.4596    2.8134 
 H                     2.3878   -2.0317   -2.1778 
 H                     2.5521   -0.8796   -3.4916 
 H                     1.0283   -1.0039   -2.6244 
 

 GradGradGradGradGradGradGradGradGradGradGradGradGradGradGradGradGradGrad
 Berny optimization.
 Initialization pass.
                           ----------------------------
                           !    Initial Parameters    !
                           ! (Angstroms and Degrees)  !
 --------------------------                            --------------------------
 ! Name  Definition              Value          Derivative Info.                !
 --------------------------------------------------------------------------------
 ! R1    R(1,4)                  2.0131         estimate D2E/DX2                !
 ! R2    R(1,5)                  2.0406         estimate D2E/DX2                !
 ! R3    R(1,6)                  2.0735         estimate D2E/DX2                !
 ! R4    R(1,7)                  2.0724         estimate D2E/DX2                !
 ! R5    R(1,8)                  2.039          estimate D2E/DX2                !
 ! R6    R(1,9)                  2.0152         estimate D2E/DX2                !
 ! R7    R(1,10)                 2.0418         estimate D2E/DX2                !
 ! R8    R(1,11)                 2.0722         estimate D2E/DX2                !
 ! R9    R(1,12)                 2.0734         estimate D2E/DX2                !
 ! R10   R(1,13)                 2.0401         estimate D2E/DX2                !
 ! R11   R(2,4)                  1.8814         estimate D2E/DX2                !
 ! R12   R(2,14)                 1.8443         estimate D2E/DX2                !
 ! R13   R(2,16)                 1.8321         estimate D2E/DX2                !
 ! R14   R(2,30)                 2.4299         estimate D2E/DX2                !
 ! R15   R(3,9)                  1.8803         estimate D2E/DX2                !
 ! R16   R(3,18)                 1.844          estimate D2E/DX2                !
 ! R17   R(3,20)                 1.832          estimate D2E/DX2                !
 ! R18   R(3,30)                 2.4293         estimate D2E/DX2                !
 ! R19   R(4,5)                  1.433          estimate D2E/DX2                !
 ! R20   R(4,8)                  1.4403         estimate D2E/DX2                !
 ! R21   R(5,6)                  1.43           estimate D2E/DX2                !
 ! R22   R(5,22)                 1.0793         estimate D2E/DX2                !
 ! R23   R(6,7)                  1.4291         estimate D2E/DX2                !
 ! R24   R(6,23)                 1.0806         estimate D2E/DX2                !
 ! R25   R(7,8)                  1.4324         estimate D2E/DX2                !
 ! R26   R(7,24)                 1.0807         estimate D2E/DX2                !
 ! R27   R(8,25)                 1.0801         estimate D2E/DX2                !
 ! R28   R(9,10)                 1.4403         estimate D2E/DX2                !
 ! R29   R(9,13)                 1.4333         estimate D2E/DX2                !
 ! R30   R(10,11)                1.4327         estimate D2E/DX2                !
 ! R31   R(10,26)                1.08           estimate D2E/DX2                !
 ! R32   R(11,12)                1.4291         estimate D2E/DX2                !
 ! R33   R(11,39)                1.0806         estimate D2E/DX2                !
 ! R34   R(12,13)                1.43           estimate D2E/DX2                !
 ! R35   R(12,40)                1.0806         estimate D2E/DX2                !
 ! R36   R(13,27)                1.0792         estimate D2E/DX2                !
 ! R37   R(14,15)                1.536          estimate D2E/DX2                !
 ! R38   R(14,31)                1.09           estimate D2E/DX2                !
 ! R39   R(14,32)                1.5367         estimate D2E/DX2                !
 ! R40   R(15,17)                1.5382         estimate D2E/DX2                !
 ! R41   R(15,35)                1.0909         estimate D2E/DX2                !
 ! R42   R(15,36)                1.0906         estimate D2E/DX2                !
 ! R43   R(16,17)                1.535          estimate D2E/DX2                !
 ! R44   R(16,33)                1.0892         estimate D2E/DX2                !
 ! R45   R(16,34)                1.5339         estimate D2E/DX2                !
 ! R46   R(17,37)                1.0911         estimate D2E/DX2                !
 ! R47   R(17,38)                1.0906         estimate D2E/DX2                !
 ! R48   R(18,19)                1.536          estimate D2E/DX2                !
 ! R49   R(18,47)                1.0902         estimate D2E/DX2                !
 ! R50   R(18,48)                1.5367         estimate D2E/DX2                !
 ! R51   R(19,21)                1.5382         estimate D2E/DX2                !
 ! R52   R(19,51)                1.0909         estimate D2E/DX2                !
 ! R53   R(19,52)                1.0907         estimate D2E/DX2                !
 ! R54   R(20,21)                1.5351         estimate D2E/DX2                !
 ! R55   R(20,49)                1.0893         estimate D2E/DX2                !
 ! R56   R(20,50)                1.5338         estimate D2E/DX2                !
 ! R57   R(21,53)                1.091          estimate D2E/DX2                !
 ! R58   R(21,54)                1.0906         estimate D2E/DX2                !
 ! R59   R(28,30)                2.3391         estimate D2E/DX2                !
 ! R60   R(29,30)                2.3391         estimate D2E/DX2                !
 ! R61   R(32,41)                1.0902         estimate D2E/DX2                !
 ! R62   R(32,42)                1.0901         estimate D2E/DX2                !
 ! R63   R(32,43)                1.0899         estimate D2E/DX2                !
 ! R64   R(34,44)                1.0904         estimate D2E/DX2                !
 ! R65   R(34,45)                1.0897         estimate D2E/DX2                !
 ! R66   R(34,46)                1.0901         estimate D2E/DX2                !
 ! R67   R(48,55)                1.0898         estimate D2E/DX2                !
 ! R68   R(48,56)                1.0901         estimate D2E/DX2                !
 ! R69   R(48,57)                1.0902         estimate D2E/DX2                !
 ! R70   R(50,58)                1.0897         estimate D2E/DX2                !
 ! R71   R(50,59)                1.0902         estimate D2E/DX2                !
 ! R72   R(50,60)                1.0901         estimate D2E/DX2                !
 ! A1    A(4,1,6)               69.5207         estimate D2E/DX2                !
 ! A2    A(4,1,7)               69.6438         estimate D2E/DX2                !
 ! A3    A(4,1,9)              109.199          estimate D2E/DX2                !
 ! A4    A(4,1,10)             142.0336         estimate D2E/DX2                !
 ! A5    A(4,1,12)             133.0768         estimate D2E/DX2                !
 ! A6    A(4,1,13)             106.2998         estimate D2E/DX2                !
 ! A7    A(5,1,7)               68.3458         estimate D2E/DX2                !
 ! A8    A(5,1,8)               68.8201         estimate D2E/DX2                !
 ! A9    A(5,1,9)              106.3041         estimate D2E/DX2                !
 ! A10   A(5,1,10)             112.9808         estimate D2E/DX2                !
 ! A11   A(5,1,11)             145.1149         estimate D2E/DX2                !
 ! A12   A(5,1,13)             132.1893         estimate D2E/DX2                !
 ! A13   A(6,1,8)               68.43           estimate D2E/DX2                !
 ! A14   A(6,1,9)              133.0668         estimate D2E/DX2                !
 ! A15   A(6,1,10)             110.3668         estimate D2E/DX2                !
 ! A16   A(6,1,11)             116.2399         estimate D2E/DX2                !
 ! A17   A(6,1,12)             146.5966         estimate D2E/DX2                !
 ! A18   A(7,1,10)             135.9217         estimate D2E/DX2                !
 ! A19   A(7,1,11)             112.3038         estimate D2E/DX2                !
 ! A20   A(7,1,12)             116.2473         estimate D2E/DX2                !
 ! A21   A(7,1,13)             145.14           estimate D2E/DX2                !
 ! A22   A(8,1,9)              142.0535         estimate D2E/DX2                !
 ! A23   A(8,1,11)             135.8943         estimate D2E/DX2                !
 ! A24   A(8,1,12)             110.3288         estimate D2E/DX2                !
 ! A25   A(8,1,13)             112.9655         estimate D2E/DX2                !
 ! A26   A(9,1,11)              69.6195         estimate D2E/DX2                !
 ! A27   A(9,1,12)              69.5106         estimate D2E/DX2                !
 ! A28   A(10,1,12)             68.3908         estimate D2E/DX2                !
 ! A29   A(10,1,13)             68.7629         estimate D2E/DX2                !
 ! A30   A(11,1,13)             68.3453         estimate D2E/DX2                !
 ! A31   A(4,2,14)             105.0026         estimate D2E/DX2                !
 ! A32   A(4,2,16)             103.6861         estimate D2E/DX2                !
 ! A33   A(4,2,30)             120.1107         estimate D2E/DX2                !
 ! A34   A(14,2,16)             98.6785         estimate D2E/DX2                !
 ! A35   A(14,2,30)            113.9651         estimate D2E/DX2                !
 ! A36   A(16,2,30)            112.7975         estimate D2E/DX2                !
 ! A37   A(9,3,18)             105.1293         estimate D2E/DX2                !
 ! A38   A(9,3,20)             103.6417         estimate D2E/DX2                !
 ! A39   A(9,3,30)             119.932          estimate D2E/DX2                !
 ! A40   A(18,3,20)             98.7092         estimate D2E/DX2                !
 ! A41   A(18,3,30)            114.0465         estimate D2E/DX2                !
 ! A42   A(20,3,30)            112.8147         estimate D2E/DX2                !
 ! A43   A(1,4,2)              123.3412         estimate D2E/DX2                !
 ! A44   A(2,4,5)              124.9536         estimate D2E/DX2                !
 ! A45   A(2,4,8)              128.3226         estimate D2E/DX2                !
 ! A46   A(5,4,8)              106.7064         estimate D2E/DX2                !
 ! A47   A(1,5,22)             124.4185         estimate D2E/DX2                !
 ! A48   A(4,5,6)              108.9777         estimate D2E/DX2                !
 ! A49   A(4,5,22)             125.4928         estimate D2E/DX2                !
 ! A50   A(6,5,22)             125.4533         estimate D2E/DX2                !
 ! A51   A(1,6,23)             125.3896         estimate D2E/DX2                !
 ! A52   A(5,6,7)              107.8182         estimate D2E/DX2                !
 ! A53   A(5,6,23)             126.0314         estimate D2E/DX2                !
 ! A54   A(7,6,23)             126.1067         estimate D2E/DX2                !
 ! A55   A(1,7,24)             125.3898         estimate D2E/DX2                !
 ! A56   A(6,7,8)              107.834          estimate D2E/DX2                !
 ! A57   A(6,7,24)             126.1009         estimate D2E/DX2                !
 ! A58   A(8,7,24)             126.0216         estimate D2E/DX2                !
 ! A59   A(1,8,25)             124.5217         estimate D2E/DX2                !
 ! A60   A(4,8,7)              108.6347         estimate D2E/DX2                !
 ! A61   A(4,8,25)             126.0599         estimate D2E/DX2                !
 ! A62   A(7,8,25)             125.2398         estimate D2E/DX2                !
 ! A63   A(1,9,3)              123.6212         estimate D2E/DX2                !
 ! A64   A(3,9,10)             128.38           estimate D2E/DX2                !
 ! A65   A(3,9,13)             124.9388         estimate D2E/DX2                !
 ! A66   A(10,9,13)            106.6709         estimate D2E/DX2                !
 ! A67   A(1,10,26)            124.5521         estimate D2E/DX2                !
 ! A68   A(9,10,11)            108.6471         estimate D2E/DX2                !
 ! A69   A(9,10,26)            126.0542         estimate D2E/DX2                !
 ! A70   A(11,10,26)           125.2283         estimate D2E/DX2                !
 ! A71   A(1,11,39)            125.4011         estimate D2E/DX2                !
 ! A72   A(10,11,12)           107.8442         estimate D2E/DX2                !
 ! A73   A(10,11,39)           126.0285         estimate D2E/DX2                !
 ! A74   A(12,11,39)           126.0898         estimate D2E/DX2                !
 ! A75   A(1,12,40)            125.3748         estimate D2E/DX2                !
 ! A76   A(11,12,13)           107.7909         estimate D2E/DX2                !
 ! A77   A(11,12,40)           126.1263         estimate D2E/DX2                !
 ! A78   A(13,12,40)           126.038          estimate D2E/DX2                !
 ! A79   A(1,13,27)            124.6154         estimate D2E/DX2                !
 ! A80   A(9,13,12)            109.0168         estimate D2E/DX2                !
 ! A81   A(9,13,27)            125.4921         estimate D2E/DX2                !
 ! A82   A(12,13,27)           125.4317         estimate D2E/DX2                !
 ! A83   A(2,14,15)            103.2194         estimate D2E/DX2                !
 ! A84   A(2,14,31)            110.9997         estimate D2E/DX2                !
 ! A85   A(2,14,32)            112.6956         estimate D2E/DX2                !
 ! A86   A(15,14,31)           109.8702         estimate D2E/DX2                !
 ! A87   A(15,14,32)           112.0402         estimate D2E/DX2                !
 ! A88   A(31,14,32)           107.9917         estimate D2E/DX2                !
 ! A89   A(14,15,17)           109.7915         estimate D2E/DX2                !
 ! A90   A(14,15,35)           108.7972         estimate D2E/DX2                !
 ! A91   A(14,15,36)           111.8175         estimate D2E/DX2                !
 ! A92   A(17,15,35)           108.7009         estimate D2E/DX2                !
 ! A93   A(17,15,36)           111.428          estimate D2E/DX2                !
 ! A94   A(35,15,36)           106.167          estimate D2E/DX2                !
 ! A95   A(2,16,17)            103.7018         estimate D2E/DX2                !
 ! A96   A(2,16,33)            112.4203         estimate D2E/DX2                !
 ! A97   A(2,16,34)            109.2885         estimate D2E/DX2                !
 ! A98   A(17,16,33)           110.0277         estimate D2E/DX2                !
 ! A99   A(17,16,34)           112.7679         estimate D2E/DX2                !
 ! A100  A(33,16,34)           108.6324         estimate D2E/DX2                !
 ! A101  A(15,17,16)           109.857          estimate D2E/DX2                !
 ! A102  A(15,17,37)           108.3871         estimate D2E/DX2                !
 ! A103  A(15,17,38)           111.4714         estimate D2E/DX2                !
 ! A104  A(16,17,37)           108.686          estimate D2E/DX2                !
 ! A105  A(16,17,38)           111.8927         estimate D2E/DX2                !
 ! A106  A(37,17,38)           106.3927         estimate D2E/DX2                !
 ! A107  A(3,18,19)            103.1961         estimate D2E/DX2                !
 ! A108  A(3,18,47)            110.9979         estimate D2E/DX2                !
 ! A109  A(3,18,48)            112.6674         estimate D2E/DX2                !
 ! A110  A(19,18,47)           109.8725         estimate D2E/DX2                !
 ! A111  A(19,18,48)           112.0604         estimate D2E/DX2                !
 ! A112  A(47,18,48)           108.0206         estimate D2E/DX2                !
 ! A113  A(18,19,21)           109.8015         estimate D2E/DX2                !
 ! A114  A(18,19,51)           108.7962         estimate D2E/DX2                !
 ! A115  A(18,19,52)           111.805          estimate D2E/DX2                !
 ! A116  A(21,19,51)           108.7021         estimate D2E/DX2                !
 ! A117  A(21,19,52)           111.4345         estimate D2E/DX2                !
 ! A118  A(51,19,52)           106.1625         estimate D2E/DX2                !
 ! A119  A(3,20,21)            103.6883         estimate D2E/DX2                !
 ! A120  A(3,20,49)            112.4162         estimate D2E/DX2                !
 ! A121  A(3,20,50)            109.2969         estimate D2E/DX2                !
 ! A122  A(21,20,49)           110.0323         estimate D2E/DX2                !
 ! A123  A(21,20,50)           112.784          estimate D2E/DX2                !
 ! A124  A(49,20,50)           108.6213         estimate D2E/DX2                !
 ! A125  A(19,21,20)           109.8679         estimate D2E/DX2                !
 ! A126  A(19,21,53)           108.3886         estimate D2E/DX2                !
 ! A127  A(19,21,54)           111.4697         estimate D2E/DX2                !
 ! A128  A(20,21,53)           108.6808         estimate D2E/DX2                !
 ! A129  A(20,21,54)           111.8934         estimate D2E/DX2                !
 ! A130  A(53,21,54)           106.3856         estimate D2E/DX2                !
 ! A131  A(2,30,3)              96.5152         estimate D2E/DX2                !
 ! A132  A(2,30,28)             88.6276         estimate D2E/DX2                !
 ! A133  A(3,30,29)             88.604          estimate D2E/DX2                !
 ! A134  A(28,30,29)            86.2532         estimate D2E/DX2                !
 ! A135  A(14,32,41)           111.2498         estimate D2E/DX2                !
 ! A136  A(14,32,42)           111.9844         estimate D2E/DX2                !
 ! A137  A(14,32,43)           110.8875         estimate D2E/DX2                !
 ! A138  A(41,32,42)           107.8927         estimate D2E/DX2                !
 ! A139  A(41,32,43)           107.244          estimate D2E/DX2                !
 ! A140  A(42,32,43)           107.3657         estimate D2E/DX2                !
 ! A141  A(16,34,44)           110.8091         estimate D2E/DX2                !
 ! A142  A(16,34,45)           111.7813         estimate D2E/DX2                !
 ! A143  A(16,34,46)           111.5052         estimate D2E/DX2                !
 ! A144  A(44,34,45)           107.2479         estimate D2E/DX2                !
 ! A145  A(44,34,46)           107.4345         estimate D2E/DX2                !
 ! A146  A(45,34,46)           107.8494         estimate D2E/DX2                !
 ! A147  A(18,48,55)           110.8907         estimate D2E/DX2                !
 ! A148  A(18,48,56)           111.9725         estimate D2E/DX2                !
 ! A149  A(18,48,57)           111.2454         estimate D2E/DX2                !
 ! A150  A(55,48,56)           107.3738         estimate D2E/DX2                !
 ! A151  A(55,48,57)           107.2549         estimate D2E/DX2                !
 ! A152  A(56,48,57)           107.8878         estimate D2E/DX2                !
 ! A153  A(20,50,58)           111.7815         estimate D2E/DX2                !
 ! A154  A(20,50,59)           110.8136         estimate D2E/DX2                !
 ! A155  A(20,50,60)           111.492          estimate D2E/DX2                !
 ! A156  A(58,50,59)           107.2442         estimate D2E/DX2                !
 ! A157  A(58,50,60)           107.8534         estimate D2E/DX2                !
 ! A158  A(59,50,60)           107.4434         estimate D2E/DX2                !
 ! A159  L(4,1,11,6,-1)        185.7606         estimate D2E/DX2                !
 ! A160  L(5,1,12,7,-1)        184.5931         estimate D2E/DX2                !
 ! A161  L(6,1,13,4,-1)        175.8205         estimate D2E/DX2                !
 ! A162  L(7,1,9,4,-1)         178.8428         estimate D2E/DX2                !
 ! A163  L(8,1,10,5,-1)        181.8009         estimate D2E/DX2                !
 ! A164  L(2,30,29,28,-1)      174.8808         estimate D2E/DX2                !
 ! A165  L(3,30,28,29,-1)      174.8572         estimate D2E/DX2                !
 ! A166  L(4,1,11,6,-2)        176.5039         estimate D2E/DX2                !
 ! A167  L(5,1,12,7,-2)        173.4714         estimate D2E/DX2                !
 ! A168  L(6,1,13,4,-2)        173.3856         estimate D2E/DX2                !
 ! A169  L(7,1,9,4,-2)         173.0876         estimate D2E/DX2                !
 ! A170  L(8,1,10,5,-2)        176.102          estimate D2E/DX2                !
 ! A171  L(2,30,29,28,-2)      179.9826         estimate D2E/DX2                !
 ! A172  L(3,30,28,29,-2)      179.959          estimate D2E/DX2                !
 ! D1    D(6,1,4,2)            156.3449         estimate D2E/DX2                !
 ! D2    D(7,1,4,2)           -160.4935         estimate D2E/DX2                !
 ! D3    D(9,1,4,2)             26.4189         estimate D2E/DX2                !
 ! D4    D(10,1,4,2)            59.1479         estimate D2E/DX2                !
 ! D5    D(12,1,4,2)           -53.1041         estimate D2E/DX2                !
 ! D6    D(13,1,4,2)           -17.0407         estimate D2E/DX2                !
 ! D7    D(2,4,11,39)         -170.1498         estimate D2E/DX2                !
 ! D8    D(7,1,5,22)           157.6522         estimate D2E/DX2                !
 ! D9    D(8,1,5,22)          -158.4056         estimate D2E/DX2                !
 ! D10   D(9,1,5,22)           -18.2476         estimate D2E/DX2                !
 ! D11   D(10,1,5,22)           25.4924         estimate D2E/DX2                !
 ! D12   D(11,1,5,22)           59.3426         estimate D2E/DX2                !
 ! D13   D(13,1,5,22)          -56.0752         estimate D2E/DX2                !
 ! D14   D(22,5,12,40)        -168.2008         estimate D2E/DX2                !
 ! D15   D(4,1,6,23)          -157.1062         estimate D2E/DX2                !
 ! D16   D(8,1,6,23)           158.1469         estimate D2E/DX2                !
 ! D17   D(9,1,6,23)           -59.5545         estimate D2E/DX2                !
 ! D18   D(10,1,6,23)          -17.7273         estimate D2E/DX2                !
 ! D19   D(11,1,6,23)           26.3899         estimate D2E/DX2                !
 ! D20   D(12,1,6,23)           63.6101         estimate D2E/DX2                !
 ! D21   D(23,6,13,27)        -168.1984         estimate D2E/DX2                !
 ! D22   D(4,1,7,24)           157.3955         estimate D2E/DX2                !
 ! D23   D(5,1,7,24)          -158.1293         estimate D2E/DX2                !
 ! D24   D(10,1,7,24)          -56.9517         estimate D2E/DX2                !
 ! D25   D(11,1,7,24)          -15.8413         estimate D2E/DX2                !
 ! D26   D(12,1,7,24)           28.3993         estimate D2E/DX2                !
 ! D27   D(13,1,7,24)           67.9055         estimate D2E/DX2                !
 ! D28   D(24,7,9,3)          -170.1823         estimate D2E/DX2                !
 ! D29   D(5,1,8,25)           158.8356         estimate D2E/DX2                !
 ! D30   D(6,1,8,25)          -157.3443         estimate D2E/DX2                !
 ! D31   D(9,1,8,25)            69.2533         estimate D2E/DX2                !
 ! D32   D(11,1,8,25)          -51.3681         estimate D2E/DX2                !
 ! D33   D(12,1,8,25)          -13.1656         estimate D2E/DX2                !
 ! D34   D(13,1,8,25)           30.6627         estimate D2E/DX2                !
 ! D35   D(25,8,10,26)        -166.2594         estimate D2E/DX2                !
 ! D36   D(4,1,9,3)             26.3474         estimate D2E/DX2                !
 ! D37   D(5,1,9,3)            -17.1217         estimate D2E/DX2                !
 ! D38   D(6,1,9,3)            -53.1877         estimate D2E/DX2                !
 ! D39   D(8,1,9,3)             59.1649         estimate D2E/DX2                !
 ! D40   D(11,1,9,3)          -160.547          estimate D2E/DX2                !
 ! D41   D(12,1,9,3)           156.2827         estimate D2E/DX2                !
 ! D42   D(4,1,10,26)           69.3359         estimate D2E/DX2                !
 ! D43   D(5,1,10,26)           30.6886         estimate D2E/DX2                !
 ! D44   D(6,1,10,26)          -13.1427         estimate D2E/DX2                !
 ! D45   D(7,1,10,26)          -51.3659         estimate D2E/DX2                !
 ! D46   D(12,1,10,26)        -157.3119         estimate D2E/DX2                !
 ! D47   D(13,1,10,26)         158.8456         estimate D2E/DX2                !
 ! D48   D(5,1,11,39)           67.9253         estimate D2E/DX2                !
 ! D49   D(6,1,11,39)           28.4202         estimate D2E/DX2                !
 ! D50   D(7,1,11,39)          -15.816          estimate D2E/DX2                !
 ! D51   D(8,1,11,39)          -56.9708         estimate D2E/DX2                !
 ! D52   D(9,1,11,39)          157.3977         estimate D2E/DX2                !
 ! D53   D(13,1,11,39)        -158.1313         estimate D2E/DX2                !
 ! D54   D(4,1,12,40)          -59.5714         estimate D2E/DX2                !
 ! D55   D(6,1,12,40)           63.6455         estimate D2E/DX2                !
 ! D56   D(7,1,12,40)           26.4188         estimate D2E/DX2                !
 ! D57   D(8,1,12,40)          -17.7072         estimate D2E/DX2                !
 ! D58   D(9,1,12,40)         -157.1115         estimate D2E/DX2                !
 ! D59   D(10,1,12,40)         158.1938         estimate D2E/DX2                !
 ! D60   D(4,1,13,27)          -18.2858         estimate D2E/DX2                !
 ! D61   D(5,1,13,27)          -56.1211         estimate D2E/DX2                !
 ! D62   D(7,1,13,27)           59.3406         estimate D2E/DX2                !
 ! D63   D(8,1,13,27)           25.5126         estimate D2E/DX2                !
 ! D64   D(10,1,13,27)        -158.424          estimate D2E/DX2                !
 ! D65   D(11,1,13,27)         157.6445         estimate D2E/DX2                !
 ! D66   D(14,2,4,1)           178.7325         estimate D2E/DX2                !
 ! D67   D(14,2,4,5)           -93.0861         estimate D2E/DX2                !
 ! D68   D(14,2,4,8)            88.6328         estimate D2E/DX2                !
 ! D69   D(16,2,4,1)            75.6683         estimate D2E/DX2                !
 ! D70   D(16,2,4,5)           163.8497         estimate D2E/DX2                !
 ! D71   D(16,2,4,8)           -14.4314         estimate D2E/DX2                !
 ! D72   D(30,2,4,1)           -51.3615         estimate D2E/DX2                !
 ! D73   D(30,2,4,5)            36.8199         estimate D2E/DX2                !
 ! D74   D(30,2,4,8)          -141.4613         estimate D2E/DX2                !
 ! D75   D(4,2,14,15)         -118.6528         estimate D2E/DX2                !
 ! D76   D(4,2,14,31)          123.6919         estimate D2E/DX2                !
 ! D77   D(4,2,14,32)            2.416          estimate D2E/DX2                !
 ! D78   D(16,2,14,15)         -11.8729         estimate D2E/DX2                !
 ! D79   D(16,2,14,31)        -129.5283         estimate D2E/DX2                !
 ! D80   D(16,2,14,32)         109.1958         estimate D2E/DX2                !
 ! D81   D(30,2,14,15)         107.9149         estimate D2E/DX2                !
 ! D82   D(30,2,14,31)          -9.7405         estimate D2E/DX2                !
 ! D83   D(30,2,14,32)        -131.0164         estimate D2E/DX2                !
 ! D84   D(4,2,16,17)           97.1626         estimate D2E/DX2                !
 ! D85   D(4,2,16,33)          -21.6483         estimate D2E/DX2                !
 ! D86   D(4,2,16,34)         -142.3499         estimate D2E/DX2                !
 ! D87   D(14,2,16,17)         -10.6968         estimate D2E/DX2                !
 ! D88   D(14,2,16,33)        -129.5077         estimate D2E/DX2                !
 ! D89   D(14,2,16,34)         109.7907         estimate D2E/DX2                !
 ! D90   D(30,2,16,17)        -131.3512         estimate D2E/DX2                !
 ! D91   D(30,2,16,33)         109.8379         estimate D2E/DX2                !
 ! D92   D(30,2,16,34)         -10.8637         estimate D2E/DX2                !
 ! D93   D(4,2,30,3)            22.935          estimate D2E/DX2                !
 ! D94   D(4,2,30,28)         -157.1047         estimate D2E/DX2                !
 ! D95   D(14,2,30,3)          148.7557         estimate D2E/DX2                !
 ! D96   D(14,2,30,28)         -31.284          estimate D2E/DX2                !
 ! D97   D(16,2,30,3)          -99.7785         estimate D2E/DX2                !
 ! D98   D(16,2,30,28)          80.1818         estimate D2E/DX2                !
 ! D99   D(18,3,9,1)           178.812          estimate D2E/DX2                !
 ! D100  D(18,3,9,10)           88.3727         estimate D2E/DX2                !
 ! D101  D(18,3,9,13)          -92.9549         estimate D2E/DX2                !
 ! D102  D(20,3,9,1)            75.6899         estimate D2E/DX2                !
 ! D103  D(20,3,9,10)          -14.7494         estimate D2E/DX2                !
 ! D104  D(20,3,9,13)          163.9229         estimate D2E/DX2                !
 ! D105  D(30,3,9,1)           -51.1912         estimate D2E/DX2                !
 ! D106  D(30,3,9,10)         -141.6305         estimate D2E/DX2                !
 ! D107  D(30,3,9,13)           37.0419         estimate D2E/DX2                !
 ! D108  D(9,3,18,19)         -118.702          estimate D2E/DX2                !
 ! D109  D(9,3,18,47)          123.6538         estimate D2E/DX2                !
 ! D110  D(9,3,18,48)            2.3616         estimate D2E/DX2                !
 ! D111  D(20,3,18,19)         -11.9288         estimate D2E/DX2                !
 ! D112  D(20,3,18,47)        -129.573          estimate D2E/DX2                !
 ! D113  D(20,3,18,48)         109.1349         estimate D2E/DX2                !
 ! D114  D(30,3,18,19)         107.9327         estimate D2E/DX2                !
 ! D115  D(30,3,18,47)          -9.7115         estimate D2E/DX2                !
 ! D116  D(30,3,18,48)        -131.0036         estimate D2E/DX2                !
 ! D117  D(9,3,20,21)           97.3661         estimate D2E/DX2                !
 ! D118  D(9,3,20,49)          -21.4402         estimate D2E/DX2                !
 ! D119  D(9,3,20,50)         -142.1309         estimate D2E/DX2                !
 ! D120  D(18,3,20,21)         -10.626          estimate D2E/DX2                !
 ! D121  D(18,3,20,49)        -129.4322         estimate D2E/DX2                !
 ! D122  D(18,3,20,50)         109.877          estimate D2E/DX2                !
 ! D123  D(30,3,20,21)        -131.4004         estimate D2E/DX2                !
 ! D124  D(30,3,20,49)         109.7933         estimate D2E/DX2                !
 ! D125  D(30,3,20,50)         -10.8974         estimate D2E/DX2                !
 ! D126  D(9,3,30,2)            22.685          estimate D2E/DX2                !
 ! D127  D(9,3,30,29)         -157.3289         estimate D2E/DX2                !
 ! D128  D(18,3,30,2)          148.6079         estimate D2E/DX2                !
 ! D129  D(18,3,30,29)         -31.4059         estimate D2E/DX2                !
 ! D130  D(20,3,30,2)          -99.8254         estimate D2E/DX2                !
 ! D131  D(20,3,30,29)          80.1608         estimate D2E/DX2                !
 ! D132  D(2,4,5,6)           -176.9049         estimate D2E/DX2                !
 ! D133  D(2,4,5,22)             0.0574         estimate D2E/DX2                !
 ! D134  D(8,4,5,6)              1.6872         estimate D2E/DX2                !
 ! D135  D(8,4,5,22)           178.6495         estimate D2E/DX2                !
 ! D136  D(2,4,8,7)            176.8736         estimate D2E/DX2                !
 ! D137  D(2,4,8,25)            -0.2951         estimate D2E/DX2                !
 ! D138  D(5,4,8,7)             -1.6555         estimate D2E/DX2                !
 ! D139  D(5,4,8,25)          -178.8243         estimate D2E/DX2                !
 ! D140  D(4,5,6,7)             -1.087          estimate D2E/DX2                !
 ! D141  D(4,5,6,23)           176.6185         estimate D2E/DX2                !
 ! D142  D(22,5,6,7)          -178.0509         estimate D2E/DX2                !
 ! D143  D(22,5,6,23)           -0.3453         estimate D2E/DX2                !
 ! D144  D(5,6,7,8)              0.0434         estimate D2E/DX2                !
 ! D145  D(5,6,7,24)           177.7554         estimate D2E/DX2                !
 ! D146  D(23,6,7,8)          -177.6599         estimate D2E/DX2                !
 ! D147  D(23,6,7,24)            0.052          estimate D2E/DX2                !
 ! D148  D(6,7,8,4)              1.0087         estimate D2E/DX2                !
 ! D149  D(6,7,8,25)           178.2064         estimate D2E/DX2                !
 ! D150  D(24,7,8,4)          -176.7056         estimate D2E/DX2                !
 ! D151  D(24,7,8,25)            0.4921         estimate D2E/DX2                !
 ! D152  D(3,9,10,11)          177.1298         estimate D2E/DX2                !
 ! D153  D(3,9,10,26)            0.063          estimate D2E/DX2                !
 ! D154  D(13,9,10,11)          -1.7341         estimate D2E/DX2                !
 ! D155  D(13,9,10,26)        -178.8009         estimate D2E/DX2                !
 ! D156  D(3,9,13,12)         -177.2413         estimate D2E/DX2                !
 ! D157  D(3,9,13,27)            0.0742         estimate D2E/DX2                !
 ! D158  D(10,9,13,12)           1.6723         estimate D2E/DX2                !
 ! D159  D(10,9,13,27)         178.9878         estimate D2E/DX2                !
 ! D160  D(9,10,11,12)           1.1522         estimate D2E/DX2                !
 ! D161  D(9,10,11,39)        -176.7223         estimate D2E/DX2                !
 ! D162  D(26,10,11,12)        178.2492         estimate D2E/DX2                !
 ! D163  D(26,10,11,39)          0.3747         estimate D2E/DX2                !
 ! D164  D(10,11,12,13)         -0.1076         estimate D2E/DX2                !
 ! D165  D(10,11,12,40)       -177.7854         estimate D2E/DX2                !
 ! D166  D(39,11,12,13)        177.7652         estimate D2E/DX2                !
 ! D167  D(39,11,12,40)          0.0874         estimate D2E/DX2                !
 ! D168  D(11,12,13,9)          -0.9841         estimate D2E/DX2                !
 ! D169  D(11,12,13,27)       -178.3016         estimate D2E/DX2                !
 ! D170  D(40,12,13,9)         176.6963         estimate D2E/DX2                !
 ! D171  D(40,12,13,27)         -0.6212         estimate D2E/DX2                !
 ! D172  D(2,14,15,17)          31.8131         estimate D2E/DX2                !
 ! D173  D(2,14,15,35)         -87.0318         estimate D2E/DX2                !
 ! D174  D(2,14,15,36)         156.0269         estimate D2E/DX2                !
 ! D175  D(31,14,15,17)        150.2583         estimate D2E/DX2                !
 ! D176  D(31,14,15,35)         31.4134         estimate D2E/DX2                !
 ! D177  D(31,14,15,36)        -85.528          estimate D2E/DX2                !
 ! D178  D(32,14,15,17)        -89.6994         estimate D2E/DX2                !
 ! D179  D(32,14,15,35)        151.4557         estimate D2E/DX2                !
 ! D180  D(32,14,15,36)         34.5144         estimate D2E/DX2                !
 ! D181  D(2,14,32,41)          60.8698         estimate D2E/DX2                !
 ! D182  D(2,14,32,42)         -59.9601         estimate D2E/DX2                !
 ! D183  D(2,14,32,43)        -179.8659         estimate D2E/DX2                !
 ! D184  D(15,14,32,41)        176.7652         estimate D2E/DX2                !
 ! D185  D(15,14,32,42)         55.9353         estimate D2E/DX2                !
 ! D186  D(15,14,32,43)        -63.9705         estimate D2E/DX2                !
 ! D187  D(31,14,32,41)        -62.1025         estimate D2E/DX2                !
 ! D188  D(31,14,32,42)        177.0677         estimate D2E/DX2                !
 ! D189  D(31,14,32,43)         57.1618         estimate D2E/DX2                !
 ! D190  D(14,15,17,16)        -43.0377         estimate D2E/DX2                !
 ! D191  D(14,15,17,37)         75.5828         estimate D2E/DX2                !
 ! D192  D(14,15,17,38)       -167.6524         estimate D2E/DX2                !
 ! D193  D(35,15,17,16)         75.8665         estimate D2E/DX2                !
 ! D194  D(35,15,17,37)       -165.513          estimate D2E/DX2                !
 ! D195  D(35,15,17,38)        -48.7482         estimate D2E/DX2                !
 ! D196  D(36,15,17,16)       -167.4776         estimate D2E/DX2                !
 ! D197  D(36,15,17,37)        -48.857          estimate D2E/DX2                !
 ! D198  D(36,15,17,38)         67.9077         estimate D2E/DX2                !
 ! D199  D(2,16,17,15)          31.0467         estimate D2E/DX2                !
 ! D200  D(2,16,17,37)         -87.3895         estimate D2E/DX2                !
 ! D201  D(2,16,17,38)         155.4176         estimate D2E/DX2                !
 ! D202  D(33,16,17,15)        151.4916         estimate D2E/DX2                !
 ! D203  D(33,16,17,37)         33.0554         estimate D2E/DX2                !
 ! D204  D(33,16,17,38)        -84.1375         estimate D2E/DX2                !
 ! D205  D(34,16,17,15)        -87.0564         estimate D2E/DX2                !
 ! D206  D(34,16,17,37)        154.5074         estimate D2E/DX2                !
 ! D207  D(34,16,17,38)         37.3145         estimate D2E/DX2                !
 ! D208  D(2,16,34,44)         178.9232         estimate D2E/DX2                !
 ! D209  D(2,16,34,45)         -61.5094         estimate D2E/DX2                !
 ! D210  D(2,16,34,46)          59.3029         estimate D2E/DX2                !
 ! D211  D(17,16,34,44)        -66.3024         estimate D2E/DX2                !
 ! D212  D(17,16,34,45)         53.265          estimate D2E/DX2                !
 ! D213  D(17,16,34,46)        174.0772         estimate D2E/DX2                !
 ! D214  D(33,16,34,44)         55.9376         estimate D2E/DX2                !
 ! D215  D(33,16,34,45)        175.505          estimate D2E/DX2                !
 ! D216  D(33,16,34,46)        -63.6827         estimate D2E/DX2                !
 ! D217  D(3,18,19,21)          31.8402         estimate D2E/DX2                !
 ! D218  D(3,18,19,51)         -87.0113         estimate D2E/DX2                !
 ! D219  D(3,18,19,52)         156.0608         estimate D2E/DX2                !
 ! D220  D(47,18,19,21)        150.2718         estimate D2E/DX2                !
 ! D221  D(47,18,19,51)         31.4203         estimate D2E/DX2                !
 ! D222  D(47,18,19,52)        -85.5076         estimate D2E/DX2                !
 ! D223  D(48,18,19,21)        -89.6347         estimate D2E/DX2                !
 ! D224  D(48,18,19,51)        151.5138         estimate D2E/DX2                !
 ! D225  D(48,18,19,52)         34.5859         estimate D2E/DX2                !
 ! D226  D(3,18,48,55)        -179.836          estimate D2E/DX2                !
 ! D227  D(3,18,48,56)         -59.9256         estimate D2E/DX2                !
 ! D228  D(3,18,48,57)          60.8867         estimate D2E/DX2                !
 ! D229  D(19,18,48,55)        -63.9751         estimate D2E/DX2                !
 ! D230  D(19,18,48,56)         55.9353         estimate D2E/DX2                !
 ! D231  D(19,18,48,57)        176.7476         estimate D2E/DX2                !
 ! D232  D(47,18,48,55)         57.1921         estimate D2E/DX2                !
 ! D233  D(47,18,48,56)        177.1025         estimate D2E/DX2                !
 ! D234  D(47,18,48,57)        -62.0852         estimate D2E/DX2                !
 ! D235  D(18,19,21,20)        -43.0206         estimate D2E/DX2                !
 ! D236  D(18,19,21,53)         75.6009         estimate D2E/DX2                !
 ! D237  D(18,19,21,54)       -167.6431         estimate D2E/DX2                !
 ! D238  D(51,19,21,20)         75.8888         estimate D2E/DX2                !
 ! D239  D(51,19,21,53)       -165.4897         estimate D2E/DX2                !
 ! D240  D(51,19,21,54)        -48.7336         estimate D2E/DX2                !
 ! D241  D(52,19,21,20)       -167.4563         estimate D2E/DX2                !
 ! D242  D(52,19,21,53)        -48.8347         estimate D2E/DX2                !
 ! D243  D(52,19,21,54)         67.9213         estimate D2E/DX2                !
 ! D244  D(3,20,21,19)          30.9818         estimate D2E/DX2                !
 ! D245  D(3,20,21,53)         -87.4595         estimate D2E/DX2                !
 ! D246  D(3,20,21,54)         155.3591         estimate D2E/DX2                !
 ! D247  D(49,20,21,19)        151.4166         estimate D2E/DX2                !
 ! D248  D(49,20,21,53)         32.9753         estimate D2E/DX2                !
 ! D249  D(49,20,21,54)        -84.2061         estimate D2E/DX2                !
 ! D250  D(50,20,21,19)        -87.1312         estimate D2E/DX2                !
 ! D251  D(50,20,21,53)        154.4275         estimate D2E/DX2                !
 ! D252  D(50,20,21,54)         37.246          estimate D2E/DX2                !
 ! D253  D(3,20,50,58)         -61.5049         estimate D2E/DX2                !
 ! D254  D(3,20,50,59)         178.9292         estimate D2E/DX2                !
 ! D255  D(3,20,50,60)          59.3034         estimate D2E/DX2                !
 ! D256  D(21,20,50,58)         53.2675         estimate D2E/DX2                !
 ! D257  D(21,20,50,59)        -66.2984         estimate D2E/DX2                !
 ! D258  D(21,20,50,60)        174.0757         estimate D2E/DX2                !
 ! D259  D(49,20,50,58)        175.5163         estimate D2E/DX2                !
 ! D260  D(49,20,50,59)         55.9504         estimate D2E/DX2                !
 ! D261  D(49,20,50,60)        -63.6755         estimate D2E/DX2                !
 --------------------------------------------------------------------------------
 Trust Radius=3.00D-01 FncErr=1.00D-07 GrdErr=1.00D-06
 Number of steps in this run=    360 maximum allowed number of steps=    360.
 GradGradGradGradGradGradGradGradGradGradGradGradGradGradGradGradGradGrad

 Stoichiometry    C22H32Cl2FeP2Pd
 Framework group  C1[X(C22H32Cl2FeP2Pd)]
 Deg. of freedom   174
 Full point group                 C1      NOp   1
 Largest Abelian subgroup         C1      NOp   1
 Largest concise Abelian subgroup C1      NOp   1
                         Standard orientation:                         
 ---------------------------------------------------------------------
 Center     Atomic      Atomic             Coordinates (Angstroms)
 Number     Number       Type             X           Y           Z
 ---------------------------------------------------------------------
      1         26           0       -0.028137    2.693308   -0.000636
      2         15           0       -1.808524   -0.236272   -0.060287
      3         15           0        1.815017   -0.203633    0.060958
      4          6           0       -1.509789    1.513735   -0.683199
      5          6           0       -0.634701    1.862643   -1.763038
      6          6           0       -0.610255    3.285783   -1.900523
      7          6           0       -1.493057    3.835078   -0.920041
      8          6           0       -2.058492    2.746738   -0.179985
      9          6           0        1.477295    1.539427    0.680146
     10          6           0        2.003649    2.783584    0.180550
     11          6           0        1.415466    3.859991    0.920809
     12          6           0        0.543079    3.292561    1.900305
     13          6           0        0.594123    1.870433    1.759420
     14          6           0       -3.291391   -0.825603   -0.985103
     15          6           0       -4.314481   -1.097089    0.127879
     16          6           0       -2.586752    0.014145    1.579253
     17          6           0       -4.088995   -0.118144    1.292698
     18          6           0        3.307679   -0.762916    0.987995
     19          6           0        4.336892   -1.015139   -0.123896
     20          6           0        2.589729    0.062462   -1.577672
     21          6           0        4.093932   -0.041349   -1.289493
     22          1           0       -0.047860    1.167444   -2.343675
     23          1           0       -0.001615    3.846900   -2.594997
     24          1           0       -1.671635    4.885811   -0.741381
     25          1           0       -2.743777    2.846161    0.648888
     26          1           0        2.687965    2.897567   -0.647184
     27          1           0        0.023186    1.163204    2.341221
     28         17           0       -1.563949   -3.559532   -0.053679
     29         17           0        1.632329   -3.529715    0.051084
     30         46           0        0.018259   -1.837488   -0.000717
     31          1           0       -3.075034   -1.748822   -1.522706
     32          6           0       -3.805080    0.206257   -2.001425
     33          1           0       -2.371556    0.997445    1.995417
     34          6           0       -2.071888   -1.053453    2.552876
     35          1           0       -4.173627   -2.114948    0.494166
     36          1           0       -5.339057   -1.046644   -0.242300
     37          1           0       -4.476575    0.859114    1.000883
     38          1           0       -4.647368   -0.418226    2.180125
     39          1           0        1.574626    4.914207    0.744511
     40          1           0       -0.076086    3.840670    2.595890
     41          1           0       -3.048032    0.431474   -2.752836
     42          1           0       -4.091032    1.142993   -1.522862
     43          1           0       -4.681453   -0.170514   -2.528557
     44          1           0       -2.505801   -0.915689    3.543653
     45          1           0       -2.330864   -2.059414    2.223768
     46          1           0       -0.988233   -1.006008    2.661424
     47          1           0        3.108748   -1.689932    1.526054
     48          6           0        3.799278    0.280167    2.003696
     49          1           0        2.356183    1.041802   -1.993436
     50          6           0        2.096034   -1.013889   -2.552549
     51          1           0        4.216080   -2.035720   -0.489760
     52          1           0        5.359960   -0.944877    0.247517
     53          1           0        4.462654    0.943232   -0.997972
     54          1           0        4.658824   -0.331278   -2.176225
     55          1           0        4.682459   -0.078172    2.532176
     56          1           0        4.066642    1.221967    1.524199
     57          1           0        3.036874    0.490957    2.753885
     58          1           0        2.373593   -2.015069   -2.223903
     59          1           0        2.528180   -0.867346   -3.542703
     60          1           0        1.011784   -0.986635   -2.661927
 ---------------------------------------------------------------------
 Rotational constants (GHZ):      0.1494946      0.1449119      0.0925525
 General basis read from cards:  (6D, 7F)
 ======================================================================================================
                                       Pseudopotential Parameters
 ======================================================================================================
  Center     Atomic      Valence      Angular      Power
  Number     Number     Electrons     Momentum     of R      Exponent        Coefficient   SO-Coeffient
 ======================================================================================================
    1         26           16
                                      D and up 
                                                     1      392.6149787      -10.00000000    0.00000000
                                                     2       71.1756979      -63.26675180    0.00000000
                                                     2       17.7320281      -10.96133380    0.00000000
                                      S - D
                                                     0      126.0571895        3.00000000    0.00000000
                                                     1      138.1264251       18.17291370    0.00000000
                                                     2       54.2098858      339.12311640    0.00000000
                                                     2        9.2837966      317.10680120    0.00000000
                                                     2        8.6289082     -207.34216490    0.00000000
                                      P - D
                                                     0       83.1759490        5.00000000    0.00000000
                                                     1      106.0559938        5.95359300    0.00000000
                                                     2       42.8284937      294.26655270    0.00000000
                                                     2        8.7701805      154.42446350    0.00000000
                                                     2        8.0397818      -95.31642490    0.00000000
    2         15
                                   No pseudopotential on this center.
    3         15
                                   No pseudopotential on this center.
    4          6
                                   No pseudopotential on this center.
    5          6
                                   No pseudopotential on this center.
    6          6
                                   No pseudopotential on this center.
    7          6
                                   No pseudopotential on this center.
    8          6
                                   No pseudopotential on this center.
    9          6
                                   No pseudopotential on this center.
   10          6
                                   No pseudopotential on this center.
   11          6
                                   No pseudopotential on this center.
   12          6
                                   No pseudopotential on this center.
   13          6
                                   No pseudopotential on this center.
   14          6
                                   No pseudopotential on this center.
   15          6
                                   No pseudopotential on this center.
   16          6
                                   No pseudopotential on this center.
   17          6
                                   No pseudopotential on this center.
   18          6
                                   No pseudopotential on this center.
   19          6
                                   No pseudopotential on this center.
   20          6
                                   No pseudopotential on this center.
   21          6
                                   No pseudopotential on this center.
   22          1
                                   No pseudopotential on this center.
   23          1
                                   No pseudopotential on this center.
   24          1
                                   No pseudopotential on this center.
   25          1
                                   No pseudopotential on this center.
   26          1
                                   No pseudopotential on this center.
   27          1
                                   No pseudopotential on this center.
   28         17
                                   No pseudopotential on this center.
   29         17
                                   No pseudopotential on this center.
   30         46           18
                                      F and up 
                                                     0      598.3336444       -0.05631770    0.00000000
                                                     1      162.4298290      -20.12880360    0.00000000
                                                     2       51.5714771     -105.81979230    0.00000000
                                                     2       16.4888260      -42.57333450    0.00000000
                                                     2        5.8287656       -3.61650860    0.00000000
                                      S - F
                                                     0       73.3806304        3.00036510    0.00000000
                                                     1       14.7550438       32.43500930    0.00000000
                                                     2       17.8350204      459.08303830    0.00000000
                                                     2       12.7111477     -868.06290290    0.00000000
                                                     2        9.3292063      514.47260980    0.00000000
                                      P - F
                                                     0       55.6689877        4.95930990    0.00000000
                                                     1       64.2337771       21.17110290    0.00000000
                                                     2       17.6254952      605.05600920    0.00000000
                                                     2       11.9058155     -726.96418460    0.00000000
                                                     2        8.5100832      396.32748830    0.00000000
                                      D - F
                                                     0       49.9994728        3.05087450    0.00000000
                                                     1       39.7477547       22.25065800    0.00000000
                                                     2       11.4321366      674.83576980    0.00000000
                                                     2        9.1790080    -1040.85540480    0.00000000
                                                     2        7.5624429      505.93751470    0.00000000
   31          1
                                   No pseudopotential on this center.
   32          6
                                   No pseudopotential on this center.
   33          1
                                   No pseudopotential on this center.
   34          6
                                   No pseudopotential on this center.
   35          1
                                   No pseudopotential on this center.
   36          1
                                   No pseudopotential on this center.
   37          1
                                   No pseudopotential on this center.
   38          1
                                   No pseudopotential on this center.
   39          1
                                   No pseudopotential on this center.
   40          1
                                   No pseudopotential on this center.
   41          1
                                   No pseudopotential on this center.
   42          1
                                   No pseudopotential on this center.
   43          1
                                   No pseudopotential on this center.
   44          1
                                   No pseudopotential on this center.
   45          1
                                   No pseudopotential on this center.
   46          1
                                   No pseudopotential on this center.
   47          1
                                   No pseudopotential on this center.
   48          6
                                   No pseudopotential on this center.
   49          1
                                   No pseudopotential on this center.
   50          6
                                   No pseudopotential on this center.
   51          1
                                   No pseudopotential on this center.
   52          1
                                   No pseudopotential on this center.
   53          1
                                   No pseudopotential on this center.
   54          1
                                   No pseudopotential on this center.
   55          1
                                   No pseudopotential on this center.
   56          1
                                   No pseudopotential on this center.
   57          1
                                   No pseudopotential on this center.
   58          1
                                   No pseudopotential on this center.
   59          1
                                   No pseudopotential on this center.
   60          1
                                   No pseudopotential on this center.
 ======================================================================================================
 There are   518 symmetry adapted cartesian basis functions of A   symmetry.
 There are   518 symmetry adapted basis functions of A   symmetry.
   518 basis functions,  1053 primitive gaussians,   518 cartesian basis functions
   131 alpha electrons      131 beta electrons
       nuclear repulsion energy      4469.9799223076 Hartrees.
 NAtoms=   60 NActive=   60 NUniq=   60 SFac= 1.00D+00 NAtFMM=   60 NAOKFM=T Big=T
 Integral buffers will be    131072 words long.
 Raffenetti 2 integral format.
 Two-electron integral symmetry is turned on.
 Nuclear repulsion after empirical dispersion term =     4469.8691666365 Hartrees.
 Standard density basis: Auto (5D, 7F)
  2481 Density fitting functions
 There are  2481 symmetry adapted density basis functions of A   symmetry.
 One-electron integrals computed using PRISM.
   1 Symmetry operations used in ECPInt.
 ECPInt:  NShTT=   17766 NPrTT=  112280 LenC2=   15798 LenP2D=   56820.
 LDataN:  DoStor=T MaxTD1= 5 Len=  102
 NBasis=   518 RedAO= T EigKep=  7.87D-04  NBF=   518
 NBsUse=   518 1.00D-06 EigRej= -1.00D+00 NBFU=   518
 NBasis=      518 NBas6D=      518 NTT=      134421   NTT6D=   134421
 NDBShl=      495 NDBF=       2481 NDBF6D=     2993  NNucDB=        0
 IDenFi=        2 ISolve=        0 FullAP=F BlkAPC=T NucTyp=        0
 TolInv= 1.00D-06 TolIt=  1.00D-10 IR12=0.
 FoFCou: FMM=F IPFlag=           0 FMFlag=           0 FMFlg1=           0
         NFxFlg=           0 DoJE=F BraDBF=T KetDBF=T FulRan=T
         wScrn=  0.000000 ICntrl=     600 IOpCl=  3 I1Cent=           6 NGrid=           0
         NMat0=    1 NMatS0=   2993 NMatT0=    0 NMatD0=    1 NMtDS0=    0 NMtDT0=    0
 Petite list used in FoFCou.
 DBF EigKep=  1.34D-06 EigRej=  9.10D-07
 NDBF=   2481  NBFD=  2481
 NRank=  2479 NBFDU=  2479
 S*AI*S=  12.5929807761    
 Defaulting to unpruned grid for atomic number  46.
 ExpMin= 2.20D-02 ExpMax= 2.52D+04 ExpMxC= 3.78D+03 IAcc=3 IRadAn=         5 AccDes= 0.00D+00
 Harris functional with IExCor= 1009 and IRadAn=       5 diagonalized for initial guess.
 HarFok:  IExCor= 1009 AccDes= 0.00D+00 IRadAn=         5 IDoV= 1 UseB2=F ITyADJ=14
 ICtDFT=  3500011 ScaDFX=  1.000000  1.000000  1.000000  1.000000
 Defaulting to unpruned grid for atomic number  46.
 Defaulting to unpruned grid for atomic number  46.
 Defaulting to unpruned grid for atomic number  46.
 Defaulting to unpruned grid for atomic number  46.
 Defaulting to unpruned grid for atomic number  46.
 Defaulting to unpruned grid for atomic number  46.
 Defaulting to unpruned grid for atomic number  46.
 Defaulting to unpruned grid for atomic number  46.
 Defaulting to unpruned grid for atomic number  46.
 Defaulting to unpruned grid for atomic number  46.
 Defaulting to unpruned grid for atomic number  46.
 Defaulting to unpruned grid for atomic number  46.
 Defaulting to unpruned grid for atomic number  46.
 Defaulting to unpruned grid for atomic number  46.
 FoFCou: FMM=F IPFlag=           0 FMFlag=      100000 FMFlg1=        2001
         NFxFlg=           0 DoJE=T BraDBF=F KetDBF=T FulRan=T
         wScrn=  0.000000 ICntrl=     500 IOpCl=  0 I1Cent=   200000004 NGrid=           0
         NMat0=    1 NMatS0=      1 NMatT0=    0 NMatD0=    1 NMtDS0=    0 NMtDT0=    0
 Petite list used in FoFCou.
 Requested convergence on RMS density matrix=1.00D-08 within 500 cycles.
 Requested convergence on MAX density matrix=1.00D-06.
 Requested convergence on             energy=1.00D-06.
 No special actions if energy rises.
 FoFCou: FMM=F IPFlag=           0 FMFlag=      100000 FMFlg1=        2001
         NFxFlg=           0 DoJE=T BraDBF=T KetDBF=F FulRan=T
         wScrn=  0.000000 ICntrl=     500 IOpCl=  0 I1Cent=           5 NGrid=           0
         NMat0=    1 NMatS0=      1 NMatT0=    0 NMatD0=    1 NMtDS0=    0 NMtDT0=    0
 Symmetry not used in FoFCou.
 Defaulting to unpruned grid for atomic number  46.
 Defaulting to unpruned grid for atomic number  46.
 Defaulting to unpruned grid for atomic number  46.
 Defaulting to unpruned grid for atomic number  46.
 Defaulting to unpruned grid for atomic number  46.
 Defaulting to unpruned grid for atomic number  46.
 Defaulting to unpruned grid for atomic number  46.
 Defaulting to unpruned grid for atomic number  46.
 Defaulting to unpruned grid for atomic number  46.
 Defaulting to unpruned grid for atomic number  46.
 Defaulting to unpruned grid for atomic number  46.
 Defaulting to unpruned grid for atomic number  46.
 Defaulting to unpruned grid for atomic number  46.
 Defaulting to unpruned grid for atomic number  46.
 EnCoef did     2 forward-backward iterations
 EnCoef did   100 forward-backward iterations
 Problem detected with inexpensive integrals.
 Switching to full accuracy and repeating last cycle.
 EnCoef did   100 forward-backward iterations
 EnCoef did     4 forward-backward iterations
 EnCoef did     3 forward-backward iterations
 EnCoef did     5 forward-backward iterations
 EnCoef did     6 forward-backward iterations
 EnCoef did   100 forward-backward iterations
 EnCoef did     1 forward-backward iterations
 EnCoef did     7 forward-backward iterations
 EnCoef did   100 forward-backward iterations
 EnCoef did     6 forward-backward iterations
 EnCoef did     2 forward-backward iterations
 Restarting incremental Fock formation.
 SCF Done:  E(RPBE-PBE) =  -2709.29076131     A.U. after   31 cycles
            NFock= 31  Conv=0.77D-08     -V/T= 2.0577

 **********************************************************************

            Population analysis using the SCF density.

 **********************************************************************

 Orbital symmetries:
       Occupied  (A) (A) (A) (A) (A) (A) (A) (A) (A) (A) (A) (A)
                 (A) (A) (A) (A) (A) (A) (A) (A) (A) (A) (A) (A)
                 (A) (A) (A) (A) (A) (A) (A) (A) (A) (A) (A) (A)
                 (A) (A) (A) (A) (A) (A) (A) (A) (A) (A) (A) (A)
                 (A) (A) (A) (A) (A) (A) (A) (A) (A) (A) (A) (A)
                 (A) (A) (A) (A) (A) (A) (A) (A) (A) (A) (A) (A)
                 (A) (A) (A) (A) (A) (A) (A) (A) (A) (A) (A) (A)
                 (A) (A) (A) (A) (A) (A) (A) (A) (A) (A) (A) (A)
                 (A) (A) (A) (A) (A) (A) (A) (A) (A) (A) (A) (A)
                 (A) (A) (A) (A) (A) (A) (A) (A) (A) (A) (A) (A)
                 (A) (A) (A) (A) (A) (A) (A) (A) (A) (A) (A)
       Virtual   (A) (A) (A) (A) (A) (A) (A) (A) (A) (A) (A) (A)
                 (A) (A) (A) (A) (A) (A) (A) (A) (A) (A) (A) (A)
                 (A) (A) (A) (A) (A) (A) (A) (A) (A) (A) (A) (A)
                 (A) (A) (A) (A) (A) (A) (A) (A) (A) (A) (A) (A)
                 (A) (A) (A) (A) (A) (A) (A) (A) (A) (A) (A) (A)
                 (A) (A) (A) (A) (A) (A) (A) (A) (A) (A) (A) (A)
                 (A) (A) (A) (A) (A) (A) (A) (A) (A) (A) (A) (A)
                 (A) (A) (A) (A) (A) (A) (A) (A) (A) (A) (A) (A)
                 (A) (A) (A) (A) (A) (A) (A) (A) (A) (A) (A) (A)
                 (A) (A) (A) (A) (A) (A) (A) (A) (A) (A) (A) (A)
                 (A) (A) (A) (A) (A) (A) (A) (A) (A) (A) (A) (A)
                 (A) (A) (A) (A) (A) (A) (A) (A) (A) (A) (A) (A)
                 (A) (A) (A) (A) (A) (A) (A) (A) (A) (A) (A) (A)
                 (A) (A) (A) (A) (A) (A) (A) (A) (A) (A) (A) (A)
                 (A) (A) (A) (A) (A) (A) (A) (A) (A) (A) (A) (A)
                 (A) (A) (A) (A) (A) (A) (A) (A) (A) (A) (A) (A)
                 (A) (A) (A) (A) (A) (A) (A) (A) (A) (A) (A) (A)
                 (A) (A) (A) (A) (A) (A) (A) (A) (A) (A) (A) (A)
                 (A) (A) (A) (A) (A) (A) (A) (A) (A) (A) (A) (A)
                 (A) (A) (A) (A) (A) (A) (A) (A) (A) (A) (A) (A)
                 (A) (A) (A) (A) (A) (A) (A) (A) (A) (A) (A) (A)
                 (A) (A) (A) (A) (A) (A) (A) (A) (A) (A) (A) (A)
                 (A) (A) (A) (A) (A) (A) (A) (A) (A) (A) (A) (A)
                 (A) (A) (A) (A) (A) (A) (A) (A) (A) (A) (A) (A)
                 (A) (A) (A) (A) (A) (A) (A) (A) (A) (A) (A) (A)
                 (A) (A) (A) (A) (A) (A) (A) (A) (A) (A) (A) (A)
                 (A) (A) (A) (A) (A) (A) (A) (A) (A) (A) (A) (A)
                 (A) (A) (A) (A) (A) (A) (A) (A) (A) (A) (A) (A)
                 (A) (A) (A) (A) (A) (A) (A) (A) (A) (A) (A) (A)
                 (A) (A) (A) (A) (A) (A) (A) (A) (A) (A) (A) (A)
                 (A) (A) (A) (A) (A) (A) (A) (A) (A) (A) (A) (A)
                 (A) (A) (A) (A) (A) (A) (A) (A) (A) (A) (A) (A)
                 (A) (A) (A)
 The electronic state is 1-A.
 Alpha  occ. eigenvalues -- -100.59740-100.59731 -76.36942 -76.36939  -9.94442
 Alpha  occ. eigenvalues --   -9.94439  -9.93706  -9.93696  -9.93596  -9.93591
 Alpha  occ. eigenvalues --   -9.93562  -9.93554  -9.93466  -9.93456  -9.92409
 Alpha  occ. eigenvalues --   -9.92408  -9.91544  -9.91518  -9.90797  -9.90789
 Alpha  occ. eigenvalues --   -9.89958  -9.89942  -9.89574  -9.89557  -9.88724
 Alpha  occ. eigenvalues --   -9.88719  -9.09271  -9.09262  -6.91594  -6.91586
 Alpha  occ. eigenvalues --   -6.90872  -6.90864  -6.90822  -6.90813  -6.34918
 Alpha  occ. eigenvalues --   -6.34912  -4.56785  -4.56780  -4.56624  -4.56618
 Alpha  occ. eigenvalues --   -4.56424  -4.56418  -3.29244  -3.19912  -2.14428
 Alpha  occ. eigenvalues --   -2.10222  -2.10079  -1.96769  -1.96698  -1.92789
 Alpha  occ. eigenvalues --   -0.84315  -0.82584  -0.77284  -0.77240  -0.70595
 Alpha  occ. eigenvalues --   -0.70568  -0.67939  -0.67781  -0.67002  -0.66919
 Alpha  occ. eigenvalues --   -0.65373  -0.65099  -0.64898  -0.64220  -0.60286
 Alpha  occ. eigenvalues --   -0.60243  -0.59346  -0.59330  -0.52367  -0.51753
 Alpha  occ. eigenvalues --   -0.51481  -0.51128  -0.50887  -0.50225  -0.50115
 Alpha  occ. eigenvalues --   -0.49975  -0.46816  -0.46657  -0.43342  -0.43332
 Alpha  occ. eigenvalues --   -0.42780  -0.42475  -0.40559  -0.39667  -0.39078
 Alpha  occ. eigenvalues --   -0.38468  -0.38292  -0.37545  -0.37448  -0.37140
 Alpha  occ. eigenvalues --   -0.36837  -0.36474  -0.36419  -0.36314  -0.36222
 Alpha  occ. eigenvalues --   -0.35844  -0.35537  -0.34712  -0.34277  -0.33735
 Alpha  occ. eigenvalues --   -0.33518  -0.33372  -0.31133  -0.30737  -0.30477
 Alpha  occ. eigenvalues --   -0.30109  -0.29910  -0.29865  -0.29586  -0.29530
 Alpha  occ. eigenvalues --   -0.28954  -0.28928  -0.27908  -0.27857  -0.26967
 Alpha  occ. eigenvalues --   -0.26937  -0.26908  -0.25238  -0.24887  -0.24150
 Alpha  occ. eigenvalues --   -0.23684  -0.23385  -0.23164  -0.19339  -0.18971
 Alpha  occ. eigenvalues --   -0.18779  -0.18701  -0.18412  -0.18362  -0.18104
 Alpha  occ. eigenvalues --   -0.17818
 Alpha virt. eigenvalues --   -0.09849  -0.07493  -0.07461  -0.03156  -0.01970
 Alpha virt. eigenvalues --   -0.01716  -0.00954  -0.00749   0.00073   0.00831
 Alpha virt. eigenvalues --    0.00881   0.01255   0.02519   0.02609   0.03655
 Alpha virt. eigenvalues --    0.04132   0.04324   0.04596   0.06796   0.06985
 Alpha virt. eigenvalues --    0.07484   0.08212   0.08434   0.09166   0.09197
 Alpha virt. eigenvalues --    0.09799   0.10373   0.10459   0.10868   0.11776
 Alpha virt. eigenvalues --    0.11900   0.12176   0.12632   0.12885   0.13080
 Alpha virt. eigenvalues --    0.13393   0.13920   0.14310   0.14598   0.14826
 Alpha virt. eigenvalues --    0.15266   0.15274   0.15798   0.15937   0.15982
 Alpha virt. eigenvalues --    0.16476   0.17091   0.17313   0.17535   0.17778
 Alpha virt. eigenvalues --    0.17831   0.18582   0.18862   0.18991   0.19148
 Alpha virt. eigenvalues --    0.19394   0.19664   0.20144   0.20570   0.20901
 Alpha virt. eigenvalues --    0.21201   0.21518   0.21627   0.22270   0.23117
 Alpha virt. eigenvalues --    0.23511   0.24596   0.25259   0.25646   0.26005
 Alpha virt. eigenvalues --    0.28045   0.28703   0.28726   0.29595   0.30797
 Alpha virt. eigenvalues --    0.31259   0.32162   0.32294   0.34374   0.34684
 Alpha virt. eigenvalues --    0.36046   0.37778   0.39612   0.39969   0.40753
 Alpha virt. eigenvalues --    0.41886   0.42286   0.42968   0.43710   0.44089
 Alpha virt. eigenvalues --    0.44877   0.46112   0.47205   0.47571   0.47915
 Alpha virt. eigenvalues --    0.48684   0.48782   0.49866   0.50388   0.50544
 Alpha virt. eigenvalues --    0.50569   0.50972   0.52167   0.52352   0.52903
 Alpha virt. eigenvalues --    0.53562   0.53602   0.54415   0.55520   0.55852
 Alpha virt. eigenvalues --    0.56754   0.56926   0.57288   0.57966   0.58059
 Alpha virt. eigenvalues --    0.59471   0.60453   0.60624   0.60817   0.61618
 Alpha virt. eigenvalues --    0.62128   0.63159   0.63200   0.63500   0.64106
 Alpha virt. eigenvalues --    0.64861   0.64978   0.65582   0.65907   0.66420
 Alpha virt. eigenvalues --    0.67705   0.67933   0.68277   0.69942   0.70063
 Alpha virt. eigenvalues --    0.70583   0.70851   0.71765   0.72017   0.72233
 Alpha virt. eigenvalues --    0.72576   0.72965   0.74164   0.74518   0.75221
 Alpha virt. eigenvalues --    0.75346   0.75999   0.76718   0.76789   0.76931
 Alpha virt. eigenvalues --    0.77405   0.78511   0.79108   0.79306   0.79784
 Alpha virt. eigenvalues --    0.80207   0.80238   0.80989   0.81911   0.82143
 Alpha virt. eigenvalues --    0.82179   0.83343   0.83794   0.83838   0.84432
 Alpha virt. eigenvalues --    0.84545   0.85434   0.85730   0.85816   0.86257
 Alpha virt. eigenvalues --    0.86405   0.86978   0.88171   0.88476   0.88575
 Alpha virt. eigenvalues --    0.89563   0.90068   0.90631   0.90962   0.91876
 Alpha virt. eigenvalues --    0.92295   0.92318   0.92511   0.93189   0.93282
 Alpha virt. eigenvalues --    0.93869   0.94089   0.94615   0.94678   0.95324
 Alpha virt. eigenvalues --    0.95903   0.96040   0.96326   0.97008   0.98409
 Alpha virt. eigenvalues --    0.98907   0.99227   0.99411   0.99431   1.00388
 Alpha virt. eigenvalues --    1.01258   1.01705   1.02241   1.03219   1.03361
 Alpha virt. eigenvalues --    1.05285   1.06170   1.06944   1.07469   1.07643
 Alpha virt. eigenvalues --    1.08817   1.09230   1.09919   1.10280   1.10682
 Alpha virt. eigenvalues --    1.12449   1.13123   1.13432   1.14298   1.16323
 Alpha virt. eigenvalues --    1.17307   1.19461   1.20221   1.21135   1.22262
 Alpha virt. eigenvalues --    1.22799   1.25036   1.26149   1.27437   1.28187
 Alpha virt. eigenvalues --    1.29379   1.30000   1.30881   1.31462   1.33319
 Alpha virt. eigenvalues --    1.36018   1.37928   1.38943   1.39460   1.41831
 Alpha virt. eigenvalues --    1.41984   1.43294   1.44100   1.44595   1.45965
 Alpha virt. eigenvalues --    1.47099   1.49248   1.49959   1.51674   1.51986
 Alpha virt. eigenvalues --    1.55030   1.56953   1.57376   1.61960   1.63646
 Alpha virt. eigenvalues --    1.65185   1.66408   1.67414   1.68605   1.68679
 Alpha virt. eigenvalues --    1.69527   1.71327   1.72518   1.73836   1.74568
 Alpha virt. eigenvalues --    1.75666   1.76283   1.77757   1.78022   1.81116
 Alpha virt. eigenvalues --    1.81622   1.82323   1.82531   1.85431   1.85648
 Alpha virt. eigenvalues --    1.85841   1.86047   1.86658   1.87916   1.88799
 Alpha virt. eigenvalues --    1.91655   1.92604   1.93273   1.93372   1.93660
 Alpha virt. eigenvalues --    1.95049   1.95440   1.95947   1.96741   1.97356
 Alpha virt. eigenvalues --    1.97426   1.98341   1.99031   2.01126   2.01554
 Alpha virt. eigenvalues --    2.04392   2.05810   2.06208   2.06658   2.07843
 Alpha virt. eigenvalues --    2.08453   2.10349   2.10863   2.13673   2.14141
[...]
 54,0.00001924,-0.00001281,-0.00002198,-0.00000936,-0.00001717,0.000012
 03,-0.00001755,-0.00000124,0.00001227,0.00001513,0.00000013,-0.0000009
 9,0.00000606,-0.00001178,0.00000527,0.00001344,-0.00000024,0.00000038,
 0.00000932,-0.00000929,-0.00000063,0.00000549,0.00000024,0.00000337,-0
 .00000374,-0.00000449,0.00001687,0.00000633,-0.00000904,0.00000390,-0.
 00000025,-0.00001299,0.00001719,0.00001518,-0.00001284,-0.00000537,-0.
 00002056,0.00000325,0.00000982,0.00001401,0.00000880,0.00002127,0.0000
 7787,0.00007911,0.00008329,-0.00018540,0.00008484,0.00002832,0.0003273
 0,-0.00127521,-0.00123623,-0.05820060,0.05384373,-0.01861892,-0.000490
 66,0.00025435,-0.00078379,-0.00001603,0.00011021,0.00019775,0.00001616
 ,0.00025354,0.00017217,-0.00012377,-0.00006786,0.00017744,-0.00002401,
 -0.00001776,-0.00004844,0.00001075,-0.00003309,-0.00001453,0.00000586,
 0.00003152,0.00005045,0.06107215,0.00000649,0.00005515,-0.00003411,-0.
 00001660,-0.00004926,0.00004435,-0.00010315,-0.00056890,0.00040756,0.0
 0005651,-0.00001896,-0.00001194,0.00001800,0.00004270,0.00001369,-0.00
 002866,0.00001915,0.00002846,0.00000336,0.00000772,-0.00001057,0.00000
 461,-0.00000796,0.00000837,0.00002493,-0.00011729,0.00006406,-0.000069
 70,-0.00006111,0.00002564,-0.00003519,0.00008293,-0.00002849,0.0000153
 5,-0.00001687,-0.00001979,0.00000885,0.00003042,-0.00002931,-0.0000024
 4,-0.00002811,-0.00002107,0.00000403,-0.00000024,0.00000961,0.00000711
 ,0.00001385,0.00000374,-0.00000193,0.00000648,-0.00000215,0.00017998,0
 .00005675,-0.00015213,-0.00012397,-0.00031789,-0.00012209,0.00485445,-
 0.01936708,0.00453715,0.00059184,0.00041105,0.00047479,-0.00004361,-0.
 00008472,-0.00007414,-0.00000987,0.00001045,-0.00000711,-0.00000155,-0
 .00000138,-0.00000051,-0.00000059,0.00000055,-0.00000333,0.00009094,0.
 00008572,0.00000683,0.00001172,0.00000036,-0.00000084,-0.00000952,-0.0
 0000594,-0.00001639,-0.00040045,-0.00150024,0.00132395,0.00010050,0.00
 012084,-0.00021478,-0.00000208,0.00000754,-0.00000480,0.00001434,0.000
 01352,-0.00000558,0.00000108,0.00000407,0.00000305,-0.00000271,-0.0000
 0950,0.00000956,0.00000211,-0.00000179,0.00000096,0.00000665,0.0000016
 5,-0.00000202,-0.00000258,-0.00000044,0.00000085,0.00000372,0.00000121
 ,-0.00000168,0.00000015,-0.00000110,0.00000189,0.00001476,0.00000345,-
 0.00000312,-0.00000024,-0.00000591,0.00000097,-0.00000591,0.00000002,0
 .00000082,0.00000341,-0.00000200,0.00000455,0.00000133,0.00000217,-0.0
 0000336,-0.00000394,0.00000736,0.00000302,0.00000564,0.00001229,0.0000
 0511,0.00000188,0.00004559,-0.00000590,-0.00013372,0.00002542,0.000051
 62,-0.00127045,-0.00155231,-0.00298528,0.05517564,-0.26727154,0.078527
 03,-0.00007877,0.00068640,-0.00018695,-0.00000968,0.00022311,0.0000681
 3,0.00004066,0.00020094,0.00011721,-0.00033897,-0.00005997,0.00004159,
 -0.00000299,-0.00001399,-0.00002308,0.00001335,-0.00001774,-0.00000373
 ,0.00000276,0.00002648,0.00005335,-0.05867108,0.29063697,0.00010274,0.
 00012477,-0.00011018,0.00011038,-0.00023391,0.00002626,0.00007641,-0.0
 0193625,0.00096556,-0.00013733,0.00006868,0.00004362,-0.00002286,-0.00
 002037,0.00008253,0.00000474,0.00004303,0.00000333,-0.00000024,0.00001
 746,0.00001303,0.00002257,-0.00001432,-0.00008233,0.00012504,0.0000484
 6,0.00008349,-0.00012587,-0.00017120,0.00004126,-0.00003479,0.00013312
 ,-0.00006229,0.00004159,-0.00002963,-0.00002195,0.00001760,0.00000208,
 -0.00005209,-0.00001214,0.00011212,0.00005175,-0.00002119,0.00000900,-
 0.00002638,-0.00006782,0.00004890,-0.00004560,0.00000274,-0.00000293,0
 .00003461,0.00008331,0.00001822,-0.00007157,-0.00016226,-0.00029583,-0
 .00025490,0.00643825,-0.02243456,0.00698563,0.00040106,0.00048097,0.00
 077076,-0.00009954,0.00000854,-0.00008776,-0.00000668,0.00001539,-0.00
 001126,0.00001017,0.00000676,-0.00000438,0.00000196,-0.00000627,-0.000
 00179,0.00012853,0.00015294,-0.00001653,0.00001111,-0.00001295,-0.0000
 1831,-0.00000575,-0.00004313,-0.00002245,-0.00032583,0.00095597,-0.000
 74093,0.00058515,-0.00021104,-0.00034693,0.00001387,-0.00000864,0.0000
 2652,-0.00002755,-0.00003247,0.00000578,-0.00001705,0.00000605,0.00002
 076,0.00002324,0.00000998,-0.00001204,0.00001772,0.00000428,-0.0000022
 3,-0.00001878,-0.00000169,0.00000522,-0.00000668,0.00000539,-0.0000074
 9,-0.00001762,-0.00000044,0.00000104,-0.00000455,0.00000629,0.00000132
 ,0.00001380,0.00000525,-0.00000976,0.00000960,0.00000545,-0.00000311,-
 0.00000514,0.00000433,-0.00000100,-0.00001284,0.00001252,-0.00001453,-
 0.00001094,0.00000603,0.00000673,0.00000986,-0.00000269,-0.00001135,-0
 .00000067,-0.00001762,-0.00001778,-0.00004040,-0.00003348,-0.00008128,
 -0.00000187,0.00000984,-0.00002486,-0.00144611,-0.00408529,-0.00309932
 ,-0.02012197,0.08108232,-0.07392627,-0.00077889,0.00007136,-0.00047368
 ,0.00006211,0.00021194,0.00007580,0.00012647,0.00015301,0.00000782,-0.
 00005157,0.00031523,0.00001509,0.00000047,0.00001254,0.00000889,0.0000
 2319,0.00004427,0.00002514,-0.00000221,0.00001037,0.00001513,0.0229019
 6,-0.08236447,0.08059587,0.00005713,0.00006107,-0.00002143,0.00024761,
 -0.00025510,0.00007566,-0.00019428,-0.00121029,-0.00060136,-0.00005405
 ,0.00004060,-0.00001342,-0.00000284,0.00002431,-0.00004962,-0.00003756
 ,-0.00001324,0.00005204,-0.00000887,0.00005153,0.00001882,0.00000874,-
 0.00000813,-0.00004547,0.00034051,0.00022837,-0.00046092,-0.00003758,0
 .00004825,0.00006716,-0.00000418,0.00001908,-0.00000335,0.00005398,0.0
 0001208,-0.00003428,0.00000325,-0.00017633,-0.00001243,0.00000970,0.00
 005207,0.00001370,-0.00000377,0.00000897,-0.00001531,-0.00003205,0.000
 03562,-0.00004974,-0.00000237,-0.00000079,0.00003505,-0.00010292,0.000
 48045,-0.00000006,-0.00008430,0.00020332,-0.00010756,0.00234968,0.0007
 2680,-0.00752494,0.00134267,0.00007795,-0.00107362,0.00001178,-0.00023
 166,0.00012206,0.00000511,0.00003461,0.00000566,0.00000331,0.00000703,
 0.00000596,0.00000153,-0.00000143,0.00000094,0.00001081,-0.00000366,0.
 00001759,-0.00000584,-0.00000429,-0.00000988,-0.00006220,-0.00006223,-
 0.00000021,0.00020226,-0.00001694,-0.00002091,-0.00021080,0.00013491,0
 .00022925,0.00002517,0.00000267,0.00001459,-0.00002767,-0.00002336,0.0
 0000582,-0.00001816,0.00000794,0.00001787,0.00000339,0.00001322,0.0000
 0293,0.00001047,-0.00000334,-0.00000379,-0.00001675,-0.00000041,0.0000
 0222,-0.00000566,0.00000803,-0.00000225,-0.00001549,-0.00000014,0.0000
 0012,-0.00000602,0.00000630,0.00000003,-0.00000384,-0.00001385,0.00000
 337,0.00001507,-0.00000147,0.00000528,-0.00000140,0.00000611,-0.000001
 29,-0.00001533,0.00000660,-0.00000864,-0.00001797,0.00000766,0.0000106
 0,0.00001491,-0.00000098,-0.00001081,-0.00000864,-0.00000982,-0.000020
 41,-0.00009745,0.00000725,-0.00006108,0.00012322,-0.00006886,0.0000499
 6,0.00014490,0.00043326,0.00034333,-0.10628505,-0.02200716,0.10578299,
 -0.00003187,-0.00003043,-0.00000279,0.00000598,-0.00001667,-0.00002931
 ,0.00013102,0.00006985,0.00010381,-0.00009826,-0.00006375,0.00027245,0
 .00000928,0.00003045,0.00003526,0.00000521,-0.00000261,-0.00000057,-0.
 00000505,0.00000277,0.00001162,0.00326171,0.00078345,-0.00742473,0.112
 03101,0.00004898,-0.00009380,0.00014119,-0.00000181,-0.00015775,0.0000
 4913,-0.00165417,-0.00284211,-0.00141362,-0.00007199,0.00006967,-0.000
 00475,-0.00001313,-0.00002528,-0.00001563,-0.00000161,-0.00000651,-0.0
 0001682,0.00000820,-0.00000441,0.00000444,0.00000653,-0.00001139,-0.00
 002725,0.00049753,0.00034835,-0.00124944,0.00008470,0.00020150,-0.0000
 3079,0.00001242,-0.00001061,-0.00000910,0.00012733,-0.00000140,-0.0000
 8442,-0.00016634,-0.00038506,0.00001977,-0.00000786,0.00005008,0.00001
 206,0.00000171,0.00000267,-0.00000478,-0.00002804,0.00002700,-0.000029
 74,-0.00000202,-0.00000364,0.00002106,0.00042365,0.00026383,-0.0006353
 9,0.00023430,-0.00016482,0.00003938,0.00998047,0.00148568,-0.02128414,
 0.00109730,0.00052066,0.00028648,0.00000604,0.00007413,-0.00005916,0.0
 0001071,-0.00002101,0.00000167,0.00000550,0.00000336,0.00000273,0.0000
 0446,-0.00000248,0.00000426,-0.00001395,-0.00001165,0.00000395,-0.0000
 0966,0.00000037,-0.00000794,0.00001036,0.00000645,0.00000084,-0.000312
 00,-0.00036339,0.00102306,0.00022182,-0.00006608,0.00001291,0.00001732
 ,-0.00000065,0.00001045,-0.00000829,-0.00000905,-0.00000068,-0.0000153
 1,0.00001304,0.00001630,-0.00000296,0.00000924,0.00000174,0.00000525,0
 .00000027,-0.00000101,-0.00000713,0.00000118,0.00000109,-0.00000355,0.
 00000466,-0.00000148,-0.00000959,0.00000080,0.00000037,0.00000667,-0.0
 0000993,-0.00000048,0.00001428,-0.00005217,0.00001534,0.00000367,-0.00
 000449,-0.00000110,-0.00000477,0.00000570,0.00000018,-0.00000613,0.000
 00524,-0.00000433,-0.00000822,0.00000396,0.00000539,0.00001316,0.00000
 245,-0.00000630,0.00000059,-0.00001168,-0.00000945,-0.00024966,-0.0000
 2264,-0.00017332,-0.00005875,0.00011885,-0.00002556,0.00054892,0.00102
 363,0.00053625,-0.02251221,-0.05310097,0.04128444,-0.00012883,0.000060
 76,0.00009235,-0.00000099,0.00006856,0.00006845,0.00025248,-0.00003046
 ,0.00019994,-0.00021786,0.00028522,0.00036650,-0.00005037,-0.00003778,
 -0.00002438,0.00001362,-0.00001117,0.00001062,0.00000339,0.00000336,0.
 00002300,-0.01579834,-0.00196166,0.02306441,0.02646766,0.05596168,0.00
 006204,-0.00018211,0.00017069,-0.00022978,0.00004412,0.00001124,-0.001
 24399,-0.00281809,0.00064537,0.00004489,0.00001697,-0.00003641,-0.0000
 0056,0.00002406,-0.00003678,-0.00001566,-0.00000880,-0.00001331,0.0000
 0889,-0.00001728,-0.00001768,-0.00000289,-0.00000943,0.00002042,0.0004
 0385,0.00051706,-0.00134674,0.00007613,0.00018442,-0.00009726,0.000022
 49,-0.00004590,-0.00000550,0.00014808,-0.00001057,-0.00008695,-0.00029
 110,-0.00040802,0.00004598,-0.00000514,-0.00003684,-0.00003126,0.00001
 266,-0.00000517,0.00002254,0.00003477,-0.00001709,0.00001311,-0.000008
 75,0.00000450,-0.00001383,0.00033841,0.00001194,-0.00018743,-0.0001573
 5,0.00030129,-0.00005962,0.00906195,0.00198962,-0.02009224,0.00173705,
 0.00039262,0.00043694,0.00000362,-0.00002541,-0.00005851,-0.00000069,-
 0.00002066,-0.00000090,-0.00000184,-0.00000513,0.00000177,0.00000335,0
 .00000451,0.00000429,0.00001713,-0.00000461,0.00001455,-0.00000196,0.0
 0000886,0.00000429,0.00011734,0.00011035,0.00004173,0.00012664,0.00013
 438,-0.00021622,-0.00001284,0.00001152,-0.00022856,-0.00000118,0.00001
 056,-0.00001547,0.00003367,0.00002706,-0.00001144,-0.00000239,0.000004
 67,0.00000462,-0.00000573,0.00000390,0.00000484,-0.00001118,0.00000149
 ,0.00000528,0.00001724,0.00000215,-0.00000297,-0.00000003,-0.00000493,
 0.00000169,0.00001246,0.00000270,-0.00000304,0.00001885,-0.00002168,0.
 00000055,0.00002112,-0.00005748,0.00002095,-0.00000819,-0.00001071,-0.
 00000356,-0.00001168,-0.00000342,0.00000389,0.00001382,-0.00000362,0.0
 0001066,0.00001067,-0.00000506,-0.00001050,-0.00000537,0.00000321,0.00
 000671,0.00000831,-0.00000507,0.00001191,-0.00016827,0.00001969,0.0000
 1676,-0.00014211,0.00012707,0.00001664,0.00001299,-0.00000048,0.000982
 23,0.10610811,0.04137437,-0.22793638,0.00006500,-0.00002231,-0.0000588
 4,-0.00004887,-0.00005493,0.00000361,-0.00007672,0.00008143,0.00050036
 ,-0.00128182,0.00008914,0.00022286,-0.00006143,-0.00003311,-0.00004625
 ,0.00002696,-0.00003551,-0.00002090,0.00001320,-0.00000209,0.00004658,
 0.00473832,0.00040442,-0.00780105,-0.11616466,-0.04094861,0.24924334,0
 .00008282,0.00003573,0.00017127,0.00003553,-0.00002805,0.00010311,-0.0
 0026415,-0.00020705,0.00051622,0.00006814,0.00011233,-0.00006355,0.000
 01654,0.00010329,-0.00009894,-0.00011743,-0.00007105,0.00011588,0.0000
 1365,0.00004429,-0.00000856,-0.00003484,-0.00000702,0.00004837,0.00025
 497,0.00011073,-0.00015834,-0.00001626,-0.00001308,0.00002250,-0.00001
 663,0.00005016,0.00001257,0.00004951,0.00001367,-0.00001739,-0.0000526
 0,-0.00008950,0.00000481,0.00002696,0.00000798,0.00001352,0.00002148,0
 .00000859,-0.00000240,-0.00000833,0.00000066,-0.00001865,-0.00000897,-
 0.00000322,0.00002157,-0.00010619,0.00037424,-0.00009880,0.00022671,-0
 .00022901,0.00033886,-0.00576957,0.00111251,-0.00048774,0.00050912,-0.
 00179714,-0.00078691,0.00016701,-0.00019814,-0.00007634,0.00000052,-0.
 00001749,-0.00000214,-0.00001024,0.00000361,0.00001815,-0.00000146,0.0
 0001198,0.00001138,-0.00000811,0.00005453,-0.00002723,-0.00000727,0.00
 000018,-0.00000551,0.00003156,0.00002953,0.00006723,0.00032313,-0.0000
 1937,0.00003316,-0.00029516,0.00004322,-0.00053069,-0.00001360,0.00001
 019,-0.00001062,0.00000804,-0.00001167,-0.00002485,-0.00000300,0.00000
 086,0.00000103,-0.00001392,0.00000867,0.00000130,-0.00000744,-0.000004
 75,0.00000468,0.00000009,-0.00000048,-0.00000228,0.00000350,-0.0000019
 7,-0.00000570,-0.00000790,0.00000022,0.00000238,-0.00000173,0.00000242
 ,-0.00000246,0.00000018,-0.00000841,0.00000119,-0.00000370,0.00000006,
 0.00000600,0.00000150,0.00000129,0.00000821,0.00000113,-0.00000147,0.0
 0000285,-0.00000886,-0.00000057,0.00000819,0.00001434,-0.00000559,-0.0
 0000110,-0.00000283,0.00000179,-0.00000378,0.00000207,-0.00002658,-0.0
 0006653,0.00013324,-0.00008824,-0.00002673,0.00035195,-0.00033171,0.00
 004689,-0.29257261,0.00667170,-0.04523175,0.00003717,-0.00005217,0.000
 07587,0.00002282,-0.00003886,-0.00009390,-0.00044118,0.00011120,-0.000
 43476,0.00062336,0.00010497,-0.00008102,0.00001514,0.00002596,0.000024
 13,-0.00001105,0.00004195,0.00001863,-0.00000344,-0.00000402,-0.000046
 36,-0.00743143,-0.00067921,-0.00035382,-0.01293119,0.00123652,-0.00335
 783,0.31712887,-0.00001202,0.00003107,0.00027943,-0.00005435,0.0004347
 4,-0.00010593,-0.00018300,0.00046912,0.00011328,0.00003811,0.00013166,
 -0.00009789,0.00033711,-0.00041503,-0.00047735,-0.00019301,-0.00012842
 ,0.00009876,0.00000794,0.00005222,0.00000717,-0.00006803,0.00003334,0.
 00014871,-0.00003270,-0.00007589,0.00008430,-0.00000887,-0.00000158,-0
 .00002744,0.00000621,-0.00000595,0.00003454,-0.00001829,0.00000380,0.0
 0001014,0.00000438,0.00002373,0.00001911,-0.00000078,-0.00004098,0.000
 00272,-0.00000528,-0.00002093,-0.00000524,0.00002303,-0.00004782,0.000
 00321,0.00001205,-0.00000271,-0.00000952,-0.00000991,0.00009047,0.0000
 2083,-0.00023230,-0.00050692,0.00003618,-0.02254245,-0.00009322,-0.004
 31479,-0.00007521,-0.00310379,-0.00292092,0.00034156,-0.00044186,-0.00
 012043,0.00000836,-0.00002382,0.00000090,-0.00001429,0.00000595,0.0000
 3409,0.00000331,0.00003396,0.00002575,-0.00005162,0.00001570,-0.000026
 87,-0.00000878,0.00001024,0.00001474,0.00006613,-0.00000122,-0.0001419
 9,-0.00033342,0.00007038,-0.00018565,0.00010902,-0.00019354,0.00014835
 ,-0.00004447,-0.00001053,-0.00000605,0.00002619,0.00001208,-0.00002292
 ,0.00001032,-0.00000712,-0.00001850,-0.00002206,0.00000630,0.00001621,
 -0.00001870,-0.00000471,0.00001508,0.00000143,-0.00000119,-0.00000030,
 0.00001091,-0.00000525,0.00000495,0.00000074,-0.00000446,-0.00000107,0
 .00000301,-0.00000260,-0.00000433,-0.00000459,0.00000218,-0.00000034,0
 .00000848,0.00001283,0.00001591,0.00001789,-0.00001125,-0.00000277,-0.
 00001350,-0.00001029,0.00001087,0.00001001,-0.00001156,0.00000511,-0.0
 0000888,0.00001188,0.00001778,-0.00000191,0.00000376,0.00000837,0.0000
 5741,0.00000078,-0.00002083,-0.00002990,-0.00002418,0.00005640,0.00001
 207,0.00078684,0.00080022,0.00700638,-0.04325671,0.00116560,-0.0000823
 7,0.00030853,-0.00023193,-0.00000483,0.00024153,-0.00007386,-0.0012345
 2,-0.00000656,-0.00056106,0.00026069,-0.00020083,0.00007541,0.00000380
 ,0.00000395,-0.00000024,-0.00001437,0.00002715,0.00001544,0.00000858,0
 .00002997,-0.00000149,0.02920180,0.00020159,0.00467189,-0.00587331,-0.
 00119833,-0.00108395,-0.00639920,0.04680352,0.00011843,0.00009288,-0.0
 0001210,0.00033160,-0.00027048,0.00014399,-0.00199781,-0.00038147,0.00
 028981,-0.00009943,0.00007239,-0.00002815,0.00003301,-0.00000919,-0.00
 016701,-0.00008568,-0.00002057,0.00006200,-0.00000499,0.00006303,0.000
 02672,0.00000353,-0.00001613,-0.00003688,0.00023446,0.00007225,0.00008
 481,-0.00007511,-0.00000393,0.00010586,-0.00000630,0.00007725,-0.00001
 447,0.00000750,-0.00000276,-0.00000348,0.00000926,-0.00001042,0.000014
 83,0.00000539,0.00007841,0.00004358,-0.00001733,0.00001541,-0.00001891
 ,-0.00004704,0.00003643,-0.00008552,-0.00000138,-0.00000591,0.00005529
 ,-0.00009169,0.00016554,0.00008042,0.00000102,-0.00004058,0.00040776,-
 0.02125338,0.00152483,-0.00616861,0.00054129,-0.00399609,-0.00249736,0
 .00013909,-0.00039620,0.00016553,0.00001226,0.00003118,0.00000330,0.00
 000503,0.00000934,0.00000939,0.00000231,0.00000340,0.00000645,0.000001
 91,0.00004982,-0.00003111,0.00000342,-0.00001855,-0.00002588,-0.000136
 52,-0.00009445,-0.00001639,0.00040628,-0.00016221,0.00006928,0.0002356
 6,0.00025642,-0.00001311,0.00000260,-0.00000587,0.00000983,-0.00004323
 ,-0.00005153,0.00001282,-0.00002360,0.00001128,0.00001956,-0.00000335,
 0.00001999,0.00001390,0.00001650,0.00000323,-0.00000781,-0.00002215,-0
 .00000231,0.00000318,-0.00000537,0.00000864,-0.00000581,-0.00002697,0.
 00000041,-0.00000095,-0.00001010,0.00000919,0.00000014,-0.00000560,0.0
 0000911,-0.00000533,0.00000825,0.00001921,0.00000571,0.00000342,0.0000
 0268,-0.00000170,-0.00001977,0.00001068,-0.00001487,-0.00002056,0.0000
 0885,0.00001200,0.00002132,-0.00000445,-0.00001769,-0.00000360,-0.0000
 0815,-0.00004610,-0.00000244,-0.00002801,-0.00006802,0.00015110,-0.000
 10845,0.00001514,0.00054494,0.00032347,0.00080345,-0.04406625,0.001186
 02,-0.05200096,0.00011117,-0.00006799,0.00003430,0.00001327,0.00008267
 ,-0.00007062,-0.00144618,0.00002559,-0.00034230,-0.00006763,0.00001180
 ,0.00015365,0.00002160,0.00002038,0.00004669,-0.00001477,0.00005294,0.
 00002580,0.00000487,0.00000249,-0.00005147,-0.01028763,0.00009637,-0.0
 0244955,0.02646870,-0.00125009,0.00590322,0.05042668,0.00250218,0.0555
 7376\\0.00000039,-0.00003929,-0.00000185,0.00002799,0.00000131,-0.0000
 0574,-0.00002731,-0.00000022,0.00000475,-0.00001082,0.00000556,-0.0000
 3139,-0.00000863,0.00000008,0.00000327,-0.00001078,0.00001434,0.000000
 55,-0.00000316,-0.00000342,0.00000206,-0.00000245,0.00000833,-0.000002
 68,0.00001040,0.00000613,0.00002946,0.00000408,0.00000813,0.00000603,0
 .00000348,-0.00000363,-0.00000152,0.00001146,0.00001442,0.00000014,0.0
 0000656,0.00000063,-0.00000319,-0.00002462,0.00000124,-0.00000201,0.00
 001080,0.00000967,-0.00000347,-0.00000577,-0.00000183,0.00001232,0.000
 00701,-0.00000663,0.00000151,0.00002459,0.00000253,0.00000221,-0.00001
 167,0.00000975,0.00000316,0.00000591,-0.00000125,-0.00001196,-0.000006
 46,-0.00000678,-0.00000202,-0.00000327,0.00000040,-0.00000603,0.000002
 79,-0.00000259,-0.00000237,-0.00000060,0.00000224,0.00000052,-0.000001
 66,-0.00000875,0.00000022,0.00000068,-0.00000866,-0.00000119,0.0000043
 8,0.00000009,0.00000637,0.00000040,0.00000272,0.00000131,-0.00000056,0
 .00000350,-0.00000552,-0.00000020,0.00001188,0.00000518,0.00000039,-0.
 00000029,0.00000304,0.00000534,-0.00000293,0.00000992,0.00000141,-0.00
 000123,0.00000110,0.00000090,0.00000060,-0.00002103,-0.00000178,-0.000
 00797,0.00000336,-0.00000448,-0.00000217,0.00000116,-0.00000269,0.0000
 0567,-0.00000112,-0.00000262,0.00000018,0.00000189,0.00000049,0.000002
 18,-0.00000070,-0.00000344,-0.00000261,0.00000170,0.00000137,0.0000003
 8,-0.00000266,-0.00000251,0.00000266,-0.00000035,-0.00000493,-0.000001
 83,-0.00000213,-0.00000203,-0.00000309,0.00000995,-0.00000163,-0.00000
 410,0.00000329,0.00000301,0.00000488,0.00000432,-0.00000048,0.,-0.0000
 0297,-0.00000526,-0.00000265,-0.00001002,-0.00000133,-0.00000134,-0.00
 000129,-0.00000127,0.00000052,0.00002204,0.00000209,-0.00000821,-0.000
 00346,0.00000439,-0.00000222,-0.00000123,0.00000243,0.00000568,0.00000
 115,0.00000276,0.00000031,-0.00000194,0.00000490,-0.00000184,0.0000020
 3,0.00000243,0.00000275,0.00000038,-0.00000133,0.00000031,0.00000264,0
 .00000190,-0.00000488,-0.00000303,0.00000216,-0.00000355,-0.00000997,-
 0.00000315,0.00000488,-0.00000419\\\@


 COLLEGE PROFESSOR: SOMEONE WHO TALKS IN OTHER PEOPLE'S SLEEP.
 Job cpu time:       0 days  4 hours 58 minutes 40.9 seconds.
 File lengths (MBytes):  RWF=   2047 Int=      0 D2E=      0 Chk=     80 Scr=      1
 Normal termination of Gaussian 09 at Tue Nov 16 15:10:42 2021.
