 Entering Gaussian System, Link 0=g09
 Input=RR_Me_Ferrolane_4_SPE.com
 Output=RR_Me_Ferrolane_4_SPE.log
 Initial command:
 /gstore/apps/gaussian/g09.e01-foss-2017a/g09/l1.exe "/local/22791348/Gau-11154.inp" -scrdir="/local/22791348/"
 Entering Link 1 = /gstore/apps/gaussian/g09.e01-foss-2017a/g09/l1.exe PID=     11155.
  
 Copyright (c) 1988,1990,1992,1993,1995,1998,2003,2009,2015,
            Gaussian, Inc.  All Rights Reserved.
  
 This is part of the Gaussian(R) 09 program.  It is based on
 the Gaussian(R) 03 system (copyright 2003, Gaussian, Inc.),
 the Gaussian(R) 98 system (copyright 1998, Gaussian, Inc.),
 the Gaussian(R) 94 system (copyright 1995, Gaussian, Inc.),
 the Gaussian 92(TM) system (copyright 1992, Gaussian, Inc.),
 the Gaussian 90(TM) system (copyright 1990, Gaussian, Inc.),
 the Gaussian 88(TM) system (copyright 1988, Gaussian, Inc.),
 the Gaussian 86(TM) system (copyright 1986, Carnegie Mellon
 University), and the Gaussian 82(TM) system (copyright 1983,
 Carnegie Mellon University). Gaussian is a federally registered
 trademark of Gaussian, Inc.
  
 This software contains proprietary and confidential information,
 including trade secrets, belonging to Gaussian, Inc.
  
 This software is provided under written license and may be
 used, copied, transmitted, or stored only in accord with that
 written license.
  
 The following legend is applicable only to US Government
 contracts under FAR:
  
                    RESTRICTED RIGHTS LEGEND
  
 Use, reproduction and disclosure by the US Government is
 subject to restrictions as set forth in subparagraphs (a)
 and (c) of the Commercial Computer Software - Restricted
 Rights clause in FAR 52.227-19.
  
 Gaussian, Inc.
 340 Quinnipiac St., Bldg. 40, Wallingford CT 06492
  
  
 ---------------------------------------------------------------
 Warning -- This program may not be used in any manner that
 competes with the business of Gaussian, Inc. or will provide
 assistance to any competitor of Gaussian, Inc.  The licensee
 of this program is prohibited from giving any competitor of
 Gaussian, Inc. access to this program.  By using this program,
 the user acknowledges that Gaussian, Inc. is engaged in the
 business of creating and licensing software in the field of
 computational chemistry and represents and warrants to the
 licensee that it is not a competitor of Gaussian, Inc. and that
 it will not use this program in any manner prohibited above.
 ---------------------------------------------------------------
  

 Cite this work as:
 Gaussian 09, Revision E.01,
 M. J. Frisch, G. W. Trucks, H. B. Schlegel, G. E. Scuseria, 
 M. A. Robb, J. R. Cheeseman, G. Scalmani, V. Barone, B. Mennucci, 
 G. A. Petersson, H. Nakatsuji, M. Caricato, X. Li, H. P. Hratchian, 
 A. F. Izmaylov, J. Bloino, G. Zheng, J. L. Sonnenberg, M. Hada, 
 M. Ehara, K. Toyota, R. Fukuda, J. Hasegawa, M. Ishida, T. Nakajima, 
 Y. Honda, O. Kitao, H. Nakai, T. Vreven, J. A. Montgomery, Jr., 
 J. E. Peralta, F. Ogliaro, M. Bearpark, J. J. Heyd, E. Brothers, 
 K. N. Kudin, V. N. Staroverov, T. Keith, R. Kobayashi, J. Normand, 
 K. Raghavachari, A. Rendell, J. C. Burant, S. S. Iyengar, J. Tomasi, 
 M. Cossi, N. Rega, J. M. Millam, M. Klene, J. E. Knox, J. B. Cross, 
 V. Bakken, C. Adamo, J. Jaramillo, R. Gomperts, R. E. Stratmann, 
 O. Yazyev, A. J. Austin, R. Cammi, C. Pomelli, J. W. Ochterski, 
 R. L. Martin, K. Morokuma, V. G. Zakrzewski, G. A. Voth, 
 P. Salvador, J. J. Dannenberg, S. Dapprich, A. D. Daniels, 
 O. Farkas, J. B. Foresman, J. V. Ortiz, J. Cioslowski, 
 and D. J. Fox, Gaussian, Inc., Wallingford CT, 2013.
 
 ******************************************
 Gaussian 09:  ES64L-G09RevE.01 30-Nov-2015
                 5-Dec-2021 
 ******************************************
 %nprocs=14
 Will use up to   14 processors via shared memory.
 %mem=128GB
 %chk=RR_Me_Ferrolane_4_SPE.chk
 ----------------------------------------------------------------------
 # PBE1PBE gen pseudo=read int=(grid=ultrafine) empiricaldispersion=GD3
 BJ nmr=giao
 ----------------------------------------------------------------------
 1/38=1/1;
 2/12=2,17=6,18=5,40=1/2;
 3/5=7,11=2,16=1,17=8,25=1,30=1,74=-13,75=-5,124=41/1,2,8,3;
 4//1;
 5/5=2,38=5/2;
 8/6=1,10=90,11=11/1;
 10/13=100,45=16/2;
 6/7=2,8=2,9=2,10=2,28=1/1;
 99/9=1/99;
 -----------------------
 RR_Me_Ferrolane_4 title
 -----------------------
 Symbolic Z-matrix:
 Charge =  0 Multiplicity = 1
 Fe                   -0.03707   2.59186   0.04034 
 P                    -1.79383  -0.26806  -0.02415 
 P                     1.78321  -0.22841   0.08754 
 C                    -1.5201    1.42552  -0.63327 
 C                    -0.62515   1.76319  -1.71696 
 C                    -0.59115   3.19069  -1.84869 
 C                    -1.47627   3.75028  -0.86773 
 C                    -2.05732   2.67068  -0.1218 
 C                     1.47172   1.45489   0.70693 
 C                     1.98094   2.71484   0.20313 
 C                     1.37594   3.77661   0.95557 
 C                     0.5036    3.1914    1.93303 
 C                     0.5695    1.76585   1.7926 
 C                    -3.33402  -0.85198  -0.96315 
 C                    -4.35336  -1.11576   0.17029 
 C                    -2.65351  -0.01685   1.63378 
 C                    -4.15587  -0.05613   1.26898 
 C                     3.33617  -0.78343   1.02302 
 C                     4.36103  -1.01746  -0.11198 
 C                     2.63687   0.05204  -1.5688 
 C                     4.13977   0.04416  -1.20422 
 H                    -0.03867   1.04417  -2.29003 
 H                     0.03605   3.75286  -2.54137 
 H                    -1.63751   4.81267  -0.68077 
 H                    -2.74707   2.77569   0.71576 
 H                     2.66809   2.84036  -0.63375 
 H                    -0.0007    1.03041   2.36123 
 Cl                   -1.64208  -3.43675   0.02087 
 Cl                    1.70237  -3.39934   0.02305 
 Pd                    0.01098  -1.70531   0.02729 
 H                    -3.05261  -1.80061  -1.44536 
 C                    -3.83238   0.1525   -2.00877 
 H                    -2.35895   0.98083   2.0036 
 C                    -2.24349  -1.07802   2.66456 
 H                    -4.16625  -2.12196   0.58231 
 H                    -5.38404  -1.09951  -0.22825 
 H                    -4.4781    0.93444   0.89557 
 H                    -4.76405  -0.27869   2.16445 
 H                     1.51337   4.84346   0.7751 
 H                    -0.13599   3.73518   2.62906 
 H                    -3.06608   0.37116  -2.77101 
 H                    -4.13642   1.113    -1.55804 
 H                    -4.71107  -0.27265  -2.52561 
 H                    -2.78463  -0.90546   3.61224 
 H                    -2.45871  -2.09748   2.30653 
 H                    -1.15908  -1.04086   2.8682 
 H                     3.0761   -1.74103   1.49944 
 C                     3.81205   0.22557   2.07474 
 H                     2.32003   1.04512  -1.93255 
 C                     2.25058  -1.01175  -2.60603 
 H                     4.19643  -2.02506  -0.53012 
 H                     5.39113  -0.98059   0.28668 
 H                     4.43981   1.0394   -0.82478 
 H                     4.75268  -0.15931  -2.101 
 H                     4.70009  -0.18296   2.589 
 H                     4.09449   1.19535   1.62985 
 H                     3.04114   0.42241   2.83826 
 H                     2.48858  -2.02829  -2.2542 
 H                     2.78761  -0.82137  -3.55263 
 H                     1.16558  -0.99761  -2.80947 
 
 Stoichiometry    C22H32Cl2FeP2Pd
 Framework group  C1[X(C22H32Cl2FeP2Pd)]
 Deg. of freedom   174
 Full point group                 C1      NOp   1
 Largest Abelian subgroup         C1      NOp   1
 Largest concise Abelian subgroup C1      NOp   1
                         Standard orientation:                         
 ---------------------------------------------------------------------
 Center     Atomic      Atomic             Coordinates (Angstroms)
 Number     Number       Type             X           Y           Z
 ---------------------------------------------------------------------
      1         26           0        0.000007   -2.591544    0.000017
      2         15           0       -1.787850    0.248742    0.076804
      3         15           0        1.787852    0.248749   -0.076840
      4          6           0       -1.488013   -1.439807    0.687609
      5          6           0       -0.576677   -1.764130    1.761685
      6          6           0       -0.525126   -3.190750    1.897176
      7          6           0       -1.415362   -3.763197    0.928338
      8          6           0       -2.017192   -2.692450    0.186146
      9          6           0        1.488019   -1.439815   -0.687602
     10          6           0        2.017215   -2.692446   -0.186136
     11          6           0        1.415376   -3.763207   -0.928301
     12          6           0        0.525128   -3.190777   -1.897138
     13          6           0        0.576671   -1.764156   -1.761665
     14          6           0       -3.323371    0.818271    1.032148
     15          6           0       -4.358831    1.067171   -0.089992
     16          6           0       -2.664046   -0.017133   -1.570151
     17          6           0       -4.162365    0.006456   -1.187827
     18          6           0        3.323412    0.818240   -1.032139
     19          6           0        4.358827    1.067177    0.090035
     20          6           0        2.663981   -0.017076    1.570159
     21          6           0        4.162317    0.006499    1.187897
     22          1           0        0.008378   -1.036854    2.325705
     23          1           0        0.116424   -3.743758    2.584074
     24          1           0       -1.566857   -4.827897    0.746398
     25          1           0       -2.715503   -2.807730   -0.642930
     26          1           0        2.715506   -2.807713    0.642959
     27          1           0       -0.008374   -1.036884   -2.325701
     28         17           0       -1.672186    3.418778    0.020736
     29         17           0        1.672211    3.418754   -0.020676
     30         46           0       -0.000001    1.705915   -0.000065
     31          1           0       -3.046984    1.771456    1.508237
     32          6           0       -3.798129   -0.188523    2.086494
     33          1           0       -2.362670   -1.012583   -1.940491
     34          6           0       -2.278075    1.045403   -2.608785
     35          1           0       -4.187869    2.074133   -0.507126
     36          1           0       -5.384513    1.040616    0.320697
     37          1           0       -4.469062   -0.986510   -0.807754
     38          1           0       -4.783465    0.219467   -2.076721
     39          1           0        1.566872   -4.827903   -0.746340
     40          1           0       -0.116444   -3.743800   -2.584004
     41          1           0       -3.020541   -0.396270    2.840296
     42          1           0       -4.096642   -1.153738    1.642175
     43          1           0       -4.675416    0.228354    2.612382
     44          1           0       -2.828320    0.863906   -3.549529
     45          1           0       -2.500500    2.063476   -2.251231
     46          1           0       -1.195779    1.019743   -2.825056
     47          1           0        3.047046    1.771409   -1.508274
     48          6           0        3.798211   -0.188592   -2.086430
     49          1           0        2.362590   -1.012516    1.940515
     50          6           0        2.277970    1.045493    2.608743
     51          1           0        4.187850    2.074153    0.507129
     52          1           0        5.384526    1.040608   -0.320613
     53          1           0        4.469029   -0.986480    0.807870
     54          1           0        4.783380    0.219540    2.076809
     55          1           0        4.675516    0.228268   -2.612301
     56          1           0        4.096710   -1.153789   -1.642063
     57          1           0        3.020651   -0.396371   -2.840252
     58          1           0        2.500411    2.063555    2.251166
     59          1           0        2.828176    0.864027    3.549517
     60          1           0        1.195665    1.019845    2.824968
 ---------------------------------------------------------------------
 Rotational constants (GHZ):      0.1529955      0.1460639      0.0948327
 General basis read from cards:  (5D, 7F)
 ======================================================================================================
                                       Pseudopotential Parameters
 ======================================================================================================
  Center     Atomic      Valence      Angular      Power
  Number     Number     Electrons     Momentum     of R      Exponent        Coefficient   SO-Coeffient
 ======================================================================================================
    1         26           16
                                      F and up 
                                                     2        1.0000000        0.00000000    0.00000000
                                      S - F
                                                     2       20.9300000      253.74958800    0.00000000
                                                     2        9.4450000       37.92284500    0.00000000
                                      P - F
                                                     2       21.7600000      161.03681200    0.00000000
                                                     2        9.1780000       27.65129800    0.00000000
                                      D - F
                                                     2       25.9000000      -24.43127600    0.00000000
                                                     2        8.8350000       -1.43425100    0.00000000
    2         15
                                   No pseudopotential on this center.
    3         15
                                   No pseudopotential on this center.
    4          6
                                   No pseudopotential on this center.
    5          6
                                   No pseudopotential on this center.
    6          6
                                   No pseudopotential on this center.
    7          6
                                   No pseudopotential on this center.
    8          6
                                   No pseudopotential on this center.
    9          6
                                   No pseudopotential on this center.
   10          6
                                   No pseudopotential on this center.
   11          6
                                   No pseudopotential on this center.
   12          6
                                   No pseudopotential on this center.
   13          6
                                   No pseudopotential on this center.
   14          6
                                   No pseudopotential on this center.
   15          6
                                   No pseudopotential on this center.
   16          6
                                   No pseudopotential on this center.
   17          6
                                   No pseudopotential on this center.
   18          6
                                   No pseudopotential on this center.
   19          6
                                   No pseudopotential on this center.
   20          6
                                   No pseudopotential on this center.
   21          6
                                   No pseudopotential on this center.
   22          1
                                   No pseudopotential on this center.
   23          1
                                   No pseudopotential on this center.
   24          1
                                   No pseudopotential on this center.
   25          1
                                   No pseudopotential on this center.
   26          1
                                   No pseudopotential on this center.
   27          1
                                   No pseudopotential on this center.
   28         17
                                   No pseudopotential on this center.
   29         17
                                   No pseudopotential on this center.
   30         46           18
                                      G and up 
                                                     2        1.0000000        0.00000000    0.00000000
                                      S - G
                                                     2       12.4300000      240.22904000    0.00000000
                                                     2        6.1707590       35.17194300    0.00000000
                                      P - G
                                                     2       11.0800000      170.41727600    0.00000000
                                                     2        5.8295540       28.47213300    0.00000000
                                      D - G
                                                     2        9.5100000       69.01384500    0.00000000
                                                     2        4.1397810       11.75086200    0.00000000
                                      F - G
                                                     2       13.2700000      -31.92955400    0.00000000
                                                     2        6.6300000       -5.39821700    0.00000000
   31          1
                                   No pseudopotential on this center.
   32          6
                                   No pseudopotential on this center.
   33          1
                                   No pseudopotential on this center.
   34          6
                                   No pseudopotential on this center.
   35          1
                                   No pseudopotential on this center.
   36          1
                                   No pseudopotential on this center.
   37          1
                                   No pseudopotential on this center.
   38          1
                                   No pseudopotential on this center.
   39          1
                                   No pseudopotential on this center.
   40          1
                                   No pseudopotential on this center.
   41          1
                                   No pseudopotential on this center.
   42          1
                                   No pseudopotential on this center.
   43          1
                                   No pseudopotential on this center.
   44          1
                                   No pseudopotential on this center.
   45          1
                                   No pseudopotential on this center.
   46          1
                                   No pseudopotential on this center.
   47          1
                                   No pseudopotential on this center.
   48          6
                                   No pseudopotential on this center.
   49          1
                                   No pseudopotential on this center.
   50          6
                                   No pseudopotential on this center.
   51          1
                                   No pseudopotential on this center.
   52          1
                                   No pseudopotential on this center.
   53          1
                                   No pseudopotential on this center.
   54          1
                                   No pseudopotential on this center.
   55          1
                                   No pseudopotential on this center.
   56          1
                                   No pseudopotential on this center.
   57          1
                                   No pseudopotential on this center.
   58          1
                                   No pseudopotential on this center.
   59          1
                                   No pseudopotential on this center.
   60          1
                                   No pseudopotential on this center.
 ======================================================================================================
 There are  1240 symmetry adapted cartesian basis functions of A   symmetry.
 There are  1101 symmetry adapted basis functions of A   symmetry.
  1101 basis functions,  1794 primitive gaussians,  1240 cartesian basis functions
   131 alpha electrons      131 beta electrons
       nuclear repulsion energy      4491.6651824855 Hartrees.
 NAtoms=   60 NActive=   60 NUniq=   60 SFac= 1.00D+00 NAtFMM=   60 NAOKFM=T Big=T
 Integral buffers will be    131072 words long.
 Raffenetti 2 integral format.
 Two-electron integral symmetry is turned on.
 Nuclear repulsion after empirical dispersion term =     4491.5610253165 Hartrees.
 One-electron integrals computed using PRISM.
   1 Symmetry operations used in ECPInt.
 ECPInt:  NShTT=  101926 NPrTT=  307682 LenC2=   89418 LenP2D=  189140.
 LDataN:  DoStor=T MaxTD1= 7 Len=  274
 NBasis=  1101 RedAO= T EigKep=  1.45D-05  NBF=  1101
 NBsUse=  1101 1.00D-06 EigRej= -1.00D+00 NBFU=  1101
 Defaulting to unpruned grid for atomic number  46.
 ExpMin= 1.00D-02 ExpMax= 6.95D+04 ExpMxC= 2.37D+03 IAcc=3 IRadAn=         5 AccDes= 0.00D+00
 Harris functional with IExCor= 1009 and IRadAn=       5 diagonalized for initial guess.
 HarFok:  IExCor= 1009 AccDes= 0.00D+00 IRadAn=         5 IDoV= 1 UseB2=F ITyADJ=14
 ICtDFT=  3500011 ScaDFX=  1.000000  1.000000  1.000000  1.000000
 Defaulting to unpruned grid for atomic number  46.
 Defaulting to unpruned grid for atomic number  46.
 Defaulting to unpruned grid for atomic number  46.
 Defaulting to unpruned grid for atomic number  46.
 Defaulting to unpruned grid for atomic number  46.
 Defaulting to unpruned grid for atomic number  46.
 Defaulting to unpruned grid for atomic number  46.
 Defaulting to unpruned grid for atomic number  46.
 Defaulting to unpruned grid for atomic number  46.
 Defaulting to unpruned grid for atomic number  46.
 Defaulting to unpruned grid for atomic number  46.
 Defaulting to unpruned grid for atomic number  46.
 Defaulting to unpruned grid for atomic number  46.
 Defaulting to unpruned grid for atomic number  46.
 FoFCou: FMM=F IPFlag=           0 FMFlag=      100000 FMFlg1=        2001
         NFxFlg=           0 DoJE=T BraDBF=F KetDBF=T FulRan=T
         wScrn=  0.000000 ICntrl=     500 IOpCl=  0 I1Cent=   200000004 NGrid=           0
         NMat0=    1 NMatS0=      1 NMatT0=    0 NMatD0=    1 NMtDS0=    0 NMtDT0=    0
 Petite list used in FoFCou.
 Requested convergence on RMS density matrix=1.00D-08 within 128 cycles.
 Requested convergence on MAX density matrix=1.00D-06.
 Requested convergence on             energy=1.00D-06.
 No special actions if energy rises.
 Defaulting to unpruned grid for atomic number  46.
 Defaulting to unpruned grid for atomic number  46.
 Defaulting to unpruned grid for atomic number  46.
 Defaulting to unpruned grid for atomic number  46.
 Defaulting to unpruned grid for atomic number  46.
 Defaulting to unpruned grid for atomic number  46.
 Defaulting to unpruned grid for atomic number  46.
 Defaulting to unpruned grid for atomic number  46.
 Defaulting to unpruned grid for atomic number  46.
 Defaulting to unpruned grid for atomic number  46.
 Defaulting to unpruned grid for atomic number  46.
 Defaulting to unpruned grid for atomic number  46.
 Defaulting to unpruned grid for atomic number  46.
 Defaulting to unpruned grid for atomic number  46.
 EnCoef did     2 forward-backward iterations
 EnCoef did   100 forward-backward iterations
 EnCoef did   100 forward-backward iterations
 EnCoef did   100 forward-backward iterations
 EnCoef did     3 forward-backward iterations
 EnCoef did     4 forward-backward iterations
 Restarting incremental Fock formation.
 SCF Done:  E(RPBE1PBE) =  -2711.50831530     A.U. after   24 cycles
            NFock= 24  Conv=0.53D-08     -V/T= 2.0547
 DoSCS=F DFT=T ScalE2(SS,OS)=  1.000000  1.000000
 Range of M.O.s used for correlation:     1  1101
 NBasis=  1101 NAE=   131 NBE=   131 NFC=     0 NFV=     0
 NROrb=   1101 NOA=   131 NOB=   131 NVA=   970 NVB=   970

 **** Warning!!: The largest alpha MO coefficient is  0.33459950D+02

          Differentiating once with respect to magnetic field using GIAOs.
          Electric field/nuclear overlap derivatives assumed to be zero.
 Defaulting to unpruned grid for atomic number  46.
 FoFCou: FMM=F IPFlag=           0 FMFlag=      100000 FMFlg1=        2001
         NFxFlg=           0 DoJE=F BraDBF=F KetDBF=T FulRan=T
         wScrn=  0.000000 ICntrl=    6100 IOpCl=  0 I1Cent=           7 NGrid=          60
         NMat0=    1 NMatS0=      1 NMatT0=    0 NMatD0=    1 NMtDS0=    0 NMtDT0=    0
 Symmetry not used in FoFCou.
   1 Symmetry operations used in ECPInt.
 ECPInt:  NShTT=  101926 NPrTT=  307682 LenC2=  101927 LenP2D=  307682.
 LDataN:  DoStor=T MaxTD1= 8 Len=  415
 FoFJK:  IHMeth= 1 ICntrl=    6127 DoSepK=F KAlg= 0 I1Cent=   0 FoldK=F
 IRaf=         1 NMat=   1 IRICut=       1 DoRegI=T DoRafI=F ISym2E= 0.
 Defaulting to unpruned grid for atomic number  46.
 Defaulting to unpruned grid for atomic number  46.
 Defaulting to unpruned grid for atomic number  46.
 Defaulting to unpruned grid for atomic number  46.
 Defaulting to unpruned grid for atomic number  46.
 Defaulting to unpruned grid for atomic number  46.
 Defaulting to unpruned grid for atomic number  46.
 Defaulting to unpruned grid for atomic number  46.
 Defaulting to unpruned grid for atomic number  46.
 Defaulting to unpruned grid for atomic number  46.
 Defaulting to unpruned grid for atomic number  46.
 Defaulting to unpruned grid for atomic number  46.
 Defaulting to unpruned grid for atomic number  46.
 Defaulting to unpruned grid for atomic number  46.
          There are     3 degrees of freedom in the 1st order CPHF.  IDoFFX=0 NUNeed=     3.
      3 vectors produced by pass  0 Test12= 4.24D-12 3.33D-08 XBig12= 1.07D+02 2.10D+00.
 AX will form     3 AO Fock derivatives at one time.
      3 vectors produced by pass  1 Test12= 4.24D-12 3.33D-08 XBig12= 9.44D-01 6.09D-01.
      3 vectors produced by pass  2 Test12= 4.24D-12 3.33D-08 XBig12= 3.36D-02 4.85D-02.
      3 vectors produced by pass  3 Test12= 4.24D-12 3.33D-08 XBig12= 3.92D-04 8.21D-03.
      3 vectors produced by pass  4 Test12= 4.24D-12 3.33D-08 XBig12= 1.48D-05 1.40D-03.
      3 vectors produced by pass  5 Test12= 4.24D-12 3.33D-08 XBig12= 2.85D-07 2.35D-04.
      3 vectors produced by pass  6 Test12= 4.24D-12 3.33D-08 XBig12= 8.44D-09 4.86D-05.
      3 vectors produced by pass  7 Test12= 4.24D-12 3.33D-08 XBig12= 7.63D-11 4.15D-06.
      3 vectors produced by pass  8 Test12= 4.24D-12 3.33D-08 XBig12= 5.60D-13 2.81D-07.
      1 vectors produced by pass  9 Test12= 4.24D-12 3.33D-08 XBig12= 6.44D-15 3.91D-08.
 InvSVY:  IOpt=1 It=  1 EMax= 1.78D-15
 Solved reduced A of dimension    28 with     3 vectors.
 Calculating GIAO nuclear magnetic shielding tensors.
 SCF GIAO Magnetic shielding tensor (ppm):
      1  Fe   Isotropic = -5910.0855   Anisotropy =  7814.8066
   XX= -4103.4515   YX=    -0.0074   ZX= -3951.0867
   XY=    -0.0093   YY= -8543.7143   ZY=     0.0242
   XZ= -3773.1522   YZ=     0.0258   ZZ= -5083.0907
   Eigenvalues: -8543.7143 -8486.3277  -700.2145
      2  P    Isotropic =   204.3822   Anisotropy =   103.5034
   XX=   268.2972   YX=    28.6027   ZX=   -16.2881
   XY=    17.8279   YY=   167.4401   ZY=    20.8973
   XZ=     8.4708   YZ=    14.0205   ZZ=   177.4092
   Eigenvalues:   150.4708   189.2912   273.3844
      3  P    Isotropic =   204.3815   Anisotropy =   103.4985
   XX=   268.2923   YX=   -28.6053   ZX=   -16.2872
   XY=   -17.8292   YY=   167.4392   ZY=   -20.8920
   XZ=     8.4716   YZ=   -14.0217   ZZ=   177.4130
   Eigenvalues:   150.4727   189.2913   273.3805
      4  C    Isotropic =   106.1120   Anisotropy =    83.6484
   XX=   122.1232   YX=    24.9257   ZX=   -35.0811
   XY=    17.4366   YY=    71.2083   ZY=     0.1327
   XZ=   -34.5643   YZ=    -8.0012   ZZ=   125.0047
   Eigenvalues:    62.0996    94.3589   161.8777
      5  C    Isotropic =   102.9194   Anisotropy =    88.1721
   XX=   132.5990   YX=   -10.1170   ZX=   -41.5587
   XY=   -10.9989   YY=    83.8256   ZY=   -27.3087
   XZ=   -45.4853   YZ=   -39.8735   ZZ=    92.3336
   Eigenvalues:    38.5815   108.4759   161.7008
      6  C    Isotropic =   107.1295   Anisotropy =    90.6499
   XX=   136.6659   YX=     1.0367   ZX=   -41.6724
   XY=     8.0120   YY=    95.5343   ZY=    21.4727
   XZ=   -53.8703   YZ=    28.4093   ZZ=    89.1883
   Eigenvalues:    47.7606   106.0651   167.5628
      7  C    Isotropic =   110.3273   Anisotropy =    87.3439
   XX=   133.7052   YX=   -31.6991   ZX=   -30.0842
   XY=   -20.5684   YY=    60.2848   ZY=     0.2768
   XZ=   -24.9546   YZ=    17.5140   ZZ=   136.9920
   Eigenvalues:    51.9325   110.4929   168.5566
      8  C    Isotropic =   108.6521   Anisotropy =    79.9792
   XX=    94.3004   YX=    -7.6216   ZX=   -61.1116
   XY=   -13.7192   YY=   113.9151   ZY=    -7.8848
   XZ=   -47.7464   YZ=    -0.1160   ZZ=   117.7407
   Eigenvalues:    48.5515   115.4331   161.9715
      9  C    Isotropic =   106.1102   Anisotropy =    83.6495
   XX=   122.1226   YX=   -24.9244   ZX=   -35.0813
   XY=   -17.4371   YY=    71.2070   ZY=    -0.1320
   XZ=   -34.5662   YZ=     8.0007   ZZ=   125.0010
   Eigenvalues:    62.0985    94.3556   161.8765
     10  C    Isotropic =   108.6524   Anisotropy =    79.9781
   XX=    94.3019   YX=     7.6202   ZX=   -61.1120
   XY=    13.7187   YY=   113.9158   ZY=     7.8853
   XZ=   -47.7456   YZ=     0.1168   ZZ=   117.7395
   Eigenvalues:    48.5523   115.4338   161.9711
     11  C    Isotropic =   110.3261   Anisotropy =    87.3427
   XX=   133.7044   YX=    31.6963   ZX=   -30.0843
   XY=    20.5680   YY=    60.2826   ZY=    -0.2747
   XZ=   -24.9548   YZ=   -17.5107   ZZ=   136.9914
   Eigenvalues:    51.9315   110.4923   168.5546
     12  C    Isotropic =   107.1301   Anisotropy =    90.6496
   XX=   136.6649   YX=    -1.0388   ZX=   -41.6730
   XY=    -8.0140   YY=    95.5337   ZY=   -21.4726
   XZ=   -53.8709   YZ=   -28.4091   ZZ=    89.1917
   Eigenvalues:    47.7612   106.0659   167.5632
     13  C    Isotropic =   102.9179   Anisotropy =    88.1727
   XX=   132.5957   YX=    10.1164   ZX=   -41.5614
   XY=    10.9978   YY=    83.8259   ZY=    27.3102
   XZ=   -45.4851   YZ=    39.8743   ZZ=    92.3321
   Eigenvalues:    38.5791   108.4749   161.6997
     14  C    Isotropic =   140.5879   Anisotropy =    35.5093
   XX=   158.0025   YX=    -5.8783   ZX=   -12.0575
   XY=   -12.3675   YY=   124.9895   ZY=    -3.8123
   XZ=    -8.6410   YZ=     3.1357   ZZ=   138.7717
   Eigenvalues:   122.0370   135.4659   164.2608
     15  C    Isotropic =   146.3424   Anisotropy =    39.8831
   XX=   163.9755   YX=    -9.6837   ZX=    11.1878
   XY=   -17.8903   YY=   124.3463   ZY=    13.7337
   XZ=    13.2646   YZ=    -0.7004   ZZ=   150.7053
   Eigenvalues:   116.9638   149.1323   172.9311
     16  C    Isotropic =   141.7848   Anisotropy =    30.6189
   XX=   154.7871   YX=    -3.3233   ZX=     8.7025
   XY=     3.1288   YY=   121.7038   ZY=     7.5580
   XZ=     9.6854   YZ=    10.3507   ZZ=   148.8636
   Eigenvalues:   118.7950   144.3620   162.1974
     17  C    Isotropic =   149.8928   Anisotropy =    34.6220
   XX=   172.6350   YX=    -2.6870   ZX=     1.6656
   XY=    -3.0675   YY=   128.0686   ZY=    15.5308
   XZ=    -4.0835   YZ=     4.1325   ZZ=   148.9748
   Eigenvalues:   124.0689   152.6355   172.9741
     18  C    Isotropic =   140.5882   Anisotropy =    35.5081
   XX=   158.0029   YX=     5.8784   ZX=   -12.0563
   XY=    12.3668   YY=   124.9895   ZY=     3.8140
   XZ=    -8.6406   YZ=    -3.1342   ZZ=   138.7721
   Eigenvalues:   122.0367   135.4675   164.2602
     19  C    Isotropic =   146.3418   Anisotropy =    39.8836
   XX=   163.9746   YX=     9.6840   ZX=    11.1878
   XY=    17.8908   YY=   124.3454   ZY=   -13.7313
   XZ=    13.2647   YZ=     0.7026   ZZ=   150.7055
   Eigenvalues:   116.9640   149.1306   172.9309
     20  C    Isotropic =   141.7841   Anisotropy =    30.6194
   XX=   154.7858   YX=     3.3239   ZX=     8.7026
   XY=    -3.1275   YY=   121.7020   ZY=    -7.5582
   XZ=     9.6857   YZ=   -10.3506   ZZ=   148.8643
   Eigenvalues:   118.7933   144.3619   162.1970
     21  C    Isotropic =   149.8928   Anisotropy =    34.6218
   XX=   172.6350   YX=     2.6870   ZX=     1.6661
   XY=     3.0681   YY=   128.0682   ZY=   -15.5293
   XZ=    -4.0827   YZ=    -4.1311   ZZ=   148.9753
   Eigenvalues:   124.0695   152.6350   172.9740
     22  H    Isotropic =    27.3624   Anisotropy =     4.3487
   XX=    27.5916   YX=     1.9909   ZX=     1.8709
   XY=     2.6916   YY=    28.1723   ZY=    -1.9218
   XZ=     2.3419   YZ=    -1.1981   ZZ=    26.3232
   Eigenvalues:    23.2780    28.5476    30.2615
     23  H    Isotropic =    27.2190   Anisotropy =     8.0447
   XX=    25.5018   YX=    -0.9269   ZX=     2.3014
   XY=    -1.1482   YY=    28.6267   ZY=    -3.7157
   XZ=     2.7056   YZ=    -3.5140   ZZ=    27.5285
   Eigenvalues:    23.3747    25.7002    32.5821
     24  H    Isotropic =    27.3762   Anisotropy =     9.1828
   XX=    24.8212   YX=     1.8944   ZX=     0.6533
   XY=     1.6109   YY=    33.1405   ZY=    -0.1684
   XZ=     0.8330   YZ=     0.2291   ZZ=    24.1669
   Eigenvalues:    23.5772    25.0533    33.4980
     25  H    Isotropic =    27.5847   Anisotropy =     4.8070
   XX=    27.0643   YX=     0.7856   ZX=     3.9458
   XY=     0.7322   YY=    30.4242   ZY=     0.0281
   XZ=     3.0963   YZ=    -0.1029   ZZ=    25.2656
   Eigenvalues:    22.4998    29.4650    30.7894
     26  H    Isotropic =    27.5847   Anisotropy =     4.8068
   XX=    27.0644   YX=    -0.7856   ZX=     3.9457
   XY=    -0.7321   YY=    30.4239   ZY=    -0.0281
   XZ=     3.0963   YZ=     0.1027   ZZ=    25.2657
   Eigenvalues:    22.4999    29.4649    30.7892
     27  H    Isotropic =    27.3624   Anisotropy =     4.3483
   XX=    27.5915   YX=    -1.9907   ZX=     1.8708
   XY=    -2.6914   YY=    28.1723   ZY=     1.9219
   XZ=     2.3419   YZ=     1.1982   ZZ=    26.3234
   Eigenvalues:    23.2781    28.5478    30.2612
     28  Cl   Isotropic =   915.1595   Anisotropy =   406.3507
   XX=   717.9582   YX=  -172.7377   ZX=   -23.8891
   XY=  -162.6817   YY=   845.8837   ZY=    36.1026
   XZ=   -64.6294   YZ=   -51.4699   ZZ=  1181.6368
   Eigenvalues:   599.5622   959.8564  1186.0600
     29  Cl   Isotropic =   915.1699   Anisotropy =   406.3848
   XX=   717.9647   YX=   172.7319   ZX=   -23.8571
   XY=   162.6874   YY=   845.8737   ZY=   -36.1045
   XZ=   -64.6422   YZ=    51.4415   ZZ=  1181.6713
   Eigenvalues:   599.5660   959.8507  1186.0931
     30  Pd   Isotropic =  -157.6456   Anisotropy =   252.9797
   XX=     9.8106   YX=    -0.0011   ZX=   -20.9803
   XY=    -0.0022   YY=    -0.6759   ZY=     0.0021
   XZ=   -27.6067   YZ=     0.0031   ZZ=  -482.0716
   Eigenvalues:  -483.2685    -0.6759    11.0075
     31  H    Isotropic =    27.3634   Anisotropy =     7.7610
   XX=    26.1883   YX=     3.0346   ZX=    -2.9208
   XY=     3.9293   YY=    30.6123   ZY=     1.1831
   XZ=    -2.8854   YZ=     1.3939   ZZ=    25.2896
   Eigenvalues:    21.5744    27.9784    32.5374
     32  C    Isotropic =   166.7488   Anisotropy =    22.1481
   XX=   173.0700   YX=    -0.6565   ZX=   -10.6128
   XY=    -5.1769   YY=   159.1993   ZY=   -12.5549
   XZ=    -8.8737   YZ=    -8.1614   ZZ=   167.9772
   Eigenvalues:   149.5453   169.1869   181.5142
     33  H    Isotropic =    28.5803   Anisotropy =     6.5052
   XX=    27.0297   YX=    -2.6191   ZX=     1.2066
   XY=    -1.9145   YY=    31.9053   ZY=     1.4557
   XZ=     1.0144   YZ=     1.2108   ZZ=    26.8059
   Eigenvalues:    24.8797    27.9441    32.9170
     34  C    Isotropic =   162.2411   Anisotropy =    24.9442
   XX=   166.5996   YX=     5.0692   ZX=     9.3449
   XY=    10.0968   YY=   148.3083   ZY=   -14.8900
   XZ=     3.6672   YZ=   -12.4693   ZZ=   171.8155
   Eigenvalues:   138.6964   169.1564   178.8706
     35  H    Isotropic =    28.4394   Anisotropy =     6.9318
   XX=    28.8354   YX=    -1.7326   ZX=     1.4243
   XY=    -1.4207   YY=    31.8210   ZY=    -1.4307
   XZ=     1.4872   YZ=    -2.0184   ZZ=    24.6617
   Eigenvalues:    24.0088    28.2487    33.0605
     36  H    Isotropic =    29.8184   Anisotropy =    12.8135
   XX=    37.1958   YX=    -3.0103   ZX=    -2.0276
   XY=    -3.5342   YY=    25.3757   ZY=     0.7691
   XZ=    -1.4770   YZ=     0.9695   ZZ=    26.8838
   Eigenvalues:    24.4549    26.6396    38.3608
     37  H    Isotropic =    29.4572   Anisotropy =     8.6974
   XX=    31.8136   YX=     3.4714   ZX=     1.1730
   XY=     3.7163   YY=    31.4844   ZY=     0.0916
   XZ=    -0.3575   YZ=    -0.0735   ZZ=    25.0737
   Eigenvalues:    25.0397    28.0765    35.2555
     38  H    Isotropic =    29.6347   Anisotropy =    12.2552
   XX=    33.2665   YX=    -0.1356   ZX=     6.2596
   XY=     0.7693   YY=    24.6961   ZY=     0.6251
   XZ=     4.8254   YZ=     0.8255   ZZ=    30.9414
   Eigenvalues:    24.5874    26.5119    37.8048
     39  H    Isotropic =    27.3761   Anisotropy =     9.1828
   XX=    24.8212   YX=    -1.8945   ZX=     0.6534
   XY=    -1.6109   YY=    33.1404   ZY=     0.1682
   XZ=     0.8330   YZ=    -0.2293   ZZ=    24.1667
   Eigenvalues:    23.5771    25.0532    33.4979
     40  H    Isotropic =    27.2190   Anisotropy =     8.0446
   XX=    25.5020   YX=     0.9269   ZX=     2.3013
   XY=     1.1483   YY=    28.6267   ZY=     3.7157
   XZ=     2.7055   YZ=     3.5140   ZZ=    27.5284
   Eigenvalues:    23.3748    25.7002    32.5821
     41  H    Isotropic =    30.9166   Anisotropy =     6.7407
   XX=    31.5289   YX=    -3.5636   ZX=    -0.8455
   XY=    -2.4847   YY=    26.2394   ZY=    -3.2812
   XZ=    -0.4047   YZ=    -0.6843   ZZ=    34.9814
   Eigenvalues:    24.4615    32.8778    35.4104
     42  H    Isotropic =    31.0712   Anisotropy =     5.7244
   XX=    32.3218   YX=     0.6631   ZX=    -2.2390
   XY=     2.1475   YY=    32.8949   ZY=    -0.2595
   XZ=    -4.5655   YZ=     0.5753   ZZ=    27.9969
   Eigenvalues:    26.0290    32.2972    34.8875
     43  H    Isotropic =    30.6426   Anisotropy =    13.9287
   XX=    33.5839   YX=    -2.8733   ZX=    -6.5804
   XY=    -1.0561   YY=    26.4773   ZY=    -0.0525
   XZ=    -7.2398   YZ=     1.0192   ZZ=    31.8665
   Eigenvalues:    25.0393    26.9601    39.9284
     44  H    Isotropic =    30.2339   Anisotropy =    13.0684
   XX=    27.8314   YX=     0.8972   ZX=     4.2577
   XY=     0.0466   YY=    25.6618   ZY=    -1.6177
   XZ=     4.3650   YZ=    -0.6103   ZZ=    37.2085
   Eigenvalues:    24.9923    26.7633    38.9462
     45  H    Isotropic =    28.6446   Anisotropy =     5.0896
   XX=    24.6168   YX=     0.0421   ZX=     2.6434
   XY=     0.0372   YY=    31.8186   ZY=     0.4995
   XZ=     2.4810   YZ=     0.6766   ZZ=    29.4984
   Eigenvalues:    23.5143    30.3818    32.0377
     46  H    Isotropic =    29.6800   Anisotropy =     4.8967
   XX=    32.6102   YX=     0.4996   ZX=     0.0192
   XY=     1.6305   YY=    25.2203   ZY=    -1.4586
   XZ=    -0.6633   YZ=    -1.4574   ZZ=    31.2095
   Eigenvalues:    24.7647    31.3308    32.9445
     47  H    Isotropic =    27.3637   Anisotropy =     7.7596
   XX=    26.1887   YX=    -3.0341   ZX=    -2.9206
   XY=    -3.9286   YY=    30.6120   ZY=    -1.1836
   XZ=    -2.8853   YZ=    -1.3944   ZZ=    25.2905
   Eigenvalues:    21.5751    27.9793    32.5368
     48  C    Isotropic =   166.7490   Anisotropy =    22.1481
   XX=   173.0708   YX=     0.6556   ZX=   -10.6125
   XY=     5.1759   YY=   159.2002   ZY=    12.5556
   XZ=    -8.8736   YZ=     8.1619   ZZ=   167.9760
   Eigenvalues:   149.5456   169.1870   181.5144
     49  H    Isotropic =    28.5802   Anisotropy =     6.5052
   XX=    27.0299   YX=     2.6192   ZX=     1.2064
   XY=     1.9146   YY=    31.9050   ZY=    -1.4558
   XZ=     1.0142   YZ=    -1.2110   ZZ=    26.8058
   Eigenvalues:    24.8797    27.9439    32.9170
     50  C    Isotropic =   162.2404   Anisotropy =    24.9416
   XX=   166.5988   YX=    -5.0694   ZX=     9.3446
   XY=   -10.0976   YY=   148.3088   ZY=    14.8884
   XZ=     3.6665   YZ=    12.4690   ZZ=   171.8137
   Eigenvalues:   138.6969   169.1562   178.8682
     51  H    Isotropic =    28.4393   Anisotropy =     6.9316
   XX=    28.8354   YX=     1.7323   ZX=     1.4241
   XY=     1.4205   YY=    31.8211   ZY=     1.4306
   XZ=     1.4871   YZ=     2.0184   ZZ=    24.6613
   Eigenvalues:    24.0085    28.2489    33.0604
     52  H    Isotropic =    29.8184   Anisotropy =    12.8135
   XX=    37.1960   YX=     3.0102   ZX=    -2.0274
   XY=     3.5341   YY=    25.3756   ZY=    -0.7688
   XZ=    -1.4767   YZ=    -0.9693   ZZ=    26.8836
   Eigenvalues:    24.4550    26.6395    38.3608
     53  H    Isotropic =    29.4572   Anisotropy =     8.6975
   XX=    31.8136   YX=    -3.4715   ZX=     1.1733
   XY=    -3.7163   YY=    31.4844   ZY=    -0.0919
   XZ=    -0.3572   YZ=     0.0733   ZZ=    25.0737
   Eigenvalues:    25.0397    28.0764    35.2556
     54  H    Isotropic =    29.6347   Anisotropy =    12.2551
   XX=    33.2661   YX=     0.1358   ZX=     6.2596
   XY=    -0.7691   YY=    24.6961   ZY=    -0.6248
   XZ=     4.8255   YZ=    -0.8253   ZZ=    30.9418
   Eigenvalues:    24.5874    26.5118    37.8048
     55  H    Isotropic =    30.6426   Anisotropy =    13.9288
   XX=    33.5843   YX=     2.8731   ZX=    -6.5804
   XY=     1.0559   YY=    26.4773   ZY=     0.0527
   XZ=    -7.2398   YZ=    -1.0189   ZZ=    31.8661
   Eigenvalues:    25.0392    26.9601    39.9284
     56  H    Isotropic =    31.0711   Anisotropy =     5.7244
   XX=    32.3219   YX=    -0.6633   ZX=    -2.2388
   XY=    -2.1475   YY=    32.8949   ZY=     0.2593
   XZ=    -4.5653   YZ=    -0.5754   ZZ=    27.9966
   Eigenvalues:    26.0289    32.2971    34.8874
     57  H    Isotropic =    30.9166   Anisotropy =     6.7408
   XX=    31.5290   YX=     3.5635   ZX=    -0.8457
   XY=     2.4846   YY=    26.2396   ZY=     3.2816
   XZ=    -0.4051   YZ=     0.6847   ZZ=    34.9814
   Eigenvalues:    24.4615    32.8779    35.4105
     58  H    Isotropic =    28.6442   Anisotropy =     5.0907
   XX=    24.6160   YX=    -0.0422   ZX=     2.6435
   XY=    -0.0374   YY=    31.8184   ZY=    -0.5003
   XZ=     2.4812   YZ=    -0.6775   ZZ=    29.4983
   Eigenvalues:    23.5135    30.3812    32.0380
     59  H    Isotropic =    30.2339   Anisotropy =    13.0682
   XX=    27.8312   YX=    -0.8971   ZX=     4.2573
   XY=    -0.0466   YY=    25.6619   ZY=     1.6179
   XZ=     4.3646   YZ=     0.6106   ZZ=    37.2087
   Eigenvalues:    24.9924    26.7634    38.9461
     60  H    Isotropic =    29.6800   Anisotropy =     4.8967
   XX=    32.6103   YX=    -0.4998   ZX=     0.0194
   XY=    -1.6306   YY=    25.2205   ZY=     1.4586
   XZ=    -0.6631   YZ=     1.4573   ZZ=    31.2093
   Eigenvalues:    24.7649    31.3307    32.9445
 End of Minotr F.D. properties file   721 does not exist.
 End of Minotr F.D. properties file   722 does not exist.
 End of Minotr F.D. properties file   788 does not exist.

 **********************************************************************

            Population analysis using the SCF density.

 **********************************************************************

 Orbital symmetries:
       Occupied  (A) (A) (A) (A) (A) (A) (A) (A) (A) (A) (A) (A)
                 (A) (A) (A) (A) (A) (A) (A) (A) (A) (A) (A) (A)
                 (A) (A) (A) (A) (A) (A) (A) (A) (A) (A) (A) (A)
                 (A) (A) (A) (A) (A) (A) (A) (A) (A) (A) (A) (A)
                 (A) (A) (A) (A) (A) (A) (A) (A) (A) (A) (A) (A)
                 (A) (A) (A) (A) (A) (A) (A) (A) (A) (A) (A) (A)
                 (A) (A) (A) (A) (A) (A) (A) (A) (A) (A) (A) (A)
                 (A) (A) (A) (A) (A) (A) (A) (A) (A) (A) (A) (A)
                 (A) (A) (A) (A) (A) (A) (A) (A) (A) (A) (A) (A)
                 (A) (A) (A) (A) (A) (A) (A) (A) (A) (A) (A) (A)
                 (A) (A) (A) (A) (A) (A) (A) (A) (A) (A) (A)
       Virtual   (A) (A) (A) (A) (A) (A) (A) (A) (A) (A) (A) (A)
                 (A) (A) (A) (A) (A) (A) (A) (A) (A) (A) (A) (A)
                 (A) (A) (A) (A) (A) (A) (A) (A) (A) (A) (A) (A)
                 (A) (A) (A) (A) (A) (A) (A) (A) (A) (A) (A) (A)
                 (A) (A) (A) (A) (A) (A) (A) (A) (A) (A) (A) (A)
                 (A) (A) (A) (A) (A) (A) (A) (A) (A) (A) (A) (A)
                 (A) (A) (A) (A) (A) (A) (A) (A) (A) (A) (A) (A)
                 (A) (A) (A) (A) (A) (A) (A) (A) (A) (A) (A) (A)
                 (A) (A) (A) (A) (A) (A) (A) (A) (A) (A) (A) (A)
                 (A) (A) (A) (A) (A) (A) (A) (A) (A) (A) (A) (A)
                 (A) (A) (A) (A) (A) (A) (A) (A) (A) (A) (A) (A)
                 (A) (A) (A) (A) (A) (A) (A) (A) (A) (A) (A) (A)
                 (A) (A) (A) (A) (A) (A) (A) (A) (A) (A) (A) (A)
                 (A) (A) (A) (A) (A) (A) (A) (A) (A) (A) (A) (A)
                 (A) (A) (A) (A) (A) (A) (A) (A) (A) (A) (A) (A)
                 (A) (A) (A) (A) (A) (A) (A) (A) (A) (A) (A) (A)
                 (A) (A) (A) (A) (A) (A) (A) (A) (A) (A) (A) (A)
                 (A) (A) (A) (A) (A) (A) (A) (A) (A) (A) (A) (A)
                 (A) (A) (A) (A) (A) (A) (A) (A) (A) (A) (A) (A)
                 (A) (A) (A) (A) (A) (A) (A) (A) (A) (A) (A) (A)
                 (A) (A) (A) (A) (A) (A) (A) (A) (A) (A) (A) (A)
                 (A) (A) (A) (A) (A) (A) (A) (A) (A) (A) (A) (A)
                 (A) (A) (A) (A) (A) (A) (A) (A) (A) (A) (A) (A)
                 (A) (A) (A) (A) (A) (A) (A) (A) (A) (A) (A) (A)
                 (A) (A) (A) (A) (A) (A) (A) (A) (A) (A) (A) (A)
                 (A) (A) (A) (A) (A) (A) (A) (A) (A) (A) (A) (A)
                 (A) (A) (A) (A) (A) (A) (A) (A) (A) (A) (A) (A)
                 (A) (A) (A) (A) (A) (A) (A) (A) (A) (A) (A) (A)
                 (A) (A) (A) (A) (A) (A) (A) (A) (A) (A) (A) (A)
                 (A) (A) (A) (A) (A) (A) (A) (A) (A) (A) (A) (A)
                 (A) (A) (A) (A) (A) (A) (A) (A) (A) (A) (A) (A)
                 (A) (A) (A) (A) (A) (A) (A) (A) (A) (A) (A) (A)
                 (A) (A) (A) (A) (A) (A) (A) (A) (A) (A) (A) (A)
                 (A) (A) (A) (A) (A) (A) (A) (A) (A) (A) (A) (A)
                 (A) (A) (A) (A) (A) (A) (A) (A) (A) (A) (A) (A)
                 (A) (A) (A) (A) (A) (A) (A) (A) (A) (A) (A) (A)
                 (A) (A) (A) (A) (A) (A) (A) (A) (A) (A) (A) (A)
                 (A) (A) (A) (A) (A) (A) (A) (A) (A) (A) (A) (A)
                 (A) (A) (A) (A) (A) (A) (A) (A) (A) (A) (A) (A)
                 (A) (A) (A) (A) (A) (A) (A) (A) (A) (A) (A) (A)
                 (A) (A) (A) (A) (A) (A) (A) (A) (A) (A) (A) (A)
                 (A) (A) (A) (A) (A) (A) (A) (A) (A) (A) (A) (A)
                 (A) (A) (A) (A) (A) (A) (A) (A) (A) (A) (A) (A)
                 (A) (A) (A) (A) (A) (A) (A) (A) (A) (A) (A) (A)
                 (A) (A) (A) (A) (A) (A) (A) (A) (A) (A) (A) (A)
                 (A) (A) (A) (A) (A) (A) (A) (A) (A) (A) (A) (A)
                 (A) (A) (A) (A) (A) (A) (A) (A) (A) (A) (A) (A)
                 (A) (A) (A) (A) (A) (A) (A) (A) (A) (A) (A) (A)
                 (A) (A) (A) (A) (A) (A) (A) (A) (A) (A) (A) (A)
                 (A) (A) (A) (A) (A) (A) (A) (A) (A) (A) (A) (A)
                 (A) (A) (A) (A) (A) (A) (A) (A) (A) (A) (A) (A)
                 (A) (A) (A) (A) (A) (A) (A) (A) (A) (A) (A) (A)
                 (A) (A) (A) (A) (A) (A) (A) (A) (A) (A) (A) (A)
                 (A) (A) (A) (A) (A) (A) (A) (A) (A) (A) (A) (A)
                 (A) (A) (A) (A) (A) (A) (A) (A) (A) (A) (A) (A)
                 (A) (A) (A) (A) (A) (A) (A) (A) (A) (A) (A) (A)
                 (A) (A) (A) (A) (A) (A) (A) (A) (A) (A) (A) (A)
                 (A) (A) (A) (A) (A) (A) (A) (A) (A) (A) (A) (A)
                 (A) (A) (A) (A) (A) (A) (A) (A) (A) (A) (A) (A)
                 (A) (A) (A) (A) (A) (A) (A) (A) (A) (A) (A) (A)
                 (A) (A) (A) (A) (A) (A) (A) (A) (A) (A) (A) (A)
                 (A) (A) (A) (A) (A) (A) (A) (A) (A) (A) (A) (A)
                 (A) (A) (A) (A) (A) (A) (A) (A) (A) (A) (A) (A)
                 (A) (A) (A) (A) (A) (A) (A) (A) (A) (A) (A) (A)
                 (A) (A) (A) (A) (A) (A) (A) (A) (A) (A) (A) (A)
                 (A) (A) (A) (A) (A) (A) (A) (A) (A) (A) (A) (A)
                 (A) (A) (A) (A) (A) (A) (A) (A) (A) (A) (A) (A)
                 (A) (A) (A) (A) (A) (A) (A) (A) (A) (A) (A) (A)
                 (A) (A) (A) (A) (A) (A) (A) (A) (A) (A) (A) (A)
                 (A) (A) (A) (A) (A) (A) (A) (A) (A) (A) (A) (A)
                 (A) (A) (A) (A) (A) (A) (A) (A) (A) (A) (A) (A)
                 (A) (A) (A) (A) (A) (A) (A) (A) (A) (A) (A) (A)
                 (A) (A) (A) (A) (A) (A) (A) (A) (A) (A) (A) (A)
                 (A) (A) (A) (A) (A) (A) (A) (A) (A) (A) (A) (A)
                 (A) (A) (A) (A) (A) (A) (A) (A) (A) (A) (A) (A)
                 (A) (A) (A) (A) (A) (A) (A) (A) (A) (A) (A) (A)
                 (A) (A) (A) (A) (A) (A) (A) (A) (A) (A) (A) (A)
                 (A) (A) (A) (A) (A) (A) (A) (A) (A) (A) (A) (A)
                 (A) (A) (A) (A) (A) (A) (A) (A) (A) (A) (A) (A)
                 (A) (A) (A) (A) (A) (A) (A) (A) (A) (A) (A) (A)
                 (A) (A) (A) (A) (A) (A) (A) (A) (A) (A)
 The electronic state is 1-A.
 Alpha  occ. eigenvalues -- -101.61650-101.61650 -77.25489 -77.25489 -10.27087
 Alpha  occ. eigenvalues --  -10.27087 -10.26765 -10.26764 -10.26611 -10.26611
 Alpha  occ. eigenvalues --  -10.26578 -10.26578 -10.26542 -10.26542 -10.25634
 Alpha  occ. eigenvalues --  -10.25634 -10.24445 -10.24445 -10.23850 -10.23850
 Alpha  occ. eigenvalues --  -10.22852 -10.22852 -10.22480 -10.22480 -10.21949
 Alpha  occ. eigenvalues --  -10.21948  -9.44169  -9.44168  -7.17354  -7.17354
 Alpha  occ. eigenvalues --   -7.16895  -7.16895  -7.16852  -7.16852  -6.64741
 Alpha  occ. eigenvalues --   -6.64741  -4.78355  -4.78355  -4.78265  -4.78264
 Alpha  occ. eigenvalues --   -4.78074  -4.78074  -3.63175  -3.51898  -2.27727
 Alpha  occ. eigenvalues --   -2.23506  -2.23445  -2.19737  -2.19406  -2.16148
 Alpha  occ. eigenvalues --   -0.94616  -0.92600  -0.86753  -0.86702  -0.79759
 Alpha  occ. eigenvalues --   -0.79731  -0.77475  -0.77214  -0.76227  -0.76187
 Alpha  occ. eigenvalues --   -0.74756  -0.74073  -0.73794  -0.73690  -0.68354
 Alpha  occ. eigenvalues --   -0.68305  -0.67572  -0.67557  -0.60326  -0.59406
 Alpha  occ. eigenvalues --   -0.59278  -0.58456  -0.58369  -0.57402  -0.57298
 Alpha  occ. eigenvalues --   -0.56989  -0.53229  -0.52987  -0.49888  -0.49869
 Alpha  occ. eigenvalues --   -0.49207  -0.48821  -0.46819  -0.45468  -0.45228
 Alpha  occ. eigenvalues --   -0.44487  -0.44426  -0.43787  -0.43540  -0.43294
 Alpha  occ. eigenvalues --   -0.42884  -0.42508  -0.42436  -0.42353  -0.42318
 Alpha  occ. eigenvalues --   -0.41634  -0.41338  -0.40449  -0.40237  -0.39707
 Alpha  occ. eigenvalues --   -0.39572  -0.39331  -0.36933  -0.36832  -0.35951
 Alpha  occ. eigenvalues --   -0.35926  -0.35255  -0.35165  -0.34891  -0.34795
 Alpha  occ. eigenvalues --   -0.34200  -0.33871  -0.33778  -0.33618  -0.32884
 Alpha  occ. eigenvalues --   -0.31464  -0.31317  -0.30664  -0.30127  -0.29657
 Alpha  occ. eigenvalues --   -0.29322  -0.28411  -0.28171  -0.27290  -0.25916
 Alpha  occ. eigenvalues --   -0.25233  -0.25186  -0.25111  -0.24744  -0.24069
 Alpha  occ. eigenvalues --   -0.23988
 Alpha virt. eigenvalues --   -0.07221  -0.02806  -0.02719  -0.01840  -0.01760
 Alpha virt. eigenvalues --    0.00020   0.00525   0.01196   0.01225   0.02067
 Alpha virt. eigenvalues --    0.03016   0.03017   0.03214   0.03913   0.04086
 Alpha virt. eigenvalues --    0.04705   0.04872   0.05544   0.05564   0.06515
 Alpha virt. eigenvalues --    0.07034   0.07423   0.07532   0.07825   0.08654
 Alpha virt. eigenvalues --    0.08656   0.08754   0.08918   0.09524   0.09745
 Alpha virt. eigenvalues --    0.09839   0.10133   0.10848   0.11359   0.11633
 Alpha virt. eigenvalues --    0.11905   0.12291   0.12695   0.12981   0.13037
 Alpha virt. eigenvalues --    0.13450   0.13556   0.14313   0.14507   0.14525
 Alpha virt. eigenvalues --    0.14835   0.14978   0.15174   0.15388   0.15894
 Alpha virt. eigenvalues --    0.16336   0.16388   0.16783   0.17464   0.17674
 Alpha virt. eigenvalues --    0.17906   0.17968   0.18500   0.18639   0.18697
 Alpha virt. eigenvalues --    0.18827   0.18942   0.19216   0.20257   0.20386
 Alpha virt. eigenvalues --    0.20689   0.20726   0.21253   0.21319   0.21567
 Alpha virt. eigenvalues --    0.21922   0.22980   0.23043   0.23229   0.23648
 Alpha virt. eigenvalues --    0.23727   0.24082   0.24327   0.25107   0.25298
 Alpha virt. eigenvalues --    0.25589   0.25904   0.26106   0.26160   0.26571
 Alpha virt. eigenvalues --    0.27323   0.27475   0.27636   0.27783   0.28477
 Alpha virt. eigenvalues --    0.28675   0.28984   0.29730   0.29777   0.29897
 Alpha virt. eigenvalues --    0.30336   0.30437   0.30805   0.31647   0.31863
 Alpha virt. eigenvalues --    0.32247   0.32857   0.32884   0.33940   0.34330
 Alpha virt. eigenvalues --    0.34454   0.35079   0.35705   0.36160   0.36329
 Alpha virt. eigenvalues --    0.36577   0.36885   0.37131   0.37384   0.37699
 Alpha virt. eigenvalues --    0.37813   0.38231   0.38634   0.38839   0.39461
 Alpha virt. eigenvalues --    0.39749   0.39820   0.40282   0.40512   0.40641
 Alpha virt. eigenvalues --    0.40740   0.41274   0.41454   0.41619   0.41994
 Alpha virt. eigenvalues --    0.42196   0.42308   0.42625   0.42629   0.43069
 Alpha virt. eigenvalues --    0.43685   0.43868   0.44202   0.44441   0.44724
 Alpha virt. eigenvalues --    0.44782   0.44874   0.44999   0.45539   0.45633
 Alpha virt. eigenvalues --    0.45876   0.45945   0.46458   0.46621   0.46648
 Alpha virt. eigenvalues --    0.47272   0.47371   0.47719   0.47848   0.48397
 Alpha virt. eigenvalues --    0.48485   0.49157   0.49574   0.49921   0.50169
 Alpha virt. eigenvalues --    0.50257   0.50761   0.51211   0.51260   0.51631
 Alpha virt. eigenvalues --    0.51841   0.52185   0.52309   0.52357   0.52692
 Alpha virt. eigenvalues --    0.53271   0.53344   0.53533   0.54149   0.54279
 Alpha virt. eigenvalues --    0.54611   0.54667   0.55262   0.55317   0.55517
 Alpha virt. eigenvalues --    0.55887   0.55973   0.56463   0.56511   0.56956
 Alpha virt. eigenvalues --    0.57270   0.57332   0.57938   0.58107   0.58866
 Alpha virt. eigenvalues --    0.59373   0.59458   0.59574   0.59809   0.59849
 Alpha virt. eigenvalues --    0.61417   0.61612   0.61827   0.61839   0.62040
 Alpha virt. eigenvalues --    0.62669   0.62730   0.63112   0.63694   0.64301
 Alpha virt. eigenvalues --    0.64619   0.65207   0.65623   0.65912   0.67168
 Alpha virt. eigenvalues --    0.67199   0.67358   0.67666   0.68389   0.68522
 Alpha virt. eigenvalues --    0.68627   0.69049   0.69187   0.69402   0.70855
 Alpha virt. eigenvalues --    0.70941   0.71066   0.72037   0.72842   0.73906
 Alpha virt. eigenvalues --    0.74229   0.74254   0.75470   0.75552   0.75945
 Alpha virt. eigenvalues --    0.76369   0.76736   0.77067   0.78164   0.78702
 Alpha virt. eigenvalues --    0.79296   0.79788   0.79850   0.80738   0.81497
 Alpha virt. eigenvalues --    0.81671   0.81720   0.82741   0.83144   0.84445
 Alpha virt. eigenvalues --    0.84470   0.86207   0.86345   0.86969   0.87003
 Alpha virt. eigenvalues --    0.87648   0.88136   0.88374   0.88796   0.89293
 Alpha virt. eigenvalues --    0.89700   0.90145   0.90718   0.91225   0.91875
 Alpha virt. eigenvalues --    0.92689   0.92916   0.93402   0.93577   0.93741
 Alpha virt. eigenvalues --    0.94214   0.94644   0.94781   0.95251   0.96359
 Alpha virt. eigenvalues --    0.96624   0.97027   0.97117   0.97488   0.97823
 Alpha virt. eigenvalues --    0.98240   1.00093   1.00434   1.00860   1.00958
 Alpha virt. eigenvalues --    1.01585   1.02063   1.02810   1.03564   1.04428
 Alpha virt. eigenvalues --    1.04908   1.05098   1.05558   1.05814   1.06198
 Alpha virt. eigenvalues --    1.07243   1.07563   1.08527   1.09268   1.09596
 Alpha virt. eigenvalues --    1.09953   1.11022   1.11509   1.11660   1.12047
 Alpha virt. eigenvalues --    1.12776   1.12989   1.14061   1.14797   1.15587
 Alpha virt. eigenvalues --    1.15688   1.15734   1.16943   1.16965   1.18026
 Alpha virt. eigenvalues --    1.18032   1.18394   1.18880   1.19266   1.19340
 Alpha virt. eigenvalues --    1.20126   1.20208   1.20751   1.21157   1.21253
 Alpha virt. eigenvalues --    1.22079   1.22214   1.22891   1.23588   1.23691
 Alpha virt. eigenvalues --    1.24037   1.24389   1.24835   1.25164   1.25618
 Alpha virt. eigenvalues --    1.26026   1.26112   1.26625   1.26739   1.27442
 Alpha virt. eigenvalues --    1.28141   1.29091   1.29582   1.30746   1.31113
 Alpha virt. eigenvalues --    1.31198   1.32063   1.32480   1.33262   1.34338
 Alpha virt. eigenvalues --    1.34398   1.35304   1.35739   1.35929   1.36348
 Alpha virt. eigenvalues --    1.37076   1.37270   1.38234   1.39198   1.39518
 Alpha virt. eigenvalues --    1.39962   1.40122   1.41535   1.41858   1.42434
 Alpha virt. eigenvalues --    1.43637   1.44673   1.45241   1.45993   1.46584
 Alpha virt. eigenvalues --    1.46697   1.47635   1.48871   1.49812   1.50485
 Alpha virt. eigenvalues --    1.50816   1.51552   1.51992   1.52600   1.52951
 Alpha virt. eigenvalues --    1.53260   1.53980   1.54810   1.55375   1.55441
 Alpha virt. eigenvalues --    1.55759   1.57237   1.57327   1.57767   1.58080
 Alpha virt. eigenvalues --    1.59297   1.59333   1.60100   1.60395   1.60688
 Alpha virt. eigenvalues --    1.61321   1.61616   1.61777   1.62952   1.63190
 Alpha virt. eigenvalues --    1.63550   1.63609   1.64416   1.64987   1.65197
 Alpha virt. eigenvalues --    1.65346   1.66004   1.66094   1.66371   1.67721
 Alpha virt. eigenvalues --    1.68225   1.68263   1.68500   1.68577   1.68982
 Alpha virt. eigenvalues --    1.69037   1.69301   1.69594   1.70904   1.71787
 Alpha virt. eigenvalues --    1.72043   1.72336   1.72664   1.73492   1.74157
 Alpha virt. eigenvalues --    1.74733   1.76056   1.76660   1.77593   1.78183
 Alpha virt. eigenvalues --    1.78725   1.79228   1.79591   1.79799   1.80958
 Alpha virt. eigenvalues --    1.81586   1.82703   1.82828   1.84195   1.84601
 Alpha virt. eigenvalues --    1.84738   1.84922   1.86044   1.86309   1.87033
 Alpha virt. eigenvalues --    1.87263   1.88388   1.88457   1.89311   1.89494
 Alpha virt. eigenvalues --    1.91075   1.91173   1.92374   1.92480   1.93104
 Alpha virt. eigenvalues --    1.93382   1.93577   1.93989   1.95203   1.95923
 Alpha virt. eigenvalues --    1.96181   1.97402   1.97522   1.98065   1.98165
 Alpha virt. eigenvalues --    1.98767   1.99249   1.99719   2.00717   2.01257
 Alpha virt. eigenvalues --    2.01713   2.02120   2.02318   2.03237   2.03366
 Alpha virt. eigenvalues --    2.03964   2.04057   2.04799   2.05460   2.05709
 Alpha virt. eigenvalues --    2.06303   2.08199   2.08343   2.08717   2.08983
 Alpha virt. eigenvalues --    2.09068   2.09723   2.10817   2.10839   2.11945
 Alpha virt. eigenvalues --    2.12170   2.12524   2.14391   2.14443   2.14627
 Alpha virt. eigenvalues --    2.15166   2.15566   2.15813   2.15903   2.17050
 Alpha virt. eigenvalues --    2.17222   2.17765   2.17883   2.18572   2.19079
 Alpha virt. eigenvalues --    2.19691   2.19914   2.19916   2.20863   2.21020
 Alpha virt. eigenvalues --    2.21257   2.21499   2.21803   2.22372   2.23254
 Alpha virt. eigenvalues --    2.23481   2.24077   2.24862   2.25278   2.25565
 Alpha virt. eigenvalues --    2.25820   2.26605   2.26889   2.27653   2.27749
 Alpha virt. eigenvalues --    2.28121   2.29819   2.30514   2.30944   2.31665
 Alpha virt. eigenvalues --    2.31688   2.33140   2.33588   2.33951   2.34068
 Alpha virt. eigenvalues --    2.34596   2.34865   2.35966   2.36167   2.36653
 Alpha virt. eigenvalues --    2.37940   2.38629   2.38737   2.39221   2.39641
 Alpha virt. eigenvalues --    2.40652   2.41358   2.41721   2.41795   2.42557
 Alpha virt. eigenvalues --    2.42798   2.43545   2.44106   2.44870   2.45431
 Alpha virt. eigenvalues --    2.45968   2.46650   2.46950   2.47355   2.47832
 Alpha virt. eigenvalues --    2.48622   2.48802   2.49276   2.49426   2.50293
 Alpha virt. eigenvalues --    2.50539   2.51103   2.51263   2.51291   2.52109
 Alpha virt. eigenvalues --    2.52460   2.53282   2.53370   2.53399   2.53840
 Alpha virt. eigenvalues --    2.54292   2.54542   2.55034   2.55466   2.55854
 Alpha virt. eigenvalues --    2.56673   2.56930   2.57348   2.57435   2.58542
 Alpha virt. eigenvalues --    2.59096   2.59224   2.59420   2.59651   2.59857
 Alpha virt. eigenvalues --    2.60334   2.61681   2.61842   2.61928   2.62801
 Alpha virt. eigenvalues --    2.63348   2.63589   2.64250   2.64723   2.65184
 Alpha virt. eigenvalues --    2.65363   2.66775   2.66998   2.67572   2.67781
 Alpha virt. eigenvalues --    2.68389   2.69085   2.69475   2.69957   2.70194
 Alpha virt. eigenvalues --    2.70258   2.70844   2.71657   2.72010   2.72893
 Alpha virt. eigenvalues --    2.73360   2.73456   2.73841   2.75061   2.75141
 Alpha virt. eigenvalues --    2.75463   2.75597   2.75890   2.77078   2.77466
 Alpha virt. eigenvalues --    2.77591   2.78493   2.79018   2.79020   2.79687
 Alpha virt. eigenvalues --    2.80111   2.81022   2.81200   2.81895   2.82663
 Alpha virt. eigenvalues --    2.82973   2.83125   2.84411   2.84594   2.85683
 Alpha virt. eigenvalues --    2.85738   2.87099   2.87857   2.88232   2.88444
 Alpha virt. eigenvalues --    2.88891   2.88907   2.90044   2.90280   2.91609
 Alpha virt. eigenvalues --    2.91767   2.92434   2.93992   2.94920   2.95232
 Alpha virt. eigenvalues --    2.95893   2.96007   2.96014   2.97647   2.98292
 Alpha virt. eigenvalues --    2.99269   2.99821   3.00273   3.01531   3.03384
 Alpha virt. eigenvalues --    3.04161   3.04590   3.04794   3.04877   3.05699
 Alpha virt. eigenvalues --    3.06195   3.06549   3.06742   3.08725   3.09169
 Alpha virt. eigenvalues --    3.09326   3.09620   3.09952   3.10281   3.10993
 Alpha virt. eigenvalues --    3.12297   3.12599   3.13496   3.14282   3.15368
 Alpha virt. eigenvalues --    3.15568   3.15702   3.16847   3.17460   3.17475
 Alpha virt. eigenvalues --    3.17885   3.18180   3.19557   3.20149   3.20912
 Alpha virt. eigenvalues --    3.21151   3.21821   3.21949   3.22208   3.23104
 Alpha virt. eigenvalues --    3.23182   3.24184   3.24304   3.24808   3.25111
 Alpha virt. eigenvalues --    3.26225   3.26555   3.27169   3.28118   3.29012
 Alpha virt. eigenvalues --    3.29205   3.29673   3.30317   3.30577   3.31138
 Alpha virt. eigenvalues --    3.31560   3.32228   3.33198   3.33210   3.34100
 Alpha virt. eigenvalues --    3.34173   3.34304   3.34739   3.35622   3.35813
 Alpha virt. eigenvalues --    3.36535   3.36830   3.36842   3.37049   3.37348
 Alpha virt. eigenvalues --    3.37990   3.38335   3.38588   3.38950   3.39941
 Alpha virt. eigenvalues --    3.40939   3.41015   3.41265   3.41586   3.42376
 Alpha virt. eigenvalues --    3.42448   3.42967   3.42997   3.43344   3.43751
 Alpha virt. eigenvalues --    3.44402   3.44568   3.44841   3.45217   3.46081
 Alpha virt. eigenvalues --    3.47003   3.47487   3.47549   3.48563   3.48961
 Alpha virt. eigenvalues --    3.50042   3.50220   3.50672   3.51018   3.51797
 Alpha virt. eigenvalues --    3.52342   3.52786   3.53717   3.53985   3.54539
 Alpha virt. eigenvalues --    3.55600   3.55787   3.57036   3.57253   3.58074
 Alpha virt. eigenvalues --    3.59943   3.60229   3.61098   3.61595   3.61631
 Alpha virt. eigenvalues --    3.62919   3.63139   3.65061   3.65784   3.66495
 Alpha virt. eigenvalues --    3.67076   3.67293   3.67994   3.68686   3.69132
 Alpha virt. eigenvalues --    3.69540   3.69733   3.72770   3.73186   3.74815
 Alpha virt. eigenvalues --    3.76634   3.76687   3.78602   3.79826   3.81166
 Alpha virt. eigenvalues --    3.81428   3.81890   3.82255   3.85010   3.85521
 Alpha virt. eigenvalues --    3.85984   3.86223   3.86296   3.86370   3.87222
 Alpha virt. eigenvalues --    3.87968   3.88296   3.90552   3.91945   3.92139
 Alpha virt. eigenvalues --    3.93883   3.94547   3.95101   3.95957   3.96602
 Alpha virt. eigenvalues --    3.97304   3.97514   3.98461   4.00115   4.00452
 Alpha virt. eigenvalues --    4.00667   4.00755   4.02752   4.02772   4.02973
 Alpha virt. eigenvalues --    4.03935   4.03952   4.05561   4.05631   4.06314
 Alpha virt. eigenvalues --    4.08521   4.09671   4.10105   4.10332   4.10543
 Alpha virt. eigenvalues --    4.10806   4.10891   4.13322   4.13761   4.14161
 Alpha virt. eigenvalues --    4.14232   4.15270   4.15970   4.16074   4.16534
 Alpha virt. eigenvalues --    4.17277   4.18247   4.19310   4.19413   4.19651
 Alpha virt. eigenvalues --    4.20891   4.21143   4.22732   4.23227   4.23802
 Alpha virt. eigenvalues --    4.26314   4.28425   4.28910   4.29427   4.32800
 Alpha virt. eigenvalues --    4.33947   4.34969   4.35002   4.35931   4.37050
 Alpha virt. eigenvalues --    4.38234   4.40589   4.40983   4.41471   4.41721
 Alpha virt. eigenvalues --    4.42424   4.42664   4.43921   4.46237   4.46912
 Alpha virt. eigenvalues --    4.47031   4.50273   4.50454   4.52516   4.52684
 Alpha virt. eigenvalues --    4.54166   4.54517   4.56521   4.58758   4.59048
 Alpha virt. eigenvalues --    4.59298   4.60463   4.62021   4.62602   4.66232
 Alpha virt. eigenvalues --    4.66457   4.70207   4.70488   4.70971   4.71912
 Alpha virt. eigenvalues --    4.72179   4.83420   4.85652   4.86040   4.88337
 Alpha virt. eigenvalues --    4.89661   4.89696   4.91401   4.93591   4.94536
 Alpha virt. eigenvalues --    4.95322   4.99273   4.99325   5.01360   5.01789
 Alpha virt. eigenvalues --    5.02833   5.03991   5.06599   5.07469   5.08048
 Alpha virt. eigenvalues --    5.12170   5.14378   5.16207   5.17472   5.19636
 Alpha virt. eigenvalues --    5.19782   5.21314   5.24923   5.26272   5.31792
 Alpha virt. eigenvalues --    5.41133   5.42593   5.60212   5.61687   7.85285
 Alpha virt. eigenvalues --    7.87626   7.90895   7.91183   8.05209   8.05913
 Alpha virt. eigenvalues --   10.93398  10.93577  10.99019  11.05123  11.06517
 Alpha virt. eigenvalues --   11.07520  15.78600  15.86570  22.46952  22.48306
 Alpha virt. eigenvalues --   22.48795  22.50113  22.51725  22.53179  22.59007
 Alpha virt. eigenvalues --   22.59224  22.62464  22.64860  22.68760  22.69895
 Alpha virt. eigenvalues --   22.70651  22.70745  22.72084  22.73606  22.76960
 Alpha virt. eigenvalues --   22.78140  22.87885  22.88285  23.05162  23.05992
 Alpha virt. eigenvalues --   25.49217  25.72800  40.17711  40.34307  40.36125
 Alpha virt. eigenvalues --   40.74285  41.04503  41.13939  52.12617  56.93927
          Condensed to atoms (all electrons):
 Mulliken charges:
               1
     1  Fe  -0.622288
     2  P    0.146372
     3  P    0.146370
     4  C    0.094168
     5  C   -0.111465
     6  C   -0.044377
     7  C   -0.085265
     8  C   -0.076566
     9  C    0.094156
    10  C   -0.076555
    11  C   -0.085251
    12  C   -0.044380
    13  C   -0.111460
    14  C   -0.075481
    15  C   -0.232097
    16  C   -0.106924
    17  C   -0.214953
    18  C   -0.075480
    19  C   -0.232102
    20  C   -0.106922
    21  C   -0.214951
    22  H    0.136640
    23  H    0.126213
    24  H    0.126128
    25  H    0.142031
    26  H    0.142032
    27  H    0.136637
    28  Cl  -0.421377
    29  Cl  -0.421379
    30  Pd   0.180137
    31  H    0.155702
    32  C   -0.386647
    33  H    0.119869
    34  C   -0.404243
    35  H    0.156274
    36  H    0.108601
    37  H    0.115729
    38  H    0.115467
    39  H    0.126128
    40  H    0.126213
    41  H    0.133668
    42  H    0.124850
    43  H    0.137871
    44  H    0.127726
    45  H    0.170076
    46  H    0.143078
    47  H    0.155699
    48  C   -0.386643
    49  H    0.119870
    50  C   -0.404240
    51  H    0.156276
    52  H    0.108600
    53  H    0.115728
    54  H    0.115468
    55  H    0.137871
    56  H    0.124850
    57  H    0.133668
    58  H    0.170074
    59  H    0.127724
    60  H    0.143081
 Sum of Mulliken charges =  -0.00000
 Mulliken charges with hydrogens summed into heavy atoms:
               1
     1  Fe  -0.622288
     2  P    0.146372
     3  P    0.146370
     4  C    0.094168
     5  C    0.025175
     6  C    0.081836
     7  C    0.040862
     8  C    0.065466
     9  C    0.094156
    10  C    0.065477
    11  C    0.040876
    12  C    0.081832
    13  C    0.025177
    14  C    0.080221
    15  C    0.032778
    16  C    0.012946
    17  C    0.016243
    18  C    0.080219
    19  C    0.032774
    20  C    0.012948
    21  C    0.016244
    28  Cl  -0.421377
    29  Cl  -0.421379
    30  Pd   0.180137
    32  C    0.009742
    34  C    0.036638
    48  C    0.009747
    50  C    0.036639
 Electronic spatial extent (au):  <R**2>=          11675.9929
 Charge=             -0.0000 electrons
 Dipole moment (field-independent basis, Debye):
    X=             -0.0000    Y=            -11.6632    Z=             -0.0001  Tot=             11.6632
 Quadrupole moment (field-independent basis, Debye-Ang):
   XX=           -204.4003   YY=           -243.8980   ZZ=           -212.7689
   XY=              0.0002   XZ=              6.4886   YZ=             -0.0003
 Traceless Quadrupole moment (field-independent basis, Debye-Ang):
   XX=             15.9555   YY=            -23.5423   ZZ=              7.5868
   XY=              0.0002   XZ=              6.4886   YZ=             -0.0003
 Octapole moment (field-independent basis, Debye-Ang**2):
  XXX=             -0.0005  YYY=           -154.5489  ZZZ=             -0.0031  XYY=              0.0000
  XXY=              9.1936  XXZ=             -0.0015  XZZ=             -0.0002  YZZ=             14.8056
  YYZ=             -0.0008  XYZ=            -15.6370
 Hexadecapole moment (field-independent basis, Debye-Ang**3):
 XXXX=          -7524.0500 YYYY=          -6121.3506 ZZZZ=          -2330.0043 XXXY=              0.0005
 XXXZ=             27.4843 YYYX=              0.0038 YYYZ=             -0.0098 ZZZX=             58.7099
 ZZZY=             -0.0081 XXYY=          -2367.7851 XXZZ=          -1654.9838 YYZZ=          -1377.8867
 XXYZ=             -0.0013 YYXZ=             49.5039 ZZXY=              0.0004
 N-N= 4.491561025316D+03 E-N=-1.534412977973D+04  KE= 2.570907544933D+03
 1\1\GINC-NC247\SP\RPBE1PBE\Gen\C22H32Cl2Fe1P2Pd1\MACKK4\05-Dec-2021\0\
 \# PBE1PBE gen pseudo=read int=(grid=ultrafine) empiricaldispersion=GD
 3BJ nmr=giao\\RR_Me_Ferrolane_4 title\\0,1\Fe,0,-0.0370662432,2.591862
 1113,0.0403403441\P,0,-1.7938316979,-0.2680628413,-0.0241488298\P,0,1.
 7832073222,-0.2284114458,0.0875397825\C,0,-1.5201008736,1.4255227836,-
 0.6332657467\C,0,-0.6251460669,1.7631870706,-1.7169616912\C,0,-0.59114
 78322,3.1906854953,-1.8486885895\C,0,-1.4762706175,3.7502756661,-0.867
 7294592\C,0,-2.0573175739,2.6706789509,-0.1218040615\C,0,1.4717171503,
 1.4548903729,0.7069340263\C,0,1.9809378963,2.7148399956,0.2031252311\C
 ,0,1.3759362244,3.7766076118,0.9555674839\C,0,0.503603099,3.1913973679
 ,1.9330273282\C,0,0.569498005,1.7658460123,1.7926001783\C,0,-3.3340205
 925,-0.8519827398,-0.9631508792\C,0,-4.3533607439,-1.1157621684,0.1702
 92584\C,0,-2.6535102785,-0.0168499067,1.6337756014\C,0,-4.1558664658,-
 0.0561257159,1.2689840535\C,0,3.3361702837,-0.7834336025,1.0230157336\
 C,0,4.361031775,-1.0174576524,-0.1119826834\C,0,2.6368730545,0.0520404
 87,-1.5688029544\C,0,4.1397721555,0.0441553056,-1.2042177519\H,0,-0.03
 86709956,1.0441719569,-2.2900260648\H,0,0.0360537674,3.7528619681,-2.5
 413713847\H,0,-1.6375099969,4.8126725018,-0.6807712819\H,0,-2.74707193
 6,2.7756940186,0.7157550496\H,0,2.6680949768,2.8403559701,-0.633747350
 8\H,0,-0.0007024633,1.0304109951,2.361234621\Cl,0,-1.642077455,-3.4367
 519133,0.0208706956\Cl,0,1.7023665096,-3.3993356385,0.0230489283\Pd,0,
 0.0109793128,-1.7053080792,0.0272895583\H,0,-3.0526125912,-1.800611420
 7,-1.4453596896\C,0,-3.8323769442,0.1525014674,-2.0087735029\H,0,-2.35
 89484092,0.9808311537,2.0035951462\C,0,-2.2434914258,-1.0780226812,2.6
 645588907\H,0,-4.1662543567,-2.1219591724,0.582313153\H,0,-5.384036104
 ,-1.0995126567,-0.2282534973\H,0,-4.4780968141,0.934444811,0.895571083
 7\H,0,-4.7640452481,-0.2786889538,2.1644472636\H,0,1.5133661412,4.8434
 635309,0.7750965533\H,0,-0.1359879863,3.7351779837,2.6290586934\H,0,-3
 .06608191,0.3711612267,-2.7710065663\H,0,-4.1364161997,1.1130039396,-1
 .5580356212\H,0,-4.7110739187,-0.2726501057,-2.5256055449\H,0,-2.78462
 66859,-0.9054604829,3.6122432369\H,0,-2.4587096473,-2.097476171,2.3065
 290235\H,0,-1.1590809314,-1.0408570053,2.8681963569\H,0,3.0761003051,-
 1.7410307383,1.4994440263\C,0,3.8120511598,0.2255736381,2.074736583\H,
 0,2.3200341831,1.0451158429,-1.9325546604\C,0,2.2505767554,-1.01175037
 9,-2.606030475\H,0,4.1964296182,-2.025064451,-0.5301175904\H,0,5.39112
 8779,-0.9805863466,0.2866841029\H,0,4.4398111609,1.0393963191,-0.82478
 21506\H,0,4.7526780635,-0.1593055984,-2.1010009969\H,0,4.7000883613,-0
 .182955968,2.5890038611\H,0,4.0944912815,1.195353315,1.6298499152\H,0,
 3.0411379654,0.4224119569,2.8382592784\H,0,2.4885785192,-2.0282938718,
 -2.2541995949\H,0,2.7876134959,-0.8213731918,-3.5526343697\H,0,1.16558
 36837,-0.997610928,-2.8094653788\\Version=ES64L-G09RevE.01\State=1-A\H
 F=-2711.5083153\RMSD=5.335e-09\Dipole=-0.0513209,4.5883581,0.01405\Qua
 drupole=11.7444747,-17.4988875,5.7544128,0.3418864,-4.8946222,-0.12600
 34\PG=C01 [X(C22H32Cl2Fe1P2Pd1)]\\@


 THOSE WHO ARE UNABLE TO LEARN FROM PAST MEETINGS
 ARE CONDEMNED TO REPEAT THEM.
 Job cpu time:       0 days 22 hours 24 minutes 24.1 seconds.
 File lengths (MBytes):  RWF=    679 Int=      0 D2E=      0 Chk=     96 Scr=      1
 Normal termination of Gaussian 09 at Sun Dec  5 03:40:16 2021.
 Initial command:
 /gstore/apps/gaussian/g09.e01-foss-2017a/g09/l1.exe "/local/22791348/Gau-11154.inp" -scrdir="/local/22791348/"
 Entering Link 1 = /gstore/apps/gaussian/g09.e01-foss-2017a/g09/l1.exe PID=      5939.
  
 Copyright (c) 1988,1990,1992,1993,1995,1998,2003,2009,2015,
            Gaussian, Inc.  All Rights Reserved.
  
 This is part of the Gaussian(R) 09 program.  It is based on
 the Gaussian(R) 03 system (copyright 2003, Gaussian, Inc.),
 the Gaussian(R) 98 system (copyright 1998, Gaussian, Inc.),
 the Gaussian(R) 94 system (copyright 1995, Gaussian, Inc.),
 the Gaussian 92(TM) system (copyright 1992, Gaussian, Inc.),
 the Gaussian 90(TM) system (copyright 1990, Gaussian, Inc.),
 the Gaussian 88(TM) system (copyright 1988, Gaussian, Inc.),
 the Gaussian 86(TM) system (copyright 1986, Carnegie Mellon
 University), and the Gaussian 82(TM) system (copyright 1983,
 Carnegie Mellon University). Gaussian is a federally registered
 trademark of Gaussian, Inc.
  
 This software contains proprietary and confidential information,
 including trade secrets, belonging to Gaussian, Inc.
  
 This software is provided under written license and may be
 used, copied, transmitted, or stored only in accord with that
 written license.
  
 The following legend is applicable only to US Government
 contracts under FAR:
  
                    RESTRICTED RIGHTS LEGEND
  
 Use, reproduction and disclosure by the US Government is
 subject to restrictions as set forth in subparagraphs (a)
 and (c) of the Commercial Computer Software - Restricted
 Rights clause in FAR 52.227-19.
  
 Gaussian, Inc.
 340 Quinnipiac St., Bldg. 40, Wallingford CT 06492
  
  
 ---------------------------------------------------------------
 Warning -- This program may not be used in any manner that
 competes with the business of Gaussian, Inc. or will provide
 assistance to any competitor of Gaussian, Inc.  The licensee
 of this program is prohibited from giving any competitor of
 Gaussian, Inc. access to this program.  By using this program,
 the user acknowledges that Gaussian, Inc. is engaged in the
 business of creating and licensing software in the field of
 computational chemistry and represents and warrants to the
 licensee that it is not a competitor of Gaussian, Inc. and that
 it will not use this program in any manner prohibited above.
 ---------------------------------------------------------------
  

 Cite this work as:
 Gaussian 09, Revision E.01,
 M. J. Frisch, G. W. Trucks, H. B. Schlegel, G. E. Scuseria, 
 M. A. Robb, J. R. Cheeseman, G. Scalmani, V. Barone, B. Mennucci, 
 G. A. Petersson, H. Nakatsuji, M. Caricato, X. Li, H. P. Hratchian, 
 A. F. Izmaylov, J. Bloino, G. Zheng, J. L. Sonnenberg, M. Hada, 
 M. Ehara, K. Toyota, R. Fukuda, J. Hasegawa, M. Ishida, T. Nakajima, 
 Y. Honda, O. Kitao, H. Nakai, T. Vreven, J. A. Montgomery, Jr., 
 J. E. Peralta, F. Ogliaro, M. Bearpark, J. J. Heyd, E. Brothers, 
 K. N. Kudin, V. N. Staroverov, T. Keith, R. Kobayashi, J. Normand, 
 K. Raghavachari, A. Rendell, J. C. Burant, S. S. Iyengar, J. Tomasi, 
 M. Cossi, N. Rega, J. M. Millam, M. Klene, J. E. Knox, J. B. Cross, 
 V. Bakken, C. Adamo, J. Jaramillo, R. Gomperts, R. E. Stratmann, 
 O. Yazyev, A. J. Austin, R. Cammi, C. Pomelli, J. W. Ochterski, 
 R. L. Martin, K. Morokuma, V. G. Zakrzewski, G. A. Voth, 
 P. Salvador, J. J. Dannenberg, S. Dapprich, A. D. Daniels, 
 O. Farkas, J. B. Foresman, J. V. Ortiz, J. Cioslowski, 
 and D. J. Fox, Gaussian, Inc., Wallingford CT, 2013.
 
 ******************************************
 Gaussian 09:  ES64L-G09RevE.01 30-Nov-2015
                 5-Dec-2021 
 ******************************************
 %nprocs=14
 Will use up to   14 processors via shared memory.
 %mem=128GB
 %chk=RR_Me_Ferrolane_4_SPE.chk
 ----------------------------------------------------------------------
 # PBE1PBE gen pseudo=read int=(grid=ultrafine) empiricaldispersion=GD3
 BJ pop=nbo guess=read geom=check
 ----------------------------------------------------------------------
 1/29=2,38=1/1;
 2/12=2,40=1/2;
 3/5=7,11=2,14=-4,16=1,17=8,25=1,30=1,74=-13,75=-5,116=-2,124=41/1,2,3;
 4/5=1/1;
 5/5=2,38=6/2;
 6/7=2,8=2,9=2,10=2,28=1,40=1/1,7;
 99/5=1,9=1/99;
 -----------------------
 RR_Me_Ferrolane_4 title
 -----------------------
 Structure from the checkpoint file:  "RR_Me_Ferrolane_4_SPE.chk"
 Charge =  0 Multiplicity = 1
 Z-Matrix found in file.
 Fe,0,-0.0370662432,2.5918621113,0.0403403441
 P,0,-1.7938316979,-0.2680628413,-0.0241488298
 P,0,1.7832073222,-0.2284114458,0.0875397825
 C,0,-1.5201008736,1.4255227836,-0.6332657467
 C,0,-0.6251460669,1.7631870706,-1.7169616912
 C,0,-0.5911478322,3.1906854953,-1.8486885895
 C,0,-1.4762706175,3.7502756661,-0.8677294592
 C,0,-2.0573175739,2.6706789509,-0.1218040615
 C,0,1.4717171503,1.4548903729,0.7069340263
 C,0,1.9809378963,2.7148399956,0.2031252311
 C,0,1.3759362244,3.7766076118,0.9555674839
 C,0,0.503603099,3.1913973679,1.9330273282
 C,0,0.569498005,1.7658460123,1.7926001783
 C,0,-3.3340205925,-0.8519827398,-0.9631508792
 C,0,-4.3533607439,-1.1157621684,0.170292584
 C,0,-2.6535102785,-0.0168499067,1.6337756014
 C,0,-4.1558664658,-0.0561257159,1.2689840535
 C,0,3.3361702837,-0.7834336025,1.0230157336
 C,0,4.361031775,-1.0174576524,-0.1119826834
 C,0,2.6368730545,0.052040487,-1.5688029544
 C,0,4.1397721555,0.0441553056,-1.2042177519
 H,0,-0.0386709956,1.0441719569,-2.2900260648
 H,0,0.0360537674,3.7528619681,-2.5413713847
 H,0,-1.6375099969,4.8126725018,-0.6807712819
 H,0,-2.747071936,2.7756940186,0.7157550496
 H,0,2.6680949768,2.8403559701,-0.6337473508
 H,0,-0.0007024633,1.0304109951,2.361234621
 Cl,0,-1.642077455,-3.4367519133,0.0208706956
 Cl,0,1.7023665096,-3.3993356385,0.0230489283
[...]
                                                    405(v),277(r),1045(r),159(g)
                                                    303(r),409(v),396(g),162(g)
                                                    1046(r),329(r),1059(g)
                                                    384(g),1040(v),147(g),927(r)
                                                    381(g),275(r),227(v),366(v)
                                                    389(g),387(g),139(g),777(r)
                                                    328(r),301(r),305(r),327(r)
                                                    196(r),199(r),441(v),415(v)
                                                    278(r),251(v),434(v),155(g)
                                                    401(g),469(v),790(r),1047(r)
                                                    285(r),363(v),783(r),311(r)
                                                    805(r),1043(r),382(g),312(r)
                                                    433(v),171(r),1088(r),195(r)
                                                    831(r),475(v),202(r),197(r)
                                                    422(v),953(r),712(v),713(v)
                                                    386(g)
  1038. BD*(   1)Fe   1 - C  12          0.32860     0.40702  1036(g),143(g),1039(g)
                                                    1048(v),1034(g),1061(g)
                                                    1035(g),137(g),355(v)
                                                    1052(r),144(g),5(g),120(g)
                                                    149(g),152(g),142(g),457(v)
                                                    150(g),458(v),148(g),146(g)
                                                    158(g),1063(g),1037(g)
                                                    407(v),460(v),380(v),226(v)
                                                    163(g),356(v),432(g),431(g)
                                                    379(v),121(g),408(v),225(v)
                                                    330(r),405(v),1054(r),139(g)
                                                    2(g),147(g),231(v),459(v)
                                                    328(r),154(g),1060(v),354(v)
                                                    153(g),381(v),409(v),151(g)
                                                    156(g),406(v),469(v),438(g)
                                                    465(v),434(g),155(g),716(r)
                                                    1057(v),138(g),329(r),164(g)
                                                    1051(v),332(r),1073(r)
                                                    366(v),382(v),440(g),1053(r)
                                                    461(v),447(g),777(r),927(r)
                                                    202(r),227(v),335(r),1058(v)
                                                    396(v),475(v),162(g),446(g)
                                                    145(g),389(v),361(v),140(g)
                                                    357(v),159(g),433(g),888(v)
                                                    122(r),1065(v),699(r)
                                                    1049(v),415(v),327(r)
                                                    1047(r),464(v),783(r),887(v)
                                                    199(r),124(r),1043(r),336(r)
                                                    790(r),304(r),303(r),470(v)
                                                    196(r),285(r),1040(v),462(v)
                                                    160(g),953(r),312(r),383(v)
  1039. BD*(   1)Fe   1 - C  13          0.40408     0.23790  1034(g),1036(g),1037(g)
                                                    1038(g),5(g),1035(g),355(v)
                                                    144(g),137(g),148(g),152(g)
                                                    142(g),149(g),150(g),146(g)
                                                    158(g),225(v),356(v),226(v)
                                                    121(g),379(v),380(v),407(r)
                                                    458(g),432(v),457(g),431(v)
                                                    156(g),231(v),249(v),361(v)
                                                    405(r),252(v),122(r),459(g)
                                                    164(g),329(r),250(v),328(r)
                                                    1058(g),330(r),409(r),120(g)
                                                    382(v),357(v),162(g),143(g)
                                                    381(v),1040(v),408(r)
                                                    1063(g),227(v),434(v),303(r)
                                                    469(g),460(g),927(r),327(r)
                                                    147(g),777(r),465(g),163(g)
                                                    251(v),366(v),145(g),461(g)
                                                    475(g),441(v),196(r),389(v)
                                                    277(r),301(r),275(r),433(v)
                                                    2(g),199(r),305(r),790(r)
                                                    159(g),396(v),415(r),805(r)
                                                    474(g),202(r),285(r),953(r)
                                                    463(g),783(r),831(r),312(r)
                                                    171(r),311(r),363(v),462(g)
                                                    1047(r),440(v),1043(r)
                                                    197(r),416(r),154(g),155(g)
                                                    139(g),1045(r),422(r),704(r)
                                                    364(v),718(v)
  1040. BD*(   1) P   2 - C   4          0.07478     0.21895   
  1041. BD*(   1) P   2 - C  14          0.08344     0.15911   
  1042. BD*(   1) P   2 - C  16          0.06992     0.15922   
  1043. BD*(   1) P   2 -Pd  30          0.16427     0.55941  1047(g),795(g),167(g),195(v)
                                                    788(g),783(g),785(g),778(g)
                                                    754(v),726(v),223(v),353(r)
                                                    790(g),777(g),587(r),1088(g)
                                                    483(v),725(v),793(g),171(g)
                                                    753(v),175(g),199(v),202(v)
                                                    757(v),203(v),176(g),174(g)
                                                    1019(r),691(r),729(v),535(v)
                                                    780(g),640(r),639(r),782(g)
                                                    230(v),536(v),716(r),756(v)
                                                    912(r),251(r),787(g),204(v)
                                                    360(r),459(r),205(v),177(g)
                                                    965(r),184(g),492(v),172(g)
                                                    187(g),179(g),200(v),180(g)
                                                    207(v),212(v),561(r),226(v)
                                                    843(r),329(r),897(r),596(r)
                                                    1067(v),665(r),590(r),600(r)
                                                    758(v),356(r),486(v),1009(r)
                                                    789(g),206(v),208(v),137(r)
                                                    236(v),728(v),149(r),591(r)
                                                    963(r),333(r),781(g),381(r)
                                                    215(v),769(v),1034(v),496(v)
                                                    138(r),915(r),253(r),178(g)
                                                    1022(r),807(r),733(v),741(v)
                                                    366(r),234(v),641(r),489(v)
                                                    1036(r),487(v),201(v),761(v)
                                                    593(r),750(v),461(r),723(v)
                                                    913(r),385(r),537(v),541(v)
                                                    232(v),987(r),485(v),865(r)
                                                    173(g),813(r),935(r),929(r)
                                                    1095(r),562(r),730(v),182(g)
                                                    666(r),121(r),1044(v),776(v)
                                                    484(v),775(v),786(g),751(v)
                                                    170(g)
  1044. BD*(   1) P   3 - C   9          0.07478     0.21896   
  1045. BD*(   1) P   3 - C  18          0.08344     0.15911   
  1046. BD*(   1) P   3 - C  20          0.06992     0.15922   
  1047. BD*(   1) P   3 -Pd  30          0.16427     0.55941  1043(g),795(g),195(g),167(v)
                                                    788(g),783(g),785(g),778(g)
                                                    726(v),754(v),353(v),223(r)
                                                    790(g),777(g),483(r),1089(g)
                                                    587(v),753(v),793(g),199(g)
                                                    725(v),203(g),171(v),174(v)
                                                    729(v),175(v),204(g),202(g)
                                                    912(r),716(r),757(v),639(v)
                                                    780(g),536(r),535(r),782(g)
                                                    360(v),640(v),691(r),728(v)
                                                    1019(r),459(r),787(g),176(v)
                                                    230(r),251(r),177(v),205(g)
                                                    843(r),212(g),596(v),200(g)
                                                    1036(v),215(g),207(g),172(v)
                                                    208(g),179(v),184(v),665(r)
                                                    356(v),965(r),1009(r),492(r)
                                                    1078(v),561(r),486(r),496(r)
                                                    730(v),329(r),226(r),590(v)
                                                    897(r),178(v),789(g),180(v)
                                                    137(r),366(v),149(r),756(v)
                                                    487(r),841(r),381(r),781(g)
                                                    187(v),741(v),600(v),1022(r)
                                                    461(r),206(g),333(r),385(r)
                                                    915(r),929(r),761(v),769(v)
                                                    236(r),537(r),364(v),593(v)
                                                    591(v),173(v),733(v),489(r)
                                                    722(v),253(r),751(v),1020(r)
                                                    641(v),645(v),362(v),865(r)
                                                    589(v),987(r),201(g),813(r)
                                                    935(r),807(r),1101(r),666(r)
                                                    758(v),210(g),562(r),1040(v)
                                                    748(v),588(v),747(v),723(v)
                                                    198(g),197(g)
  1048. BD*(   1) C   4 - C   5          0.03406     0.40651   
  1049. BD*(   1) C   4 - C   8          0.04749     0.39355   
  1050. BD*(   1) C   5 - C   6          0.02772     0.41486   
  1051. BD*(   1) C   5 - H  22          0.01718     0.39438   
  1052. BD*(   1) C   6 - C   7          0.03067     0.40576   
  1053. BD*(   1) C   6 - H  23          0.01491     0.38460   
  1054. BD*(   1) C   7 - C   8          0.03324     0.40469   
  1055. BD*(   1) C   7 - H  24          0.01513     0.38405   
  1056. BD*(   1) C   8 - H  25          0.01700     0.38600   
  1057. BD*(   1) C   9 - C  10          0.03977     0.40124   
  1058. BD*(   1) C   9 - C  13          0.03406     0.40651   
  1059. BD*(   1) C  10 - C  11          0.02822     0.41234   
  1060. BD*(   1) C  10 - H  26          0.01722     0.38593   
  1061. BD*(   1) C  11 - C  12          0.02656     0.41165   
  1062. BD*(   1) C  11 - H  39          0.01513     0.38405   
  1063. BD*(   1) C  12 - C  13          0.02054     0.42254   
  1064. BD*(   1) C  12 - H  40          0.01512     0.38454   
  1065. BD*(   1) C  13 - H  27          0.01718     0.39438   
  1066. BD*(   1) C  14 - C  15          0.02035     0.32998   
  1067. BD*(   1) C  14 - H  31          0.02079     0.38127   
  1068. BD*(   1) C  14 - C  32          0.01553     0.34288   
  1069. BD*(   1) C  15 - C  17          0.01362     0.33707   
  1070. BD*(   1) C  15 - H  35          0.01506     0.37604   
  1071. BD*(   1) C  15 - H  36          0.01465     0.36293   
  1072. BD*(   1) C  16 - C  17          0.02342     0.32078   
  1073. BD*(   1) C  16 - H  33          0.02090     0.35414   
  1074. BD*(   1) C  16 - C  34          0.01287     0.33751   
  1075. BD*(   1) C  17 - H  37          0.01529     0.35085   
  1076. BD*(   1) C  17 - H  38          0.01503     0.35859   
  1077. BD*(   1) C  18 - C  19          0.02035     0.32997   
  1078. BD*(   1) C  18 - H  47          0.02079     0.38127   
  1079. BD*(   1) C  18 - C  48          0.01553     0.34288   
  1080. BD*(   1) C  19 - C  21          0.01362     0.33707   
  1081. BD*(   1) C  19 - H  51          0.01506     0.37604   
  1082. BD*(   1) C  19 - H  52          0.01465     0.36293   
  1083. BD*(   1) C  20 - C  21          0.02342     0.32078   
  1084. BD*(   1) C  20 - H  49          0.02090     0.35414   
  1085. BD*(   1) C  20 - C  50          0.01287     0.33751   
  1086. BD*(   1) C  21 - H  53          0.01529     0.35085   
  1087. BD*(   1) C  21 - H  54          0.01503     0.35859   
  1088. BD*(   1)Cl  28 -Pd  30          0.19185     0.16340  1089(g),1043(g),1041(v)
                                                    167(v),795(g),788(g),785(g)
                                                    1045(v),195(v),223(r),725(g)
                                                    1046(v),789(g),1042(v)
                                                    726(g),353(r),721(g),783(g)
                                                    587(r),781(g),175(v),786(g)
                                                    754(v),797(g)
  1089. BD*(   1)Cl  29 -Pd  30          0.19185     0.16340  1088(g),1047(g),1045(v)
                                                    195(v),795(g),788(g),785(g)
                                                    1041(v),167(v),353(r),753(g)
                                                    1042(v),789(g),1046(v)
                                                    754(g),223(r),749(g),783(g)
                                                    483(r),781(g),203(v),726(v)
                                                    786(g),797(g)
  1090. BD*(   1) C  32 - H  41          0.00688     0.37249   
  1091. BD*(   1) C  32 - H  42          0.00990     0.36885   
  1092. BD*(   1) C  32 - H  43          0.00844     0.36912   
  1093. BD*(   1) C  34 - H  44          0.01005     0.37324   
  1094. BD*(   1) C  34 - H  45          0.01121     0.38988   
  1095. BD*(   1) C  34 - H  46          0.00608     0.37898   
  1096. BD*(   1) C  48 - H  55          0.00844     0.36912   
  1097. BD*(   1) C  48 - H  56          0.00990     0.36885   
  1098. BD*(   1) C  48 - H  57          0.00688     0.37249   
  1099. BD*(   1) C  50 - H  58          0.01121     0.38988   
  1100. BD*(   1) C  50 - H  59          0.01005     0.37325   
  1101. BD*(   1) C  50 - H  60          0.00608     0.37898   
       -------------------------------
              Total Lewis  292.47959  ( 97.4932%)
        Valence non-Lewis    7.08834  (  2.3628%)
        Rydberg non-Lewis    0.43207  (  0.1440%)
       -------------------------------
            Total unit  1  300.00000  (100.0000%)
           Charge unit  1    0.00000
 1\1\GINC-NC247\SP\RPBE1PBE\Gen\C22H32Cl2Fe1P2Pd1\MACKK4\05-Dec-2021\0\
 \# PBE1PBE gen pseudo=read int=(grid=ultrafine) empiricaldispersion=GD
 3BJ pop=nbo guess=read geom=check\\RR_Me_Ferrolane_4 title\\0,1\Fe,0,-
 0.0370662432,2.5918621113,0.0403403441\P,0,-1.7938316979,-0.2680628413
 ,-0.0241488298\P,0,1.7832073222,-0.2284114458,0.0875397825\C,0,-1.5201
 008736,1.4255227836,-0.6332657467\C,0,-0.6251460669,1.7631870706,-1.71
 69616912\C,0,-0.5911478322,3.1906854953,-1.8486885895\C,0,-1.476270617
 5,3.7502756661,-0.8677294592\C,0,-2.0573175739,2.6706789509,-0.1218040
 615\C,0,1.4717171503,1.4548903729,0.7069340263\C,0,1.9809378963,2.7148
 399956,0.2031252311\C,0,1.3759362244,3.7766076118,0.9555674839\C,0,0.5
 03603099,3.1913973679,1.9330273282\C,0,0.569498005,1.7658460123,1.7926
 001783\C,0,-3.3340205925,-0.8519827398,-0.9631508792\C,0,-4.3533607439
 ,-1.1157621684,0.170292584\C,0,-2.6535102785,-0.0168499067,1.633775601
 4\C,0,-4.1558664658,-0.0561257159,1.2689840535\C,0,3.3361702837,-0.783
 4336025,1.0230157336\C,0,4.361031775,-1.0174576524,-0.1119826834\C,0,2
 .6368730545,0.052040487,-1.5688029544\C,0,4.1397721555,0.0441553056,-1
 .2042177519\H,0,-0.0386709956,1.0441719569,-2.2900260648\H,0,0.0360537
 674,3.7528619681,-2.5413713847\H,0,-1.6375099969,4.8126725018,-0.68077
 12819\H,0,-2.747071936,2.7756940186,0.7157550496\H,0,2.6680949768,2.84
 03559701,-0.6337473508\H,0,-0.0007024633,1.0304109951,2.361234621\Cl,0
 ,-1.642077455,-3.4367519133,0.0208706956\Cl,0,1.7023665096,-3.39933563
 85,0.0230489283\Pd,0,0.0109793128,-1.7053080792,0.0272895583\H,0,-3.05
 26125912,-1.8006114207,-1.4453596896\C,0,-3.8323769442,0.1525014674,-2
 .0087735029\H,0,-2.3589484092,0.9808311537,2.0035951462\C,0,-2.2434914
 258,-1.0780226812,2.6645588907\H,0,-4.1662543567,-2.1219591724,0.58231
 3153\H,0,-5.384036104,-1.0995126567,-0.2282534973\H,0,-4.4780968141,0.
 934444811,0.8955710837\H,0,-4.7640452481,-0.2786889538,2.1644472636\H,
 0,1.5133661412,4.8434635309,0.7750965533\H,0,-0.1359879863,3.735177983
 7,2.6290586934\H,0,-3.06608191,0.3711612267,-2.7710065663\H,0,-4.13641
 61997,1.1130039396,-1.5580356212\H,0,-4.7110739187,-0.2726501057,-2.52
 56055449\H,0,-2.7846266859,-0.9054604829,3.6122432369\H,0,-2.458709647
 3,-2.097476171,2.3065290235\H,0,-1.1590809314,-1.0408570053,2.86819635
 69\H,0,3.0761003051,-1.7410307383,1.4994440263\C,0,3.8120511598,0.2255
 736381,2.074736583\H,0,2.3200341831,1.0451158429,-1.9325546604\C,0,2.2
 505767554,-1.011750379,-2.606030475\H,0,4.1964296182,-2.025064451,-0.5
 301175904\H,0,5.391128779,-0.9805863466,0.2866841029\H,0,4.4398111609,
 1.0393963191,-0.8247821506\H,0,4.7526780635,-0.1593055984,-2.101000996
 9\H,0,4.7000883613,-0.182955968,2.5890038611\H,0,4.0944912815,1.195353
 315,1.6298499152\H,0,3.0411379654,0.4224119569,2.8382592784\H,0,2.4885
 785192,-2.0282938718,-2.2541995949\H,0,2.7876134959,-0.8213731918,-3.5
 526343697\H,0,1.1655836837,-0.997610928,-2.8094653788\\Version=ES64L-G
 09RevE.01\State=1-A\HF=-2711.5083153\RMSD=4.299e-09\Dipole=-0.0513268,
 4.5883568,0.0140501\Quadrupole=11.7444745,-17.4988816,5.7544071,0.3418
 665,-4.8946293,-0.1259961\PG=C01 [X(C22H32Cl2Fe1P2Pd1)]\\@


 REFRAIN FROM ILLUSIONS, INSIST ON WORK AND NOT WORDS,
 PATIENTLY SEEK DIVINE AND SCIENTIFIC TRUTH.
 LAST WORDS OF MARIA MENDELEEVA TO HER SON DMITRI, C. 1850
 Job cpu time:       0 days  0 hours 45 minutes 11.1 seconds.
 File lengths (MBytes):  RWF=    614 Int=      0 D2E=      0 Chk=     96 Scr=      1
 Normal termination of Gaussian 09 at Sun Dec  5 03:43:38 2021.
