 Entering Gaussian System, Link 0=g09
 Input=RR_Me_Ferrolane_1_SPE_NoPd.com
 Output=RR_Me_Ferrolane_1_SPE_NoPd.log
 Initial command:
 /gstore/apps/gaussian/g09.e01-foss-2017a/g09/l1.exe "/local/22791343/Gau-2836.inp" -scrdir="/local/22791343/"
 Entering Link 1 = /gstore/apps/gaussian/g09.e01-foss-2017a/g09/l1.exe PID=      2837.
  
 Copyright (c) 1988,1990,1992,1993,1995,1998,2003,2009,2015,
            Gaussian, Inc.  All Rights Reserved.
  
 This is part of the Gaussian(R) 09 program.  It is based on
 the Gaussian(R) 03 system (copyright 2003, Gaussian, Inc.),
 the Gaussian(R) 98 system (copyright 1998, Gaussian, Inc.),
 the Gaussian(R) 94 system (copyright 1995, Gaussian, Inc.),
 the Gaussian 92(TM) system (copyright 1992, Gaussian, Inc.),
 the Gaussian 90(TM) system (copyright 1990, Gaussian, Inc.),
 the Gaussian 88(TM) system (copyright 1988, Gaussian, Inc.),
 the Gaussian 86(TM) system (copyright 1986, Carnegie Mellon
 University), and the Gaussian 82(TM) system (copyright 1983,
 Carnegie Mellon University). Gaussian is a federally registered
 trademark of Gaussian, Inc.
  
 This software contains proprietary and confidential information,
 including trade secrets, belonging to Gaussian, Inc.
  
 This software is provided under written license and may be
 used, copied, transmitted, or stored only in accord with that
 written license.
  
 The following legend is applicable only to US Government
 contracts under FAR:
  
                    RESTRICTED RIGHTS LEGEND
  
 Use, reproduction and disclosure by the US Government is
 subject to restrictions as set forth in subparagraphs (a)
 and (c) of the Commercial Computer Software - Restricted
 Rights clause in FAR 52.227-19.
  
 Gaussian, Inc.
 340 Quinnipiac St., Bldg. 40, Wallingford CT 06492
  
  
 ---------------------------------------------------------------
 Warning -- This program may not be used in any manner that
 competes with the business of Gaussian, Inc. or will provide
 assistance to any competitor of Gaussian, Inc.  The licensee
 of this program is prohibited from giving any competitor of
 Gaussian, Inc. access to this program.  By using this program,
 the user acknowledges that Gaussian, Inc. is engaged in the
 business of creating and licensing software in the field of
 computational chemistry and represents and warrants to the
 licensee that it is not a competitor of Gaussian, Inc. and that
 it will not use this program in any manner prohibited above.
 ---------------------------------------------------------------
  

 Cite this work as:
 Gaussian 09, Revision E.01,
 M. J. Frisch, G. W. Trucks, H. B. Schlegel, G. E. Scuseria, 
 M. A. Robb, J. R. Cheeseman, G. Scalmani, V. Barone, B. Mennucci, 
 G. A. Petersson, H. Nakatsuji, M. Caricato, X. Li, H. P. Hratchian, 
 A. F. Izmaylov, J. Bloino, G. Zheng, J. L. Sonnenberg, M. Hada, 
 M. Ehara, K. Toyota, R. Fukuda, J. Hasegawa, M. Ishida, T. Nakajima, 
 Y. Honda, O. Kitao, H. Nakai, T. Vreven, J. A. Montgomery, Jr., 
 J. E. Peralta, F. Ogliaro, M. Bearpark, J. J. Heyd, E. Brothers, 
 K. N. Kudin, V. N. Staroverov, T. Keith, R. Kobayashi, J. Normand, 
 K. Raghavachari, A. Rendell, J. C. Burant, S. S. Iyengar, J. Tomasi, 
 M. Cossi, N. Rega, J. M. Millam, M. Klene, J. E. Knox, J. B. Cross, 
 V. Bakken, C. Adamo, J. Jaramillo, R. Gomperts, R. E. Stratmann, 
 O. Yazyev, A. J. Austin, R. Cammi, C. Pomelli, J. W. Ochterski, 
 R. L. Martin, K. Morokuma, V. G. Zakrzewski, G. A. Voth, 
 P. Salvador, J. J. Dannenberg, S. Dapprich, A. D. Daniels, 
 O. Farkas, J. B. Foresman, J. V. Ortiz, J. Cioslowski, 
 and D. J. Fox, Gaussian, Inc., Wallingford CT, 2013.
 
 ******************************************
 Gaussian 09:  ES64L-G09RevE.01 30-Nov-2015
                 5-Dec-2021 
 ******************************************
 %nprocs=14
 Will use up to   14 processors via shared memory.
 %mem=128GB
 %chk=RR_Me_Ferrolane_1_SPE_NoPd.chk
 ----------------------------------------------------------------------
 # PBE1PBE gen pseudo=read int=(grid=ultrafine) empiricaldispersion=GD3
 BJ nmr=giao
 ----------------------------------------------------------------------
 1/38=1/1;
 2/12=2,17=6,18=5,40=1/2;
 3/5=7,11=2,16=1,17=8,25=1,30=1,74=-13,75=-5,124=41/1,2,8,3;
 4//1;
 5/5=2,38=5/2;
 8/6=1,10=90,11=11/1;
 10/13=100,45=16/2;
 6/7=2,8=2,9=2,10=2,28=1/1;
 99/9=1/99;
 -----------------------
 RR_Me_Ferrolane_1 title
 -----------------------
 Symbolic Z-matrix:
 Charge =  0 Multiplicity = 1
 Fe                   -0.03681   2.61826   0.04083 
 P                    -1.79153  -0.27215   0.05741 
 P                     1.78069  -0.23287   0.00691 
 C                    -1.55245   1.43974  -0.52305 
 C                    -0.7336    1.78552  -1.66565 
 C                    -0.72275   3.21263  -1.8038 
 C                    -1.54331   3.76645  -0.76588 
 C                    -2.06473   2.68321   0.01898 
 C                     1.50422   1.46983   0.59764 
 C                     1.98917   2.72744   0.06312 
 C                     1.44427   3.79427   0.8545 
 C                     0.63612   3.21639   1.88903 
 C                     0.67816   1.79072   1.7423 
 C                    -3.31581  -0.78344  -0.91759 
 C                    -4.46344  -0.22359  -0.05603 
 C                    -2.67848  -0.1164    1.71435 
 C                    -4.13358  -0.55526   1.40757 
 C                     3.31692  -0.71571   0.97755 
 C                     4.45078  -0.12441   0.1188 
 C                     2.66233  -0.048    -1.64986 
 C                     4.12755  -0.45458  -1.34663 
 H                    -0.17768   1.07383  -2.27619 
 H                    -0.14839   3.77769  -2.53863 
 H                    -1.70169   4.82754  -0.56933 
 H                    -2.69479   2.79009   0.90178 
 H                     2.61667   2.85334  -0.81899 
 H                     0.138     1.06335   2.34848 
 H                    -3.31128  -1.88502  -0.84599 
 C                    -3.32191  -0.35835  -2.38435 
 H                    -2.65801   0.95849   1.96958 
 C                    -2.03178  -0.92138   2.84651 
 H                    -5.42803  -0.66373  -0.36791 
 H                    -4.54431   0.87218  -0.19996 
 H                    -4.83706  -0.08083   2.1147 
 H                    -4.20141  -1.64861   1.55343 
 H                     1.57938   4.85973   0.66434 
 H                     0.04964   3.76434   2.62725 
 H                    -2.46365  -0.78675  -2.92992 
 H                    -3.29212   0.73911  -2.49612 
 H                    -4.24197  -0.72506  -2.87274 
 H                    -1.0107   -0.57193   3.07617 
 H                    -1.96357  -1.98667   2.57148 
 H                    -2.63814  -0.82657   3.76536 
 H                     3.3373   -1.81665   0.89892 
 C                     3.31449  -0.29997   2.447 
 H                     2.61652   1.02737  -1.89966 
 C                     2.03339  -0.86218  -2.78547 
 H                     5.42543  -0.54422   0.42736 
 H                     4.50662   0.97202   0.26944 
 H                     4.81927   0.04042  -2.05124 
 H                     4.22079  -1.54514  -1.49927 
 H                     3.25983   0.79579   2.56579 
 H                     4.24303  -0.64875   2.93247 
 H                     2.46659  -0.75128   2.9903 
 H                     1.99039  -1.93016  -2.51577 
 H                     2.6363   -0.74858  -3.70446 
 H                     1.00411  -0.53564  -3.01225 
 
 Stoichiometry    C22H32FeP2
 Framework group  C1[X(C22H32FeP2)]
 Deg. of freedom   165
 Full point group                 C1      NOp   1
 Largest Abelian subgroup         C1      NOp   1
 Largest concise Abelian subgroup C1      NOp   1
                         Standard orientation:                         
 ---------------------------------------------------------------------
 Center     Atomic      Atomic             Coordinates (Angstroms)
 Number     Number       Type             X           Y           Z
 ---------------------------------------------------------------------
      1         26           0        0.000372    1.728565   -0.001485
      2         15           0       -1.786577   -1.142067    0.004761
      3         15           0        1.786210   -1.142698   -0.001964
      4          6           0       -1.521309    0.564707   -0.579366
      5          6           0       -0.684706    0.896761   -1.713147
      6          6           0       -0.656236    2.323094   -1.856701
      7          6           0       -1.483213    2.890178   -0.831115
      8          6           0       -2.026272    1.815963   -0.048516
      9          6           0        1.521554    0.565331    0.578693
     10          6           0        2.027018    1.815306    0.045295
     11          6           0        1.484414    2.891308    0.825756
     12          6           0        0.657249    2.326617    1.852518
     13          6           0        0.685160    0.899988    1.711854
     14          6           0       -3.304414   -1.640300   -0.986917
     15          6           0       -4.456192   -1.064271   -0.141715
     16          6           0       -2.691970   -0.969800    1.650047
     17          6           0       -4.148011   -1.393687    1.327116
     18          6           0        3.304947   -1.638681    0.989362
     19          6           0        4.455769   -1.063481    0.142323
     20          6           0        2.690090   -0.974318   -1.648476
     21          6           0        4.146854   -1.395935   -1.325676
     22          1           0       -0.129332    0.176490   -2.314035
     23          1           0       -0.066648    2.878775   -2.586612
     24          1           0       -1.632138    3.953740   -0.640648
     25          1           0       -2.665865    1.933397    0.826049
     26          1           0        2.666647    1.930674   -0.829518
     27          1           0        0.129525    0.181107    2.314171
     28          1           0       -3.313062   -2.741572   -0.910985
     29          6           0       -3.287794   -1.221076   -2.455283
     30          1           0       -2.662628    0.105811    1.901328
     31          6           0       -2.068218   -1.777353    2.793198
     32          1           0       -5.421734   -1.494912   -0.463714
     33          1           0       -4.523052    0.031748   -0.290888
     34          1           0       -4.854762   -0.908627    2.023688
     35          1           0       -4.229822   -2.485623    1.476372
     36          1           0        1.633729    3.954428    0.633131
     37          1           0        0.067918    2.884014    2.581328
     38          1           0       -2.427746   -1.661184   -2.988589
     39          1           0       -3.244391   -0.124480   -2.570937
     40          1           0       -4.205841   -1.579497   -2.953519
     41          1           0       -1.046187   -1.438360    3.034030
     42          1           0       -2.008540   -2.844439    2.523169
     43          1           0       -2.684691   -1.672114    3.704150
     44          1           0        3.313996   -2.740089    0.915271
     45          6           0        3.289156   -1.217028    2.457038
     46          1           0        2.659356    0.100488   -1.902996
     47          6           0        2.066057   -1.786018   -2.788563
     48          1           0        5.421825   -1.492855    0.464479
     49          1           0        4.521997    0.032856    0.289378
     50          1           0        4.852643   -0.911491   -2.023646
     51          1           0        4.229777   -2.488067   -1.472911
     52          1           0        3.245284   -0.120261    2.570887
     53          1           0        4.207722   -1.574153    2.955243
     54          1           0        2.429679   -1.656688    2.991627
     55          1           0        2.007834   -2.852358   -2.515263
     56          1           0        2.681417   -1.682822   -3.700500
     57          1           0        1.043347   -1.448972   -3.029248
 ---------------------------------------------------------------------
 Rotational constants (GHZ):      0.2688334      0.1557587      0.1431570
 General basis read from cards:  (5D, 7F)
 ======================================================================================================
                                       Pseudopotential Parameters
 ======================================================================================================
  Center     Atomic      Valence      Angular      Power
  Number     Number     Electrons     Momentum     of R      Exponent        Coefficient   SO-Coeffient
 ======================================================================================================
    1         26           16
                                      F and up 
                                                     2        1.0000000        0.00000000    0.00000000
                                      S - F
                                                     2       20.9300000      253.74958800    0.00000000
                                                     2        9.4450000       37.92284500    0.00000000
                                      P - F
                                                     2       21.7600000      161.03681200    0.00000000
                                                     2        9.1780000       27.65129800    0.00000000
                                      D - F
                                                     2       25.9000000      -24.43127600    0.00000000
                                                     2        8.8350000       -1.43425100    0.00000000
    2         15
                                   No pseudopotential on this center.
    3         15
                                   No pseudopotential on this center.
    4          6
                                   No pseudopotential on this center.
    5          6
                                   No pseudopotential on this center.
    6          6
                                   No pseudopotential on this center.
    7          6
                                   No pseudopotential on this center.
    8          6
                                   No pseudopotential on this center.
    9          6
                                   No pseudopotential on this center.
   10          6
                                   No pseudopotential on this center.
   11          6
                                   No pseudopotential on this center.
   12          6
                                   No pseudopotential on this center.
   13          6
                                   No pseudopotential on this center.
   14          6
                                   No pseudopotential on this center.
   15          6
                                   No pseudopotential on this center.
   16          6
                                   No pseudopotential on this center.
   17          6
                                   No pseudopotential on this center.
   18          6
                                   No pseudopotential on this center.
   19          6
                                   No pseudopotential on this center.
   20          6
                                   No pseudopotential on this center.
   21          6
                                   No pseudopotential on this center.
   22          1
                                   No pseudopotential on this center.
   23          1
                                   No pseudopotential on this center.
   24          1
                                   No pseudopotential on this center.
   25          1
                                   No pseudopotential on this center.
   26          1
                                   No pseudopotential on this center.
   27          1
                                   No pseudopotential on this center.
   28          1
                                   No pseudopotential on this center.
   29          6
                                   No pseudopotential on this center.
   30          1
                                   No pseudopotential on this center.
   31          6
                                   No pseudopotential on this center.
   32          1
                                   No pseudopotential on this center.
   33          1
                                   No pseudopotential on this center.
   34          1
                                   No pseudopotential on this center.
   35          1
                                   No pseudopotential on this center.
   36          1
                                   No pseudopotential on this center.
   37          1
                                   No pseudopotential on this center.
   38          1
                                   No pseudopotential on this center.
   39          1
                                   No pseudopotential on this center.
   40          1
                                   No pseudopotential on this center.
   41          1
                                   No pseudopotential on this center.
   42          1
                                   No pseudopotential on this center.
   43          1
                                   No pseudopotential on this center.
   44          1
                                   No pseudopotential on this center.
   45          6
                                   No pseudopotential on this center.
   46          1
                                   No pseudopotential on this center.
   47          6
                                   No pseudopotential on this center.
   48          1
                                   No pseudopotential on this center.
   49          1
                                   No pseudopotential on this center.
   50          1
                                   No pseudopotential on this center.
   51          1
                                   No pseudopotential on this center.
   52          1
                                   No pseudopotential on this center.
   53          1
                                   No pseudopotential on this center.
   54          1
                                   No pseudopotential on this center.
   55          1
                                   No pseudopotential on this center.
   56          1
                                   No pseudopotential on this center.
   57          1
                                   No pseudopotential on this center.
 ======================================================================================================
 There are  1117 symmetry adapted cartesian basis functions of A   symmetry.
 There are   991 symmetry adapted basis functions of A   symmetry.
   991 basis functions,  1591 primitive gaussians,  1117 cartesian basis functions
   105 alpha electrons      105 beta electrons
       nuclear repulsion energy      3041.5969423856 Hartrees.
 NAtoms=   57 NActive=   57 NUniq=   57 SFac= 1.00D+00 NAtFMM=   60 NAOKFM=F Big=F
 Integral buffers will be    131072 words long.
 Raffenetti 2 integral format.
 Two-electron integral symmetry is turned on.
 Nuclear repulsion after empirical dispersion term =     3041.5177112868 Hartrees.
 One-electron integrals computed using PRISM.
   1 Symmetry operations used in ECPInt.
 ECPInt:  NShTT=   84666 NPrTT=  251649 LenC2=   74713 LenP2D=  156811.
 LDataN:  DoStor=T MaxTD1= 6 Len=  172
 NBasis=   991 RedAO= T EigKep=  1.48D-05  NBF=   991
 NBsUse=   991 1.00D-06 EigRej= -1.00D+00 NBFU=   991
 ExpMin= 1.00D-02 ExpMax= 5.24D+04 ExpMxC= 1.79D+03 IAcc=3 IRadAn=         5 AccDes= 0.00D+00
 Harris functional with IExCor= 1009 and IRadAn=       5 diagonalized for initial guess.
 HarFok:  IExCor= 1009 AccDes= 0.00D+00 IRadAn=         5 IDoV= 1 UseB2=F ITyADJ=14
 ICtDFT=  3500011 ScaDFX=  1.000000  1.000000  1.000000  1.000000
 FoFCou: FMM=F IPFlag=           0 FMFlag=      100000 FMFlg1=           0
         NFxFlg=           0 DoJE=T BraDBF=F KetDBF=T FulRan=T
         wScrn=  0.000000 ICntrl=     500 IOpCl=  0 I1Cent=   200000004 NGrid=           0
         NMat0=    1 NMatS0=      1 NMatT0=    0 NMatD0=    1 NMtDS0=    0 NMtDT0=    0
 Petite list used in FoFCou.
 Requested convergence on RMS density matrix=1.00D-08 within 128 cycles.
 Requested convergence on MAX density matrix=1.00D-06.
 Requested convergence on             energy=1.00D-06.
 No special actions if energy rises.
 EnCoef did     4 forward-backward iterations
 SCF Done:  E(RPBE1PBE) =  -1663.30770680     A.U. after   19 cycles
            NFock= 19  Conv=0.19D-08     -V/T= 2.0368
 DoSCS=F DFT=T ScalE2(SS,OS)=  1.000000  1.000000
 Range of M.O.s used for correlation:     1   991
 NBasis=   991 NAE=   105 NBE=   105 NFC=     0 NFV=     0
 NROrb=    991 NOA=   105 NOB=   105 NVA=   886 NVB=   886

 **** Warning!!: The largest alpha MO coefficient is  0.43934557D+02

          Differentiating once with respect to magnetic field using GIAOs.
          Electric field/nuclear overlap derivatives assumed to be zero.
 FoFCou: FMM=F IPFlag=           0 FMFlag=      100000 FMFlg1=           0
         NFxFlg=           0 DoJE=F BraDBF=F KetDBF=T FulRan=T
         wScrn=  0.000000 ICntrl=    6100 IOpCl=  0 I1Cent=           7 NGrid=          57
         NMat0=    1 NMatS0=      1 NMatT0=    0 NMatD0=    1 NMtDS0=    0 NMtDT0=    0
 Symmetry not used in FoFCou.
   1 Symmetry operations used in ECPInt.
 ECPInt:  NShTT=   84666 NPrTT=  251649 LenC2=   84667 LenP2D=  251649.
 LDataN:  DoStor=T MaxTD1= 7 Len=  274
 FoFJK:  IHMeth= 1 ICntrl=    6127 DoSepK=F KAlg= 0 I1Cent=   0 FoldK=F
 IRaf=         1 NMat=   1 IRICut=       1 DoRegI=T DoRafI=F ISym2E= 0.
          There are     3 degrees of freedom in the 1st order CPHF.  IDoFFX=0 NUNeed=     3.
      3 vectors produced by pass  0 Test12= 3.10D-12 3.33D-08 XBig12= 8.72D+01 1.67D+00.
 AX will form     3 AO Fock derivatives at one time.
      3 vectors produced by pass  1 Test12= 3.10D-12 3.33D-08 XBig12= 8.92D-01 6.94D-01.
      3 vectors produced by pass  2 Test12= 3.10D-12 3.33D-08 XBig12= 2.75D-02 3.72D-02.
      3 vectors produced by pass  3 Test12= 3.10D-12 3.33D-08 XBig12= 2.30D-04 6.34D-03.
      3 vectors produced by pass  4 Test12= 3.10D-12 3.33D-08 XBig12= 1.23D-05 1.49D-03.
      3 vectors produced by pass  5 Test12= 3.10D-12 3.33D-08 XBig12= 1.13D-07 6.41D-05.
      3 vectors produced by pass  6 Test12= 3.10D-12 3.33D-08 XBig12= 5.33D-10 7.60D-06.
      3 vectors produced by pass  7 Test12= 3.10D-12 3.33D-08 XBig12= 9.16D-12 1.64D-06.
      2 vectors produced by pass  8 Test12= 3.10D-12 3.33D-08 XBig12= 3.88D-13 2.44D-07.
 InvSVY:  IOpt=1 It=  1 EMax= 3.55D-15
 Solved reduced A of dimension    26 with     3 vectors.
 Calculating GIAO nuclear magnetic shielding tensors.
 SCF GIAO Magnetic shielding tensor (ppm):
      1  Fe   Isotropic = -5835.8469   Anisotropy =  7909.5398
   XX= -3513.9004   YX=     3.1905   ZX=  3854.5430
   XY=     2.9952   YY= -8573.6928   ZY=     2.3766
   XZ=  3717.4464   YZ=     2.4151   ZZ= -5419.9474
   Eigenvalues: -8573.6948 -8371.0255  -562.8203
      2  P    Isotropic =   297.5232   Anisotropy =    63.0524
   XX=   314.9019   YX=    -7.0208   ZX=    12.0725
   XY=    13.5926   YY=   245.1738   ZY=    22.4835
   XZ=    11.0690   YZ=    -0.7853   ZZ=   332.4939
   Eigenvalues:   243.7965   309.2149   339.5581
      3  P    Isotropic =   297.4549   Anisotropy =    63.0102
   XX=   314.8050   YX=     7.1809   ZX=    12.0076
   XY=   -13.5654   YY=   245.0939   ZY=   -22.3557
   XZ=    11.0924   YZ=     0.9377   ZZ=   332.4660
   Eigenvalues:   243.7546   309.1485   339.4617
      4  C    Isotropic =   103.5059   Anisotropy =    90.4741
   XX=   121.8297   YX=   -22.2147   ZX=    41.4315
   XY=   -15.8140   YY=    64.1202   ZY=    -2.7562
   XZ=    34.8068   YZ=    -3.8885   ZZ=   124.5678
   Eigenvalues:    57.1481    89.5477   163.8220
      5  C    Isotropic =   105.6074   Anisotropy =    84.3781
   XX=   139.7595   YX=     6.9228   ZX=    37.4860
   XY=    13.6404   YY=    86.2885   ZY=   -30.1674
   XZ=    39.5927   YZ=   -38.8285   ZZ=    90.7742
   Eigenvalues:    41.5970   113.3657   161.8595
      6  C    Isotropic =   108.4515   Anisotropy =    88.2520
   XX=   142.9813   YX=     1.0767   ZX=    37.3548
   XY=    -5.9869   YY=    98.3824   ZY=    22.5184
   XZ=    49.0994   YZ=    28.1851   ZZ=    83.9906
   Eigenvalues:    49.5859   108.4823   167.2861
      7  C    Isotropic =   109.8730   Anisotropy =    88.4525
   XX=   136.7693   YX=    34.3320   ZX=    30.7478
   XY=    21.8436   YY=    61.5111   ZY=     0.5256
   XZ=    26.8624   YZ=    11.0633   ZZ=   131.3387
   Eigenvalues:    52.0020   108.7758   168.8414
      8  C    Isotropic =   111.9345   Anisotropy =    83.5078
   XX=   103.9985   YX=     5.8114   ZX=    65.2466
   XY=    10.4318   YY=   114.8301   ZY=    -6.4143
   XZ=    48.2526   YZ=    -7.6927   ZZ=   116.9748
   Eigenvalues:    51.5394   116.6576   167.6064
      9  C    Isotropic =   103.5111   Anisotropy =    90.4843
   XX=   121.8357   YX=    22.2589   ZX=    41.4099
   XY=    15.8605   YY=    64.1189   ZY=     2.8603
   XZ=    34.7701   YZ=     3.9875   ZZ=   124.5789
   Eigenvalues:    57.1510    89.5484   163.8340
     10  C    Isotropic =   111.9285   Anisotropy =    83.4790
   XX=   103.9832   YX=    -5.6833   ZX=    65.2499
   XY=   -10.3282   YY=   114.8708   ZY=     6.3900
   XZ=    48.2613   YZ=     7.6767   ZZ=   116.9315
   Eigenvalues:    51.5406   116.6637   167.5811
     11  C    Isotropic =   109.8689   Anisotropy =    88.4541
   XX=   136.7473   YX=   -34.3113   ZX=    30.8201
   XY=   -21.8190   YY=    61.5112   ZY=    -0.3937
   XZ=    26.9023   YZ=   -10.9245   ZZ=   131.3483
   Eigenvalues:    51.9986   108.7699   168.8383
     12  C    Isotropic =   108.4528   Anisotropy =    88.2605
   XX=   142.9898   YX=    -1.0216   ZX=    37.3503
   XY=     6.0640   YY=    98.2761   ZY=   -22.5591
   XZ=    49.0778   YZ=   -28.2338   ZZ=    84.0925
   Eigenvalues:    49.5870   108.4783   167.2931
     13  C    Isotropic =   105.5955   Anisotropy =    84.3757
   XX=   139.7390   YX=    -6.8629   ZX=    37.5121
   XY=   -13.5793   YY=    86.4187   ZY=    30.1560
   XZ=    39.6295   YZ=    38.8120   ZZ=    90.6290
   Eigenvalues:    41.5955   113.3451   161.8460
     14  C    Isotropic =   145.4650   Anisotropy =    22.0680
   XX=   155.7914   YX=     4.3022   ZX=   -11.6651
   XY=     0.8789   YY=   129.2921   ZY=     3.9525
   XZ=    -0.5240   YZ=    -3.5706   ZZ=   151.3116
   Eigenvalues:   129.0123   147.2058   160.1770
     15  C    Isotropic =   146.4784   Anisotropy =    31.5446
   XX=   157.3996   YX=    -1.4728   ZX=    -9.2121
   XY=   -13.9283   YY=   117.1759   ZY=    -3.8594
   XZ=    -0.6561   YZ=     2.8754   ZZ=   164.8597
   Eigenvalues:   115.7128   156.2142   167.5081
     16  C    Isotropic =   148.0628   Anisotropy =    27.6425
   XX=   165.8248   YX=     1.0738   ZX=     3.4227
   XY=     7.5132   YY=   122.0494   ZY=     3.1947
   XZ=    -6.8113   YZ=    -1.2094   ZZ=   156.3143
   Eigenvalues:   121.5940   156.1033   166.4912
     17  C    Isotropic =   145.7226   Anisotropy =    33.2379
   XX=   158.0239   YX=     4.8568   ZX=    13.9879
   XY=    11.1765   YY=   119.6372   ZY=   -14.5821
   XZ=     4.0467   YZ=    -4.6637   ZZ=   159.5068
   Eigenvalues:   115.1289   154.1577   167.8812
     18  C    Isotropic =   145.4688   Anisotropy =    22.0671
   XX=   155.7786   YX=    -4.3026   ZX=   -11.6640
   XY=    -0.8688   YY=   129.3029   ZY=    -3.9249
   XZ=    -0.5353   YZ=     3.6335   ZZ=   151.3250
   Eigenvalues:   129.0272   147.1991   160.1803
     19  C    Isotropic =   146.4798   Anisotropy =    31.5485
   XX=   157.4005   YX=     1.4762   ZX=    -9.2056
   XY=    13.9555   YY=   117.1715   ZY=     3.9360
   XZ=    -0.6775   YZ=    -2.7875   ZZ=   164.8672
   Eigenvalues:   115.6983   156.2289   167.5121
     20  C    Isotropic =   148.0647   Anisotropy =    27.6498
   XX=   165.8297   YX=    -1.0386   ZX=     3.3952
   XY=    -7.5047   YY=   122.0376   ZY=    -3.0894
   XZ=    -6.8046   YZ=     1.2810   ZZ=   156.3267
   Eigenvalues:   121.5922   156.1039   166.4979
     21  C    Isotropic =   145.7250   Anisotropy =    33.2379
   XX=   158.0592   YX=    -4.8074   ZX=    13.9936
   XY=   -11.1226   YY=   119.6811   ZY=    14.6966
   XZ=     4.0780   YZ=     4.7626   ZZ=   159.4347
   Eigenvalues:   115.1345   154.1569   167.8836
     22  H    Isotropic =    27.4310   Anisotropy =     6.0972
   XX=    28.9255   YX=    -1.8222   ZX=    -1.9327
   XY=    -2.6481   YY=    26.8704   ZY=     0.8490
   XZ=    -2.3525   YZ=     1.2947   ZZ=    26.4971
   Eigenvalues:    25.1666    25.6306    31.4958
     23  H    Isotropic =    27.4047   Anisotropy =     7.6075
   XX=    25.5187   YX=     0.6859   ZX=    -2.0051
   XY=     1.0120   YY=    28.4383   ZY=    -3.3892
   XZ=    -2.5357   YZ=    -3.4556   ZZ=    28.2570
   Eigenvalues:    23.8825    25.8552    32.4763
     24  H    Isotropic =    27.4045   Anisotropy =     8.6505
   XX=    24.9545   YX=    -1.7895   ZX=    -0.6504
   XY=    -1.5233   YY=    32.8359   ZY=     0.1061
   XZ=    -0.6338   YZ=    -0.1174   ZZ=    24.4232
   Eigenvalues:    23.8827    25.1593    33.1715
     25  H    Isotropic =    27.7113   Anisotropy =     3.9009
   XX=    26.7220   YX=     0.0553   ZX=    -3.8659
   XY=    -0.4496   YY=    29.9081   ZY=     0.2346
   XZ=    -3.2351   YZ=     0.0580   ZZ=    26.5039
   Eigenvalues:    23.0606    29.7615    30.3119
     26  H    Isotropic =    27.7127   Anisotropy =     3.8994
   XX=    26.7240   YX=    -0.0615   ZX=    -3.8635
   XY=     0.4442   YY=    29.9088   ZY=    -0.2407
   XZ=    -3.2341   YZ=    -0.0644   ZZ=    26.5054
   Eigenvalues:    23.0641    29.7618    30.3123
     27  H    Isotropic =    27.4306   Anisotropy =     6.1017
   XX=    28.9253   YX=     1.8189   ZX=    -1.9403
   XY=     2.6437   YY=    26.8620   ZY=    -0.8488
   XZ=    -2.3626   YZ=    -1.2955   ZZ=    26.5044
   Eigenvalues:    25.1632    25.6301    31.4984
     28  H    Isotropic =    29.7634   Anisotropy =     8.6969
   XX=    26.8702   YX=     2.5064   ZX=     0.7997
   XY=     1.4304   YY=    34.7119   ZY=     2.2248
   XZ=     0.1213   YZ=     1.1216   ZZ=    27.7081
   Eigenvalues:    26.3998    27.3291    35.5613
     29  C    Isotropic =   170.0853   Anisotropy =    19.8102
   XX=   160.4426   YX=    -0.5131   ZX=    -0.2774
   XY=     3.4491   YY=   166.5760   ZY=     1.1982
   XZ=    -1.8749   YZ=    -0.5372   ZZ=   183.2373
   Eigenvalues:   160.0550   166.9088   183.2921
     30  H    Isotropic =    28.7882   Anisotropy =     5.3583
   XX=    26.2696   YX=     1.7815   ZX=    -2.1355
   XY=     1.4950   YY=    31.9191   ZY=     0.8884
   XZ=    -1.1944   YZ=     0.1086   ZZ=    28.1760
   Eigenvalues:    24.9059    29.0984    32.3604
     31  C    Isotropic =   163.1954   Anisotropy =    27.3288
   XX=   158.9494   YX=    -1.1268   ZX=     6.9134
   XY=    -3.5528   YY=   159.8498   ZY=   -11.6564
   XZ=    10.8386   YZ=   -11.1378   ZZ=   170.7869
   Eigenvalues:   151.1490   157.0226   181.4145
     32  H    Isotropic =    29.7143   Anisotropy =    12.1646
   XX=    36.7994   YX=     3.3780   ZX=     1.8731
   XY=     1.9764   YY=    24.6025   ZY=     0.3920
   XZ=     2.1709   YZ=     1.3607   ZZ=    27.7410
   Eigenvalues:    23.9833    27.3355    37.8240
     33  H    Isotropic =    30.1021   Anisotropy =     5.0819
   XX=    32.2092   YX=    -1.0124   ZX=    -0.5346
   XY=    -2.0134   YY=    31.3646   ZY=    -1.3723
   XZ=     1.2931   YZ=    -0.7309   ZZ=    26.7324
   Eigenvalues:    26.5043    30.3119    33.4900
     34  H    Isotropic =    29.1803   Anisotropy =    10.6990
   XX=    32.8293   YX=    -0.8476   ZX=    -4.8429
   XY=    -0.5240   YY=    24.7266   ZY=     0.5934
   XZ=    -4.2326   YZ=     1.9910   ZZ=    29.9849
   Eigenvalues:    24.3997    26.8282    36.3129
     35  H    Isotropic =    30.2739   Anisotropy =     9.1445
   XX=    29.8310   YX=     4.5474   ZX=    -0.7228
   XY=     3.9732   YY=    31.9574   ZY=    -3.7116
   XZ=     0.3172   YZ=    -2.9531   ZZ=    29.0334
   Eigenvalues:    25.3006    29.1509    36.3703
     36  H    Isotropic =    27.4046   Anisotropy =     8.6508
   XX=    24.9559   YX=     1.7903   ZX=    -0.6540
   XY=     1.5245   YY=    32.8352   ZY=    -0.1218
   XZ=    -0.6367   YZ=     0.1018   ZZ=    24.4228
   Eigenvalues:    23.8826    25.1595    33.1718
     37  H    Isotropic =    27.4046   Anisotropy =     7.6080
   XX=    25.5182   YX=    -0.6890   ZX=    -2.0025
   XY=    -1.0166   YY=    28.4519   ZY=     3.3897
   XZ=    -2.5323   YZ=     3.4565   ZZ=    28.2436
   Eigenvalues:    23.8828    25.8545    32.4766
     38  H    Isotropic =    30.3737   Anisotropy =     9.3185
   XX=    30.8179   YX=     0.2466   ZX=    -2.1034
   XY=    -0.9510   YY=    26.5570   ZY=     2.9200
   XZ=    -3.2037   YZ=     4.8066   ZZ=    33.7461
   Eigenvalues:    24.7745    29.7605    36.5860
     39  H    Isotropic =    31.3179   Anisotropy =     6.3209
   XX=    30.0108   YX=     4.3377   ZX=     3.8697
   XY=     2.1331   YY=    32.5688   ZY=    -1.6656
   XZ=     3.7181   YZ=    -0.2082   ZZ=    31.3742
   Eigenvalues:    25.4614    32.9606    35.5319
     40  H    Isotropic =    30.5104   Anisotropy =    12.7612
   XX=    31.9634   YX=     3.6571   ZX=     4.7903
   XY=     2.6316   YY=    26.3618   ZY=     1.7614
   XZ=     5.7255   YZ=     2.7828   ZZ=    33.2060
   Eigenvalues:    24.9503    27.5630    39.0178
     41  H    Isotropic =    29.5725   Anisotropy =     7.6368
   XX=    33.4490   YX=     2.3775   ZX=     2.0488
   XY=     1.9554   YY=    25.8276   ZY=    -2.3481
   XZ=     2.6243   YZ=    -2.1805   ZZ=    29.4410
   Eigenvalues:    23.8060    30.2478    34.6637
     42  H    Isotropic =    30.2124   Anisotropy =     7.8294
   XX=    27.5591   YX=    -1.1421   ZX=    -0.0431
   XY=    -1.0906   YY=    34.5673   ZY=    -1.9166
   XZ=     0.2308   YZ=    -2.4787   ZZ=    28.5107
   Eigenvalues:    27.2834    27.9218    35.4320
     43  H    Isotropic =    29.9439   Anisotropy =    11.2237
   XX=    27.8688   YX=    -0.4270   ZX=    -2.4016
   XY=     0.1557   YY=    25.6364   ZY=    -2.2014
   XZ=    -3.1972   YZ=    -1.5104   ZZ=    36.3267
   Eigenvalues:    25.1495    27.2559    37.4264
     44  H    Isotropic =    29.7640   Anisotropy =     8.6986
   XX=    26.8691   YX=    -2.5080   ZX=     0.8068
   XY=    -1.4360   YY=    34.7065   ZY=    -2.2367
   XZ=     0.1258   YZ=    -1.1304   ZZ=    27.7165
   Eigenvalues:    26.3965    27.3324    35.5631
     45  C    Isotropic =   170.0939   Anisotropy =    19.8229
   XX=   160.4464   YX=     0.5090   ZX=    -0.2647
   XY=    -3.4522   YY=   166.5783   ZY=    -1.1645
   XZ=    -1.8500   YZ=     0.5587   ZZ=   183.2570
   Eigenvalues:   160.0595   166.9129   183.3092
     46  H    Isotropic =    28.7876   Anisotropy =     5.3577
   XX=    26.2710   YX=    -1.7920   ZX=    -2.1221
   XY=    -1.5031   YY=    31.9125   ZY=    -0.8996
   XZ=    -1.1863   YZ=    -0.1171   ZZ=    28.1792
   Eigenvalues:    24.9100    29.0934    32.3594
     47  C    Isotropic =   163.1847   Anisotropy =    27.3370
   XX=   158.9630   YX=     1.1452   ZX=     6.9171
   XY=     3.5851   YY=   159.9044   ZY=    11.7004
   XZ=    10.8439   YZ=    11.1859   ZZ=   170.6869
   Eigenvalues:   151.1175   157.0273   181.4094
     48  H    Isotropic =    29.7146   Anisotropy =    12.1658
   XX=    36.8058   YX=    -3.3686   ZX=     1.8747
   XY=    -1.9654   YY=    24.5965   ZY=    -0.3831
   XZ=     2.1705   YZ=    -1.3514   ZZ=    27.7413
   Eigenvalues:    23.9838    27.3348    37.8251
     49  H    Isotropic =    30.1004   Anisotropy =     5.0757
   XX=    32.2068   YX=     1.0058   ZX=    -0.5420
   XY=     2.0109   YY=    31.3733   ZY=     1.3633
   XZ=     1.2868   YZ=     0.7212   ZZ=    26.7212
   Eigenvalues:    26.4979    30.3191    33.4842
     50  H    Isotropic =    29.1794   Anisotropy =    10.6960
   XX=    32.8201   YX=     0.8433   ZX=    -4.8451
   XY=     0.5212   YY=    24.7243   ZY=    -0.5874
   XZ=    -4.2332   YZ=    -1.9846   ZZ=    29.9938
   Eigenvalues:    24.4010    26.8271    36.3101
     51  H    Isotropic =    30.2743   Anisotropy =     9.1466
   XX=    29.8398   YX=    -4.5500   ZX=    -0.7141
   XY=    -3.9721   YY=    31.9639   ZY=     3.7107
   XZ=     0.3239   YZ=     2.9531   ZZ=    29.0194
   Eigenvalues:    25.2971    29.1538    36.3721
     52  H    Isotropic =    31.3183   Anisotropy =     6.3238
   XX=    30.0112   YX=    -4.3332   ZX=     3.8781
   XY=    -2.1290   YY=    32.5722   ZY=     1.6649
   XZ=     3.7232   YZ=     0.2070   ZZ=    31.3714
   Eigenvalues:    25.4589    32.9617    35.5341
     53  H    Isotropic =    30.5106   Anisotropy =    12.7626
   XX=    31.9716   YX=    -3.6483   ZX=     4.7986
   XY=    -2.6207   YY=    26.3522   ZY=    -1.7459
   XZ=     5.7333   YZ=    -2.7674   ZZ=    33.2081
   Eigenvalues:    24.9508    27.5621    39.0190
     54  H    Isotropic =    30.3735   Anisotropy =     9.3232
   XX=    30.8093   YX=    -0.2489   ZX=    -2.1009
   XY=     0.9463   YY=    26.5458   ZY=    -2.9095
   XZ=    -3.2022   YZ=    -4.7971   ZZ=    33.7655
   Eigenvalues:    24.7759    29.7557    36.5890
     55  H    Isotropic =    30.2130   Anisotropy =     7.8293
   XX=    27.5576   YX=     1.1354   ZX=    -0.0446
   XY=     1.0849   YY=    34.5830   ZY=     1.8985
   XZ=     0.2287   YZ=     2.4595   ZZ=    28.4985
   Eigenvalues:    27.2865    27.9200    35.4326
     56  H    Isotropic =    29.9439   Anisotropy =    11.2225
   XX=    27.8624   YX=     0.4236   ZX=    -2.3954
   XY=    -0.1615   YY=    25.6488   ZY=     2.2327
   XZ=    -3.1885   YZ=     1.5396   ZZ=    36.3204
   Eigenvalues:    25.1501    27.2560    37.4255
     57  H    Isotropic =    29.5727   Anisotropy =     7.6415
   XX=    33.4606   YX=    -2.3598   ZX=     2.0520
   XY=    -1.9360   YY=    25.8385   ZY=     2.3647
   XZ=     2.6278   YZ=     2.1975   ZZ=    29.4189
   Eigenvalues:    23.8053    30.2457    34.6670
 End of Minotr F.D. properties file   721 does not exist.
 End of Minotr F.D. properties file   722 does not exist.
 End of Minotr F.D. properties file   788 does not exist.

 **********************************************************************

            Population analysis using the SCF density.

 **********************************************************************

 Orbital symmetries:
       Occupied  (A) (A) (A) (A) (A) (A) (A) (A) (A) (A) (A) (A)
                 (A) (A) (A) (A) (A) (A) (A) (A) (A) (A) (A) (A)
                 (A) (A) (A) (A) (A) (A) (A) (A) (A) (A) (A) (A)
                 (A) (A) (A) (A) (A) (A) (A) (A) (A) (A) (A) (A)
                 (A) (A) (A) (A) (A) (A) (A) (A) (A) (A) (A) (A)
                 (A) (A) (A) (A) (A) (A) (A) (A) (A) (A) (A) (A)
                 (A) (A) (A) (A) (A) (A) (A) (A) (A) (A) (A) (A)
                 (A) (A) (A) (A) (A) (A) (A) (A) (A) (A) (A) (A)
                 (A) (A) (A) (A) (A) (A) (A) (A) (A)
       Virtual   (A) (A) (A) (A) (A) (A) (A) (A) (A) (A) (A) (A)
                 (A) (A) (A) (A) (A) (A) (A) (A) (A) (A) (A) (A)
                 (A) (A) (A) (A) (A) (A) (A) (A) (A) (A) (A) (A)
                 (A) (A) (A) (A) (A) (A) (A) (A) (A) (A) (A) (A)
                 (A) (A) (A) (A) (A) (A) (A) (A) (A) (A) (A) (A)
                 (A) (A) (A) (A) (A) (A) (A) (A) (A) (A) (A) (A)
                 (A) (A) (A) (A) (A) (A) (A) (A) (A) (A) (A) (A)
                 (A) (A) (A) (A) (A) (A) (A) (A) (A) (A) (A) (A)
                 (A) (A) (A) (A) (A) (A) (A) (A) (A) (A) (A) (A)
                 (A) (A) (A) (A) (A) (A) (A) (A) (A) (A) (A) (A)
                 (A) (A) (A) (A) (A) (A) (A) (A) (A) (A) (A) (A)
                 (A) (A) (A) (A) (A) (A) (A) (A) (A) (A) (A) (A)
                 (A) (A) (A) (A) (A) (A) (A) (A) (A) (A) (A) (A)
                 (A) (A) (A) (A) (A) (A) (A) (A) (A) (A) (A) (A)
                 (A) (A) (A) (A) (A) (A) (A) (A) (A) (A) (A) (A)
                 (A) (A) (A) (A) (A) (A) (A) (A) (A) (A) (A) (A)
                 (A) (A) (A) (A) (A) (A) (A) (A) (A) (A) (A) (A)
                 (A) (A) (A) (A) (A) (A) (A) (A) (A) (A) (A) (A)
                 (A) (A) (A) (A) (A) (A) (A) (A) (A) (A) (A) (A)
                 (A) (A) (A) (A) (A) (A) (A) (A) (A) (A) (A) (A)
                 (A) (A) (A) (A) (A) (A) (A) (A) (A) (A) (A) (A)
                 (A) (A) (A) (A) (A) (A) (A) (A) (A) (A) (A) (A)
                 (A) (A) (A) (A) (A) (A) (A) (A) (A) (A) (A) (A)
                 (A) (A) (A) (A) (A) (A) (A) (A) (A) (A) (A) (A)
                 (A) (A) (A) (A) (A) (A) (A) (A) (A) (A) (A) (A)
                 (A) (A) (A) (A) (A) (A) (A) (A) (A) (A) (A) (A)
                 (A) (A) (A) (A) (A) (A) (A) (A) (A) (A) (A) (A)
                 (A) (A) (A) (A) (A) (A) (A) (A) (A) (A) (A) (A)
                 (A) (A) (A) (A) (A) (A) (A) (A) (A) (A) (A) (A)
                 (A) (A) (A) (A) (A) (A) (A) (A) (A) (A) (A) (A)
                 (A) (A) (A) (A) (A) (A) (A) (A) (A) (A) (A) (A)
                 (A) (A) (A) (A) (A) (A) (A) (A) (A) (A) (A) (A)
                 (A) (A) (A) (A) (A) (A) (A) (A) (A) (A) (A) (A)
                 (A) (A) (A) (A) (A) (A) (A) (A) (A) (A) (A) (A)
                 (A) (A) (A) (A) (A) (A) (A) (A) (A) (A) (A) (A)
                 (A) (A) (A) (A) (A) (A) (A) (A) (A) (A) (A) (A)
                 (A) (A) (A) (A) (A) (A) (A) (A) (A) (A) (A) (A)
                 (A) (A) (A) (A) (A) (A) (A) (A) (A) (A) (A) (A)
                 (A) (A) (A) (A) (A) (A) (A) (A) (A) (A) (A) (A)
                 (A) (A) (A) (A) (A) (A) (A) (A) (A) (A) (A) (A)
                 (A) (A) (A) (A) (A) (A) (A) (A) (A) (A) (A) (A)
                 (A) (A) (A) (A) (A) (A) (A) (A) (A) (A) (A) (A)
                 (A) (A) (A) (A) (A) (A) (A) (A) (A) (A) (A) (A)
                 (A) (A) (A) (A) (A) (A) (A) (A) (A) (A) (A) (A)
                 (A) (A) (A) (A) (A) (A) (A) (A) (A) (A) (A) (A)
                 (A) (A) (A) (A) (A) (A) (A) (A) (A) (A) (A) (A)
                 (A) (A) (A) (A) (A) (A) (A) (A) (A) (A) (A) (A)
                 (A) (A) (A) (A) (A) (A) (A) (A) (A) (A) (A) (A)
                 (A) (A) (A) (A) (A) (A) (A) (A) (A) (A) (A) (A)
                 (A) (A) (A) (A) (A) (A) (A) (A) (A) (A) (A) (A)
                 (A) (A) (A) (A) (A) (A) (A) (A) (A) (A) (A) (A)
                 (A) (A) (A) (A) (A) (A) (A) (A) (A) (A) (A) (A)
                 (A) (A) (A) (A) (A) (A) (A) (A) (A) (A) (A) (A)
                 (A) (A) (A) (A) (A) (A) (A) (A) (A) (A) (A) (A)
                 (A) (A) (A) (A) (A) (A) (A) (A) (A) (A) (A) (A)
                 (A) (A) (A) (A) (A) (A) (A) (A) (A) (A) (A) (A)
                 (A) (A) (A) (A) (A) (A) (A) (A) (A) (A) (A) (A)
                 (A) (A) (A) (A) (A) (A) (A) (A) (A) (A) (A) (A)
                 (A) (A) (A) (A) (A) (A) (A) (A) (A) (A) (A) (A)
                 (A) (A) (A) (A) (A) (A) (A) (A) (A) (A) (A) (A)
                 (A) (A) (A) (A) (A) (A) (A) (A) (A) (A) (A) (A)
                 (A) (A) (A) (A) (A) (A) (A) (A) (A) (A) (A) (A)
                 (A) (A) (A) (A) (A) (A) (A) (A) (A) (A) (A) (A)
                 (A) (A) (A) (A) (A) (A) (A) (A) (A) (A) (A) (A)
                 (A) (A) (A) (A) (A) (A) (A) (A) (A) (A) (A) (A)
                 (A) (A) (A) (A) (A) (A) (A) (A) (A) (A) (A) (A)
                 (A) (A) (A) (A) (A) (A) (A) (A) (A) (A) (A) (A)
                 (A) (A) (A) (A) (A) (A) (A) (A) (A) (A) (A) (A)
                 (A) (A) (A) (A) (A) (A) (A) (A) (A) (A) (A) (A)
                 (A) (A) (A) (A) (A) (A) (A) (A) (A) (A) (A) (A)
                 (A) (A) (A) (A) (A) (A) (A) (A) (A) (A) (A) (A)
                 (A) (A) (A) (A) (A) (A) (A) (A) (A) (A) (A) (A)
                 (A) (A) (A) (A) (A) (A) (A) (A) (A) (A) (A) (A)
                 (A) (A) (A) (A) (A) (A) (A) (A) (A) (A)
 The electronic state is 1-A.
 Alpha  occ. eigenvalues --  -77.17699 -77.17697 -10.23773 -10.23773 -10.23747
 Alpha  occ. eigenvalues --  -10.23746 -10.23715 -10.23715 -10.23563 -10.23563
 Alpha  occ. eigenvalues --  -10.23543 -10.23542 -10.22947 -10.22946 -10.22357
 Alpha  occ. eigenvalues --  -10.22356 -10.22058 -10.22058 -10.21699 -10.21697
 Alpha  occ. eigenvalues --  -10.21368 -10.21368 -10.20921 -10.20920  -6.57361
 Alpha  occ. eigenvalues --   -6.57360  -4.70964  -4.70962  -4.70909  -4.70907
 Alpha  occ. eigenvalues --   -4.70482  -4.70480  -3.60052  -2.24628  -2.20359
 Alpha  occ. eigenvalues --   -2.20347  -0.91533  -0.89515  -0.84568  -0.84540
 Alpha  occ. eigenvalues --   -0.78235  -0.78211  -0.74293  -0.74089  -0.73277
 Alpha  occ. eigenvalues --   -0.73228  -0.72738  -0.72662  -0.65241  -0.65211
 Alpha  occ. eigenvalues --   -0.65157  -0.65148  -0.57892  -0.57885  -0.57217
 Alpha  occ. eigenvalues --   -0.56444  -0.55857  -0.55432  -0.55139  -0.54002
 Alpha  occ. eigenvalues --   -0.49679  -0.49539  -0.47509  -0.47302  -0.46220
 Alpha  occ. eigenvalues --   -0.46010  -0.43870  -0.43848  -0.43182  -0.42492
 Alpha  occ. eigenvalues --   -0.42410  -0.42170  -0.41867  -0.41311  -0.41200
 Alpha  occ. eigenvalues --   -0.40763  -0.40577  -0.39984  -0.39764  -0.39326
 Alpha  occ. eigenvalues --   -0.39193  -0.37534  -0.37490  -0.36995  -0.36689
 Alpha  occ. eigenvalues --   -0.36466  -0.34007  -0.33968  -0.33636  -0.33587
 Alpha  occ. eigenvalues --   -0.33298  -0.33272  -0.32507  -0.32285  -0.30361
 Alpha  occ. eigenvalues --   -0.29979  -0.28312  -0.27881  -0.26792  -0.26585
 Alpha  occ. eigenvalues --   -0.24993  -0.22376  -0.22333  -0.22113  -0.18700
 Alpha virt. eigenvalues --   -0.00368   0.00234   0.00294   0.01870   0.02218
 Alpha virt. eigenvalues --    0.02380   0.03415   0.04344   0.04735   0.05051
 Alpha virt. eigenvalues --    0.05341   0.05835   0.06290   0.06467   0.06887
 Alpha virt. eigenvalues --    0.07205   0.07438   0.08291   0.08594   0.08596
 Alpha virt. eigenvalues --    0.08725   0.09335   0.10066   0.10430   0.11033
 Alpha virt. eigenvalues --    0.11057   0.11421   0.11980   0.12172   0.12771
 Alpha virt. eigenvalues --    0.13023   0.13333   0.13359   0.13855   0.13882
 Alpha virt. eigenvalues --    0.14440   0.14554   0.14836   0.14939   0.15089
 Alpha virt. eigenvalues --    0.15642   0.15776   0.15847   0.16406   0.16466
 Alpha virt. eigenvalues --    0.16747   0.17850   0.17932   0.18432   0.18775
 Alpha virt. eigenvalues --    0.18786   0.19413   0.19514   0.19862   0.20011
 Alpha virt. eigenvalues --    0.20600   0.20978   0.21164   0.21383   0.21786
 Alpha virt. eigenvalues --    0.22014   0.22482   0.22881   0.23265   0.23625
 Alpha virt. eigenvalues --    0.23794   0.24148   0.24351   0.24854   0.24991
 Alpha virt. eigenvalues --    0.25549   0.26213   0.26299   0.26693   0.27847
 Alpha virt. eigenvalues --    0.28062   0.28133   0.28334   0.29253   0.29278
 Alpha virt. eigenvalues --    0.30158   0.30382   0.30857   0.30930   0.31305
 Alpha virt. eigenvalues --    0.31892   0.32182   0.32735   0.32961   0.33396
 Alpha virt. eigenvalues --    0.33869   0.33953   0.34457   0.34825   0.35952
 Alpha virt. eigenvalues --    0.36047   0.36413   0.36549   0.37134   0.37985
 Alpha virt. eigenvalues --    0.38403   0.38850   0.39124   0.39194   0.39413
 Alpha virt. eigenvalues --    0.40355   0.40717   0.40975   0.41265   0.41330
 Alpha virt. eigenvalues --    0.41649   0.42282   0.42593   0.42846   0.43473
 Alpha virt. eigenvalues --    0.43785   0.43833   0.43970   0.43972   0.44167
 Alpha virt. eigenvalues --    0.44265   0.44369   0.45071   0.45297   0.45611
 Alpha virt. eigenvalues --    0.45628   0.45968   0.46140   0.46517   0.46871
 Alpha virt. eigenvalues --    0.46990   0.47142   0.47291   0.47632   0.47735
 Alpha virt. eigenvalues --    0.48012   0.48242   0.48507   0.48598   0.48775
 Alpha virt. eigenvalues --    0.48847   0.49198   0.49823   0.49943   0.50219
 Alpha virt. eigenvalues --    0.50505   0.51155   0.51303   0.51505   0.51653
 Alpha virt. eigenvalues --    0.51725   0.52667   0.52893   0.53174   0.54081
 Alpha virt. eigenvalues --    0.54262   0.54796   0.55006   0.55625   0.55806
 Alpha virt. eigenvalues --    0.56024   0.56414   0.56682   0.57404   0.58084
 Alpha virt. eigenvalues --    0.58405   0.58911   0.59115   0.59800   0.59930
 Alpha virt. eigenvalues --    0.60360   0.61587   0.61724   0.61841   0.62654
 Alpha virt. eigenvalues --    0.62925   0.62952   0.63526   0.63599   0.63752
 Alpha virt. eigenvalues --    0.65029   0.65434   0.65644   0.65808   0.66259
 Alpha virt. eigenvalues --    0.67525   0.68194   0.68611   0.69065   0.69784
 Alpha virt. eigenvalues --    0.69952   0.70127   0.71351   0.72054   0.72363
 Alpha virt. eigenvalues --    0.72609   0.72703   0.73055   0.74151   0.74252
 Alpha virt. eigenvalues --    0.74571   0.75528   0.75975   0.76097   0.76713
 Alpha virt. eigenvalues --    0.78194   0.78765   0.79691   0.80019   0.80980
 Alpha virt. eigenvalues --    0.81269   0.81871   0.82167   0.82877   0.83789
 Alpha virt. eigenvalues --    0.85080   0.85119   0.85962   0.86502   0.86838
 Alpha virt. eigenvalues --    0.86970   0.87507   0.87702   0.88575   0.88733
 Alpha virt. eigenvalues --    0.89363   0.90387   0.91037   0.91592   0.91743
 Alpha virt. eigenvalues --    0.92050   0.93283   0.93287   0.94637   0.94925
 Alpha virt. eigenvalues --    0.95331   0.95552   0.95896   0.96272   0.96839
 Alpha virt. eigenvalues --    0.97696   0.97926   0.98210   0.99354   0.99882
 Alpha virt. eigenvalues --    1.01181   1.01967   1.02521   1.02721   1.02850
 Alpha virt. eigenvalues --    1.03088   1.04045   1.05238   1.05330   1.06428
 Alpha virt. eigenvalues --    1.07058   1.07900   1.09161   1.09453   1.09643
 Alpha virt. eigenvalues --    1.10860   1.10923   1.11982   1.12205   1.12467
 Alpha virt. eigenvalues --    1.13369   1.13856   1.14373   1.14426   1.14534
 Alpha virt. eigenvalues --    1.15282   1.15949   1.17110   1.17395   1.17866
 Alpha virt. eigenvalues --    1.18463   1.19671   1.19914   1.19994   1.20237
 Alpha virt. eigenvalues --    1.21000   1.21165   1.21891   1.23013   1.23125
 Alpha virt. eigenvalues --    1.23163   1.23977   1.24489   1.25146   1.25720
 Alpha virt. eigenvalues --    1.25928   1.26718   1.26748   1.27547   1.27755
 Alpha virt. eigenvalues --    1.27782   1.28114   1.28580   1.29314   1.29646
 Alpha virt. eigenvalues --    1.30742   1.32159   1.32581   1.32925   1.33270
 Alpha virt. eigenvalues --    1.33481   1.33650   1.35596   1.35882   1.36537
 Alpha virt. eigenvalues --    1.36599   1.38466   1.38656   1.39253   1.39737
 Alpha virt. eigenvalues --    1.40475   1.40547   1.40838   1.41427   1.41595
 Alpha virt. eigenvalues --    1.44172   1.44466   1.44955   1.45791   1.46406
 Alpha virt. eigenvalues --    1.47147   1.48225   1.50118   1.50552   1.51949
 Alpha virt. eigenvalues --    1.52331   1.52448   1.52505   1.53175   1.54065
 Alpha virt. eigenvalues --    1.54421   1.54483   1.55526   1.56247   1.56665
 Alpha virt. eigenvalues --    1.57401   1.57802   1.57812   1.58532   1.58935
 Alpha virt. eigenvalues --    1.59254   1.59950   1.60287   1.60498   1.60740
 Alpha virt. eigenvalues --    1.61276   1.61442   1.62001   1.62721   1.62982
 Alpha virt. eigenvalues --    1.63884   1.64000   1.64239   1.64710   1.65383
 Alpha virt. eigenvalues --    1.65460   1.65754   1.66109   1.66632   1.66797
 Alpha virt. eigenvalues --    1.67902   1.68606   1.68799   1.68945   1.69500
 Alpha virt. eigenvalues --    1.70209   1.70670   1.71141   1.71443   1.72127
 Alpha virt. eigenvalues --    1.72870   1.73275   1.73325   1.74154   1.75860
 Alpha virt. eigenvalues --    1.76630   1.77180   1.77464   1.77984   1.78537
 Alpha virt. eigenvalues --    1.79438   1.80738   1.80853   1.81162   1.81274
 Alpha virt. eigenvalues --    1.81942   1.81993   1.83286   1.84237   1.84529
 Alpha virt. eigenvalues --    1.85656   1.86215   1.86962   1.87391   1.87760
 Alpha virt. eigenvalues --    1.88988   1.89471   1.90453   1.90600   1.91124
 Alpha virt. eigenvalues --    1.91192   1.92684   1.93510   1.94143   1.94992
 Alpha virt. eigenvalues --    1.96496   1.96776   1.97658   1.97961   1.98176
 Alpha virt. eigenvalues --    1.99074   1.99983   2.00270   2.01237   2.01977
 Alpha virt. eigenvalues --    2.01987   2.02646   2.04218   2.04519   2.05992
 Alpha virt. eigenvalues --    2.06738   2.06803   2.07435   2.07651   2.07891
 Alpha virt. eigenvalues --    2.08904   2.09510   2.09639   2.10671   2.10777
 Alpha virt. eigenvalues --    2.10999   2.11829   2.13382   2.13738   2.14295
 Alpha virt. eigenvalues --    2.14977   2.15907   2.16020   2.16396   2.16752
 Alpha virt. eigenvalues --    2.17696   2.19071   2.19711   2.20166   2.20654
 Alpha virt. eigenvalues --    2.20922   2.22613   2.22691   2.23527   2.24855
 Alpha virt. eigenvalues --    2.25388   2.26101   2.27337   2.28385   2.29787
 Alpha virt. eigenvalues --    2.30055   2.30497   2.31540   2.32273   2.32832
 Alpha virt. eigenvalues --    2.32930   2.33822   2.34891   2.35312   2.35453
 Alpha virt. eigenvalues --    2.36893   2.37207   2.37819   2.38097   2.39003
 Alpha virt. eigenvalues --    2.39389   2.39550   2.40588   2.41087   2.42197
 Alpha virt. eigenvalues --    2.42227   2.42755   2.43027   2.44369   2.45255
 Alpha virt. eigenvalues --    2.45615   2.46115   2.46438   2.46964   2.47284
 Alpha virt. eigenvalues --    2.47502   2.47959   2.48539   2.48925   2.50128
 Alpha virt. eigenvalues --    2.50934   2.51822   2.52493   2.53252   2.53288
 Alpha virt. eigenvalues --    2.53912   2.54423   2.54814   2.55372   2.55394
 Alpha virt. eigenvalues --    2.56577   2.56654   2.57136   2.57389   2.57819
 Alpha virt. eigenvalues --    2.58738   2.59584   2.59619   2.60330   2.60365
 Alpha virt. eigenvalues --    2.60785   2.60861   2.61686   2.62258   2.62551
 Alpha virt. eigenvalues --    2.62819   2.62924   2.64050   2.64170   2.64527
 Alpha virt. eigenvalues --    2.64862   2.65287   2.66546   2.66753   2.66782
 Alpha virt. eigenvalues --    2.66838   2.67610   2.67735   2.68025   2.68905
 Alpha virt. eigenvalues --    2.69424   2.69481   2.70042   2.70512   2.71435
 Alpha virt. eigenvalues --    2.71452   2.72563   2.72616   2.73744   2.74248
 Alpha virt. eigenvalues --    2.74780   2.74927   2.75562   2.75910   2.76453
 Alpha virt. eigenvalues --    2.77563   2.77923   2.78855   2.79207   2.79773
 Alpha virt. eigenvalues --    2.80342   2.80866   2.81328   2.81604   2.82412
 Alpha virt. eigenvalues --    2.83490   2.85789   2.85988   2.86390   2.86941
 Alpha virt. eigenvalues --    2.86956   2.87869   2.88067   2.89584   2.90248
 Alpha virt. eigenvalues --    2.90719   2.91047   2.91876   2.93124   2.93830
 Alpha virt. eigenvalues --    2.93962   2.95392   2.95520   2.95953   2.96725
 Alpha virt. eigenvalues --    2.97638   2.97764   2.97930   2.98556   2.98727
 Alpha virt. eigenvalues --    3.00190   3.00785   3.00821   3.02208   3.02621
 Alpha virt. eigenvalues --    3.04129   3.05177   3.05896   3.06548   3.07091
 Alpha virt. eigenvalues --    3.07200   3.07529   3.08943   3.10087   3.10165
 Alpha virt. eigenvalues --    3.10743   3.11673   3.11930   3.12947   3.13558
 Alpha virt. eigenvalues --    3.13814   3.13903   3.14840   3.15275   3.16088
 Alpha virt. eigenvalues --    3.16237   3.16846   3.17102   3.17582   3.18925
 Alpha virt. eigenvalues --    3.19649   3.20113   3.20138   3.21505   3.21518
 Alpha virt. eigenvalues --    3.22144   3.22878   3.23285   3.24017   3.24034
 Alpha virt. eigenvalues --    3.24654   3.24894   3.25442   3.25477   3.26466
 Alpha virt. eigenvalues --    3.27121   3.27454   3.28548   3.29111   3.29485
 Alpha virt. eigenvalues --    3.29731   3.30092   3.31258   3.31363   3.32720
 Alpha virt. eigenvalues --    3.32746   3.33183   3.33718   3.34065   3.35166
 Alpha virt. eigenvalues --    3.35314   3.35840   3.36472   3.36819   3.37586
 Alpha virt. eigenvalues --    3.37912   3.38140   3.38776   3.39077   3.39246
 Alpha virt. eigenvalues --    3.39510   3.40647   3.40764   3.41229   3.41521
 Alpha virt. eigenvalues --    3.41880   3.42067   3.42599   3.43218   3.43417
 Alpha virt. eigenvalues --    3.43747   3.44612   3.45273   3.45546   3.45571
 Alpha virt. eigenvalues --    3.46254   3.46936   3.47175   3.48477   3.48547
 Alpha virt. eigenvalues --    3.48884   3.49365   3.50031   3.50132   3.50851
 Alpha virt. eigenvalues --    3.50879   3.51870   3.52605   3.52658   3.53364
 Alpha virt. eigenvalues --    3.53817   3.54344   3.54447   3.54946   3.55004
 Alpha virt. eigenvalues --    3.55461   3.56345   3.57198   3.58434   3.58712
 Alpha virt. eigenvalues --    3.59415   3.59675   3.60351   3.60794   3.61810
 Alpha virt. eigenvalues --    3.61988   3.62917   3.64927   3.64947   3.67741
 Alpha virt. eigenvalues --    3.68328   3.68727   3.69560   3.69667   3.70589
 Alpha virt. eigenvalues --    3.72469   3.72898   3.73739   3.74747   3.75058
 Alpha virt. eigenvalues --    3.75947   3.77037   3.77919   3.79830   3.81756
 Alpha virt. eigenvalues --    3.83133   3.84140   3.84358   3.84481   3.84503
 Alpha virt. eigenvalues --    3.85689   3.85813   3.88373   3.88587   3.89548
 Alpha virt. eigenvalues --    3.90650   3.92925   3.93374   3.94837   3.95522
 Alpha virt. eigenvalues --    3.96160   3.96645   3.97393   3.98044   3.98421
 Alpha virt. eigenvalues --    3.99082   3.99164   3.99211   3.99880   4.00455
 Alpha virt. eigenvalues --    4.00810   4.01950   4.02923   4.03097   4.04920
 Alpha virt. eigenvalues --    4.05748   4.06691   4.06776   4.11019   4.11540
 Alpha virt. eigenvalues --    4.12349   4.12672   4.13131   4.13235   4.13969
 Alpha virt. eigenvalues --    4.14032   4.16094   4.16186   4.16330   4.16872
 Alpha virt. eigenvalues --    4.17852   4.19143   4.19538   4.19846   4.21872
 Alpha virt. eigenvalues --    4.22246   4.22525   4.23144   4.24413   4.24688
 Alpha virt. eigenvalues --    4.24851   4.25866   4.29261   4.29347   4.30435
 Alpha virt. eigenvalues --    4.31835   4.32430   4.33965   4.34220   4.34756
 Alpha virt. eigenvalues --    4.36359   4.36959   4.38557   4.39210   4.40465
 Alpha virt. eigenvalues --    4.40725   4.41891   4.43165   4.43579   4.44162
 Alpha virt. eigenvalues --    4.45914   4.47701   4.47958   4.49663   4.50451
 Alpha virt. eigenvalues --    4.50636   4.52674   4.53601   4.57921   4.57997
 Alpha virt. eigenvalues --    4.58750   4.60596   4.60902   4.61467   4.62197
 Alpha virt. eigenvalues --    4.65709   4.67235   4.67296   4.69344   4.69399
 Alpha virt. eigenvalues --    4.71954   4.72160   4.73416   4.73816   4.81353
 Alpha virt. eigenvalues --    4.81614   4.86300   4.88060   4.89270   4.92046
 Alpha virt. eigenvalues --    4.93649   4.94065   4.94608   4.95203   4.96894
 Alpha virt. eigenvalues --    4.97318   5.04324   5.06816   5.08695   5.09501
 Alpha virt. eigenvalues --    5.10949   5.12067   5.13106   5.13534   5.16526
 Alpha virt. eigenvalues --    5.19146   5.20413   5.22211   5.22274   5.24326
 Alpha virt. eigenvalues --    5.27133   5.28313   5.35326   5.43646   5.45999
 Alpha virt. eigenvalues --    5.63535   5.64777   7.79982   7.80165   7.91476
 Alpha virt. eigenvalues --    7.92276   8.07330   8.07784  15.74751  15.75361
 Alpha virt. eigenvalues --   22.39559  22.41050  22.46784  22.47577  22.51970
 Alpha virt. eigenvalues --   22.52263  22.58549  22.59636  22.63334  22.63953
 Alpha virt. eigenvalues --   22.64594  22.65361  22.68590  22.71304  22.74796
 Alpha virt. eigenvalues --   22.75447  22.78452  22.80327  22.91090  22.92554
 Alpha virt. eigenvalues --   23.03918  23.07065  40.37042  40.38536  41.15424
 Alpha virt. eigenvalues --   56.90250
          Condensed to atoms (all electrons):
 Mulliken charges:
               1
     1  Fe  -0.551268
     2  P    0.036071
     3  P    0.036047
     4  C    0.152329
     5  C   -0.113863
     6  C   -0.045799
     7  C   -0.097925
     8  C   -0.124938
     9  C    0.152075
    10  C   -0.124954
    11  C   -0.097825
    12  C   -0.045782
    13  C   -0.113586
    14  C   -0.073743
    15  C   -0.188488
    16  C   -0.107369
    17  C   -0.188110
    18  C   -0.073691
    19  C   -0.188503
    20  C   -0.107473
    21  C   -0.188231
    22  H    0.085819
    23  H    0.117021
    24  H    0.114476
    25  H    0.120222
    26  H    0.120286
    27  H    0.085595
    28  H    0.096711
    29  C   -0.396081
    30  H    0.087302
    31  C   -0.364910
    32  H    0.097847
    33  H    0.109918
    34  H    0.107642
    35  H    0.096862
    36  H    0.114479
    37  H    0.117026
    38  H    0.122553
    39  H    0.144411
    40  H    0.121976
    41  H    0.123327
    42  H    0.121086
    43  H    0.121329
    44  H    0.096687
    45  C   -0.396090
    46  H    0.087456
    47  C   -0.364952
    48  H    0.097815
    49  H    0.109983
    50  H    0.107636
    51  H    0.096867
    52  H    0.144415
    53  H    0.121967
    54  H    0.122570
    55  H    0.121060
    56  H    0.121359
    57  H    0.123358
 Sum of Mulliken charges =  -0.00000
 Mulliken charges with hydrogens summed into heavy atoms:
               1
     1  Fe  -0.551268
     2  P    0.036071
     3  P    0.036047
     4  C    0.152329
     5  C   -0.028044
     6  C    0.071222
     7  C    0.016551
     8  C   -0.004716
     9  C    0.152075
    10  C   -0.004668
    11  C    0.016654
    12  C    0.071244
    13  C   -0.027992
    14  C    0.022967
    15  C    0.019277
    16  C   -0.020067
    17  C    0.016394
    18  C    0.022996
    19  C    0.019294
    20  C   -0.020016
    21  C    0.016272
    29  C   -0.007141
    31  C    0.000832
    45  C   -0.007138
    47  C    0.000825
 Electronic spatial extent (au):  <R**2>=           9052.9124
 Charge=             -0.0000 electrons
 Dipole moment (field-independent basis, Debye):
    X=             -0.0009    Y=              1.2848    Z=             -0.0023  Tot=              1.2848
 Quadrupole moment (field-independent basis, Debye-Ang):
   XX=           -172.1420   YY=           -170.5546   ZZ=           -173.2328
   XY=             -0.0052   XZ=             -6.7640   YZ=              0.0013
 Traceless Quadrupole moment (field-independent basis, Debye-Ang):
   XX=             -0.1655   YY=              1.4218   ZZ=             -1.2563
   XY=             -0.0052   XZ=             -6.7640   YZ=              0.0013
 Octapole moment (field-independent basis, Debye-Ang**2):
  XXX=             -0.0224  YYY=             67.6403  ZZZ=             -0.0428  XYY=             -0.0154
  XXY=             -1.3126  XXZ=              0.0055  XZZ=              0.0227  YZZ=             15.7826
  YYZ=             -0.0325  XYZ=            -13.3899
 Hexadecapole moment (field-independent basis, Debye-Ang**3):
 XXXX=          -7160.0665 YYYY=          -2876.2685 ZZZZ=          -2607.7813 XXXY=             -0.0385
 XXXZ=            -38.1925 YYYX=             -0.0211 YYYZ=             -0.1805 ZZZX=            -56.4667
 ZZZY=             -0.1078 XXYY=          -1652.9622 XXZZ=          -1624.9480 YYZZ=           -927.8788
 XXYZ=             -0.0649 YYXZ=            -18.4248 ZZXY=              0.0030
 N-N= 3.041517711287D+03 E-N=-9.983339154181D+03  KE= 1.604278270754D+03
 1\1\GINC-NC082\SP\RPBE1PBE\Gen\C22H32Fe1P2\MACKK4\05-Dec-2021\0\\# PBE
 1PBE gen pseudo=read int=(grid=ultrafine) empiricaldispersion=GD3BJ nm
 r=giao\\RR_Me_Ferrolane_1 title\\0,1\Fe,0,-0.0368124839,2.6182566425,0
 .0408270715\P,0,-1.7915291908,-0.2721492576,0.0574114337\P,0,1.7806907
 594,-0.2328659825,0.0069120476\C,0,-1.5524524242,1.4397376859,-0.52304
 77628\C,0,-0.733596489,1.7855178503,-1.6656477432\C,0,-0.722749759,3.2
 126264397,-1.8037980633\C,0,-1.5433073585,3.7664505374,-0.7658828311\C
 ,0,-2.0647273154,2.6832050971,0.0189814971\C,0,1.5042248991,1.46983175
 02,0.5976371325\C,0,1.9891657222,2.7274358678,0.0631223988\C,0,1.44427
 23969,3.7942709328,0.8544964708\C,0,0.6361224792,3.2163923612,1.889034
 5199\C,0,0.6781591362,1.7907208624,1.7422989275\C,0,-3.3158132495,-0.7
 834380001,-0.9175936742\C,0,-4.4634433445,-0.2235940441,-0.0560319139\
 C,0,-2.6784833394,-0.1163993121,1.7143460551\C,0,-4.1335823914,-0.5552
 578304,1.4075748774\C,0,3.3169216097,-0.71571281,0.9775524654\C,0,4.45
 07768989,-0.1244112767,0.1187991591\C,0,2.66233018,-0.0480048097,-1.64
 98598653\C,0,4.1275499523,-0.4545831967,-1.346630659\H,0,-0.1776807732
 ,1.0738332056,-2.2761892553\H,0,-0.1483946582,3.7776894651,-2.53863494
 44\H,0,-1.7016919361,4.8275354307,-0.569326006\H,0,-2.6947850456,2.790
 089306,0.9017816939\H,0,2.6166686881,2.8533388016,-0.8189906849\H,0,0.
 1379966429,1.0633450996,2.3484795827\H,0,-3.3112844996,-1.885024998,-0
 .8459939958\C,0,-3.3219100851,-0.3583481107,-2.384353859\H,0,-2.658011
 7502,0.9584867295,1.9695764197\C,0,-2.0317843303,-0.9213770806,2.84651
 05781\H,0,-5.4280254392,-0.663733208,-0.3679079923\H,0,-4.5443118595,0
 .8721818633,-0.1999620517\H,0,-4.8370635411,-0.080830229,2.114699953\H
 ,0,-4.2014095145,-1.6486113289,1.5534260299\H,0,1.5793812061,4.8597325
 465,0.6643371778\H,0,0.049638385,3.7643365315,2.6272474811\H,0,-2.4636
 455251,-0.7867498407,-2.929923876\H,0,-3.2921241366,0.7391058855,-2.49
 61162444\H,0,-4.2419724501,-0.7250567779,-2.872743062\H,0,-1.010700850
 3,-0.5719334499,3.076165297\H,0,-1.9635725362,-1.9866720943,2.57147741
 98\H,0,-2.6381416884,-0.8265705038,3.7653626652\H,0,3.3373014756,-1.81
 66546635,0.8989232819\C,0,3.31449169,-0.2999719808,2.4469969223\H,0,2.
 616523263,1.027373011,-1.8996557658\C,0,2.0333871819,-0.8621818347,-2.
 7854729593\H,0,5.4254337962,-0.5442219082,0.427364158\H,0,4.5066173558
 ,0.9720170978,0.2694436076\H,0,4.8192746716,0.0404206657,-2.0512401846
 \H,0,4.2207915153,-1.5451402229,-1.4992650473\H,0,3.2598340148,0.79578
 61977,2.565788244\H,0,4.243027691,-0.6487536995,2.9324687898\H,0,2.466
 5938198,-0.7512752519,2.9903018214\H,0,1.990386311,-1.9301598333,-2.51
 57747678\H,0,2.6363032148,-0.7485774762,-3.7044581552\H,0,1.0041124751
 ,-0.5356412952,-3.0122520572\\Version=ES64L-G09RevE.01\State=1-A\HF=-1
 663.3077068\RMSD=1.902e-09\Dipole=-0.0060008,0.5054343,0.0011296\Quadr
 upole=-0.2465894,1.057265,-0.8106756,0.0019272,-5.0370536,-0.047479\PG
 =C01 [X(C22H32Fe1P2)]\\@


 The theorems and results in mathematical physics are
 not theorems and results about Nature, but about our
 description of it.
                   --Gerard 't Hooft
 Job cpu time:       0 days 15 hours  7 minutes  1.1 seconds.
 File lengths (MBytes):  RWF=    551 Int=      0 D2E=      0 Chk=     80 Scr=      1
 Normal termination of Gaussian 09 at Sun Dec  5 02:53:03 2021.
 Initial command:
 /gstore/apps/gaussian/g09.e01-foss-2017a/g09/l1.exe "/local/22791343/Gau-2836.inp" -scrdir="/local/22791343/"
 Entering Link 1 = /gstore/apps/gaussian/g09.e01-foss-2017a/g09/l1.exe PID=     24625.
  
 Copyright (c) 1988,1990,1992,1993,1995,1998,2003,2009,2015,
            Gaussian, Inc.  All Rights Reserved.
  
 This is part of the Gaussian(R) 09 program.  It is based on
 the Gaussian(R) 03 system (copyright 2003, Gaussian, Inc.),
 the Gaussian(R) 98 system (copyright 1998, Gaussian, Inc.),
 the Gaussian(R) 94 system (copyright 1995, Gaussian, Inc.),
 the Gaussian 92(TM) system (copyright 1992, Gaussian, Inc.),
 the Gaussian 90(TM) system (copyright 1990, Gaussian, Inc.),
 the Gaussian 88(TM) system (copyright 1988, Gaussian, Inc.),
 the Gaussian 86(TM) system (copyright 1986, Carnegie Mellon
 University), and the Gaussian 82(TM) system (copyright 1983,
 Carnegie Mellon University). Gaussian is a federally registered
 trademark of Gaussian, Inc.
  
 This software contains proprietary and confidential information,
 including trade secrets, belonging to Gaussian, Inc.
  
 This software is provided under written license and may be
 used, copied, transmitted, or stored only in accord with that
 written license.
  
 The following legend is applicable only to US Government
 contracts under FAR:
  
                    RESTRICTED RIGHTS LEGEND
  
 Use, reproduction and disclosure by the US Government is
 subject to restrictions as set forth in subparagraphs (a)
 and (c) of the Commercial Computer Software - Restricted
 Rights clause in FAR 52.227-19.
  
 Gaussian, Inc.
 340 Quinnipiac St., Bldg. 40, Wallingford CT 06492
  
  
 ---------------------------------------------------------------
 Warning -- This program may not be used in any manner that
 competes with the business of Gaussian, Inc. or will provide
 assistance to any competitor of Gaussian, Inc.  The licensee
 of this program is prohibited from giving any competitor of
 Gaussian, Inc. access to this program.  By using this program,
 the user acknowledges that Gaussian, Inc. is engaged in the
 business of creating and licensing software in the field of
 computational chemistry and represents and warrants to the
 licensee that it is not a competitor of Gaussian, Inc. and that
 it will not use this program in any manner prohibited above.
 ---------------------------------------------------------------
  

 Cite this work as:
 Gaussian 09, Revision E.01,
 M. J. Frisch, G. W. Trucks, H. B. Schlegel, G. E. Scuseria, 
 M. A. Robb, J. R. Cheeseman, G. Scalmani, V. Barone, B. Mennucci, 
 G. A. Petersson, H. Nakatsuji, M. Caricato, X. Li, H. P. Hratchian, 
 A. F. Izmaylov, J. Bloino, G. Zheng, J. L. Sonnenberg, M. Hada, 
 M. Ehara, K. Toyota, R. Fukuda, J. Hasegawa, M. Ishida, T. Nakajima, 
 Y. Honda, O. Kitao, H. Nakai, T. Vreven, J. A. Montgomery, Jr., 
 J. E. Peralta, F. Ogliaro, M. Bearpark, J. J. Heyd, E. Brothers, 
 K. N. Kudin, V. N. Staroverov, T. Keith, R. Kobayashi, J. Normand, 
 K. Raghavachari, A. Rendell, J. C. Burant, S. S. Iyengar, J. Tomasi, 
 M. Cossi, N. Rega, J. M. Millam, M. Klene, J. E. Knox, J. B. Cross, 
 V. Bakken, C. Adamo, J. Jaramillo, R. Gomperts, R. E. Stratmann, 
 O. Yazyev, A. J. Austin, R. Cammi, C. Pomelli, J. W. Ochterski, 
 R. L. Martin, K. Morokuma, V. G. Zakrzewski, G. A. Voth, 
 P. Salvador, J. J. Dannenberg, S. Dapprich, A. D. Daniels, 
 O. Farkas, J. B. Foresman, J. V. Ortiz, J. Cioslowski, 
 and D. J. Fox, Gaussian, Inc., Wallingford CT, 2013.
 
 ******************************************
 Gaussian 09:  ES64L-G09RevE.01 30-Nov-2015
                 5-Dec-2021 
 ******************************************
 %nprocs=14
 Will use up to   14 processors via shared memory.
 %mem=128GB
 %chk=RR_Me_Ferrolane_1_SPE_NoPd.chk
 ----------------------------------------------------------------------
 # PBE1PBE gen pseudo=read int=(grid=ultrafine) empiricaldispersion=GD3
 BJ pop=nbo guess=read geom=check
 ----------------------------------------------------------------------
 1/29=2,38=1/1;
 2/12=2,40=1/2;
 3/5=7,11=2,14=-4,16=1,17=8,25=1,30=1,74=-13,75=-5,116=-2,124=41/1,2,3;
 4/5=1/1;
 5/5=2,38=6/2;
 6/7=2,8=2,9=2,10=2,28=1,40=1/1,7;
 99/5=1,9=1/99;
 -----------------------
 RR_Me_Ferrolane_1 title
 -----------------------
 Structure from the checkpoint file:  "RR_Me_Ferrolane_1_SPE_NoPd.chk"
 Charge =  0 Multiplicity = 1
 Z-Matrix found in file.
 Fe,0,-0.0368124839,2.6182566425,0.0408270715
 P,0,-1.7915291908,-0.2721492576,0.0574114337
 P,0,1.7806907594,-0.2328659825,0.0069120476
 C,0,-1.5524524242,1.4397376859,-0.5230477628
 C,0,-0.733596489,1.7855178503,-1.6656477432
 C,0,-0.722749759,3.2126264397,-1.8037980633
 C,0,-1.5433073585,3.7664505374,-0.7658828311
 C,0,-2.0647273154,2.6832050971,0.0189814971
 C,0,1.5042248991,1.4698317502,0.5976371325
 C,0,1.9891657222,2.7274358678,0.0631223988
 C,0,1.4442723969,3.7942709328,0.8544964708
 C,0,0.6361224792,3.2163923612,1.8890345199
 C,0,0.6781591362,1.7907208624,1.7422989275
 C,0,-3.3158132495,-0.7834380001,-0.9175936742
 C,0,-4.4634433445,-0.2235940441,-0.0560319139
 C,0,-2.6784833394,-0.1163993121,1.7143460551
 C,0,-4.1335823914,-0.5552578304,1.4075748774
 C,0,3.3169216097,-0.71571281,0.9775524654
 C,0,4.4507768989,-0.1244112767,0.1187991591
 C,0,2.66233018,-0.0480048097,-1.6498598653
 C,0,4.1275499523,-0.4545831967,-1.346630659
 H,0,-0.1776807732,1.0738332056,-2.2761892553
 H,0,-0.1483946582,3.7776894651,-2.5386349444
 H,0,-1.7016919361,4.8275354307,-0.569326006
 H,0,-2.6947850456,2.790089306,0.9017816939
 H,0,2.6166686881,2.8533388016,-0.8189906849
 H,0,0.1379966429,1.0633450996,2.3484795827
 H,0,-3.3112844996,-1.885024998,-0.8459939958
 C,0,-3.3219100851,-0.3583481107,-2.384353859
 H,0,-2.6580117502,0.9584867295,1.9695764197
 C,0,-2.0317843303,-0.9213770806,2.8465105781
 H,0,-5.4280254392,-0.663733208,-0.3679079923
 H,0,-4.5443118595,0.8721818633,-0.1999620517
 H,0,-4.8370635411,-0.080830229,2.114699953
 H,0,-4.2014095145,-1.6486113289,1.5534260299
 H,0,1.5793812061,4.8597325465,0.6643371778
 H,0,0.049638385,3.7643365315,2.6272474811
 H,0,-2.4636455251,-0.7867498407,-2.929923876
 H,0,-3.2921241366,0.7391058855,-2.4961162444
 H,0,-4.2419724501,-0.7250567779,-2.872743062
 H,0,-1.0107008503,-0.5719334499,3.076165297
 H,0,-1.9635725362,-1.9866720943,2.5714774198
 H,0,-2.6381416884,-0.8265705038,3.7653626652
 H,0,3.3373014756,-1.8166546635,0.8989232819
 C,0,3.31449169,-0.2999719808,2.4469969223
 H,0,2.616523263,1.027373011,-1.8996557658
 C,0,2.0333871819,-0.8621818347,-2.7854729593
 H,0,5.4254337962,-0.5442219082,0.427364158
 H,0,4.5066173558,0.9720170978,0.2694436076
 H,0,4.8192746716,0.0404206657,-2.0512401846
 H,0,4.2207915153,-1.5451402229,-1.4992650473
 H,0,3.2598340148,0.7957861977,2.565788244
 H,0,4.243027691,-0.6487536995,2.9324687898
 H,0,2.4665938198,-0.7512752519,2.9903018214
 H,0,1.990386311,-1.9301598333,-2.5157747678
 H,0,2.6363032148,-0.7485774762,-3.7044581552
 H,0,1.0041124751,-0.5356412952,-3.0122520572
 Recover connectivity data from disk.
 Stoichiometry    C22H32FeP2
 Framework group  C1[X(C22H32FeP2)]
 Deg. of freedom   165
 Full point group                 C1      NOp   1
 Largest Abelian subgroup         C1      NOp   1
 Largest concise Abelian subgroup C1      NOp   1
                         Standard orientation:                         
 ---------------------------------------------------------------------
 Center     Atomic      Atomic             Coordinates (Angstroms)
 Number     Number       Type             X           Y           Z
 ---------------------------------------------------------------------
      1         26           0        0.000372    1.728565   -0.001485
      2         15           0       -1.786577   -1.142067    0.004761
      3         15           0        1.786210   -1.142698   -0.001964
      4          6           0       -1.521309    0.564707   -0.579366
      5          6           0       -0.684706    0.896761   -1.713147
      6          6           0       -0.656236    2.323094   -1.856701
      7          6           0       -1.483213    2.890178   -0.831115
      8          6           0       -2.026272    1.815963   -0.048516
      9          6           0        1.521554    0.565331    0.578693
     10          6           0        2.027018    1.815306    0.045295
     11          6           0        1.484414    2.891308    0.825756
     12          6           0        0.657249    2.326617    1.852518
     13          6           0        0.685160    0.899988    1.711854
     14          6           0       -3.304414   -1.640300   -0.986917
     15          6           0       -4.456192   -1.064271   -0.141715
     16          6           0       -2.691970   -0.969800    1.650047
     17          6           0       -4.148011   -1.393687    1.327116
     18          6           0        3.304947   -1.638681    0.989362
     19          6           0        4.455769   -1.063481    0.142323
     20          6           0        2.690090   -0.974318   -1.648476
     21          6           0        4.146854   -1.395935   -1.325676
     22          1           0       -0.129332    0.176490   -2.314035
     23          1           0       -0.066648    2.878775   -2.586612
     24          1           0       -1.632138    3.953740   -0.640648
     25          1           0       -2.665865    1.933397    0.826049
     26          1           0        2.666647    1.930674   -0.829518
     27          1           0        0.129525    0.181107    2.314171
     28          1           0       -3.313062   -2.741572   -0.910985
     29          6           0       -3.287794   -1.221076   -2.455283
     30          1           0       -2.662628    0.105811    1.901328
     31          6           0       -2.068218   -1.777353    2.793198
     32          1           0       -5.421734   -1.494912   -0.463714
     33          1           0       -4.523052    0.031748   -0.290888
     34          1           0       -4.854762   -0.908627    2.023688
     35          1           0       -4.229822   -2.485623    1.476372
     36          1           0        1.633729    3.954428    0.633131
     37          1           0        0.067918    2.884014    2.581328
     38          1           0       -2.427746   -1.661184   -2.988589
     39          1           0       -3.244391   -0.124480   -2.570937
     40          1           0       -4.205841   -1.579497   -2.953519
     41          1           0       -1.046187   -1.438360    3.034030
     42          1           0       -2.008540   -2.844439    2.523169
     43          1           0       -2.684691   -1.672114    3.704150
     44          1           0        3.313996   -2.740089    0.915271
     45          6           0        3.289156   -1.217028    2.457038
     46          1           0        2.659356    0.100488   -1.902996
     47          6           0        2.066057   -1.786018   -2.788563
     48          1           0        5.421825   -1.492855    0.464479
     49          1           0        4.521997    0.032856    0.289378
     50          1           0        4.852643   -0.911491   -2.023646
     51          1           0        4.229777   -2.488067   -1.472911
     52          1           0        3.245284   -0.120261    2.570887
     53          1           0        4.207722   -1.574153    2.955243
     54          1           0        2.429679   -1.656688    2.991627
     55          1           0        2.007834   -2.852358   -2.515263
     56          1           0        2.681417   -1.682822   -3.700500
     57          1           0        1.043347   -1.448972   -3.029248
 ---------------------------------------------------------------------
 Rotational constants (GHZ):      0.2688334      0.1557587      0.1431570
 General basis read from cards:  (5D, 7F)
 ======================================================================================================
                                       Pseudopotential Parameters
 ======================================================================================================
  Center     Atomic      Valence      Angular      Power
  Number     Number     Electrons     Momentum     of R      Exponent        Coefficient   SO-Coeffient
 ======================================================================================================
    1         26           16
                                      F and up 
                                                     2        1.0000000        0.00000000    0.00000000
                                      S - F
                                                     2       20.9300000      253.74958800    0.00000000
                                                     2        9.4450000       37.92284500    0.00000000
                                      P - F
                                                     2       21.7600000      161.03681200    0.00000000
                                                     2        9.1780000       27.65129800    0.00000000
                                      D - F
                                                     2       25.9000000      -24.43127600    0.00000000
                                                     2        8.8350000       -1.43425100    0.00000000
    2         15
                                   No pseudopotential on this center.
    3         15
[...]
   590. RY*(   3) C  19                  0.00097     1.65174   
   591. RY*(   4) C  19                  0.00054     1.58044   
   592. RY*(   5) C  19                  0.00046     1.47167   
   593. RY*(   6) C  19                  0.00029     1.96811   
   594. RY*(   7) C  19                  0.00024     1.56222   
   595. RY*(   8) C  19                  0.00023     1.78959   
   596. RY*(   9) C  19                  0.00016     1.97243   
   597. RY*(  10) C  19                  0.00011     2.21263   
   598. RY*(  11) C  19                  0.00006     2.93957   
   599. RY*(  12) C  19                  0.00003     2.45489   
   600. RY*(  13) C  19                  0.00003     2.11727   
   601. RY*(  14) C  19                  0.00001     2.31847   
   602. RY*(  15) C  19                  0.00000    20.87883   
   603. RY*(  16) C  19                  0.00000     2.94630   
   604. RY*(  17) C  19                  0.00001     2.35657   
   605. RY*(  18) C  19                  0.00001     2.16370   
   606. RY*(  19) C  19                  0.00001     2.65327   
   607. RY*(  20) C  19                  0.00001     3.50509   
   608. RY*(  21) C  19                  0.00001     3.58138   
   609. RY*(  22) C  19                  0.00000     3.62616   
   610. RY*(  23) C  19                  0.00000     3.44644   
   611. RY*(  24) C  19                  0.00000     3.47224   
   612. RY*(  25) C  19                  0.00000     3.24449   
   613. RY*(  26) C  19                  0.00000     3.74524   
   614. RY*(   1) C  20                  0.00329     1.48010   
   615. RY*(   2) C  20                  0.00216     1.44603   
   616. RY*(   3) C  20                  0.00172     1.43709   
   617. RY*(   4) C  20                  0.00114     1.63881   
   618. RY*(   5) C  20                  0.00081     1.39746   
   619. RY*(   6) C  20                  0.00062     1.76494   
   620. RY*(   7) C  20                  0.00047     1.82782   
   621. RY*(   8) C  20                  0.00035     2.00617   
   622. RY*(   9) C  20                  0.00025     2.04302   
   623. RY*(  10) C  20                  0.00017     2.34209   
   624. RY*(  11) C  20                  0.00013     1.90479   
   625. RY*(  12) C  20                  0.00011     2.30846   
   626. RY*(  13) C  20                  0.00009     2.54432   
   627. RY*(  14) C  20                  0.00003     3.05620   
   628. RY*(  15) C  20                  0.00002     2.20442   
   629. RY*(  16) C  20                  0.00002     2.87778   
   630. RY*(  17) C  20                  0.00001     2.65022   
   631. RY*(  18) C  20                  0.00001     3.48353   
   632. RY*(  19) C  20                  0.00001     1.84837   
   633. RY*(  20) C  20                  0.00000     3.41949   
   634. RY*(  21) C  20                  0.00000    21.21675   
   635. RY*(  22) C  20                  0.00001     3.41585   
   636. RY*(  23) C  20                  0.00000     3.44585   
   637. RY*(  24) C  20                  0.00000     3.28659   
   638. RY*(  25) C  20                  0.00000     3.38889   
   639. RY*(  26) C  20                  0.00000     3.53690   
   640. RY*(   1) C  21                  0.00238     1.28445   
   641. RY*(   2) C  21                  0.00203     1.52582   
   642. RY*(   3) C  21                  0.00114     1.01659   
   643. RY*(   4) C  21                  0.00056     1.76258   
   644. RY*(   5) C  21                  0.00033     2.07529   
   645. RY*(   6) C  21                  0.00029     1.82314   
   646. RY*(   7) C  21                  0.00024     2.69026   
   647. RY*(   8) C  21                  0.00015     1.85671   
   648. RY*(   9) C  21                  0.00013     2.11319   
   649. RY*(  10) C  21                  0.00008     2.35006   
   650. RY*(  11) C  21                  0.00005     2.04096   
   651. RY*(  12) C  21                  0.00005     2.03834   
   652. RY*(  13) C  21                  0.00003     1.93849   
   653. RY*(  14) C  21                  0.00001     2.72538   
   654. RY*(  15) C  21                  0.00000    20.83032   
   655. RY*(  16) C  21                  0.00001     3.06193   
   656. RY*(  17) C  21                  0.00001     2.38874   
   657. RY*(  18) C  21                  0.00001     2.65727   
   658. RY*(  19) C  21                  0.00001     2.45973   
   659. RY*(  20) C  21                  0.00001     3.59432   
   660. RY*(  21) C  21                  0.00000     3.30171   
   661. RY*(  22) C  21                  0.00000     3.58334   
   662. RY*(  23) C  21                  0.00001     3.38966   
   663. RY*(  24) C  21                  0.00000     3.62692   
   664. RY*(  25) C  21                  0.00000     3.36593   
   665. RY*(  26) C  21                  0.00000     3.57438   
   686. RY*(   1) H  26                  0.00075     1.01908   
   687. RY*(   2) H  26                  0.00040     2.18156   
   688. RY*(   3) H  26                  0.00021     1.95667   
   689. RY*(   4) H  26                  0.00011     2.65551   
   690. RY*(   5) H  26                  0.00001     3.10523   
   691. RY*(   1) H  27                  0.00186     0.86919   
   692. RY*(   2) H  27                  0.00041     2.35248   
   693. RY*(   3) H  27                  0.00026     2.30677   
   694. RY*(   4) H  27                  0.00011     2.68069   
   695. RY*(   5) H  27                  0.00002     3.21702   
   778. RY*(   1) H  36                  0.00039     2.04228   
   779. RY*(   2) H  36                  0.00032     2.21885   
   780. RY*(   3) H  36                  0.00010     2.64367   
   781. RY*(   4) H  36                  0.00001     3.09040   
   782. RY*(   5) H  36                  0.00002     0.96845   
   783. RY*(   1) H  37                  0.00039     2.05077   
   784. RY*(   2) H  37                  0.00030     2.23193   
   785. RY*(   3) H  37                  0.00010     2.64376   
   786. RY*(   4) H  37                  0.00003     1.07730   
   787. RY*(   5) H  37                  0.00001     2.98304   
   818. RY*(   1) H  44                  0.00071     1.34223   
   819. RY*(   2) H  44                  0.00018     2.44121   
   820. RY*(   3) H  44                  0.00014     2.30756   
   821. RY*(   4) H  44                  0.00008     1.77723   
   822. RY*(   5) H  44                  0.00001     3.01015   
   823. RY*(   1) C  45                  0.00189     1.25761   
   824. RY*(   2) C  45                  0.00141     1.38369   
   825. RY*(   3) C  45                  0.00048     1.37079   
   826. RY*(   4) C  45                  0.00027     1.04222   
   827. RY*(   5) C  45                  0.00019     1.49827   
   828. RY*(   6) C  45                  0.00018     1.55808   
   829. RY*(   7) C  45                  0.00011     1.24386   
   830. RY*(   8) C  45                  0.00009     1.54226   
   831. RY*(   9) C  45                  0.00005     1.87550   
   832. RY*(  10) C  45                  0.00002     2.30685   
   833. RY*(  11) C  45                  0.00002     1.99310   
   834. RY*(  12) C  45                  0.00001     2.17539   
   835. RY*(  13) C  45                  0.00001     2.99140   
   836. RY*(  14) C  45                  0.00000     2.51323   
   837. RY*(  15) C  45                  0.00001     3.19234   
   838. RY*(  16) C  45                  0.00001     2.02797   
   839. RY*(  17) C  45                  0.00000     2.93390   
   840. RY*(  18) C  45                  0.00000    21.01832   
   841. RY*(  19) C  45                  0.00000     2.91703   
   842. RY*(  20) C  45                  0.00000     3.58164   
   843. RY*(  21) C  45                  0.00000     2.89434   
   844. RY*(  22) C  45                  0.00000     3.38532   
   845. RY*(  23) C  45                  0.00000     3.51664   
   846. RY*(  24) C  45                  0.00000     3.46192   
   847. RY*(  25) C  45                  0.00000     3.16724   
   848. RY*(  26) C  45                  0.00000     3.69358   
   849. RY*(   1) H  46                  0.00123     0.85506   
   850. RY*(   2) H  46                  0.00029     2.42687   
   851. RY*(   3) H  46                  0.00020     2.56183   
   852. RY*(   4) H  46                  0.00011     2.52263   
   853. RY*(   5) H  46                  0.00002     3.08753   
   854. RY*(   1) C  47                  0.00210     0.89426   
   855. RY*(   2) C  47                  0.00132     1.05643   
   856. RY*(   3) C  47                  0.00031     1.31235   
   857. RY*(   4) C  47                  0.00027     1.58430   
   858. RY*(   5) C  47                  0.00024     1.46698   
   859. RY*(   6) C  47                  0.00009     1.34396   
   860. RY*(   7) C  47                  0.00007     2.35890   
   861. RY*(   8) C  47                  0.00005     1.40243   
   862. RY*(   9) C  47                  0.00003     1.60867   
   863. RY*(  10) C  47                  0.00003     1.57694   
   864. RY*(  11) C  47                  0.00002     2.42454   
   865. RY*(  12) C  47                  0.00001     1.79793   
   866. RY*(  13) C  47                  0.00000     2.93231   
   867. RY*(  14) C  47                  0.00001     1.62661   
   868. RY*(  15) C  47                  0.00000     3.17497   
   869. RY*(  16) C  47                  0.00000    20.91331   
   870. RY*(  17) C  47                  0.00000     2.98358   
   871. RY*(  18) C  47                  0.00000     2.69137   
   872. RY*(  19) C  47                  0.00001     2.70226   
   873. RY*(  20) C  47                  0.00000     3.40830   
   874. RY*(  21) C  47                  0.00000     3.72282   
   875. RY*(  22) C  47                  0.00000     3.42976   
   876. RY*(  23) C  47                  0.00000     3.37150   
   877. RY*(  24) C  47                  0.00000     3.42235   
   878. RY*(  25) C  47                  0.00000     3.26737   
   879. RY*(  26) C  47                  0.00000     3.48039   
   880. RY*(   1) H  48                  0.00105     1.03029   
   881. RY*(   2) H  48                  0.00020     2.15372   
   882. RY*(   3) H  48                  0.00017     2.27618   
   883. RY*(   4) H  48                  0.00008     2.00332   
   884. RY*(   5) H  48                  0.00001     3.03629   
   885. RY*(   1) H  49                  0.00098     0.95484   
   886. RY*(   2) H  49                  0.00023     2.34420   
   887. RY*(   3) H  49                  0.00015     2.38422   
   888. RY*(   4) H  49                  0.00006     2.22643   
   889. RY*(   5) H  49                  0.00003     3.11859   
   890. RY*(   1) H  50                  0.00068     1.01349   
   891. RY*(   2) H  50                  0.00020     2.20816   
   892. RY*(   3) H  50                  0.00016     2.08499   
   893. RY*(   4) H  50                  0.00007     2.24743   
   894. RY*(   5) H  50                  0.00002     2.94082   
   895. RY*(   1) H  51                  0.00103     1.11939   
   896. RY*(   2) H  51                  0.00018     2.42155   
   897. RY*(   3) H  51                  0.00012     1.89081   
   898. RY*(   4) H  51                  0.00008     2.15262   
   899. RY*(   5) H  51                  0.00002     2.97196   
   900. RY*(   1) H  52                  0.00110     0.81719   
   901. RY*(   2) H  52                  0.00023     2.29901   
   902. RY*(   3) H  52                  0.00009     2.30940   
   903. RY*(   4) H  52                  0.00004     2.15171   
   904. RY*(   5) H  52                  0.00003     3.08228   
   905. RY*(   1) H  53                  0.00089     0.90764   
   906. RY*(   2) H  53                  0.00019     1.88468   
   907. RY*(   3) H  53                  0.00012     2.17322   
   908. RY*(   4) H  53                  0.00006     2.10486   
   909. RY*(   5) H  53                  0.00001     2.99799   
   910. RY*(   1) H  54                  0.00057     1.07058   
   911. RY*(   2) H  54                  0.00018     1.97517   
   912. RY*(   3) H  54                  0.00011     2.29540   
   913. RY*(   4) H  54                  0.00008     1.86877   
   914. RY*(   5) H  54                  0.00002     3.05379   
   915. RY*(   1) H  55                  0.00090     1.08667   
   916. RY*(   2) H  55                  0.00013     1.90588   
   917. RY*(   3) H  55                  0.00010     2.14354   
   918. RY*(   4) H  55                  0.00008     2.00352   
   919. RY*(   5) H  55                  0.00001     2.94258   
   920. RY*(   1) H  56                  0.00078     0.88233   
   921. RY*(   2) H  56                  0.00018     1.84269   
   922. RY*(   3) H  56                  0.00010     2.18788   
   923. RY*(   4) H  56                  0.00007     2.16199   
   924. RY*(   5) H  56                  0.00001     2.97685   
   925. RY*(   1) H  57                  0.00062     1.33602   
   926. RY*(   2) H  57                  0.00014     2.03042   
   927. RY*(   3) H  57                  0.00011     2.18891   
   928. RY*(   4) H  57                  0.00007     1.89551   
   929. RY*(   5) H  57                  0.00002     3.02630   
   933. BD*(   1) P   3 - C   9          0.03384     0.24442   
   934. BD*(   1) P   3 - C  18          0.04848     0.20872   
   935. BD*(   1) P   3 - C  20          0.03492     0.20271   
   947. BD*(   1) C   9 - C  10          0.06344     0.41892   
   948. BD*(   2) C   9 - C  10          0.48190     0.04253  938(r),955(v),111(v),947(g)
                                                    940(r),102(r),934(v),106(r)
                                                    103(r),933(g),105(r),357(g)
                                                    951(g),355(g),435(v),332(g)
                                                    107(r),113(r),119(r),127(r)
                                                    131(r),110(r),124(r),121(r)
                                                    126(r),117(r),201(r),208(r)
                                                    132(r),207(r),136(r),115(r)
                                                    123(r)
   949. BD*(   1) C   9 - C  13          0.02396     0.44437   
   950. BD*(   1) C  10 - C  11          0.03081     0.44504   
   951. BD*(   1) C  10 - H  26          0.01610     0.41194   
   952. BD*(   1) C  11 - C  12          0.02844     0.44326   
   953. BD*(   1) C  11 - H  36          0.01591     0.41013   
   954. BD*(   1) C  12 - C  13          0.03311     0.43551   
   955. BD*(   2) C  12 - C  13          0.43698     0.04649  940(r),948(v),111(v),954(g)
                                                    938(r),102(r),106(r),407(g)
                                                    409(g),956(g),957(g),436(g)
                                                    114(r),107(r),110(r),113(r)
                                                    121(r),119(r),131(r)
   956. BD*(   1) C  12 - H  37          0.01386     0.40918   
   957. BD*(   1) C  13 - H  27          0.01731     0.42338   
   969. BD*(   1) C  18 - C  19          0.02589     0.34788   
   970. BD*(   1) C  18 - H  44          0.02452     0.36704   
   971. BD*(   1) C  18 - C  45          0.01049     0.36721   
   972. BD*(   1) C  19 - C  21          0.00921     0.36008   
   973. BD*(   1) C  19 - H  48          0.01890     0.37355   
   974. BD*(   1) C  19 - H  49          0.01851     0.37105   
   975. BD*(   1) C  20 - C  21          0.02495     0.33916   
   976. BD*(   1) C  20 - H  46          0.02397     0.36965   
   977. BD*(   1) C  20 - C  47          0.01138     0.35655   
   978. BD*(   1) C  21 - H  50          0.01427     0.37338   
   979. BD*(   1) C  21 - H  51          0.01745     0.36346   
   986. BD*(   1) C  45 - H  52          0.00952     0.38991   
   987. BD*(   1) C  45 - H  53          0.00973     0.37990   
   988. BD*(   1) C  45 - H  54          0.00705     0.38168   
   989. BD*(   1) C  47 - H  55          0.00944     0.37755   
   990. BD*(   1) C  47 - H  56          0.01048     0.37392   
   991. BD*(   1) C  47 - H  57          0.00710     0.38476   
       -------------------------------
              Total Lewis   95.13476  ( 98.2496%)
        Valence non-Lewis    1.53194  (  1.5821%)
        Rydberg non-Lewis    0.16297  (  0.1683%)
       -------------------------------
            Total unit  3   96.82967  (100.0000%)
           Charge unit  3    0.17033
 1\1\GINC-NC082\SP\RPBE1PBE\Gen\C22H32Fe1P2\MACKK4\05-Dec-2021\0\\# PBE
 1PBE gen pseudo=read int=(grid=ultrafine) empiricaldispersion=GD3BJ po
 p=nbo guess=read geom=check\\RR_Me_Ferrolane_1 title\\0,1\Fe,0,-0.0368
 124839,2.6182566425,0.0408270715\P,0,-1.7915291908,-0.2721492576,0.057
 4114337\P,0,1.7806907594,-0.2328659825,0.0069120476\C,0,-1.5524524242,
 1.4397376859,-0.5230477628\C,0,-0.733596489,1.7855178503,-1.6656477432
 \C,0,-0.722749759,3.2126264397,-1.8037980633\C,0,-1.5433073585,3.76645
 05374,-0.7658828311\C,0,-2.0647273154,2.6832050971,0.0189814971\C,0,1.
 5042248991,1.4698317502,0.5976371325\C,0,1.9891657222,2.7274358678,0.0
 631223988\C,0,1.4442723969,3.7942709328,0.8544964708\C,0,0.6361224792,
 3.2163923612,1.8890345199\C,0,0.6781591362,1.7907208624,1.7422989275\C
 ,0,-3.3158132495,-0.7834380001,-0.9175936742\C,0,-4.4634433445,-0.2235
 940441,-0.0560319139\C,0,-2.6784833394,-0.1163993121,1.7143460551\C,0,
 -4.1335823914,-0.5552578304,1.4075748774\C,0,3.3169216097,-0.71571281,
 0.9775524654\C,0,4.4507768989,-0.1244112767,0.1187991591\C,0,2.6623301
 8,-0.0480048097,-1.6498598653\C,0,4.1275499523,-0.4545831967,-1.346630
 659\H,0,-0.1776807732,1.0738332056,-2.2761892553\H,0,-0.1483946582,3.7
 776894651,-2.5386349444\H,0,-1.7016919361,4.8275354307,-0.569326006\H,
 0,-2.6947850456,2.790089306,0.9017816939\H,0,2.6166686881,2.8533388016
 ,-0.8189906849\H,0,0.1379966429,1.0633450996,2.3484795827\H,0,-3.31128
 44996,-1.885024998,-0.8459939958\C,0,-3.3219100851,-0.3583481107,-2.38
 4353859\H,0,-2.6580117502,0.9584867295,1.9695764197\C,0,-2.0317843303,
 -0.9213770806,2.8465105781\H,0,-5.4280254392,-0.663733208,-0.367907992
 3\H,0,-4.5443118595,0.8721818633,-0.1999620517\H,0,-4.8370635411,-0.08
 0830229,2.114699953\H,0,-4.2014095145,-1.6486113289,1.5534260299\H,0,1
 .5793812061,4.8597325465,0.6643371778\H,0,0.049638385,3.7643365315,2.6
 272474811\H,0,-2.4636455251,-0.7867498407,-2.929923876\H,0,-3.29212413
 66,0.7391058855,-2.4961162444\H,0,-4.2419724501,-0.7250567779,-2.87274
 3062\H,0,-1.0107008503,-0.5719334499,3.076165297\H,0,-1.9635725362,-1.
 9866720943,2.5714774198\H,0,-2.6381416884,-0.8265705038,3.7653626652\H
 ,0,3.3373014756,-1.8166546635,0.8989232819\C,0,3.31449169,-0.299971980
 8,2.4469969223\H,0,2.616523263,1.027373011,-1.8996557658\C,0,2.0333871
 819,-0.8621818347,-2.7854729593\H,0,5.4254337962,-0.5442219082,0.42736
 4158\H,0,4.5066173558,0.9720170978,0.2694436076\H,0,4.8192746716,0.040
 4206657,-2.0512401846\H,0,4.2207915153,-1.5451402229,-1.4992650473\H,0
 ,3.2598340148,0.7957861977,2.565788244\H,0,4.243027691,-0.6487536995,2
 .9324687898\H,0,2.4665938198,-0.7512752519,2.9903018214\H,0,1.99038631
 1,-1.9301598333,-2.5157747678\H,0,2.6363032148,-0.7485774762,-3.704458
 1552\H,0,1.0041124751,-0.5356412952,-3.0122520572\\Version=ES64L-G09Re
 vE.01\State=1-A\HF=-1663.3077068\RMSD=9.733e-10\Dipole=-0.0060013,0.50
 54334,0.0011306\Quadrupole=-0.2465901,1.0572642,-0.8106741,0.001924,-5
 .03705,-0.0474769\PG=C01 [X(C22H32Fe1P2)]\\@


 DEFINE YOUR TERMS, YOU WILL PERMIT ME AGAIN TO SAY, 
 OR WE SHALL NEVER UNDERSTAND ONE ANOTHER.

                                    -- VOLTAIRE
 Job cpu time:       0 days  0 hours 57 minutes 26.5 seconds.
 File lengths (MBytes):  RWF=    506 Int=      0 D2E=      0 Chk=     80 Scr=      1
 Normal termination of Gaussian 09 at Sun Dec  5 02:57:17 2021.
