 Entering Gaussian System, Link 0=g09
 Input=RR_Me_Ferrolane_2.com
 Output=RR_Me_Ferrolane_2.log
 Initial command:
 /gstore/apps/gaussian/g09.e01-foss-2017a/g09/l1.exe "/local/21251375/Gau-18456.inp" -scrdir="/local/21251375/"
 Entering Link 1 = /gstore/apps/gaussian/g09.e01-foss-2017a/g09/l1.exe PID=     18457.
  
 Copyright (c) 1988,1990,1992,1993,1995,1998,2003,2009,2015,
            Gaussian, Inc.  All Rights Reserved.
  
 This is part of the Gaussian(R) 09 program.  It is based on
 the Gaussian(R) 03 system (copyright 2003, Gaussian, Inc.),
 the Gaussian(R) 98 system (copyright 1998, Gaussian, Inc.),
 the Gaussian(R) 94 system (copyright 1995, Gaussian, Inc.),
 the Gaussian 92(TM) system (copyright 1992, Gaussian, Inc.),
 the Gaussian 90(TM) system (copyright 1990, Gaussian, Inc.),
 the Gaussian 88(TM) system (copyright 1988, Gaussian, Inc.),
 the Gaussian 86(TM) system (copyright 1986, Carnegie Mellon
 University), and the Gaussian 82(TM) system (copyright 1983,
 Carnegie Mellon University). Gaussian is a federally registered
 trademark of Gaussian, Inc.
  
 This software contains proprietary and confidential information,
 including trade secrets, belonging to Gaussian, Inc.
  
 This software is provided under written license and may be
 used, copied, transmitted, or stored only in accord with that
 written license.
  
 The following legend is applicable only to US Government
 contracts under FAR:
  
                    RESTRICTED RIGHTS LEGEND
  
 Use, reproduction and disclosure by the US Government is
 subject to restrictions as set forth in subparagraphs (a)
 and (c) of the Commercial Computer Software - Restricted
 Rights clause in FAR 52.227-19.
  
 Gaussian, Inc.
 340 Quinnipiac St., Bldg. 40, Wallingford CT 06492
  
  
 ---------------------------------------------------------------
 Warning -- This program may not be used in any manner that
 competes with the business of Gaussian, Inc. or will provide
 assistance to any competitor of Gaussian, Inc.  The licensee
 of this program is prohibited from giving any competitor of
 Gaussian, Inc. access to this program.  By using this program,
 the user acknowledges that Gaussian, Inc. is engaged in the
 business of creating and licensing software in the field of
 computational chemistry and represents and warrants to the
 licensee that it is not a competitor of Gaussian, Inc. and that
 it will not use this program in any manner prohibited above.
 ---------------------------------------------------------------
  

 Cite this work as:
 Gaussian 09, Revision E.01,
 M. J. Frisch, G. W. Trucks, H. B. Schlegel, G. E. Scuseria, 
 M. A. Robb, J. R. Cheeseman, G. Scalmani, V. Barone, B. Mennucci, 
 G. A. Petersson, H. Nakatsuji, M. Caricato, X. Li, H. P. Hratchian, 
 A. F. Izmaylov, J. Bloino, G. Zheng, J. L. Sonnenberg, M. Hada, 
 M. Ehara, K. Toyota, R. Fukuda, J. Hasegawa, M. Ishida, T. Nakajima, 
 Y. Honda, O. Kitao, H. Nakai, T. Vreven, J. A. Montgomery, Jr., 
 J. E. Peralta, F. Ogliaro, M. Bearpark, J. J. Heyd, E. Brothers, 
 K. N. Kudin, V. N. Staroverov, T. Keith, R. Kobayashi, J. Normand, 
 K. Raghavachari, A. Rendell, J. C. Burant, S. S. Iyengar, J. Tomasi, 
 M. Cossi, N. Rega, J. M. Millam, M. Klene, J. E. Knox, J. B. Cross, 
 V. Bakken, C. Adamo, J. Jaramillo, R. Gomperts, R. E. Stratmann, 
 O. Yazyev, A. J. Austin, R. Cammi, C. Pomelli, J. W. Ochterski, 
 R. L. Martin, K. Morokuma, V. G. Zakrzewski, G. A. Voth, 
 P. Salvador, J. J. Dannenberg, S. Dapprich, A. D. Daniels, 
 O. Farkas, J. B. Foresman, J. V. Ortiz, J. Cioslowski, 
 and D. J. Fox, Gaussian, Inc., Wallingford CT, 2013.
 
 ******************************************
 Gaussian 09:  ES64L-G09RevE.01 30-Nov-2015
                16-Nov-2021 
 ******************************************
 %nprocs=14
 Will use up to   14 processors via shared memory.
 %mem=128GB
 %chk=RR_Me_Ferrolane_2.chk
 ----------------------------------------------------------------------
 # PBEPBE gen 6D pseudo=read scf=maxcycles=500 denfit int=(grid=ultrafi
 ne) empiricaldispersion=GD3BJ opt freq=noraman
 ----------------------------------------------------------------------
 1/14=-1,18=20,19=15,26=4,38=1/1,3;
 2/9=110,12=2,17=6,18=5,40=1/2;
 3/5=7,8=2,11=2,16=1,17=8,25=1,30=1,71=1,74=1009,75=-5,82=47,124=41/1,2,3;
 4//1;
 5/5=2,7=500,38=5/2;
 6/7=2,8=2,9=2,10=2,28=1/1;
 7//1,2,3,16;
 1/14=-1,18=20,19=15,26=4/3(2);
 2/9=110/2;
 99//99;
 2/9=110/2;
 3/5=7,6=1,8=2,11=2,16=1,17=8,25=1,30=1,71=1,74=1009,75=-5,82=7,124=41/1,2,3;
 4/5=5,16=3,69=1/1;
 5/5=2,7=500,38=5/2;
 7//1,2,3,16;
 1/14=-1,18=20,19=15,26=4/3(-5);
 2/9=110/2;
 6/7=2,8=2,9=2,10=2,19=2,28=1/1;
 99/9=1/99;
 ---------------
 RR_Me_Ferrolane
 ---------------
 Symbolic Z-matrix:
 Charge =  0 Multiplicity = 1
 Fe                   -0.0714    2.65      0.0802 
 P                    -1.8186   -0.2956    0.0333 
 P                     1.7981   -0.2321    0.0988 
 C                    -1.5514    1.4603   -0.5863 
 C                    -0.6948    1.8223   -1.6772 
 C                    -0.6846    3.246    -1.8089 
 C                    -1.5586    3.7831   -0.8142 
 C                    -2.1048    2.6864   -0.0719 
 C                     1.4527    1.5051    0.7343 
 C                     1.9619    2.7564    0.234 
 C                     1.375     3.8243    0.9874 
 C                     0.5209    3.2451    1.9759 
 C                     0.5814    1.824     1.8272 
 C                    -3.301    -0.8159   -0.9088 
 C                    -4.4306   -0.1454   -0.1225 
 C                    -2.6306   -0.0939    1.6634 
 C                    -4.1329   -0.2994    1.3805 
 C                     3.3111   -0.782     0.9977 
 C                     4.3235   -1.0198   -0.1327 
 C                     2.5429    0.0511   -1.5507 
 C                     4.0526   -0.0421   -1.289 
 H                    -0.1099    1.1348   -2.2688 
 H                    -0.0903    3.8153   -2.5091 
 H                    -1.7441    4.8314   -0.6284 
 H                    -2.78      2.7774    0.7661 
 H                     2.6339    2.8801   -0.6023 
 H                     0.0222    1.1107    2.4127 
 Cl                   -1.5497   -3.6198    0.0256 
 Cl                    1.6491   -3.5616    0.071 
 Pd                    0.0179   -1.8853    0.055 
 H                    -3.4247   -1.8954   -0.8366 
 C                    -3.2355   -0.4325   -2.393 
 H                    -2.4699    0.9142    2.0425 
 C                    -2.0581   -1.0959    2.6734 
 H                    -5.4018   -0.5683   -0.3813 
 H                    -4.4721    0.9155   -0.3743 
 H                    -4.7427    0.3839    1.9724 
 H                    -4.4256   -1.3068    1.6802 
 H                     1.523     4.8807    0.8141 
 H                    -0.0933    3.7847    2.6824 
 H                    -2.3426   -0.8429   -2.8645 
 H                    -3.2227    0.6483   -2.536 
 H                    -4.1014   -0.8192   -2.9302 
 H                    -0.9832   -0.968     2.8 
 H                    -2.2343   -2.1255    2.3622 
 H                    -2.5216   -0.9674    3.6519 
 H                     3.1296   -1.7132    1.5346 
 C                     3.8103    0.261     2.0097 
 H                     2.2944    1.0311   -1.956 
 C                     2.041    -1.023    -2.5241 
 H                     4.205    -2.0394   -0.5019 
 H                     5.352    -0.9427    0.2217 
 H                     4.4184    0.9438   -0.9987 
 H                     4.6044   -0.323    -2.1867 
 H                     4.061     1.2073    1.5301 
 H                     4.7055   -0.0915    2.5217 
 H                     3.0587    0.4616    2.7734 
 H                     2.3327   -2.0239   -2.2071 
 H                     2.4543   -0.8661   -3.5207 
 H                     0.9547   -1.0044   -2.6141 
 

 GradGradGradGradGradGradGradGradGradGradGradGradGradGradGradGradGradGrad
 Berny optimization.
 Initialization pass.
                           ----------------------------
                           !    Initial Parameters    !
                           ! (Angstroms and Degrees)  !
 --------------------------                            --------------------------
 ! Name  Definition              Value          Derivative Info.                !
 --------------------------------------------------------------------------------
 ! R1    R(1,4)                  2.0125         estimate D2E/DX2                !
 ! R2    R(1,5)                  2.0401         estimate D2E/DX2                !
 ! R3    R(1,6)                  2.0736         estimate D2E/DX2                !
 ! R4    R(1,7)                  2.0726         estimate D2E/DX2                !
 ! R5    R(1,8)                  2.0394         estimate D2E/DX2                !
 ! R6    R(1,9)                  2.0153         estimate D2E/DX2                !
 ! R7    R(1,10)                 2.0419         estimate D2E/DX2                !
 ! R8    R(1,11)                 2.0722         estimate D2E/DX2                !
 ! R9    R(1,12)                 2.0733         estimate D2E/DX2                !
 ! R10   R(1,13)                 2.0397         estimate D2E/DX2                !
 ! R11   R(2,4)                  1.8811         estimate D2E/DX2                !
 ! R12   R(2,14)                 1.8319         estimate D2E/DX2                !
 ! R13   R(2,16)                 1.8323         estimate D2E/DX2                !
 ! R14   R(2,30)                 2.4291         estimate D2E/DX2                !
 ! R15   R(3,9)                  1.8818         estimate D2E/DX2                !
 ! R16   R(3,18)                 1.8438         estimate D2E/DX2                !
 ! R17   R(3,20)                 1.8319         estimate D2E/DX2                !
 ! R18   R(3,30)                 2.4298         estimate D2E/DX2                !
 ! R19   R(4,5)                  1.4335         estimate D2E/DX2                !
 ! R20   R(4,8)                  1.4402         estimate D2E/DX2                !
 ! R21   R(5,6)                  1.4298         estimate D2E/DX2                !
 ! R22   R(5,22)                 1.0792         estimate D2E/DX2                !
 ! R23   R(6,7)                  1.4289         estimate D2E/DX2                !
 ! R24   R(6,23)                 1.0805         estimate D2E/DX2                !
 ! R25   R(7,8)                  1.4325         estimate D2E/DX2                !
 ! R26   R(7,24)                 1.0807         estimate D2E/DX2                !
 ! R27   R(8,25)                 1.08           estimate D2E/DX2                !
 ! R28   R(9,10)                 1.4406         estimate D2E/DX2                !
 ! R29   R(9,13)                 1.4336         estimate D2E/DX2                !
 ! R30   R(10,11)                1.4326         estimate D2E/DX2                !
 ! R31   R(10,26)                1.0799         estimate D2E/DX2                !
 ! R32   R(11,12)                1.429          estimate D2E/DX2                !
 ! R33   R(11,39)                1.0807         estimate D2E/DX2                !
 ! R34   R(12,13)                1.4301         estimate D2E/DX2                !
 ! R35   R(12,40)                1.0805         estimate D2E/DX2                !
 ! R36   R(13,27)                1.079          estimate D2E/DX2                !
 ! R37   R(14,15)                1.531          estimate D2E/DX2                !
 ! R38   R(14,31)                1.089          estimate D2E/DX2                !
 ! R39   R(14,32)                1.5343         estimate D2E/DX2                !
 ! R40   R(15,17)                1.5399         estimate D2E/DX2                !
 ! R41   R(15,35)                1.0904         estimate D2E/DX2                !
 ! R42   R(15,36)                1.0912         estimate D2E/DX2                !
 ! R43   R(16,17)                1.5425         estimate D2E/DX2                !
 ! R44   R(16,33)                1.0889         estimate D2E/DX2                !
 ! R45   R(16,34)                1.5336         estimate D2E/DX2                !
 ! R46   R(17,37)                1.0905         estimate D2E/DX2                !
 ! R47   R(17,38)                1.091          estimate D2E/DX2                !
 ! R48   R(18,19)                1.536          estimate D2E/DX2                !
 ! R49   R(18,47)                1.0901         estimate D2E/DX2                !
 ! R50   R(18,48)                1.5366         estimate D2E/DX2                !
 ! R51   R(19,21)                1.5383         estimate D2E/DX2                !
 ! R52   R(19,51)                1.0908         estimate D2E/DX2                !
 ! R53   R(19,52)                1.0906         estimate D2E/DX2                !
 ! R54   R(20,21)                1.535          estimate D2E/DX2                !
 ! R55   R(20,49)                1.0892         estimate D2E/DX2                !
 ! R56   R(20,50)                1.534          estimate D2E/DX2                !
 ! R57   R(21,53)                1.0909         estimate D2E/DX2                !
 ! R58   R(21,54)                1.0905         estimate D2E/DX2                !
 ! R59   R(28,30)                2.3381         estimate D2E/DX2                !
 ! R60   R(29,30)                2.339          estimate D2E/DX2                !
 ! R61   R(32,41)                1.09           estimate D2E/DX2                !
 ! R62   R(32,42)                1.0903         estimate D2E/DX2                !
 ! R63   R(32,43)                1.0899         estimate D2E/DX2                !
 ! R64   R(34,44)                1.0899         estimate D2E/DX2                !
 ! R65   R(34,45)                1.0899         estimate D2E/DX2                !
 ! R66   R(34,46)                1.0903         estimate D2E/DX2                !
 ! R67   R(48,55)                1.0901         estimate D2E/DX2                !
 ! R68   R(48,56)                1.0899         estimate D2E/DX2                !
 ! R69   R(48,57)                1.0901         estimate D2E/DX2                !
 ! R70   R(50,58)                1.0897         estimate D2E/DX2                !
 ! R71   R(50,59)                1.0903         estimate D2E/DX2                !
 ! R72   R(50,60)                1.0902         estimate D2E/DX2                !
 ! A1    A(4,1,6)               69.557          estimate D2E/DX2                !
 ! A2    A(4,1,7)               69.6699         estimate D2E/DX2                !
 ! A3    A(4,1,9)              109.1362         estimate D2E/DX2                !
 ! A4    A(4,1,10)             142.0061         estimate D2E/DX2                !
 ! A5    A(4,1,12)             133.0462         estimate D2E/DX2                !
 ! A6    A(4,1,13)             106.238          estimate D2E/DX2                !
 ! A7    A(5,1,7)               68.3343         estimate D2E/DX2                !
 ! A8    A(5,1,8)               68.7972         estimate D2E/DX2                !
 ! A9    A(5,1,9)              106.2715         estimate D2E/DX2                !
 ! A10   A(5,1,10)             112.9736         estimate D2E/DX2                !
 ! A11   A(5,1,11)             145.1164         estimate D2E/DX2                !
 ! A12   A(5,1,13)             132.167          estimate D2E/DX2                !
 ! A13   A(6,1,8)               68.4128         estimate D2E/DX2                !
 ! A14   A(6,1,9)              133.0471         estimate D2E/DX2                !
 ! A15   A(6,1,10)             110.372          estimate D2E/DX2                !
 ! A16   A(6,1,11)             116.2549         estimate D2E/DX2                !
 ! A17   A(6,1,12)             146.6106         estimate D2E/DX2                !
 ! A18   A(7,1,10)             135.9354         estimate D2E/DX2                !
 ! A19   A(7,1,11)             112.3314         estimate D2E/DX2                !
 ! A20   A(7,1,12)             116.2723         estimate D2E/DX2                !
 ! A21   A(7,1,13)             145.1502         estimate D2E/DX2                !
 ! A22   A(8,1,9)              142.0339         estimate D2E/DX2                !
 ! A23   A(8,1,11)             135.929          estimate D2E/DX2                !
 ! A24   A(8,1,12)             110.3592         estimate D2E/DX2                !
 ! A25   A(8,1,13)             112.9674         estimate D2E/DX2                !
 ! A26   A(9,1,11)              69.6336         estimate D2E/DX2                !
 ! A27   A(9,1,12)              69.5283         estimate D2E/DX2                !
 ! A28   A(10,1,12)             68.389          estimate D2E/DX2                !
 ! A29   A(10,1,13)             68.7701         estimate D2E/DX2                !
 ! A30   A(11,1,13)             68.354          estimate D2E/DX2                !
 ! A31   A(4,2,14)             102.1619         estimate D2E/DX2                !
 ! A32   A(4,2,16)             104.6689         estimate D2E/DX2                !
 ! A33   A(4,2,30)             120.4273         estimate D2E/DX2                !
 ! A34   A(14,2,16)             97.48           estimate D2E/DX2                !
 ! A35   A(14,2,30)            115.5012         estimate D2E/DX2                !
 ! A36   A(16,2,30)            113.5251         estimate D2E/DX2                !
 ! A37   A(9,3,18)             105.1476         estimate D2E/DX2                !
 ! A38   A(9,3,20)             103.6507         estimate D2E/DX2                !
 ! A39   A(9,3,30)             119.9813         estimate D2E/DX2                !
 ! A40   A(18,3,20)             98.7118         estimate D2E/DX2                !
 ! A41   A(18,3,30)            114.0209         estimate D2E/DX2                !
 ! A42   A(20,3,30)            112.7572         estimate D2E/DX2                !
 ! A43   A(1,4,2)              123.1751         estimate D2E/DX2                !
 ! A44   A(2,4,5)              124.8391         estimate D2E/DX2                !
 ! A45   A(2,4,8)              128.4956         estimate D2E/DX2                !
 ! A46   A(5,4,8)              106.6449         estimate D2E/DX2                !
 ! A47   A(1,5,22)             124.4048         estimate D2E/DX2                !
 ! A48   A(4,5,6)              109.0148         estimate D2E/DX2                !
 ! A49   A(4,5,22)             125.4609         estimate D2E/DX2                !
 ! A50   A(6,5,22)             125.4464         estimate D2E/DX2                !
 ! A51   A(1,6,23)             125.3894         estimate D2E/DX2                !
 ! A52   A(5,6,7)              107.8057         estimate D2E/DX2                !
 ! A53   A(5,6,23)             126.031          estimate D2E/DX2                !
 ! A54   A(7,6,23)             126.1192         estimate D2E/DX2                !
 ! A55   A(1,7,24)             125.4015         estimate D2E/DX2                !
 ! A56   A(6,7,8)              107.8285         estimate D2E/DX2                !
 ! A57   A(6,7,24)             126.107          estimate D2E/DX2                !
 ! A58   A(8,7,24)             126.0224         estimate D2E/DX2                !
 ! A59   A(1,8,25)             124.5395         estimate D2E/DX2                !
 ! A60   A(4,8,7)              108.6736         estimate D2E/DX2                !
 ! A61   A(4,8,25)             126.0929         estimate D2E/DX2                !
 ! A62   A(7,8,25)             125.165          estimate D2E/DX2                !
 ! A63   A(1,9,3)              123.6183         estimate D2E/DX2                !
 ! A64   A(3,9,10)             128.2946         estimate D2E/DX2                !
 ! A65   A(3,9,13)             125.0548         estimate D2E/DX2                !
 ! A66   A(10,9,13)            106.6398         estimate D2E/DX2                !
 ! A67   A(1,10,26)            124.5606         estimate D2E/DX2                !
 ! A68   A(9,10,11)            108.6643         estimate D2E/DX2                !
 ! A69   A(9,10,26)            126.0414         estimate D2E/DX2                !
 ! A70   A(11,10,26)           125.2236         estimate D2E/DX2                !
 ! A71   A(1,11,39)            125.4035         estimate D2E/DX2                !
 ! A72   A(10,11,12)           107.8481         estimate D2E/DX2                !
 ! A73   A(10,11,39)           126.0301         estimate D2E/DX2                !
 ! A74   A(12,11,39)           126.0844         estimate D2E/DX2                !
 ! A75   A(1,12,40)            125.3649         estimate D2E/DX2                !
 ! A76   A(11,12,13)           107.7909         estimate D2E/DX2                !
 ! A77   A(11,12,40)           126.1298         estimate D2E/DX2                !
 ! A78   A(13,12,40)           126.0334         estimate D2E/DX2                !
 ! A79   A(1,13,27)            124.5125         estimate D2E/DX2                !
 ! A80   A(9,13,12)            109.0268         estimate D2E/DX2                !
 ! A81   A(9,13,27)            125.5612         estimate D2E/DX2                !
 ! A82   A(12,13,27)           125.3475         estimate D2E/DX2                !
 ! A83   A(2,14,15)            102.0374         estimate D2E/DX2                !
 ! A84   A(2,14,31)            109.8393         estimate D2E/DX2                !
 ! A85   A(2,14,32)            113.0767         estimate D2E/DX2                !
 ! A86   A(15,14,31)           108.4387         estimate D2E/DX2                !
 ! A87   A(15,14,32)           114.764          estimate D2E/DX2                !
 ! A88   A(31,14,32)           108.4633         estimate D2E/DX2                !
 ! A89   A(14,15,17)           108.3516         estimate D2E/DX2                !
 ! A90   A(14,15,35)           111.4328         estimate D2E/DX2                !
 ! A91   A(14,15,36)           109.5942         estimate D2E/DX2                !
 ! A92   A(17,15,35)           111.4103         estimate D2E/DX2                !
 ! A93   A(17,15,36)           109.2576         estimate D2E/DX2                !
 ! A94   A(35,15,36)           106.7639         estimate D2E/DX2                !
 ! A95   A(2,16,17)            104.7019         estimate D2E/DX2                !
 ! A96   A(2,16,33)            110.2568         estimate D2E/DX2                !
 ! A97   A(2,16,34)            110.3991         estimate D2E/DX2                !
 ! A98   A(17,16,33)           109.3247         estimate D2E/DX2                !
 ! A99   A(17,16,34)           113.4117         estimate D2E/DX2                !
 ! A100  A(33,16,34)           108.6929         estimate D2E/DX2                !
 ! A101  A(15,17,16)           110.7308         estimate D2E/DX2                !
 ! A102  A(15,17,37)           111.0396         estimate D2E/DX2                !
 ! A103  A(15,17,38)           107.9739         estimate D2E/DX2                !
 ! A104  A(16,17,37)           111.1996         estimate D2E/DX2                !
 ! A105  A(16,17,38)           109.5075         estimate D2E/DX2                !
 ! A106  A(37,17,38)           106.2277         estimate D2E/DX2                !
 ! A107  A(3,18,19)            103.1938         estimate D2E/DX2                !
 ! A108  A(3,18,47)            110.9933         estimate D2E/DX2                !
 ! A109  A(3,18,48)            112.6579         estimate D2E/DX2                !
 ! A110  A(19,18,47)           109.8741         estimate D2E/DX2                !
 ! A111  A(19,18,48)           112.0638         estimate D2E/DX2                !
 ! A112  A(47,18,48)           108.0315         estimate D2E/DX2                !
 ! A113  A(18,19,21)           109.7988         estimate D2E/DX2                !
 ! A114  A(18,19,51)           108.7952         estimate D2E/DX2                !
 ! A115  A(18,19,52)           111.808          estimate D2E/DX2                !
 ! A116  A(21,19,51)           108.6949         estimate D2E/DX2                !
 ! A117  A(21,19,52)           111.4334         estimate D2E/DX2                !
 ! A118  A(51,19,52)           106.1715         estimate D2E/DX2                !
 ! A119  A(3,20,21)            103.7076         estimate D2E/DX2                !
 ! A120  A(3,20,49)            112.4196         estimate D2E/DX2                !
 ! A121  A(3,20,50)            109.2753         estimate D2E/DX2                !
 ! A122  A(21,20,49)           110.0255         estimate D2E/DX2                !
 ! A123  A(21,20,50)           112.7962         estimate D2E/DX2                !
 ! A124  A(49,20,50)           108.616          estimate D2E/DX2                !
 ! A125  A(19,21,20)           109.873          estimate D2E/DX2                !
 ! A126  A(19,21,53)           108.3801         estimate D2E/DX2                !
 ! A127  A(19,21,54)           111.4659         estimate D2E/DX2                !
 ! A128  A(20,21,53)           108.6797         estimate D2E/DX2                !
 ! A129  A(20,21,54)           111.897          estimate D2E/DX2                !
 ! A130  A(53,21,54)           106.39           estimate D2E/DX2                !
 ! A131  A(2,30,3)              96.2465         estimate D2E/DX2                !
 ! A132  A(2,30,28)             88.7671         estimate D2E/DX2                !
 ! A133  A(3,30,29)             88.656          estimate D2E/DX2                !
 ! A134  A(28,30,29)            86.3306         estimate D2E/DX2                !
 ! A135  A(14,32,41)           111.0596         estimate D2E/DX2                !
 ! A136  A(14,32,42)           112.0293         estimate D2E/DX2                !
 ! A137  A(14,32,43)           110.745          estimate D2E/DX2                !
 ! A138  A(41,32,42)           107.8722         estimate D2E/DX2                !
 ! A139  A(41,32,43)           107.6996         estimate D2E/DX2                !
 ! A140  A(42,32,43)           107.241          estimate D2E/DX2                !
 ! A141  A(16,34,44)           111.5931         estimate D2E/DX2                !
 ! A142  A(16,34,45)           111.6424         estimate D2E/DX2                !
 ! A143  A(16,34,46)           110.8147         estimate D2E/DX2                !
 ! A144  A(44,34,45)           107.6659         estimate D2E/DX2                !
 ! A145  A(44,34,46)           107.529          estimate D2E/DX2                !
 ! A146  A(45,34,46)           107.3883         estimate D2E/DX2                !
 ! A147  A(18,48,55)           111.9736         estimate D2E/DX2                !
 ! A148  A(18,48,56)           110.898          estimate D2E/DX2                !
 ! A149  A(18,48,57)           111.2415         estimate D2E/DX2                !
 ! A150  A(55,48,56)           107.3706         estimate D2E/DX2                !
 ! A151  A(55,48,57)           107.8806         estimate D2E/DX2                !
 ! A152  A(56,48,57)           107.2608         estimate D2E/DX2                !
 ! A153  A(20,50,58)           111.7757         estimate D2E/DX2                !
 ! A154  A(20,50,59)           110.8088         estimate D2E/DX2                !
 ! A155  A(20,50,60)           111.4976         estimate D2E/DX2                !
 ! A156  A(58,50,59)           107.2555         estimate D2E/DX2                !
 ! A157  A(58,50,60)           107.8443         estimate D2E/DX2                !
 ! A158  A(59,50,60)           107.4467         estimate D2E/DX2                !
 ! A159  L(4,1,11,6,-1)        185.8119         estimate D2E/DX2                !
 ! A160  L(5,1,12,7,-1)        184.6066         estimate D2E/DX2                !
 ! A161  L(6,1,13,4,-1)        175.795          estimate D2E/DX2                !
 ! A162  L(7,1,9,4,-1)         178.8061         estimate D2E/DX2                !
 ! A163  L(8,1,10,5,-1)        181.7708         estimate D2E/DX2                !
 ! A164  L(2,30,29,28,-1)      175.0977         estimate D2E/DX2                !
 ! A165  L(3,30,28,29,-1)      174.9866         estimate D2E/DX2                !
 ! A166  L(4,1,11,6,-2)        176.5286         estimate D2E/DX2                !
 ! A167  L(5,1,12,7,-2)        173.4678         estimate D2E/DX2                !
 ! A168  L(6,1,13,4,-2)        173.3801         estimate D2E/DX2                !
 ! A169  L(7,1,9,4,-2)         173.0645         estimate D2E/DX2                !
 ! A170  L(8,1,10,5,-2)        176.1169         estimate D2E/DX2                !
 ! A171  L(2,30,29,28,-2)      179.9425         estimate D2E/DX2                !
 ! A172  L(3,30,28,29,-2)      179.7231         estimate D2E/DX2                !
 ! D1    D(6,1,4,2)            156.1803         estimate D2E/DX2                !
 ! D2    D(7,1,4,2)           -160.6774         estimate D2E/DX2                !
 ! D3    D(9,1,4,2)             26.2581         estimate D2E/DX2                !
 ! D4    D(10,1,4,2)            58.9237         estimate D2E/DX2                !
 ! D5    D(12,1,4,2)           -53.2282         estimate D2E/DX2                !
 ! D6    D(13,1,4,2)           -17.1999         estimate D2E/DX2                !
 ! D7    D(2,4,11,39)         -170.3155         estimate D2E/DX2                !
 ! D8    D(7,1,5,22)           157.6549         estimate D2E/DX2                !
 ! D9    D(8,1,5,22)          -158.4016         estimate D2E/DX2                !
 ! D10   D(9,1,5,22)           -18.2562         estimate D2E/DX2                !
 ! D11   D(10,1,5,22)           25.4814         estimate D2E/DX2                !
 ! D12   D(11,1,5,22)           59.3129         estimate D2E/DX2                !
 ! D13   D(13,1,5,22)          -56.0836         estimate D2E/DX2                !
 ! D14   D(22,5,12,40)        -168.2001         estimate D2E/DX2                !
 ! D15   D(4,1,6,23)          -157.0853         estimate D2E/DX2                !
 ! D16   D(8,1,6,23)           158.1754         estimate D2E/DX2                !
 ! D17   D(9,1,6,23)           -59.5836         estimate D2E/DX2                !
 ! D18   D(10,1,6,23)          -17.7317         estimate D2E/DX2                !
 ! D19   D(11,1,6,23)           26.3861         estimate D2E/DX2                !
 ! D20   D(12,1,6,23)           63.6121         estimate D2E/DX2                !
 ! D21   D(23,6,13,27)        -168.3018         estimate D2E/DX2                !
 ! D22   D(4,1,7,24)           157.3576         estimate D2E/DX2                !
 ! D23   D(5,1,7,24)          -158.1434         estimate D2E/DX2                !
 ! D24   D(10,1,7,24)          -56.9901         estimate D2E/DX2                !
 ! D25   D(11,1,7,24)          -15.8589         estimate D2E/DX2                !
 ! D26   D(12,1,7,24)           28.3888         estimate D2E/DX2                !
 ! D27   D(13,1,7,24)           67.9446         estimate D2E/DX2                !
 ! D28   D(24,7,9,3)          -170.07           estimate D2E/DX2                !
 ! D29   D(5,1,8,25)           158.9228         estimate D2E/DX2                !
 ! D30   D(6,1,8,25)          -157.2524         estimate D2E/DX2                !
 ! D31   D(9,1,8,25)            69.4167         estimate D2E/DX2                !
 ! D32   D(11,1,8,25)          -51.2752         estimate D2E/DX2                !
 ! D33   D(12,1,8,25)          -13.065          estimate D2E/DX2                !
 ! D34   D(13,1,8,25)           30.7801         estimate D2E/DX2                !
 ! D35   D(25,8,10,26)        -166.171          estimate D2E/DX2                !
 ! D36   D(4,1,9,3)             26.4939         estimate D2E/DX2                !
 ! D37   D(5,1,9,3)            -16.9918         estimate D2E/DX2                !
 ! D38   D(6,1,9,3)            -53.0321         estimate D2E/DX2                !
 ! D39   D(8,1,9,3)             59.2171         estimate D2E/DX2                !
 ! D40   D(11,1,9,3)          -160.4259         estimate D2E/DX2                !
 ! D41   D(12,1,9,3)           156.4111         estimate D2E/DX2                !
 ! D42   D(4,1,10,26)           69.4203         estimate D2E/DX2                !
 ! D43   D(5,1,10,26)           30.7113         estimate D2E/DX2                !
 ! D44   D(6,1,10,26)          -13.1186         estimate D2E/DX2                !
 ! D45   D(7,1,10,26)          -51.3232         estimate D2E/DX2                !
 ! D46   D(12,1,10,26)        -157.3019         estimate D2E/DX2                !
 ! D47   D(13,1,10,26)         158.8467         estimate D2E/DX2                !
 ! D48   D(5,1,11,39)           67.9588         estimate D2E/DX2                !
 ! D49   D(6,1,11,39)           28.4335         estimate D2E/DX2                !
 ! D50   D(7,1,11,39)          -15.8013         estimate D2E/DX2                !
 ! D51   D(8,1,11,39)          -56.9611         estimate D2E/DX2                !
 ! D52   D(9,1,11,39)          157.3925         estimate D2E/DX2                !
 ! D53   D(13,1,11,39)        -158.1258         estimate D2E/DX2                !
 ! D54   D(4,1,12,40)          -59.6267         estimate D2E/DX2                !
 ! D55   D(6,1,12,40)           63.6467         estimate D2E/DX2                !
 ! D56   D(7,1,12,40)           26.4104         estimate D2E/DX2                !
 ! D57   D(8,1,12,40)          -17.7217         estimate D2E/DX2                !
 ! D58   D(9,1,12,40)         -157.103          estimate D2E/DX2                !
 ! D59   D(10,1,12,40)         158.198          estimate D2E/DX2                !
 ! D60   D(4,1,13,27)          -18.4099         estimate D2E/DX2                !
 ! D61   D(5,1,13,27)          -56.2307         estimate D2E/DX2                !
 ! D62   D(7,1,13,27)           59.1751         estimate D2E/DX2                !
 ! D63   D(8,1,13,27)           25.3664         estimate D2E/DX2                !
 ! D64   D(10,1,13,27)        -158.5344         estimate D2E/DX2                !
 ! D65   D(11,1,13,27)         157.5379         estimate D2E/DX2                !
 ! D66   D(14,2,4,1)           178.8989         estimate D2E/DX2                !
 ! D67   D(14,2,4,5)           -93.1124         estimate D2E/DX2                !
 ! D68   D(14,2,4,8)            88.7574         estimate D2E/DX2                !
 ! D69   D(16,2,4,1)            77.7086         estimate D2E/DX2                !
 ! D70   D(16,2,4,5)           165.6973         estimate D2E/DX2                !
 ! D71   D(16,2,4,8)           -12.433          estimate D2E/DX2                !
 ! D72   D(30,2,4,1)           -51.5074         estimate D2E/DX2                !
 ! D73   D(30,2,4,5)            36.4813         estimate D2E/DX2                !
 ! D74   D(30,2,4,8)          -141.649          estimate D2E/DX2                !
 ! D75   D(4,2,14,15)          -79.2229         estimate D2E/DX2                !
 ! D76   D(4,2,14,31)          165.8957         estimate D2E/DX2                !
 ! D77   D(4,2,14,32)           44.5846         estimate D2E/DX2                !
 ! D78   D(16,2,14,15)          27.6091         estimate D2E/DX2                !
 ! D79   D(16,2,14,31)         -87.2724         estimate D2E/DX2                !
 ! D80   D(16,2,14,32)         151.4166         estimate D2E/DX2                !
 ! D81   D(30,2,14,15)         148.1836         estimate D2E/DX2                !
 ! D82   D(30,2,14,31)          33.3022         estimate D2E/DX2                !
 ! D83   D(30,2,14,32)         -88.0089         estimate D2E/DX2                !
 ! D84   D(4,2,16,17)           98.4827         estimate D2E/DX2                !
 ! D85   D(4,2,16,33)          -19.0019         estimate D2E/DX2                !
 ! D86   D(4,2,16,34)         -139.1162         estimate D2E/DX2                !
 ! D87   D(14,2,16,17)          -6.2323         estimate D2E/DX2                !
 ! D88   D(14,2,16,33)        -123.7168         estimate D2E/DX2                !
 ! D89   D(14,2,16,34)         116.1688         estimate D2E/DX2                !
 ! D90   D(30,2,16,17)        -128.2881         estimate D2E/DX2                !
 ! D91   D(30,2,16,33)         114.2273         estimate D2E/DX2                !
 ! D92   D(30,2,16,34)          -5.8871         estimate D2E/DX2                !
 ! D93   D(4,2,30,3)            23.1164         estimate D2E/DX2                !
 ! D94   D(4,2,30,28)         -157.157          estimate D2E/DX2                !
 ! D95   D(14,2,30,3)          146.5423         estimate D2E/DX2                !
 ! D96   D(14,2,30,28)         -33.7311         estimate D2E/DX2                !
 ! D97   D(16,2,30,3)         -102.0525         estimate D2E/DX2                !
 ! D98   D(16,2,30,28)          77.6741         estimate D2E/DX2                !
 ! D99   D(18,3,9,1)           178.586          estimate D2E/DX2                !
 ! D100  D(18,3,9,10)           88.2135         estimate D2E/DX2                !
 ! D101  D(18,3,9,13)          -93.1429         estimate D2E/DX2                !
 ! D102  D(20,3,9,1)            75.4524         estimate D2E/DX2                !
 ! D103  D(20,3,9,10)          -14.9202         estimate D2E/DX2                !
 ! D104  D(20,3,9,13)          163.7235         estimate D2E/DX2                !
 ! D105  D(30,3,9,1)           -51.3944         estimate D2E/DX2                !
 ! D106  D(30,3,9,10)         -141.767          estimate D2E/DX2                !
 ! D107  D(30,3,9,13)           36.8767         estimate D2E/DX2                !
 ! D108  D(9,3,18,19)         -118.8041         estimate D2E/DX2                !
 ! D109  D(9,3,18,47)          123.5533         estimate D2E/DX2                !
 ! D110  D(9,3,18,48)            2.2571         estimate D2E/DX2                !
 ! D111  D(20,3,18,19)         -12.0161         estimate D2E/DX2                !
 ! D112  D(20,3,18,47)        -129.6587         estimate D2E/DX2                !
 ! D113  D(20,3,18,48)         109.0452         estimate D2E/DX2                !
 ! D114  D(30,3,18,19)         107.7683         estimate D2E/DX2                !
 ! D115  D(30,3,18,47)          -9.8743         estimate D2E/DX2                !
 ! D116  D(30,3,18,48)        -131.1705         estimate D2E/DX2                !
 ! D117  D(9,3,20,21)           97.4905         estimate D2E/DX2                !
 ! D118  D(9,3,20,49)          -21.321          estimate D2E/DX2                !
 ! D119  D(9,3,20,50)         -141.9923         estimate D2E/DX2                !
 ! D120  D(18,3,20,21)         -10.5238         estimate D2E/DX2                !
 ! D121  D(18,3,20,49)        -129.3354         estimate D2E/DX2                !
 ! D122  D(18,3,20,50)         109.9933         estimate D2E/DX2                !
 ! D123  D(30,3,20,21)        -131.2453         estimate D2E/DX2                !
 ! D124  D(30,3,20,49)         109.9432         estimate D2E/DX2                !
 ! D125  D(30,3,20,50)         -10.7281         estimate D2E/DX2                !
 ! D126  D(9,3,30,2)            22.7077         estimate D2E/DX2                !
 ! D127  D(9,3,30,29)         -157.3264         estimate D2E/DX2                !
 ! D128  D(18,3,30,2)          148.6796         estimate D2E/DX2                !
 ! D129  D(18,3,30,29)         -31.3545         estimate D2E/DX2                !
 ! D130  D(20,3,30,2)          -99.8037         estimate D2E/DX2                !
 ! D131  D(20,3,30,29)          80.1622         estimate D2E/DX2                !
 ! D132  D(2,4,5,6)           -176.6939         estimate D2E/DX2                !
 ! D133  D(2,4,5,22)             0.2328         estimate D2E/DX2                !
 ! D134  D(8,4,5,6)              1.7788         estimate D2E/DX2                !
 ! D135  D(8,4,5,22)           178.7055         estimate D2E/DX2                !
 ! D136  D(2,4,8,7)            176.6309         estimate D2E/DX2                !
 ! D137  D(2,4,8,25)            -0.473          estimate D2E/DX2                !
 ! D138  D(5,4,8,7)             -1.7674         estimate D2E/DX2                !
 ! D139  D(5,4,8,25)          -178.8713         estimate D2E/DX2                !
 ! D140  D(4,5,6,7)             -1.1244         estimate D2E/DX2                !
 ! D141  D(4,5,6,23)           176.5725         estimate D2E/DX2                !
 ! D142  D(22,5,6,7)          -178.0517         estimate D2E/DX2                !
 ! D143  D(22,5,6,23)           -0.3548         estimate D2E/DX2                !
 ! D144  D(5,6,7,8)              0.0102         estimate D2E/DX2                !
 ! D145  D(5,6,7,24)           177.7586         estimate D2E/DX2                !
 ! D146  D(23,6,7,8)          -177.6841         estimate D2E/DX2                !
 ! D147  D(23,6,7,24)            0.0643         estimate D2E/DX2                !
 ! D148  D(6,7,8,4)              1.1003         estimate D2E/DX2                !
 ! D149  D(6,7,8,25)           178.2377         estimate D2E/DX2                !
 ! D150  D(24,7,8,4)          -176.6505         estimate D2E/DX2                !
 ! D151  D(24,7,8,25)            0.4868         estimate D2E/DX2                !
 ! D152  D(3,9,10,11)          177.1068         estimate D2E/DX2                !
 ! D153  D(3,9,10,26)            0.0448         estimate D2E/DX2                !
 ! D154  D(13,9,10,11)          -1.7344         estimate D2E/DX2                !
 ! D155  D(13,9,10,26)        -178.7964         estimate D2E/DX2                !
 ! D156  D(3,9,13,12)         -177.2291         estimate D2E/DX2                !
 ! D157  D(3,9,13,27)           -0.0274         estimate D2E/DX2                !
 ! D158  D(10,9,13,12)           1.6599         estimate D2E/DX2                !
 ! D159  D(10,9,13,27)         178.8616         estimate D2E/DX2                !
 ! D160  D(9,10,11,12)           1.1653         estimate D2E/DX2                !
 ! D161  D(9,10,11,39)        -176.7128         estimate D2E/DX2                !
 ! D162  D(26,10,11,12)        178.2572         estimate D2E/DX2                !
 ! D163  D(26,10,11,39)          0.3791         estimate D2E/DX2                !
 ! D164  D(10,11,12,13)         -0.1277         estimate D2E/DX2                !
 ! D165  D(10,11,12,40)       -177.7761         estimate D2E/DX2                !
 ! D166  D(39,11,12,13)        177.7489         estimate D2E/DX2                !
 ! D167  D(39,11,12,40)          0.1004         estimate D2E/DX2                !
 ! D168  D(11,12,13,9)          -0.9642         estimate D2E/DX2                !
 ! D169  D(11,12,13,27)       -178.1733         estimate D2E/DX2                !
 ! D170  D(40,12,13,9)         176.6871         estimate D2E/DX2                !
 ! D171  D(40,12,13,27)         -0.522          estimate D2E/DX2                !
 ! D172  D(2,14,15,17)         -41.4613         estimate D2E/DX2                !
 ! D173  D(2,14,15,35)        -164.3763         estimate D2E/DX2                !
 ! D174  D(2,14,15,36)          77.6776         estimate D2E/DX2                !
 ! D175  D(31,14,15,17)         74.4442         estimate D2E/DX2                !
 ! D176  D(31,14,15,35)        -48.4709         estimate D2E/DX2                !
 ! D177  D(31,14,15,36)       -166.4169         estimate D2E/DX2                !
 ! D178  D(32,14,15,17)       -164.1266         estimate D2E/DX2                !
 ! D179  D(32,14,15,35)         72.9583         estimate D2E/DX2                !
 ! D180  D(32,14,15,36)        -44.9877         estimate D2E/DX2                !
 ! D181  D(2,14,32,41)          56.4601         estimate D2E/DX2                !
 ! D182  D(2,14,32,42)         -64.2412         estimate D2E/DX2                !
 ! D183  D(2,14,32,43)         176.0785         estimate D2E/DX2                !
 ! D184  D(15,14,32,41)        172.9595         estimate D2E/DX2                !
 ! D185  D(15,14,32,42)         52.2581         estimate D2E/DX2                !
 ! D186  D(15,14,32,43)        -67.4222         estimate D2E/DX2                !
 ! D187  D(31,14,32,41)        -65.6248         estimate D2E/DX2                !
 ! D188  D(31,14,32,42)        173.6739         estimate D2E/DX2                !
 ! D189  D(31,14,32,43)         53.9936         estimate D2E/DX2                !
 ! D190  D(14,15,17,16)         40.2482         estimate D2E/DX2                !
 ! D191  D(14,15,17,37)        164.2941         estimate D2E/DX2                !
 ! D192  D(14,15,17,38)        -79.6296         estimate D2E/DX2                !
 ! D193  D(35,15,17,16)        163.1768         estimate D2E/DX2                !
 ! D194  D(35,15,17,37)        -72.7773         estimate D2E/DX2                !
 ! D195  D(35,15,17,38)         43.299          estimate D2E/DX2                !
 ! D196  D(36,15,17,16)        -79.1028         estimate D2E/DX2                !
 ! D197  D(36,15,17,37)         44.9431         estimate D2E/DX2                !
 ! D198  D(36,15,17,38)        161.0194         estimate D2E/DX2                !
 ! D199  D(2,16,17,15)         -17.7683         estimate D2E/DX2                !
 ! D200  D(2,16,17,37)        -141.7225         estimate D2E/DX2                !
 ! D201  D(2,16,17,38)         101.1867         estimate D2E/DX2                !
 ! D202  D(33,16,17,15)        100.3524         estimate D2E/DX2                !
 ! D203  D(33,16,17,37)        -23.6018         estimate D2E/DX2                !
 ! D204  D(33,16,17,38)       -140.6925         estimate D2E/DX2                !
 ! D205  D(34,16,17,15)       -138.1853         estimate D2E/DX2                !
 ! D206  D(34,16,17,37)         97.8605         estimate D2E/DX2                !
 ! D207  D(34,16,17,38)        -19.2302         estimate D2E/DX2                !
 ! D208  D(2,16,34,44)          58.9823         estimate D2E/DX2                !
 ! D209  D(2,16,34,45)         -61.5594         estimate D2E/DX2                !
 ! D210  D(2,16,34,46)         178.784          estimate D2E/DX2                !
 ! D211  D(17,16,34,44)        176.1166         estimate D2E/DX2                !
 ! D212  D(17,16,34,45)         55.5749         estimate D2E/DX2                !
 ! D213  D(17,16,34,46)        -64.0816         estimate D2E/DX2                !
 ! D214  D(33,16,34,44)        -62.0679         estimate D2E/DX2                !
 ! D215  D(33,16,34,45)        177.3904         estimate D2E/DX2                !
 ! D216  D(33,16,34,46)         57.7339         estimate D2E/DX2                !
 ! D217  D(3,18,19,21)          31.8831         estimate D2E/DX2                !
 ! D218  D(3,18,19,51)         -86.9575         estimate D2E/DX2                !
 ! D219  D(3,18,19,52)         156.1024         estimate D2E/DX2                !
 ! D220  D(47,18,19,21)        150.3089         estimate D2E/DX2                !
 ! D221  D(47,18,19,51)         31.4682         estimate D2E/DX2                !
 ! D222  D(47,18,19,52)        -85.4719         estimate D2E/DX2                !
 ! D223  D(48,18,19,21)        -89.5807         estimate D2E/DX2                !
 ! D224  D(48,18,19,51)        151.5787         estimate D2E/DX2                !
 ! D225  D(48,18,19,52)         34.6386         estimate D2E/DX2                !
 ! D226  D(3,18,48,55)         -59.9286         estimate D2E/DX2                !
 ! D227  D(3,18,48,56)        -179.8406         estimate D2E/DX2                !
 ! D228  D(3,18,48,57)          60.8725         estimate D2E/DX2                !
 ! D229  D(19,18,48,55)         55.9254         estimate D2E/DX2                !
 ! D230  D(19,18,48,56)        -63.9866         estimate D2E/DX2                !
 ! D231  D(19,18,48,57)        176.7265         estimate D2E/DX2                !
 ! D232  D(47,18,48,55)        177.104          estimate D2E/DX2                !
 ! D233  D(47,18,48,56)         57.1919         estimate D2E/DX2                !
 ! D234  D(47,18,48,57)        -62.095          estimate D2E/DX2                !
 ! D235  D(18,19,21,20)        -42.9844         estimate D2E/DX2                !
 ! D236  D(18,19,21,53)         75.6335         estimate D2E/DX2                !
 ! D237  D(18,19,21,54)       -167.6124         estimate D2E/DX2                !
 ! D238  D(51,19,21,20)         75.9179         estimate D2E/DX2                !
 ! D239  D(51,19,21,53)       -165.4641         estimate D2E/DX2                !
 ! D240  D(51,19,21,54)        -48.7101         estimate D2E/DX2                !
 ! D241  D(52,19,21,20)       -167.4211         estimate D2E/DX2                !
 ! D242  D(52,19,21,53)        -48.8031         estimate D2E/DX2                !
 ! D243  D(52,19,21,54)         67.9509         estimate D2E/DX2                !
 ! D244  D(3,20,21,19)          30.8908         estimate D2E/DX2                !
 ! D245  D(3,20,21,53)         -87.5424         estimate D2E/DX2                !
 ! D246  D(3,20,21,54)         155.2695         estimate D2E/DX2                !
 ! D247  D(49,20,21,19)        151.3371         estimate D2E/DX2                !
 ! D248  D(49,20,21,53)         32.9039         estimate D2E/DX2                !
 ! D249  D(49,20,21,54)        -84.2842         estimate D2E/DX2                !
 ! D250  D(50,20,21,19)        -87.2141         estimate D2E/DX2                !
 ! D251  D(50,20,21,53)        154.3527         estimate D2E/DX2                !
 ! D252  D(50,20,21,54)         37.1646         estimate D2E/DX2                !
 ! D253  D(3,20,50,58)         -61.5518         estimate D2E/DX2                !
 ! D254  D(3,20,50,59)         178.8751         estimate D2E/DX2                !
 ! D255  D(3,20,50,60)          59.2446         estimate D2E/DX2                !
 ! D256  D(21,20,50,58)         53.2378         estimate D2E/DX2                !
 ! D257  D(21,20,50,59)        -66.3353         estimate D2E/DX2                !
 ! D258  D(21,20,50,60)        174.0342         estimate D2E/DX2                !
 ! D259  D(49,20,50,58)        175.4822         estimate D2E/DX2                !
 ! D260  D(49,20,50,59)         55.9091         estimate D2E/DX2                !
 ! D261  D(49,20,50,60)        -63.7214         estimate D2E/DX2                !
 --------------------------------------------------------------------------------
 Trust Radius=3.00D-01 FncErr=1.00D-07 GrdErr=1.00D-06
 Number of steps in this run=    360 maximum allowed number of steps=    360.
 GradGradGradGradGradGradGradGradGradGradGradGradGradGradGradGradGradGrad

 Stoichiometry    C22H32Cl2FeP2Pd
 Framework group  C1[X(C22H32Cl2FeP2Pd)]
 Deg. of freedom   174
 Full point group                 C1      NOp   1
 Largest Abelian subgroup         C1      NOp   1
 Largest concise Abelian subgroup C1      NOp   1
                         Standard orientation:                         
 ---------------------------------------------------------------------
 Center     Atomic      Atomic             Coordinates (Angstroms)
 Number     Number       Type             X           Y           Z
 ---------------------------------------------------------------------
      1         26           0        0.602996    2.616915    0.007087
      2         15           0        1.724387   -0.619425   -0.000201
      3         15           0       -1.806031    0.168715   -0.062064
      4          6           0        1.812632    1.143116    0.651065
      5          6           0        1.042746    1.650001    1.748887
      6          6           0        1.317643    3.044297    1.906180
      7          6           0        2.284452    3.412934    0.920701
      8          6           0        2.601995    2.242383    0.158421
      9          6           0       -1.117681    1.812464   -0.666452
     10          6           0       -1.367287    3.131337   -0.143377
     11          6           0       -0.576102    4.073170   -0.877851
     12          6           0        0.147512    3.352208   -1.877195
     13          6           0       -0.196952    1.969647   -1.754038
     14          6           0        3.069698   -1.442886    0.931370
     15          6           0        4.313041   -0.998499    0.156481
     16          6           0        2.565110   -0.555622   -1.626967
     17          6           0        3.994928   -1.063001   -1.348840
     18          6           0       -3.395891   -0.050778   -0.969669
     19          6           0       -4.438718   -0.100909    0.156966
     20          6           0       -2.483812    0.566086    1.592774
     21          6           0       -3.980795    0.781978    1.330478
     22          1           0        0.330218    1.083264    2.328428
     23          1           0        0.847420    3.708618    2.616914
     24          1           0        2.676788    4.405926    0.753659
     25          1           0        3.284189    2.211096   -0.678271
     26          1           0       -2.003320    3.372323    0.695474
     27          1           0        0.209693    1.169268   -2.352657
     28         17           0        0.794827   -3.821908   -0.052107
     29         17           0       -2.327289   -3.123063   -0.094256
     30         46           0       -0.393334   -1.808208   -0.049228
     31          1           0        2.974794   -2.523821    0.839681
     32          6           0        3.078000   -1.080557    2.422271
     33          1           0        2.610780    0.470802   -1.987763
     34          6           0        1.806407   -1.404472   -2.654432
     35          1           0        5.179042   -1.611974    0.406966
     36          1           0        4.565540    0.027921    0.427294
     37          1           0        4.731010   -0.505362   -1.928773
     38          1           0        4.080710   -2.103137   -1.666812
     39          1           0       -0.509930    5.134552   -0.685477
     40          1           0        0.859447    3.770238   -2.574297
     41          1           0        2.119596   -1.312005    2.886926
     42          1           0        3.281607   -0.021829    2.584696
     43          1           0        3.847274   -1.642414    2.951834
     44          1           0        0.779311   -1.061532   -2.777973
     45          1           0        1.771812   -2.453857   -2.361922
     46          1           0        2.289121   -1.354106   -3.630780
     47          1           0       -3.403090   -0.989776   -1.523356
     48          6           0       -3.673005    1.088907   -1.962403
     49          1           0       -2.045172    1.469053    2.015465
     50          6           0       -2.210171   -0.603918    2.546353
     51          1           0       -4.528008   -1.129966    0.507686
     52          1           0       -5.429866    0.187016   -0.195284
     53          1           0       -4.140772    1.826181    1.058208
     54          1           0       -4.580318    0.601458    2.223359
     55          1           0       -3.730410    2.057581   -1.465688
     56          1           0       -4.619178    0.932102   -2.480045
     57          1           0       -2.894218    1.148350   -2.722887
     58          1           0       -2.695581   -1.520268    2.211602
     59          1           0       -2.586569   -0.385101    3.545898
     60          1           0       -1.142444   -0.804988    2.635927
 ---------------------------------------------------------------------
 Rotational constants (GHZ):      0.1503355      0.1437147      0.0935924
 General basis read from cards:  (6D, 7F)
 ======================================================================================================
                                       Pseudopotential Parameters
 ======================================================================================================
  Center     Atomic      Valence      Angular      Power
  Number     Number     Electrons     Momentum     of R      Exponent        Coefficient   SO-Coeffient
 ======================================================================================================
    1         26           16
                                      D and up 
                                                     1      392.6149787      -10.00000000    0.00000000
                                                     2       71.1756979      -63.26675180    0.00000000
                                                     2       17.7320281      -10.96133380    0.00000000
                                      S - D
                                                     0      126.0571895        3.00000000    0.00000000
                                                     1      138.1264251       18.17291370    0.00000000
                                                     2       54.2098858      339.12311640    0.00000000
                                                     2        9.2837966      317.10680120    0.00000000
                                                     2        8.6289082     -207.34216490    0.00000000
                                      P - D
                                                     0       83.1759490        5.00000000    0.00000000
                                                     1      106.0559938        5.95359300    0.00000000
                                                     2       42.8284937      294.26655270    0.00000000
                                                     2        8.7701805      154.42446350    0.00000000
                                                     2        8.0397818      -95.31642490    0.00000000
    2         15
                                   No pseudopotential on this center.
    3         15
                                   No pseudopotential on this center.
    4          6
                                   No pseudopotential on this center.
    5          6
                                   No pseudopotential on this center.
    6          6
                                   No pseudopotential on this center.
    7          6
                                   No pseudopotential on this center.
    8          6
                                   No pseudopotential on this center.
    9          6
                                   No pseudopotential on this center.
   10          6
                                   No pseudopotential on this center.
   11          6
                                   No pseudopotential on this center.
   12          6
                                   No pseudopotential on this center.
   13          6
                                   No pseudopotential on this center.
   14          6
                                   No pseudopotential on this center.
   15          6
                                   No pseudopotential on this center.
   16          6
                                   No pseudopotential on this center.
   17          6
                                   No pseudopotential on this center.
   18          6
                                   No pseudopotential on this center.
   19          6
                                   No pseudopotential on this center.
   20          6
                                   No pseudopotential on this center.
   21          6
                                   No pseudopotential on this center.
   22          1
                                   No pseudopotential on this center.
   23          1
                                   No pseudopotential on this center.
   24          1
                                   No pseudopotential on this center.
   25          1
                                   No pseudopotential on this center.
   26          1
                                   No pseudopotential on this center.
   27          1
                                   No pseudopotential on this center.
   28         17
                                   No pseudopotential on this center.
   29         17
                                   No pseudopotential on this center.
   30         46           18
                                      F and up 
                                                     0      598.3336444       -0.05631770    0.00000000
                                                     1      162.4298290      -20.12880360    0.00000000
                                                     2       51.5714771     -105.81979230    0.00000000
                                                     2       16.4888260      -42.57333450    0.00000000
                                                     2        5.8287656       -3.61650860    0.00000000
                                      S - F
                                                     0       73.3806304        3.00036510    0.00000000
                                                     1       14.7550438       32.43500930    0.00000000
                                                     2       17.8350204      459.08303830    0.00000000
                                                     2       12.7111477     -868.06290290    0.00000000
                                                     2        9.3292063      514.47260980    0.00000000
                                      P - F
                                                     0       55.6689877        4.95930990    0.00000000
                                                     1       64.2337771       21.17110290    0.00000000
                                                     2       17.6254952      605.05600920    0.00000000
                                                     2       11.9058155     -726.96418460    0.00000000
                                                     2        8.5100832      396.32748830    0.00000000
                                      D - F
                                                     0       49.9994728        3.05087450    0.00000000
                                                     1       39.7477547       22.25065800    0.00000000
                                                     2       11.4321366      674.83576980    0.00000000
                                                     2        9.1790080    -1040.85540480    0.00000000
                                                     2        7.5624429      505.93751470    0.00000000
   31          1
                                   No pseudopotential on this center.
   32          6
                                   No pseudopotential on this center.
   33          1
                                   No pseudopotential on this center.
   34          6
                                   No pseudopotential on this center.
   35          1
                                   No pseudopotential on this center.
   36          1
                                   No pseudopotential on this center.
   37          1
                                   No pseudopotential on this center.
   38          1
                                   No pseudopotential on this center.
   39          1
                                   No pseudopotential on this center.
   40          1
                                   No pseudopotential on this center.
   41          1
                                   No pseudopotential on this center.
   42          1
                                   No pseudopotential on this center.
   43          1
                                   No pseudopotential on this center.
   44          1
                                   No pseudopotential on this center.
   45          1
                                   No pseudopotential on this center.
   46          1
                                   No pseudopotential on this center.
   47          1
                                   No pseudopotential on this center.
   48          6
                                   No pseudopotential on this center.
   49          1
                                   No pseudopotential on this center.
   50          6
                                   No pseudopotential on this center.
   51          1
                                   No pseudopotential on this center.
   52          1
                                   No pseudopotential on this center.
   53          1
                                   No pseudopotential on this center.
   54          1
                                   No pseudopotential on this center.
   55          1
                                   No pseudopotential on this center.
   56          1
                                   No pseudopotential on this center.
   57          1
                                   No pseudopotential on this center.
   58          1
                                   No pseudopotential on this center.
   59          1
                                   No pseudopotential on this center.
   60          1
                                   No pseudopotential on this center.
 ======================================================================================================
 There are   518 symmetry adapted cartesian basis functions of A   symmetry.
 There are   518 symmetry adapted basis functions of A   symmetry.
   518 basis functions,  1053 primitive gaussians,   518 cartesian basis functions
   131 alpha electrons      131 beta electrons
       nuclear repulsion energy      4470.8193430398 Hartrees.
 NAtoms=   60 NActive=   60 NUniq=   60 SFac= 1.00D+00 NAtFMM=   60 NAOKFM=T Big=T
 Integral buffers will be    131072 words long.
 Raffenetti 2 integral format.
 Two-electron integral symmetry is turned on.
 Nuclear repulsion after empirical dispersion term =     4470.7089825811 Hartrees.
 Standard density basis: Auto (5D, 7F)
  2481 Density fitting functions
 There are  2481 symmetry adapted density basis functions of A   symmetry.
 One-electron integrals computed using PRISM.
   1 Symmetry operations used in ECPInt.
 ECPInt:  NShTT=   17766 NPrTT=  112280 LenC2=   15833 LenP2D=   56946.
 LDataN:  DoStor=T MaxTD1= 5 Len=  102
 NBasis=   518 RedAO= T EigKep=  7.91D-04  NBF=   518
 NBsUse=   518 1.00D-06 EigRej= -1.00D+00 NBFU=   518
 NBasis=      518 NBas6D=      518 NTT=      134421   NTT6D=   134421
 NDBShl=      495 NDBF=       2481 NDBF6D=     2993  NNucDB=        0
 IDenFi=        2 ISolve=        0 FullAP=F BlkAPC=T NucTyp=        0
 TolInv= 1.00D-06 TolIt=  1.00D-10 IR12=0.
 FoFCou: FMM=F IPFlag=           0 FMFlag=           0 FMFlg1=           0
         NFxFlg=           0 DoJE=F BraDBF=T KetDBF=T FulRan=T
         wScrn=  0.000000 ICntrl=     600 IOpCl=  3 I1Cent=           6 NGrid=           0
         NMat0=    1 NMatS0=   2993 NMatT0=    0 NMatD0=    1 NMtDS0=    0 NMtDT0=    0
 Petite list used in FoFCou.
 DBF EigKep=  1.32D-06 EigRej=  9.05D-07
 NDBF=   2481  NBFD=  2481
 NRank=  2479 NBFDU=  2479
 S*AI*S=  12.5956302379    
 Defaulting to unpruned grid for atomic number  46.
 ExpMin= 2.20D-02 ExpMax= 2.52D+04 ExpMxC= 3.78D+03 IAcc=3 IRadAn=         5 AccDes= 0.00D+00
 Harris functional with IExCor= 1009 and IRadAn=       5 diagonalized for initial guess.
 HarFok:  IExCor= 1009 AccDes= 0.00D+00 IRadAn=         5 IDoV= 1 UseB2=F ITyADJ=14
 ICtDFT=  3500011 ScaDFX=  1.000000  1.000000  1.000000  1.000000
 Defaulting to unpruned grid for atomic number  46.
 Defaulting to unpruned grid for atomic number  46.
 Defaulting to unpruned grid for atomic number  46.
 Defaulting to unpruned grid for atomic number  46.
 Defaulting to unpruned grid for atomic number  46.
 Defaulting to unpruned grid for atomic number  46.
 Defaulting to unpruned grid for atomic number  46.
 Defaulting to unpruned grid for atomic number  46.
 Defaulting to unpruned grid for atomic number  46.
 Defaulting to unpruned grid for atomic number  46.
 Defaulting to unpruned grid for atomic number  46.
 Defaulting to unpruned grid for atomic number  46.
 Defaulting to unpruned grid for atomic number  46.
 Defaulting to unpruned grid for atomic number  46.
 FoFCou: FMM=F IPFlag=           0 FMFlag=      100000 FMFlg1=        2001
         NFxFlg=           0 DoJE=T BraDBF=F KetDBF=T FulRan=T
         wScrn=  0.000000 ICntrl=     500 IOpCl=  0 I1Cent=   200000004 NGrid=           0
         NMat0=    1 NMatS0=      1 NMatT0=    0 NMatD0=    1 NMtDS0=    0 NMtDT0=    0
 Petite list used in FoFCou.
 Requested convergence on RMS density matrix=1.00D-08 within 500 cycles.
 Requested convergence on MAX density matrix=1.00D-06.
 Requested convergence on             energy=1.00D-06.
 No special actions if energy rises.
 FoFCou: FMM=F IPFlag=           0 FMFlag=      100000 FMFlg1=        2001
         NFxFlg=           0 DoJE=T BraDBF=T KetDBF=F FulRan=T
         wScrn=  0.000000 ICntrl=     500 IOpCl=  0 I1Cent=           5 NGrid=           0
         NMat0=    1 NMatS0=      1 NMatT0=    0 NMatD0=    1 NMtDS0=    0 NMtDT0=    0
 Symmetry not used in FoFCou.
 Defaulting to unpruned grid for atomic number  46.
 Defaulting to unpruned grid for atomic number  46.
 Defaulting to unpruned grid for atomic number  46.
 Defaulting to unpruned grid for atomic number  46.
 Defaulting to unpruned grid for atomic number  46.
 Defaulting to unpruned grid for atomic number  46.
 Defaulting to unpruned grid for atomic number  46.
 Defaulting to unpruned grid for atomic number  46.
 Defaulting to unpruned grid for atomic number  46.
 Defaulting to unpruned grid for atomic number  46.
 Defaulting to unpruned grid for atomic number  46.
 Defaulting to unpruned grid for atomic number  46.
 Defaulting to unpruned grid for atomic number  46.
 Defaulting to unpruned grid for atomic number  46.
 EnCoef did     1 forward-backward iterations
 EnCoef did   100 forward-backward iterations
 Problem detected with inexpensive integrals.
 Switching to full accuracy and repeating last cycle.
 EnCoef did     3 forward-backward iterations
 EnCoef did   100 forward-backward iterations
 EnCoef did   100 forward-backward iterations
 EnCoef did   100 forward-backward iterations
 EnCoef did     3 forward-backward iterations
 EnCoef did     6 forward-backward iterations
 EnCoef did   100 forward-backward iterations
 EnCoef did    11 forward-backward iterations
 EnCoef did     5 forward-backward iterations
 EnCoef did     2 forward-backward iterations
 Restarting incremental Fock formation.
 SCF Done:  E(RPBE-PBE) =  -2709.29236395     A.U. after   32 cycles
            NFock= 32  Conv=0.64D-08     -V/T= 2.0577

 **********************************************************************

            Population analysis using the SCF density.

 **********************************************************************

 Orbital symmetries:
       Occupied  (A) (A) (A) (A) (A) (A) (A) (A) (A) (A) (A) (A)
                 (A) (A) (A) (A) (A) (A) (A) (A) (A) (A) (A) (A)
                 (A) (A) (A) (A) (A) (A) (A) (A) (A) (A) (A) (A)
                 (A) (A) (A) (A) (A) (A) (A) (A) (A) (A) (A) (A)
                 (A) (A) (A) (A) (A) (A) (A) (A) (A) (A) (A) (A)
                 (A) (A) (A) (A) (A) (A) (A) (A) (A) (A) (A) (A)
                 (A) (A) (A) (A) (A) (A) (A) (A) (A) (A) (A) (A)
                 (A) (A) (A) (A) (A) (A) (A) (A) (A) (A) (A) (A)
                 (A) (A) (A) (A) (A) (A) (A) (A) (A) (A) (A) (A)
                 (A) (A) (A) (A) (A) (A) (A) (A) (A) (A) (A) (A)
                 (A) (A) (A) (A) (A) (A) (A) (A) (A) (A) (A)
       Virtual   (A) (A) (A) (A) (A) (A) (A) (A) (A) (A) (A) (A)
                 (A) (A) (A) (A) (A) (A) (A) (A) (A) (A) (A) (A)
                 (A) (A) (A) (A) (A) (A) (A) (A) (A) (A) (A) (A)
                 (A) (A) (A) (A) (A) (A) (A) (A) (A) (A) (A) (A)
                 (A) (A) (A) (A) (A) (A) (A) (A) (A) (A) (A) (A)
                 (A) (A) (A) (A) (A) (A) (A) (A) (A) (A) (A) (A)
                 (A) (A) (A) (A) (A) (A) (A) (A) (A) (A) (A) (A)
                 (A) (A) (A) (A) (A) (A) (A) (A) (A) (A) (A) (A)
                 (A) (A) (A) (A) (A) (A) (A) (A) (A) (A) (A) (A)
                 (A) (A) (A) (A) (A) (A) (A) (A) (A) (A) (A) (A)
                 (A) (A) (A) (A) (A) (A) (A) (A) (A) (A) (A) (A)
                 (A) (A) (A) (A) (A) (A) (A) (A) (A) (A) (A) (A)
                 (A) (A) (A) (A) (A) (A) (A) (A) (A) (A) (A) (A)
                 (A) (A) (A) (A) (A) (A) (A) (A) (A) (A) (A) (A)
                 (A) (A) (A) (A) (A) (A) (A) (A) (A) (A) (A) (A)
                 (A) (A) (A) (A) (A) (A) (A) (A) (A) (A) (A) (A)
                 (A) (A) (A) (A) (A) (A) (A) (A) (A) (A) (A) (A)
                 (A) (A) (A) (A) (A) (A) (A) (A) (A) (A) (A) (A)
                 (A) (A) (A) (A) (A) (A) (A) (A) (A) (A) (A) (A)
                 (A) (A) (A) (A) (A) (A) (A) (A) (A) (A) (A) (A)
                 (A) (A) (A) (A) (A) (A) (A) (A) (A) (A) (A) (A)
                 (A) (A) (A) (A) (A) (A) (A) (A) (A) (A) (A) (A)
                 (A) (A) (A) (A) (A) (A) (A) (A) (A) (A) (A) (A)
                 (A) (A) (A) (A) (A) (A) (A) (A) (A) (A) (A) (A)
                 (A) (A) (A) (A) (A) (A) (A) (A) (A) (A) (A) (A)
                 (A) (A) (A) (A) (A) (A) (A) (A) (A) (A) (A) (A)
                 (A) (A) (A) (A) (A) (A) (A) (A) (A) (A) (A) (A)
                 (A) (A) (A) (A) (A) (A) (A) (A) (A) (A) (A) (A)
                 (A) (A) (A) (A) (A) (A) (A) (A) (A) (A) (A) (A)
                 (A) (A) (A) (A) (A) (A) (A) (A) (A) (A) (A) (A)
                 (A) (A) (A) (A) (A) (A) (A) (A) (A) (A) (A) (A)
                 (A) (A) (A) (A) (A) (A) (A) (A) (A) (A) (A) (A)
                 (A) (A) (A)
 The electronic state is 1-A.
 Alpha  occ. eigenvalues -- -100.59737-100.59685 -76.36950 -76.36807  -9.94469
 Alpha  occ. eigenvalues --   -9.94468  -9.93745  -9.93726  -9.93617  -9.93607
 Alpha  occ. eigenvalues --   -9.93586  -9.93563  -9.93488  -9.93474  -9.92434
 Alpha  occ. eigenvalues --   -9.92419  -9.91545  -9.91369  -9.90802  -9.90758
 Alpha  occ. eigenvalues --   -9.90596  -9.89957  -9.89574  -9.89412  -9.88807
 Alpha  occ. eigenvalues --   -9.88747  -9.09267  -9.09217  -6.91591  -6.91544
 Alpha  occ. eigenvalues --   -6.90868  -6.90819  -6.90818  -6.90763  -6.34926
 Alpha  occ. eigenvalues --   -6.34790  -4.56794  -4.56649  -4.56632  -4.56495
 Alpha  occ. eigenvalues --   -4.56431  -4.56303  -3.29259  -3.19927  -2.14447
 Alpha  occ. eigenvalues --   -2.10234  -2.10094  -1.96770  -1.96721  -1.92803
 Alpha  occ. eigenvalues --   -0.84340  -0.82609  -0.77315  -0.77262  -0.70663
 Alpha  occ. eigenvalues --   -0.70592  -0.67939  -0.67770  -0.67024  -0.66930
 Alpha  occ. eigenvalues --   -0.65613  -0.65250  -0.64938  -0.64174  -0.60292
 Alpha  occ. eigenvalues --   -0.60242  -0.59352  -0.58608  -0.52450  -0.52233
 Alpha  occ. eigenvalues --   -0.51587  -0.51409  -0.50890  -0.50622  -0.50180
 Alpha  occ. eigenvalues --   -0.49953  -0.46764  -0.46152  -0.43512  -0.43348
 Alpha  occ. eigenvalues --   -0.42710  -0.42444  -0.40281  -0.39385  -0.39124
 Alpha  occ. eigenvalues --   -0.38647  -0.38199  -0.37752  -0.37457  -0.37276
 Alpha  occ. eigenvalues --   -0.37143  -0.36699  -0.36421  -0.36297  -0.36210
 Alpha  occ. eigenvalues --   -0.36136  -0.35673  -0.34628  -0.33983  -0.33623
 Alpha  occ. eigenvalues --   -0.33454  -0.33140  -0.31198  -0.30694  -0.30413
 Alpha  occ. eigenvalues --   -0.30142  -0.29914  -0.29859  -0.29643  -0.29555
 Alpha  occ. eigenvalues --   -0.29054  -0.28931  -0.28505  -0.27889  -0.27029
 Alpha  occ. eigenvalues --   -0.26943  -0.26805  -0.25254  -0.24951  -0.24146
 Alpha  occ. eigenvalues --   -0.23706  -0.23389  -0.23207  -0.19355  -0.18999
 Alpha  occ. eigenvalues --   -0.18797  -0.18647  -0.18425  -0.18368  -0.18054
 Alpha  occ. eigenvalues --   -0.17784
 Alpha virt. eigenvalues --   -0.09844  -0.07496  -0.07476  -0.03180  -0.02019
 Alpha virt. eigenvalues --   -0.01740  -0.00980  -0.00644   0.00178   0.00832
 Alpha virt. eigenvalues --    0.01049   0.01308   0.02419   0.02831   0.03745
 Alpha virt. eigenvalues --    0.04059   0.04317   0.04619   0.06785   0.06922
 Alpha virt. eigenvalues --    0.07546   0.07944   0.08609   0.08705   0.09280
 Alpha virt. eigenvalues --    0.09987   0.10424   0.10665   0.10925   0.11958
 Alpha virt. eigenvalues --    0.12170   0.12324   0.12541   0.12892   0.13167
 Alpha virt. eigenvalues --    0.13530   0.13906   0.14219   0.14628   0.14716
 Alpha virt. eigenvalues --    0.15108   0.15350   0.15433   0.15763   0.16133
 Alpha virt. eigenvalues --    0.16527   0.16884   0.16978   0.17154   0.17423
 Alpha virt. eigenvalues --    0.17891   0.18051   0.18265   0.18799   0.18999
 Alpha virt. eigenvalues --    0.19409   0.19785   0.20438   0.20719   0.20843
 Alpha virt. eigenvalues --    0.21008   0.21696   0.21854   0.22717   0.23084
 Alpha virt. eigenvalues --    0.23687   0.24568   0.25291   0.25625   0.26135
 Alpha virt. eigenvalues --    0.28294   0.29081   0.29357   0.30057   0.30615
 Alpha virt. eigenvalues --    0.31370   0.31965   0.32534   0.34416   0.34929
 Alpha virt. eigenvalues --    0.36351   0.37988   0.39247   0.39428   0.40597
 Alpha virt. eigenvalues --    0.41579   0.42244   0.43018   0.43598   0.44326
 Alpha virt. eigenvalues --    0.44586   0.46119   0.46368   0.47546   0.47790
 Alpha virt. eigenvalues --    0.48246   0.49073   0.49998   0.50268   0.50618
 Alpha virt. eigenvalues --    0.50806   0.51855   0.52331   0.53168   0.53278
 Alpha virt. eigenvalues --    0.53842   0.54702   0.54891   0.55674   0.56282
 Alpha virt. eigenvalues --    0.56511   0.56908   0.57493   0.58040   0.58382
 Alpha virt. eigenvalues --    0.59008   0.60454   0.60625   0.60731   0.61566
 Alpha virt. eigenvalues --    0.62077   0.62972   0.63455   0.63678   0.63908
 Alpha virt. eigenvalues --    0.64643   0.64896   0.65050   0.65701   0.66204
 Alpha virt. eigenvalues --    0.66808   0.67911   0.68697   0.69635   0.69718
 Alpha virt. eigenvalues --    0.70340   0.71139   0.71764   0.71986   0.72508
 Alpha virt. eigenvalues --    0.72667   0.73040   0.74132   0.74451   0.75063
 Alpha virt. eigenvalues --    0.75562   0.76513   0.76607   0.76736   0.76983
 Alpha virt. eigenvalues --    0.77438   0.77939   0.79012   0.79307   0.79439
 Alpha virt. eigenvalues --    0.80109   0.80492   0.80816   0.81761   0.82009
 Alpha virt. eigenvalues --    0.82578   0.82660   0.83356   0.83738   0.84135
 Alpha virt. eigenvalues --    0.84560   0.85111   0.85410   0.85859   0.85977
 Alpha virt. eigenvalues --    0.86586   0.87526   0.87975   0.88298   0.88815
 Alpha virt. eigenvalues --    0.88965   0.89098   0.89914   0.90465   0.91095
 Alpha virt. eigenvalues --    0.91456   0.92083   0.92254   0.92508   0.93102
 Alpha virt. eigenvalues --    0.93720   0.93914   0.94160   0.94577   0.94876
 Alpha virt. eigenvalues --    0.95255   0.95896   0.96286   0.96676   0.97561
 Alpha virt. eigenvalues --    0.98516   0.99052   0.99375   0.99967   1.00593
 Alpha virt. eigenvalues --    1.01201   1.01799   1.02616   1.03209   1.04084
 Alpha virt. eigenvalues --    1.04605   1.06383   1.07280   1.07422   1.08217
 Alpha virt. eigenvalues --    1.08825   1.09126   1.09678   1.10637   1.12051
 Alpha virt. eigenvalues --    1.12764   1.13017   1.13235   1.14720   1.16792
 Alpha virt. eigenvalues --    1.18477   1.20329   1.20401   1.21042   1.22490
 Alpha virt. eigenvalues --    1.23552   1.25229   1.26113   1.27172   1.27801
 Alpha virt. eigenvalues --    1.29214   1.29777   1.30825   1.31836   1.33853
 Alpha virt. eigenvalues --    1.35071   1.37672   1.38092   1.38906   1.41020
 Alpha virt. eigenvalues --    1.43021   1.43701   1.43907   1.44326   1.45493
 Alpha virt. eigenvalues --    1.47883   1.48473   1.49210   1.51008   1.53107
 Alpha virt. eigenvalues --    1.54107   1.56227   1.58696   1.61065   1.63048
 Alpha virt. eigenvalues --    1.64195   1.65251   1.66187   1.68068   1.68850
 Alpha virt. eigenvalues --    1.69977   1.70528   1.72198   1.73724   1.74762
 Alpha virt. eigenvalues --    1.75973   1.76897   1.77736   1.79999   1.81188
 Alpha virt. eigenvalues --    1.81497   1.82216   1.83553   1.84044   1.85575
 Alpha virt. eigenvalues --    1.85659   1.86143   1.86931   1.87497   1.88625
 Alpha virt. eigenvalues --    1.90193   1.92206   1.92739   1.93270   1.93622
 Alpha virt. eigenvalues --    1.94573   1.94979   1.95915   1.96256   1.96887
 Alpha virt. eigenvalues --    1.97335   1.97560   1.99562   2.00176   2.01397
 Alpha virt. eigenvalues --    2.04049   2.05199   2.06317   2.07151   2.08272
 Alpha virt. eigenvalues --    2.09230   2.10591   2.12217   2.12984   2.14023
[...]
 000122,0.00002394,0.00001690,-0.00000312,-0.00000612,0.00000578,-0.000
 01209,-0.00000241,0.00001257,0.00000111,0.00000479,-0.00001198,-0.0000
 0399,0.00000591,0.00000839,-0.00000928,-0.00000061,0.00000643,0.000000
 17,0.00000231,0.00001598,0.00005424,0.00001567,0.00001825,-0.00001952,
 0.00000423,-0.00002600,0.00000295,0.00002438,0.00000627,0.00001431,0.0
 0000987,-0.00001648,-0.00000185,0.00001032,0.00001291,-0.00001144,-0.0
 0000242,0.00007686,0.00007485,0.00007376,-0.00018568,0.00009066,0.0000
 3181,0.00014749,-0.00150521,-0.00141442,-0.05826030,0.05383545,-0.0189
 3938,-0.00063773,0.00034319,-0.00077475,-0.00000401,0.00012798,0.00019
 910,0.00003044,0.00026554,0.00016846,-0.00012750,-0.00005521,0.0001854
 9,0.00001232,-0.00003141,-0.00001298,-0.00002682,-0.00001779,-0.000046
 94,0.00000839,0.00003271,0.00005006,0.06146427,0.00000619,0.00006116,-
 0.00004059,-0.00001442,-0.00006420,0.00004325,-0.00006712,-0.00061132,
 0.00040386,0.00004730,-0.00001510,-0.00000520,0.00001824,0.00004304,0.
 00002097,-0.00002428,0.00002332,0.00002675,0.00000253,0.00000662,-0.00
 000974,0.00000618,-0.00000771,0.00000091,0.00004091,-0.00010800,0.0000
 6738,-0.00007241,-0.00006016,0.00003597,-0.00003605,0.00008561,-0.0000
 2794,0.00001384,-0.00001659,-0.00002039,0.00000927,0.00003027,-0.00003
 281,0.00000550,-0.00001588,-0.00003098,0.00000506,0.00000801,0.0000159
 6,-0.00000108,0.00003044,0.00000918,-0.00000068,0.00000015,-0.00000405
 ,0.00016905,0.00006136,-0.00016723,-0.00012868,-0.00031745,-0.00010634
 ,0.00486572,-0.01970895,0.00459973,0.00061351,0.00040647,0.00044182,-0
 .00005575,-0.00007712,-0.00006970,-0.00000978,0.00001115,-0.00000640,-
 0.00000071,-0.00000094,-0.00000110,-0.00000019,-0.00000049,-0.00000354
 ,0.00009320,0.00008577,0.00000225,0.00001137,0.00000051,-0.00000077,-0
 .00001089,-0.00001275,-0.00001607,-0.00030108,-0.00134987,0.00117337,0
 .00010423,0.00014640,-0.00017597,-0.00000289,0.00000145,0.00000125,0.0
 0001061,-0.00000575,-0.00001656,-0.00000135,0.00000154,0.00000404,0.00
 000080,-0.00000690,0.00001025,0.00000776,-0.00000075,-0.00000354,-0.00
 000235,0.00000079,-0.00000124,0.00000483,0.00000048,-0.00000147,0.0000
 0082,-0.00000253,0.00000030,-0.00000036,-0.00000035,0.00000212,0.00001
 441,0.00000372,-0.00000400,0.00000171,0.00000437,0.00000621,-0.0000058
 7,0.00000074,0.00000005,-0.00000109,0.00000133,0.00000587,0.00000262,0
 .00000213,-0.00000033,-0.00000667,0.00000503,0.00000252,0.00000117,0.0
 0000275,-0.00000256,-0.00000336,0.00004490,-0.00001609,-0.00012499,0.0
 0002522,0.00005704,-0.00145989,-0.00161920,-0.00294352,0.05496574,-0.2
 6579681,0.07953948,0.00003249,0.00068231,-0.00013401,0.00000102,0.0002
 2991,0.00006296,0.00004720,0.00020172,0.00010739,-0.00033690,-0.000051
 05,0.00005416,0.00001312,-0.00001627,-0.00000406,-0.00000321,-0.000013
 28,-0.00002141,0.00000588,0.00002732,0.00005105,-0.05852054,0.28921039
 ,0.00009441,0.00011980,-0.00012268,0.00012544,-0.00025204,0.00004381,0
 .00016923,-0.00194187,0.00087094,-0.00013454,0.00005644,0.00004291,-0.
 00002873,-0.00001385,0.00009192,0.00001047,0.00004710,-0.00000144,0.00
 000163,0.00001608,0.00001100,0.00001954,-0.00001963,-0.00008401,0.0001
 3734,0.00005981,0.00008524,-0.00012208,-0.00016617,0.00005110,-0.00003
 510,0.00012981,-0.00006053,0.00003987,-0.00002746,-0.00002103,0.000013
 73,0.00000070,-0.00005257,-0.00002557,0.00012750,0.00006510,-0.0000344
 0,-0.00004218,-0.00004161,-0.00004822,0.00006105,-0.00004948,-0.000004
 30,0.00002389,0.00001701,0.00007534,0.00002220,-0.00006913,-0.00017433
 ,-0.00026172,-0.00021380,0.00630622,-0.02192569,0.00661306,0.00040556,
 0.00049656,0.00071635,-0.00011030,0.00002427,-0.00008454,-0.00000676,0
 .00001559,-0.00001015,0.00001013,0.00000608,-0.00000508,0.00000184,-0.
 00000670,-0.00000263,0.00012504,0.00014664,-0.00002235,0.00001041,-0.0
 0001407,-0.00001550,-0.00002021,-0.00004629,-0.00001720,-0.00030674,0.
 00081921,-0.00062273,0.00049983,-0.00015418,-0.00029370,0.00002387,-0.
 00001054,0.00002849,-0.00003240,-0.00000758,0.00001931,-0.00003103,0.0
 0000614,0.00002786,0.00000944,0.00000063,-0.00002064,-0.00002607,0.000
 00540,0.00000965,-0.00000102,0.00000810,0.00000065,-0.00001722,-0.0000
 0299,-0.00000099,0.00001043,-0.00000101,-0.00000760,-0.00000465,0.0000
 0689,0.00000172,0.00001257,0.00000543,-0.00000977,0.00001657,0.0000074
 9,-0.00000243,0.00000347,0.00000339,-0.00001114,-0.00000694,0.00000467
 ,-0.00001489,0.00000357,-0.00001410,-0.00000865,0.00000959,-0.00000419
 ,-0.00001346,-0.00001073,0.00000591,0.00000764,-0.00004355,-0.00003869
 ,-0.00007290,0.00000902,0.00000222,-0.00002846,-0.00164331,-0.00400650
 ,-0.00285873,-0.02041492,0.08211822,-0.07490252,-0.00074639,0.00012859
 ,-0.00029409,0.00006692,0.00020008,0.00005889,0.00012913,0.00013840,-0
 .00000721,-0.00004183,0.00031713,0.00000255,0.00002351,0.00004606,0.00
 002322,0.00000248,0.00001457,0.00001133,-0.00000174,0.00000903,0.00001
 173,0.02331346,-0.08332578,0.08136265,0.00006258,0.00004913,-0.0000128
 9,0.00025575,-0.00025383,0.00007859,-0.00032861,-0.00138835,-0.0005155
 3,-0.00005684,0.00003978,-0.00001581,-0.00000325,0.00003088,-0.0000525
 2,-0.00003640,-0.00001208,0.00005131,-0.00000632,0.00004965,0.00001700
 ,0.00000622,-0.00001199,-0.00004621,0.00035094,0.00025464,-0.00056990,
 -0.00002884,0.00006213,0.00006675,-0.00000321,0.00001793,-0.00000448,0
 .00006331,0.00001123,-0.00004307,-0.00001837,-0.00020188,-0.00000798,0
 .00001434,0.00006397,0.00001880,-0.00001331,-0.00002130,-0.00002505,-0
 .00002579,0.00004312,-0.00005255,-0.00000402,0.00001604,0.00002026,-0.
 00007652,0.00049745,-0.00002272,-0.00009117,0.00021506,-0.00010297,0.0
 0253534,0.00063136,-0.00893108,0.00139318,0.00006163,-0.00111834,0.000
 00892,-0.00022551,0.00012223,0.00000558,0.00003263,0.00000525,0.000003
 79,0.00000692,0.00000605,0.00000198,-0.00000125,0.00000091,0.00001189,
 -0.00000330,0.00001706,-0.00000689,-0.00000454,-0.00000995,-0.00006045
 ,-0.00005070,0.00000298,0.00019211,-0.00001853,-0.00002959,-0.00019684
 ,0.00012363,0.00024814,0.00002151,-0.00000336,0.00000731,-0.00000463,-
 0.00002467,-0.00003277,-0.00002458,0.00000487,0.00002309,-0.00000725,0
 .00000136,-0.00000714,-0.00001760,0.00000132,0.00000402,-0.00000103,0.
 00000816,0.00000122,-0.00001542,-0.00000282,-0.00000081,0.00000477,-0.
 00000205,-0.00000302,-0.00000478,0.00000517,0.00000011,-0.00000233,-0.
 00001728,0.00000490,0.00002731,-0.00000492,0.00005414,-0.00001022,0.00
 001420,0.00000583,-0.00002421,0.00000771,-0.00000264,-0.00000043,-0.00
 001067,-0.00000959,0.00001857,0.00000551,-0.00001601,-0.00001356,0.000
 00782,0.00000931,-0.00011254,0.00000924,-0.00005800,0.00012207,-0.0000
 6520,0.00004899,0.00017519,0.00044785,0.00038992,-0.09739501,-0.017587
 63,0.10071926,-0.00003095,-0.00003078,-0.00000354,0.00000226,-0.000018
 83,-0.00002889,0.00013664,0.00007220,0.00012050,-0.00014722,-0.0000472
 3,0.00029575,0.00000668,-0.00000496,-0.00000187,0.00000843,0.00003013,
 0.00003294,-0.00000379,0.00000324,0.00001389,0.00290117,0.00060836,-0.
 00757337,0.10235287,0.00005684,-0.00009591,0.00014215,-0.00000141,-0.0
 0014871,0.00006484,-0.00177572,-0.00285958,-0.00126489,-0.00006796,0.0
 0006749,-0.00000476,-0.00001627,-0.00002642,-0.00001602,-0.00000256,-0
 .00000588,-0.00001693,0.00000995,-0.00000499,0.00000276,0.00000415,-0.
 00001468,-0.00002613,0.00045377,0.00033732,-0.00127931,0.00008510,0.00
 020312,-0.00003347,0.00001286,-0.00000873,-0.00001128,0.00012543,-0.00
 000420,-0.00008881,-0.00017573,-0.00037975,0.00002988,-0.00001524,0.00
 005281,0.00001005,-0.00000405,-0.00001653,-0.00000705,-0.00002120,0.00
 003258,-0.00002788,-0.00000713,0.00000975,0.00000883,0.00040811,0.0002
 5543,-0.00066956,0.00023327,-0.00016834,0.00003358,0.00909986,0.001038
 42,-0.02190271,0.00113065,0.00051576,0.00025509,0.00000590,0.00007625,
 -0.00006264,0.00000990,-0.00002147,0.00000101,0.00000562,0.00000305,0.
 00000257,0.00000471,-0.00000240,0.00000440,-0.00001289,-0.00001007,0.0
 0000423,-0.00001002,-0.00000082,-0.00000570,0.00001304,0.00000619,0.00
 000047,-0.00024543,-0.00031628,0.00097312,0.00019909,-0.00006334,0.000
 00073,0.00001854,-0.00000175,0.00001027,0.00000670,-0.00001083,-0.0000
 0134,-0.00001950,0.00000773,0.00001635,-0.00001401,-0.00000036,-0.0000
 0333,-0.00000765,0.00000223,0.00000211,-0.00000359,0.00000575,0.000000
 41,-0.00000817,-0.00000106,0.00000119,0.00000408,0.00000011,-0.0000018
 2,0.00000648,-0.00001022,-0.00000078,0.00001518,-0.00005194,0.00001549
 ,0.00000340,0.00000672,0.00000394,-0.00000179,0.00000157,-0.00000515,-
 0.00000769,0.00000234,-0.00000251,0.00000842,-0.00000607,-0.00000112,0
 .00001449,0.00000491,-0.00000768,-0.00000404,0.00000474,0.00000532,-0.
 00026153,-0.00002283,-0.00015973,-0.00005911,0.00011915,-0.00002301,0.
 00058120,0.00100521,0.00051390,-0.01809802,-0.05109567,0.03740084,-0.0
 0012112,0.00006421,0.00009665,0.00000233,0.00006989,0.00006708,0.00025
 813,-0.00003183,0.00019458,-0.00022036,0.00029973,0.00037133,0.0000142
 3,-0.00001244,0.00000996,-0.00005222,-0.00003830,-0.00002143,0.0000047
 7,0.00000373,0.00002266,-0.01469957,-0.00137945,0.02381279,0.02184233,
 0.05378325,0.00007013,-0.00018413,0.00017378,-0.00026114,0.00006607,0.
 00001074,-0.00119543,-0.00271151,0.00077918,0.00005089,0.00001550,-0.0
 0003297,-0.00000456,0.00001965,-0.00003744,-0.00001428,-0.00000865,-0.
 00001381,0.00000837,-0.00002003,-0.00001937,-0.00000179,-0.00000901,0.
 00002210,0.00032010,0.00048832,-0.00132388,0.00007365,0.00017946,-0.00
 010446,0.00002186,-0.00004608,-0.00000687,0.00014011,-0.00001486,-0.00
 008784,-0.00029693,-0.00038511,0.00005888,-0.00000731,-0.00003328,-0.0
 0005079,0.00002046,0.00002003,0.00003739,0.00003309,-0.00002007,0.0000
 2458,-0.00000836,-0.00000908,-0.00000938,0.00033311,-0.00001070,-0.000
 19527,-0.00015482,0.00029651,-0.00005438,0.00789117,0.00147306,-0.0197
 3337,0.00167919,0.00036128,0.00040163,0.00000019,-0.00001556,-0.000061
 60,-0.00000179,-0.00002131,-0.00000101,-0.00000192,-0.00000534,0.00000
 130,0.00000327,0.00000431,0.00000371,0.00001682,-0.00000374,0.00001368
 ,-0.00000214,0.00000662,0.00000663,0.00012780,0.00011295,0.00002799,0.
 00009973,0.00012171,-0.00021128,-0.00000264,-0.00000887,-0.00025900,-0
 .00000580,0.00000741,-0.00000760,0.00004493,-0.00000845,-0.00002366,0.
 00000345,0.00000135,-0.00000337,-0.00000796,0.00000689,0.00000307,0.00
 002121,-0.00000127,-0.00000580,-0.00000482,-0.00000567,-0.00000301,0.0
 0001379,0.00000025,-0.00000040,-0.00000276,0.00000242,0.00000374,0.000
 01875,-0.00002196,0.00000008,0.00002166,-0.00005583,0.00002011,-0.0000
 0756,0.00000618,-0.00000169,-0.00000847,-0.00000354,-0.00000159,0.0000
 0589,0.00000323,0.00001589,0.00000818,0.00000229,0.00001473,-0.0000039
 0,0.00000051,0.00000987,0.00001263,-0.00000469,-0.00000875,-0.00016150
 ,0.00002300,0.00002744,-0.00014310,0.00012885,0.00002001,0.00004209,-0
 .00002337,0.00094540,0.10104752,0.03748642,-0.23899219,0.00006519,-0.0
 0002145,-0.00006442,-0.00004977,-0.00005496,0.00000701,-0.00006254,0.0
 0008824,0.00049397,-0.00125635,0.00010935,0.00026249,0.00002589,-0.000
 03643,-0.00002164,-0.00006307,-0.00003396,-0.00004296,0.00001578,-0.00
 000197,0.00004511,0.00449468,0.00020317,-0.00807574,-0.11041799,-0.036
 78844,0.26118901,0.00009642,0.00004253,0.00016543,0.00004692,-0.000020
 61,0.00010846,-0.00034859,-0.00024783,0.00055517,0.00005662,0.00011242
 ,-0.00005405,0.00004004,0.00009662,-0.00014009,-0.00011869,-0.00007255
 ,0.00012669,0.00001352,0.00005031,-0.00000595,-0.00003322,-0.00000679,
 0.00005239,0.00026776,0.00011638,-0.00017829,-0.00002063,-0.00001346,0
 .00003279,-0.00001414,0.00005656,0.00001277,0.00005170,0.00001314,-0.0
 0002037,-0.00005454,-0.00009430,0.00001127,0.00003378,0.00000145,-0.00
 000413,0.00000309,-0.00000722,0.00000184,-0.00000970,-0.00000048,-0.00
 002829,0.00000238,0.00001090,0.00001747,-0.00011418,0.00039625,-0.0001
 0390,0.00023955,-0.00023934,0.00035811,-0.00718249,0.00128756,-0.00053
 745,0.00046883,-0.00207666,-0.00095251,0.00026112,-0.00022599,-0.00006
 063,0.00000072,-0.00001516,-0.00000202,-0.00001016,0.00000383,0.000018
 90,-0.00000029,0.00001390,0.00001192,-0.00000759,0.00005781,-0.0000286
 1,-0.00000774,-0.00000525,-0.00000421,0.00003777,0.00002740,0.00005650
 ,0.00033414,-0.00002545,0.00000681,-0.00026189,-0.00001531,-0.00036358
 ,-0.00000253,0.00000677,-0.00001167,-0.00000260,0.00000667,0.00003421,
 -0.00000643,0.00000105,0.00000487,-0.00002282,0.00000461,-0.00000189,-
 0.00000094,-0.00000162,-0.00000389,0.00000327,-0.00000062,0.00000024,-
 0.00000803,-0.00000183,0.00000223,-0.00000336,-0.00000206,-0.00000248,
 -0.00000343,0.00000302,-0.00000211,0.,-0.00000810,0.00000075,0.0000443
 1,-0.00001818,-0.00007759,0.00001603,-0.00000779,-0.00000265,0.0000013
 6,-0.00001246,-0.00000906,-0.00000022,0.00000343,-0.00000632,0.0000159
 3,0.00000075,-0.00000176,-0.00000584,0.00000068,0.00000895,-0.00000213
 ,-0.00003025,-0.00006976,0.00014251,-0.00009949,-0.00002954,0.00039755
 ,-0.00029375,0.00007467,-0.29555374,0.01015117,-0.03392230,0.00004633,
 -0.00005154,0.00007270,0.00001924,-0.00003302,-0.00010184,-0.00055783,
 0.00011154,-0.00044160,0.00062550,0.00009327,-0.00010460,-0.00001092,0
 .00004620,0.00002007,0.00001795,0.00002820,0.00002618,-0.00000598,-0.0
 0000398,-0.00005015,-0.00748321,-0.00053803,-0.00003358,-0.01191101,0.
 00129543,-0.00258291,0.32048051,0.00000200,0.00003488,0.00027399,-0.00
 004987,0.00043732,-0.00008327,-0.00026821,0.00049946,0.00014595,0.0000
 3664,0.00013374,-0.00010098,0.00032249,-0.00041918,-0.00049860,-0.0001
 9256,-0.00012553,0.00010843,0.00000757,0.00005372,0.00000935,-0.000062
 43,0.00003499,0.00014903,-0.00002950,-0.00007535,0.00008238,-0.0000090
 4,-0.00000217,-0.00002636,0.00000718,-0.00000600,0.00003469,-0.0000163
 6,0.00000307,0.00001275,0.00000506,0.00002339,0.00001695,0.00002054,-0
 .00009159,-0.00000911,0.00001124,0.00001329,0.00000574,0.00000339,-0.0
 0005199,-0.00001228,0.00000023,-0.00000698,0.00000923,-0.00000607,0.00
 008613,0.00002193,-0.00024016,-0.00050228,0.00005602,-0.02296545,0.000
 21554,-0.00338790,-0.00025723,-0.00317725,-0.00289226,0.00030979,-0.00
 046488,-0.00012966,0.00000833,-0.00002300,-0.00000021,-0.00001310,0.00
 000677,0.00003443,0.00000354,0.00003375,0.00002661,-0.00005205,0.00001
 560,-0.00002504,-0.00000887,0.00001055,0.00001359,0.00006493,-0.000010
 90,-0.00014745,-0.00032951,0.00005821,-0.00015033,0.00008627,-0.000187
 17,0.00012519,-0.00005357,0.00000786,0.00000128,-0.00003105,-0.0000134
 9,0.00000430,0.00002168,-0.00000372,-0.00001449,-0.00000788,-0.0000001
 1,0.00001543,0.00000206,-0.00000384,-0.00000109,0.00000956,-0.00000951
 ,-0.00000194,-0.00000045,-0.00000029,-0.00000137,-0.00001476,-0.000008
 61,0.00001145,0.00000244,-0.00000273,-0.00000459,-0.00000368,0.0000020
 5,-0.00000046,0.00001156,0.00010156,-0.00002846,0.00004402,-0.00003553
 ,-0.00000946,-0.00001838,-0.00000872,0.00000952,0.00000105,0.00000079,
 0.00000260,-0.00001061,0.00001506,0.00002010,0.00000870,-0.00000757,0.
 00000364,0.00005478,0.00000191,-0.00002301,-0.00002568,-0.00002359,0.0
 0006099,0.00005595,0.00080644,0.00079498,0.01051298,-0.04342983,0.0013
 2294,-0.00008937,0.00030715,-0.00023141,-0.00000602,0.00024428,-0.0000
 7688,-0.00127575,0.00000286,-0.00049985,0.00025099,-0.00020395,0.00007
 118,-0.00001306,0.00002826,0.00001595,0.00000399,0.00000416,-0.0000005
 8,0.00000862,0.00003023,-0.00000288,0.02930683,-0.00018748,0.00326937,
 -0.00526301,-0.00116857,-0.00066569,-0.00987073,0.04703878,0.00011014,
 0.00008232,-0.00002674,0.00037405,-0.00026943,0.00010065,-0.00201569,-
 0.00026089,0.00038681,-0.00009824,0.00006335,-0.00003114,0.00002266,-0
 .00001101,-0.00016472,-0.00007707,-0.00001692,0.00005774,-0.00000189,0
 .00006056,0.00002528,0.00000502,-0.00001639,-0.00004172,0.00023320,0.0
 0007347,0.00007222,-0.00007311,0.00000073,0.00010839,-0.00000465,0.000
 07609,-0.00001617,0.00000547,-0.00000315,-0.00000464,0.00001487,-0.000
 00975,0.00001522,0.00000295,0.00007453,0.00005321,-0.00003237,-0.00002
 716,-0.00004764,-0.00001633,0.00003481,-0.00009463,-0.00000146,0.00002
 019,0.00003951,-0.00007781,0.00014586,0.00008854,0.00000597,-0.0000133
 2,0.00039059,-0.02078508,0.00171934,-0.00510366,0.00036080,-0.00388649
 ,-0.00238522,0.00011659,-0.00048999,0.00022079,0.00001342,0.00003218,0
 .00000208,0.00000488,0.00000861,0.00000803,0.00000220,0.00000289,0.000
 00539,0.00000286,0.00004541,-0.00002951,0.00000442,-0.00001715,-0.0000
 2473,-0.00014772,-0.00009776,0.00000441,0.00038258,-0.00016357,0.00005
 694,0.00023456,0.00026214,0.00006736,0.00002908,-0.00000566,-0.0000005
 5,-0.00006417,0.00000095,0.00001925,-0.00003873,0.00000972,0.00002994,
 -0.00002257,0.00001595,0.00000972,-0.00002869,0.00000395,0.00000730,0.
 00000041,0.00000693,0.00000283,-0.00002424,-0.00000419,-0.00000808,0.0
 0000962,0.00000012,-0.00000785,-0.00001048,0.00000956,0.00000063,-0.00
 000588,0.00000959,-0.00000529,0.00004033,-0.00002817,0.00006526,0.0000
 0697,0.00001023,0.00000065,-0.00001892,0.00000587,-0.00002134,0.000001
 47,-0.00002386,-0.00003385,0.00002617,-0.00000043,-0.00002739,-0.00001
 549,0.00000865,0.00001005,-0.00000799,-0.00002834,-0.00006295,0.000146
 12,-0.00010492,0.00001033,0.00056571,0.00033393,0.00075606,-0.03273030
 ,0.00133135,-0.04841070,0.00011329,-0.00007217,0.00003049,0.00001030,0
 .00008086,-0.00006707,-0.00141053,0.00004015,-0.00024541,-0.00009137,0
 .00001377,0.00016088,-0.00001289,0.00005148,0.00002531,0.00002355,0.00
 001988,0.00004464,0.00000275,0.00000071,-0.00004909,-0.01054698,0.0002
 4412,-0.00205479,0.02732982,-0.00164509,0.00483601,0.03815842,0.002295
 61,0.05125241\\0.00000377,-0.00000684,-0.00001316,0.00002010,-0.000000
 85,0.00003850,-0.00001044,-0.00001124,0.00000352,-0.00004377,0.0000229
 8,0.00002921,-0.00001347,-0.00000173,-0.00000068,0.00000206,-0.0000162
 4,-0.00000574,-0.00000236,-0.00000430,-0.00000652,-0.00000382,0.000026
 70,-0.00002178,0.00002684,0.00003295,-0.00003031,-0.00000398,0.0000044
 9,0.00001627,-0.00001060,0.00000159,0.00002160,0.00000551,-0.00000060,
 0.00001178,-0.00000079,-0.00001944,-0.00000878,0.00001048,-0.00004001,
 0.00000050,0.00001074,-0.00000100,-0.00001779,-0.00001718,0.00002708,-
 0.00001407,-0.00001196,-0.00000376,0.00001659,0.00002268,-0.00000611,0
 .00000927,-0.00000319,0.00000790,-0.00000010,-0.00000498,-0.00001522,-
 0.00002002,-0.00000052,0.00000432,-0.00000248,-0.00000177,-0.00000327,
 0.00000758,-0.00000205,-0.00000112,0.00000133,0.00000243,0.00000030,0.
 00000105,0.00000537,-0.00000509,0.00000750,-0.00000023,0.00000742,0.00
 000059,0.00000838,-0.00000778,0.00000213,-0.00001008,-0.00001116,-0.00
 000942,0.00000736,0.00000832,-0.00000369,0.00000838,0.00000182,-0.0000
 1930,0.00000355,0.00000496,-0.00000369,-0.00000747,0.00000751,-0.00000
 645,0.00000866,-0.00001332,0.00000818,0.00000957,-0.00000597,-0.000003
 19,-0.00000589,-0.00000050,0.00000534,0.00000258,-0.00000232,0.0000034
 1,0.00000095,-0.00000283,-0.00000388,0.00000363,0.00000117,0.00000139,
 -0.00000130,0.00000098,0.00000462,-0.00000258,-0.00001051,0.00000625,-
 0.00000163,0.00000114,-0.00000213,-0.00000346,-0.00000337,0.00000389,-
 0.00000277,-0.00000053,0.00000442,0.00000085,0.00000479,0.00000085,-0.
 00000070,-0.00000138,0.00000551,0.00000362,-0.00000636,0.00000359,0.00
 000142,0.00000247,-0.00000184,-0.00000790,0.00000072,-0.00001156,0.000
 00338,0.00000723,0.00000773,-0.00000312,0.00001985,0.00000755,-0.00000
 102,0.00000087,-0.00000563,0.00000071,0.00000140,-0.00000514,-0.000001
 84,0.00000449,-0.00000455,0.00000146,0.00000071,0.00000032,0.00000160,
 0.00000143,-0.00000023,0.00000320,0.00000080,-0.00000200,0.00000114,0.
 00000033,-0.00000038,0.00000346,-0.00000201,-0.00000093,-0.00000203,-0
 .00000156,-0.00000252,-0.00000099,-0.00000028,-0.00000253\\\@


 MAN IS THE MEASURE OF ALL THINGS.
  -- PROTAGORAS (5TH CENTURY B.C.)
 Job cpu time:       0 days  5 hours  5 minutes 30.1 seconds.
 File lengths (MBytes):  RWF=   2047 Int=      0 D2E=      0 Chk=     80 Scr=      1
 Normal termination of Gaussian 09 at Tue Nov 16 15:06:05 2021.
