 Entering Gaussian System, Link 0=g09
 Input=RR_Me_Ferrolane_1.com
 Output=RR_Me_Ferrolane_1.log
 Initial command:
 /gstore/apps/gaussian/g09.e01-foss-2017a/g09/l1.exe "/local/21251374/Gau-10819.inp" -scrdir="/local/21251374/"
 Entering Link 1 = /gstore/apps/gaussian/g09.e01-foss-2017a/g09/l1.exe PID=     10820.
  
 Copyright (c) 1988,1990,1992,1993,1995,1998,2003,2009,2015,
            Gaussian, Inc.  All Rights Reserved.
  
 This is part of the Gaussian(R) 09 program.  It is based on
 the Gaussian(R) 03 system (copyright 2003, Gaussian, Inc.),
 the Gaussian(R) 98 system (copyright 1998, Gaussian, Inc.),
 the Gaussian(R) 94 system (copyright 1995, Gaussian, Inc.),
 the Gaussian 92(TM) system (copyright 1992, Gaussian, Inc.),
 the Gaussian 90(TM) system (copyright 1990, Gaussian, Inc.),
 the Gaussian 88(TM) system (copyright 1988, Gaussian, Inc.),
 the Gaussian 86(TM) system (copyright 1986, Carnegie Mellon
 University), and the Gaussian 82(TM) system (copyright 1983,
 Carnegie Mellon University). Gaussian is a federally registered
 trademark of Gaussian, Inc.
  
 This software contains proprietary and confidential information,
 including trade secrets, belonging to Gaussian, Inc.
  
 This software is provided under written license and may be
 used, copied, transmitted, or stored only in accord with that
 written license.
  
 The following legend is applicable only to US Government
 contracts under FAR:
  
                    RESTRICTED RIGHTS LEGEND
  
 Use, reproduction and disclosure by the US Government is
 subject to restrictions as set forth in subparagraphs (a)
 and (c) of the Commercial Computer Software - Restricted
 Rights clause in FAR 52.227-19.
  
 Gaussian, Inc.
 340 Quinnipiac St., Bldg. 40, Wallingford CT 06492
  
  
 ---------------------------------------------------------------
 Warning -- This program may not be used in any manner that
 competes with the business of Gaussian, Inc. or will provide
 assistance to any competitor of Gaussian, Inc.  The licensee
 of this program is prohibited from giving any competitor of
 Gaussian, Inc. access to this program.  By using this program,
 the user acknowledges that Gaussian, Inc. is engaged in the
 business of creating and licensing software in the field of
 computational chemistry and represents and warrants to the
 licensee that it is not a competitor of Gaussian, Inc. and that
 it will not use this program in any manner prohibited above.
 ---------------------------------------------------------------
  

 Cite this work as:
 Gaussian 09, Revision E.01,
 M. J. Frisch, G. W. Trucks, H. B. Schlegel, G. E. Scuseria, 
 M. A. Robb, J. R. Cheeseman, G. Scalmani, V. Barone, B. Mennucci, 
 G. A. Petersson, H. Nakatsuji, M. Caricato, X. Li, H. P. Hratchian, 
 A. F. Izmaylov, J. Bloino, G. Zheng, J. L. Sonnenberg, M. Hada, 
 M. Ehara, K. Toyota, R. Fukuda, J. Hasegawa, M. Ishida, T. Nakajima, 
 Y. Honda, O. Kitao, H. Nakai, T. Vreven, J. A. Montgomery, Jr., 
 J. E. Peralta, F. Ogliaro, M. Bearpark, J. J. Heyd, E. Brothers, 
 K. N. Kudin, V. N. Staroverov, T. Keith, R. Kobayashi, J. Normand, 
 K. Raghavachari, A. Rendell, J. C. Burant, S. S. Iyengar, J. Tomasi, 
 M. Cossi, N. Rega, J. M. Millam, M. Klene, J. E. Knox, J. B. Cross, 
 V. Bakken, C. Adamo, J. Jaramillo, R. Gomperts, R. E. Stratmann, 
 O. Yazyev, A. J. Austin, R. Cammi, C. Pomelli, J. W. Ochterski, 
 R. L. Martin, K. Morokuma, V. G. Zakrzewski, G. A. Voth, 
 P. Salvador, J. J. Dannenberg, S. Dapprich, A. D. Daniels, 
 O. Farkas, J. B. Foresman, J. V. Ortiz, J. Cioslowski, 
 and D. J. Fox, Gaussian, Inc., Wallingford CT, 2013.
 
 ******************************************
 Gaussian 09:  ES64L-G09RevE.01 30-Nov-2015
                16-Nov-2021 
 ******************************************
 %nprocs=14
 Will use up to   14 processors via shared memory.
 %mem=128GB
 %chk=RR_Me_Ferrolane_1.chk
 ----------------------------------------------------------------------
 # PBEPBE gen 6D pseudo=read scf=maxcycles=500 denfit int=(grid=ultrafi
 ne) empiricaldispersion=GD3BJ opt freq=noraman
 ----------------------------------------------------------------------
 1/14=-1,18=20,19=15,26=4,38=1/1,3;
 2/9=110,12=2,17=6,18=5,40=1/2;
 3/5=7,8=2,11=2,16=1,17=8,25=1,30=1,71=1,74=1009,75=-5,82=47,124=41/1,2,3;
 4//1;
 5/5=2,7=500,38=5/2;
 6/7=2,8=2,9=2,10=2,28=1/1;
 7//1,2,3,16;
 1/14=-1,18=20,19=15,26=4/3(2);
 2/9=110/2;
 99//99;
 2/9=110/2;
 3/5=7,6=1,8=2,11=2,16=1,17=8,25=1,30=1,71=1,74=1009,75=-5,82=7,124=41/1,2,3;
 4/5=5,16=3,69=1/1;
 5/5=2,7=500,38=5/2;
 7//1,2,3,16;
 1/14=-1,18=20,19=15,26=4/3(-5);
 2/9=110/2;
 6/7=2,8=2,9=2,10=2,19=2,28=1/1;
 99/9=1/99;
 ---------------
 RR_Me_Ferrolane
 ---------------
 Symbolic Z-matrix:
 Charge =  0 Multiplicity = 1
 Fe                   -0.0402    2.6358    0.039 
 P                    -1.8087   -0.299     0.042 
 P                     1.801    -0.2608    0.0205 
 C                    -1.5425    1.4539   -0.5907 
 C                    -0.7081    1.8083   -1.7017 
 C                    -0.6919    3.2317   -1.837 
 C                    -1.5398    3.7766   -0.8243 
 C                    -2.0763    2.6851   -0.0674 
 C                     1.4896    1.4811    0.6599 
 C                     1.9972    2.7281    0.1477 
 C                     1.4344    3.8017    0.9113 
 C                     0.5987    3.2305    1.9197 
 C                     0.6459    1.809     1.7723 
 C                    -3.3188   -0.8098   -0.8603 
 C                    -4.4228   -0.1296   -0.0463 
 C                    -2.5768   -0.0858    1.6917 
 C                    -4.0871   -0.2826    1.4487 
 C                     3.3194   -0.7423    0.9248 
 C                     4.4106   -0.0366    0.1151 
 C                     2.5677   -0.0204   -1.626 
 C                     4.0807   -0.1912   -1.3811 
 H                    -0.1391    1.1172   -2.3042 
 H                    -0.1097    3.7956   -2.5517 
 H                    -1.7142    4.8265   -0.6368 
 H                    -2.7318    2.7824    0.7853 
 H                     2.6516    2.8467   -0.7033 
 H                     0.095     1.1007    2.3716 
 Cl                   -1.5681   -3.6271    0.0387 
 Cl                    1.6328   -3.592    -0.0049 
 Pd                    0.0137   -1.9055    0.024 
 H                    -3.4484   -1.8882   -0.783 
 C                    -3.2888   -0.4293   -2.3464 
 H                    -2.3998    0.9226    2.0624 
 C                    -1.9842   -1.0879    2.6902 
 H                    -5.4034   -0.5461   -0.2788 
 H                    -4.4634    0.931    -0.2994 
 H                    -4.677     0.4055    2.0549 
 H                    -4.378    -1.2876    1.758 
 H                     1.5862    4.8566    0.7325 
 H                     0.0042    3.7757    2.6387 
 H                    -2.4116   -0.8472   -2.84 
 H                    -3.2716    0.6512   -2.4917 
 H                    -4.1712   -0.8102   -2.8603 
 H                    -0.9054   -0.9674    2.7874 
 H                    -2.176    -2.1174    2.388 
 H                    -2.4204   -0.9524    3.6803 
 H                     3.4714   -1.8177    0.8448 
 C                     3.2782   -0.3665    2.4118 
 H                     2.3728    0.9876   -1.9889 
 C                     1.9956   -1.0247   -2.6342 
 H                     5.3992   -0.4337    0.3479 
 H                     4.4286    1.0237    0.3719 
 H                     4.6594    0.5092   -1.9842 
 H                     4.3899   -1.19     -1.6927 
 H                     3.2374    0.713     2.5596 
 H                     4.1674   -0.7297    2.9266 
 H                     2.4091   -0.8044    2.9024 
 H                     2.206    -2.053    -2.3406 
 H                     2.4308   -0.8724   -3.6222 
 H                     0.9148   -0.9233   -2.7322 
 

 GradGradGradGradGradGradGradGradGradGradGradGradGradGradGradGradGradGrad
 Berny optimization.
 Initialization pass.
                           ----------------------------
                           !    Initial Parameters    !
                           ! (Angstroms and Degrees)  !
 --------------------------                            --------------------------
 ! Name  Definition              Value          Derivative Info.                !
 --------------------------------------------------------------------------------
 ! R1    R(1,4)                  2.0125         estimate D2E/DX2                !
 ! R2    R(1,5)                  2.0398         estimate D2E/DX2                !
 ! R3    R(1,6)                  2.0734         estimate D2E/DX2                !
 ! R4    R(1,7)                  2.0726         estimate D2E/DX2                !
 ! R5    R(1,8)                  2.0395         estimate D2E/DX2                !
 ! R6    R(1,9)                  2.0147         estimate D2E/DX2                !
 ! R7    R(1,10)                 2.0424         estimate D2E/DX2                !
 ! R8    R(1,11)                 2.0724         estimate D2E/DX2                !
 ! R9    R(1,12)                 2.0734         estimate D2E/DX2                !
 ! R10   R(1,13)                 2.0393         estimate D2E/DX2                !
 ! R11   R(2,4)                  1.8825         estimate D2E/DX2                !
 ! R12   R(2,14)                 1.8318         estimate D2E/DX2                !
 ! R13   R(2,16)                 1.8322         estimate D2E/DX2                !
 ! R14   R(2,30)                 2.4295         estimate D2E/DX2                !
 ! R15   R(3,9)                  1.8815         estimate D2E/DX2                !
 ! R16   R(3,18)                 1.8317         estimate D2E/DX2                !
 ! R17   R(3,20)                 1.8321         estimate D2E/DX2                !
 ! R18   R(3,30)                 2.4289         estimate D2E/DX2                !
 ! R19   R(4,5)                  1.4339         estimate D2E/DX2                !
 ! R20   R(4,8)                  1.4404         estimate D2E/DX2                !
 ! R21   R(5,6)                  1.4299         estimate D2E/DX2                !
 ! R22   R(5,22)                 1.0791         estimate D2E/DX2                !
 ! R23   R(6,7)                  1.4288         estimate D2E/DX2                !
 ! R24   R(6,23)                 1.0806         estimate D2E/DX2                !
 ! R25   R(7,8)                  1.4325         estimate D2E/DX2                !
 ! R26   R(7,24)                 1.0807         estimate D2E/DX2                !
 ! R27   R(8,25)                 1.0799         estimate D2E/DX2                !
 ! R28   R(9,10)                 1.4405         estimate D2E/DX2                !
 ! R29   R(9,13)                 1.4341         estimate D2E/DX2                !
 ! R30   R(10,11)                1.4326         estimate D2E/DX2                !
 ! R31   R(10,26)                1.08           estimate D2E/DX2                !
 ! R32   R(11,12)                1.4288         estimate D2E/DX2                !
 ! R33   R(11,39)                1.0807         estimate D2E/DX2                !
 ! R34   R(12,13)                1.4299         estimate D2E/DX2                !
 ! R35   R(12,40)                1.0806         estimate D2E/DX2                !
 ! R36   R(13,27)                1.079          estimate D2E/DX2                !
 ! R37   R(14,15)                1.531          estimate D2E/DX2                !
 ! R38   R(14,31)                1.0889         estimate D2E/DX2                !
 ! R39   R(14,32)                1.5343         estimate D2E/DX2                !
 ! R40   R(15,17)                1.5398         estimate D2E/DX2                !
 ! R41   R(15,35)                1.0905         estimate D2E/DX2                !
 ! R42   R(15,36)                1.0911         estimate D2E/DX2                !
 ! R43   R(16,17)                1.5423         estimate D2E/DX2                !
 ! R44   R(16,33)                1.0889         estimate D2E/DX2                !
 ! R45   R(16,34)                1.5337         estimate D2E/DX2                !
 ! R46   R(17,37)                1.0904         estimate D2E/DX2                !
 ! R47   R(17,38)                1.091          estimate D2E/DX2                !
 ! R48   R(18,19)                1.5311         estimate D2E/DX2                !
 ! R49   R(18,47)                1.089          estimate D2E/DX2                !
 ! R50   R(18,48)                1.5343         estimate D2E/DX2                !
 ! R51   R(19,21)                1.5399         estimate D2E/DX2                !
 ! R52   R(19,51)                1.0905         estimate D2E/DX2                !
 ! R53   R(19,52)                1.0911         estimate D2E/DX2                !
 ! R54   R(20,21)                1.5422         estimate D2E/DX2                !
 ! R55   R(20,49)                1.0889         estimate D2E/DX2                !
 ! R56   R(20,50)                1.5337         estimate D2E/DX2                !
 ! R57   R(21,53)                1.0905         estimate D2E/DX2                !
 ! R58   R(21,54)                1.091          estimate D2E/DX2                !
 ! R59   R(28,30)                2.338          estimate D2E/DX2                !
 ! R60   R(29,30)                2.3381         estimate D2E/DX2                !
 ! R61   R(32,41)                1.0898         estimate D2E/DX2                !
 ! R62   R(32,42)                1.0904         estimate D2E/DX2                !
 ! R63   R(32,43)                1.0899         estimate D2E/DX2                !
 ! R64   R(34,44)                1.0899         estimate D2E/DX2                !
 ! R65   R(34,45)                1.0899         estimate D2E/DX2                !
 ! R66   R(34,46)                1.0904         estimate D2E/DX2                !
 ! R67   R(48,55)                1.0903         estimate D2E/DX2                !
 ! R68   R(48,56)                1.0898         estimate D2E/DX2                !
 ! R69   R(48,57)                1.0899         estimate D2E/DX2                !
 ! R70   R(50,58)                1.0899         estimate D2E/DX2                !
 ! R71   R(50,59)                1.0903         estimate D2E/DX2                !
 ! R72   R(50,60)                1.09           estimate D2E/DX2                !
 ! A1    A(4,1,6)               69.5778         estimate D2E/DX2                !
 ! A2    A(4,1,7)               69.6846         estimate D2E/DX2                !
 ! A3    A(4,1,9)              109.0653         estimate D2E/DX2                !
 ! A4    A(4,1,10)             141.9842         estimate D2E/DX2                !
 ! A5    A(4,1,12)             133.0218         estimate D2E/DX2                !
 ! A6    A(4,1,13)             106.1997         estimate D2E/DX2                !
 ! A7    A(5,1,7)               68.3415         estimate D2E/DX2                !
 ! A8    A(5,1,8)               68.8014         estimate D2E/DX2                !
 ! A9    A(5,1,9)              106.2068         estimate D2E/DX2                !
 ! A10   A(5,1,10)             112.9783         estimate D2E/DX2                !
 ! A11   A(5,1,11)             145.1259         estimate D2E/DX2                !
 ! A12   A(5,1,13)             132.1446         estimate D2E/DX2                !
 ! A13   A(6,1,8)               68.4116         estimate D2E/DX2                !
 ! A14   A(6,1,9)              133.0161         estimate D2E/DX2                !
 ! A15   A(6,1,10)             110.4082         estimate D2E/DX2                !
 ! A16   A(6,1,11)             116.2825         estimate D2E/DX2                !
 ! A17   A(6,1,12)             146.6276         estimate D2E/DX2                !
 ! A18   A(7,1,10)             135.9783         estimate D2E/DX2                !
 ! A19   A(7,1,11)             112.365          estimate D2E/DX2                !
 ! A20   A(7,1,12)             116.2896         estimate D2E/DX2                !
 ! A21   A(7,1,13)             145.1486         estimate D2E/DX2                !
 ! A22   A(8,1,9)              141.9975         estimate D2E/DX2                !
 ! A23   A(8,1,11)             135.9505         estimate D2E/DX2                !
 ! A24   A(8,1,12)             110.3665         estimate D2E/DX2                !
 ! A25   A(8,1,13)             112.9563         estimate D2E/DX2                !
 ! A26   A(9,1,11)              69.6613         estimate D2E/DX2                !
 ! A27   A(9,1,12)              69.5659         estimate D2E/DX2                !
 ! A28   A(10,1,12)             68.3688         estimate D2E/DX2                !
 ! A29   A(10,1,13)             68.744          estimate D2E/DX2                !
 ! A30   A(11,1,13)             68.342          estimate D2E/DX2                !
 ! A31   A(4,2,14)             102.1619         estimate D2E/DX2                !
 ! A32   A(4,2,16)             104.6875         estimate D2E/DX2                !
 ! A33   A(4,2,30)             120.4753         estimate D2E/DX2                !
 ! A34   A(14,2,16)             97.4905         estimate D2E/DX2                !
 ! A35   A(14,2,30)            115.4896         estimate D2E/DX2                !
 ! A36   A(16,2,30)            113.4586         estimate D2E/DX2                !
 ! A37   A(9,3,18)             102.2859         estimate D2E/DX2                !
 ! A38   A(9,3,20)             104.6664         estimate D2E/DX2                !
 ! A39   A(9,3,30)             120.3064         estimate D2E/DX2                !
 ! A40   A(18,3,20)             97.543          estimate D2E/DX2                !
 ! A41   A(18,3,30)            115.5486         estimate D2E/DX2                !
 ! A42   A(20,3,30)            113.4587         estimate D2E/DX2                !
 ! A43   A(1,4,2)              123.1773         estimate D2E/DX2                !
 ! A44   A(2,4,5)              124.9476         estimate D2E/DX2                !
 ! A45   A(2,4,8)              128.4201         estimate D2E/DX2                !
 ! A46   A(5,4,8)              106.6116         estimate D2E/DX2                !
 ! A47   A(1,5,22)             124.3076         estimate D2E/DX2                !
 ! A48   A(4,5,6)              109.0222         estimate D2E/DX2                !
 ! A49   A(4,5,22)             125.5319         estimate D2E/DX2                !
 ! A50   A(6,5,22)             125.3619         estimate D2E/DX2                !
 ! A51   A(1,6,23)             125.3826         estimate D2E/DX2                !
 ! A52   A(5,6,7)              107.8092         estimate D2E/DX2                !
 ! A53   A(5,6,23)             126.0252         estimate D2E/DX2                !
 ! A54   A(7,6,23)             126.1209         estimate D2E/DX2                !
 ! A55   A(1,7,24)             125.3979         estimate D2E/DX2                !
 ! A56   A(6,7,8)              107.8285         estimate D2E/DX2                !
 ! A57   A(6,7,24)             126.1045         estimate D2E/DX2                !
 ! A58   A(8,7,24)             126.0247         estimate D2E/DX2                !
 ! A59   A(1,8,25)             124.5389         estimate D2E/DX2                !
 ! A60   A(4,8,7)              108.6957         estimate D2E/DX2                !
 ! A61   A(4,8,25)             126.0742         estimate D2E/DX2                !
 ! A62   A(7,8,25)             125.1607         estimate D2E/DX2                !
 ! A63   A(1,9,3)              123.4732         estimate D2E/DX2                !
 ! A64   A(3,9,10)             128.4837         estimate D2E/DX2                !
 ! A65   A(3,9,13)             124.9342         estimate D2E/DX2                !
 ! A66   A(10,9,13)            106.5695         estimate D2E/DX2                !
 ! A67   A(1,10,26)            124.5724         estimate D2E/DX2                !
 ! A68   A(9,10,11)            108.7099         estimate D2E/DX2                !
 ! A69   A(9,10,26)            126.0671         estimate D2E/DX2                !
 ! A70   A(11,10,26)           125.1487         estimate D2E/DX2                !
 ! A71   A(1,11,39)            125.4149         estimate D2E/DX2                !
 ! A72   A(10,11,12)           107.8398         estimate D2E/DX2                !
 ! A73   A(10,11,39)           126.0261         estimate D2E/DX2                !
 ! A74   A(12,11,39)           126.0981         estimate D2E/DX2                !
 ! A75   A(1,12,40)            125.362          estimate D2E/DX2                !
 ! A76   A(11,12,13)           107.7799         estimate D2E/DX2                !
 ! A77   A(11,12,40)           126.1348         estimate D2E/DX2                !
 ! A78   A(13,12,40)           126.039          estimate D2E/DX2                !
 ! A79   A(1,13,27)            124.5017         estimate D2E/DX2                !
 ! A80   A(9,13,12)            109.0668         estimate D2E/DX2                !
 ! A81   A(9,13,27)            125.5254         estimate D2E/DX2                !
 ! A82   A(12,13,27)           125.3417         estimate D2E/DX2                !
 ! A83   A(2,14,15)            102.0446         estimate D2E/DX2                !
 ! A84   A(2,14,31)            109.8349         estimate D2E/DX2                !
 ! A85   A(2,14,32)            113.0679         estimate D2E/DX2                !
 ! A86   A(15,14,31)           108.4467         estimate D2E/DX2                !
 ! A87   A(15,14,32)           114.7636         estimate D2E/DX2                !
 ! A88   A(31,14,32)           108.4624         estimate D2E/DX2                !
 ! A89   A(14,15,17)           108.3509         estimate D2E/DX2                !
 ! A90   A(14,15,35)           111.4313         estimate D2E/DX2                !
 ! A91   A(14,15,36)           109.5935         estimate D2E/DX2                !
 ! A92   A(17,15,35)           111.4136         estimate D2E/DX2                !
 ! A93   A(17,15,36)           109.2625         estimate D2E/DX2                !
 ! A94   A(35,15,36)           106.7587         estimate D2E/DX2                !
 ! A95   A(2,16,17)            104.703          estimate D2E/DX2                !
 ! A96   A(2,16,33)            110.2523         estimate D2E/DX2                !
 ! A97   A(2,16,34)            110.3754         estimate D2E/DX2                !
 ! A98   A(17,16,33)           109.3288         estimate D2E/DX2                !
 ! A99   A(17,16,34)           113.4252         estimate D2E/DX2                !
 ! A100  A(33,16,34)           108.7017         estimate D2E/DX2                !
 ! A101  A(15,17,16)           110.7179         estimate D2E/DX2                !
 ! A102  A(15,17,37)           111.0457         estimate D2E/DX2                !
 ! A103  A(15,17,38)           107.9773         estimate D2E/DX2                !
 ! A104  A(16,17,37)           111.2016         estimate D2E/DX2                !
 ! A105  A(16,17,38)           109.5098         estimate D2E/DX2                !
 ! A106  A(37,17,38)           106.2274         estimate D2E/DX2                !
 ! A107  A(3,18,19)            102.037          estimate D2E/DX2                !
 ! A108  A(3,18,47)            109.8168         estimate D2E/DX2                !
 ! A109  A(3,18,48)            113.0682         estimate D2E/DX2                !
 ! A110  A(19,18,47)           108.4704         estimate D2E/DX2                !
 ! A111  A(19,18,48)           114.7569         estimate D2E/DX2                !
 ! A112  A(47,18,48)           108.47           estimate D2E/DX2                !
 ! A113  A(18,19,21)           108.3525         estimate D2E/DX2                !
 ! A114  A(18,19,51)           111.4291         estimate D2E/DX2                !
 ! A115  A(18,19,52)           109.5838         estimate D2E/DX2                !
 ! A116  A(21,19,51)           111.4119         estimate D2E/DX2                !
 ! A117  A(21,19,52)           109.2549         estimate D2E/DX2                !
 ! A118  A(51,19,52)           106.7779         estimate D2E/DX2                !
 ! A119  A(3,20,21)            104.6739         estimate D2E/DX2                !
 ! A120  A(3,20,49)            110.247          estimate D2E/DX2                !
 ! A121  A(3,20,50)            110.41           estimate D2E/DX2                !
 ! A122  A(21,20,49)           109.3321         estimate D2E/DX2                !
 ! A123  A(21,20,50)           113.4417         estimate D2E/DX2                !
 ! A124  A(49,20,50)           108.6816         estimate D2E/DX2                !
 ! A125  A(19,21,20)           110.6925         estimate D2E/DX2                !
 ! A126  A(19,21,53)           111.0499         estimate D2E/DX2                !
 ! A127  A(19,21,54)           107.9805         estimate D2E/DX2                !
 ! A128  A(20,21,53)           111.2032         estimate D2E/DX2                !
 ! A129  A(20,21,54)           109.5167         estimate D2E/DX2                !
 ! A130  A(53,21,54)           106.2387         estimate D2E/DX2                !
 ! A131  A(2,30,3)              95.9826         estimate D2E/DX2                !
 ! A132  A(2,30,28)             88.8178         estimate D2E/DX2                !
 ! A133  A(3,30,29)             88.7879         estimate D2E/DX2                !
 ! A134  A(28,30,29)            86.4134         estimate D2E/DX2                !
 ! A135  A(14,32,41)           111.0583         estimate D2E/DX2                !
 ! A136  A(14,32,42)           112.0321         estimate D2E/DX2                !
 ! A137  A(14,32,43)           110.7446         estimate D2E/DX2                !
 ! A138  A(41,32,42)           107.8743         estimate D2E/DX2                !
 ! A139  A(41,32,43)           107.7039         estimate D2E/DX2                !
 ! A140  A(42,32,43)           107.2336         estimate D2E/DX2                !
 ! A141  A(16,34,44)           111.6095         estimate D2E/DX2                !
 ! A142  A(16,34,45)           111.6317         estimate D2E/DX2                !
 ! A143  A(16,34,46)           110.8172         estimate D2E/DX2                !
 ! A144  A(44,34,45)           107.6589         estimate D2E/DX2                !
 ! A145  A(44,34,46)           107.5335         estimate D2E/DX2                !
 ! A146  A(45,34,46)           107.3821         estimate D2E/DX2                !
 ! A147  A(18,48,55)           112.0168         estimate D2E/DX2                !
 ! A148  A(18,48,56)           110.7497         estimate D2E/DX2                !
 ! A149  A(18,48,57)           111.0556         estimate D2E/DX2                !
 ! A150  A(55,48,56)           107.2454         estimate D2E/DX2                !
 ! A151  A(55,48,57)           107.8752         estimate D2E/DX2                !
 ! A152  A(56,48,57)           107.705          estimate D2E/DX2                !
 ! A153  A(20,50,58)           111.6361         estimate D2E/DX2                !
 ! A154  A(20,50,59)           110.8127         estimate D2E/DX2                !
 ! A155  A(20,50,60)           111.5959         estimate D2E/DX2                !
 ! A156  A(58,50,59)           107.3883         estimate D2E/DX2                !
 ! A157  A(58,50,60)           107.663          estimate D2E/DX2                !
 ! A158  A(59,50,60)           107.5377         estimate D2E/DX2                !
 ! A159  L(4,1,11,6,-1)        185.8603         estimate D2E/DX2                !
 ! A160  L(5,1,12,7,-1)        184.6311         estimate D2E/DX2                !
 ! A161  L(6,1,13,4,-1)        175.7774         estimate D2E/DX2                !
 ! A162  L(7,1,9,4,-1)         178.7499         estimate D2E/DX2                !
 ! A163  L(8,1,10,5,-1)        181.7796         estimate D2E/DX2                !
 ! A164  L(2,30,29,28,-1)      175.2313         estimate D2E/DX2                !
 ! A165  L(3,30,28,29,-1)      175.2013         estimate D2E/DX2                !
 ! A166  L(4,1,11,6,-2)        176.5496         estimate D2E/DX2                !
 ! A167  L(5,1,12,7,-2)        173.458          estimate D2E/DX2                !
 ! A168  L(6,1,13,4,-2)        173.3802         estimate D2E/DX2                !
 ! A169  L(7,1,9,4,-2)         173.041          estimate D2E/DX2                !
 ! A170  L(8,1,10,5,-2)        176.1627         estimate D2E/DX2                !
 ! A171  L(2,30,29,28,-2)      179.685          estimate D2E/DX2                !
 ! A172  L(3,30,28,29,-2)      179.6622         estimate D2E/DX2                !
 ! D1    D(6,1,4,2)            156.2964         estimate D2E/DX2                !
 ! D2    D(7,1,4,2)           -160.5683         estimate D2E/DX2                !
 ! D3    D(9,1,4,2)             26.3907         estimate D2E/DX2                !
 ! D4    D(10,1,4,2)            58.9501         estimate D2E/DX2                !
 ! D5    D(12,1,4,2)           -53.0804         estimate D2E/DX2                !
 ! D6    D(13,1,4,2)           -17.0839         estimate D2E/DX2                !
 ! D7    D(2,4,11,39)         -170.2251         estimate D2E/DX2                !
 ! D8    D(7,1,5,22)           157.547          estimate D2E/DX2                !
 ! D9    D(8,1,5,22)          -158.5117         estimate D2E/DX2                !
 ! D10   D(9,1,5,22)           -18.3888         estimate D2E/DX2                !
 ! D11   D(10,1,5,22)           25.3256         estimate D2E/DX2                !
 ! D12   D(11,1,5,22)           59.1377         estimate D2E/DX2                !
 ! D13   D(13,1,5,22)          -56.2008         estimate D2E/DX2                !
 ! D14   D(22,5,12,40)        -168.3186         estimate D2E/DX2                !
 ! D15   D(4,1,6,23)          -157.0795         estimate D2E/DX2                !
 ! D16   D(8,1,6,23)           158.1813         estimate D2E/DX2                !
 ! D17   D(9,1,6,23)           -59.6501         estimate D2E/DX2                !
 ! D18   D(10,1,6,23)          -17.7518         estimate D2E/DX2                !
 ! D19   D(11,1,6,23)           26.3709         estimate D2E/DX2                !
 ! D20   D(12,1,6,23)           63.6112         estimate D2E/DX2                !
 ! D21   D(23,6,13,27)        -168.3055         estimate D2E/DX2                !
 ! D22   D(4,1,7,24)           157.3476         estimate D2E/DX2                !
 ! D23   D(5,1,7,24)          -158.1396         estimate D2E/DX2                !
 ! D24   D(10,1,7,24)          -56.9812         estimate D2E/DX2                !
 ! D25   D(11,1,7,24)          -15.8475         estimate D2E/DX2                !
 ! D26   D(12,1,7,24)           28.4024         estimate D2E/DX2                !
 ! D27   D(13,1,7,24)           67.9815         estimate D2E/DX2                !
 ! D28   D(24,7,9,3)          -170.2545         estimate D2E/DX2                !
 ! D29   D(5,1,8,25)           158.9237         estimate D2E/DX2                !
 ! D30   D(6,1,8,25)          -157.2436         estimate D2E/DX2                !
 ! D31   D(9,1,8,25)            69.5057         estimate D2E/DX2                !
 ! D32   D(11,1,8,25)          -51.2302         estimate D2E/DX2                !
 ! D33   D(12,1,8,25)          -13.0392         estimate D2E/DX2                !
 ! D34   D(13,1,8,25)           30.8027         estimate D2E/DX2                !
 ! D35   D(25,8,10,26)        -166.0941         estimate D2E/DX2                !
 ! D36   D(4,1,9,3)             26.3225         estimate D2E/DX2                !
 ! D37   D(5,1,9,3)            -17.1636         estimate D2E/DX2                !
 ! D38   D(6,1,9,3)            -53.1639         estimate D2E/DX2                !
 ! D39   D(8,1,9,3)             58.9722         estimate D2E/DX2                !
 ! D40   D(11,1,9,3)          -160.6224         estimate D2E/DX2                !
 ! D41   D(12,1,9,3)           156.2327         estimate D2E/DX2                !
 ! D42   D(4,1,10,26)           69.5939         estimate D2E/DX2                !
 ! D43   D(5,1,10,26)           30.8276         estimate D2E/DX2                !
 ! D44   D(6,1,10,26)          -13.0194         estimate D2E/DX2                !
 ! D45   D(7,1,10,26)          -51.2341         estimate D2E/DX2                !
 ! D46   D(12,1,10,26)        -157.2134         estimate D2E/DX2                !
 ! D47   D(13,1,10,26)         158.9316         estimate D2E/DX2                !
 ! D48   D(5,1,11,39)           67.9924         estimate D2E/DX2                !
 ! D49   D(6,1,11,39)           28.4149         estimate D2E/DX2                !
 ! D50   D(7,1,11,39)          -15.8299         estimate D2E/DX2                !
 ! D51   D(8,1,11,39)          -57.0142         estimate D2E/DX2                !
 ! D52   D(9,1,11,39)          157.3464         estimate D2E/DX2                !
 ! D53   D(13,1,11,39)        -158.1467         estimate D2E/DX2                !
 ! D54   D(4,1,12,40)          -59.673          estimate D2E/DX2                !
 ! D55   D(6,1,12,40)           63.6351         estimate D2E/DX2                !
 ! D56   D(7,1,12,40)           26.3903         estimate D2E/DX2                !
 ! D57   D(8,1,12,40)          -17.7442         estimate D2E/DX2                !
 ! D58   D(9,1,12,40)         -157.0904         estimate D2E/DX2                !
 ! D59   D(10,1,12,40)         158.2181         estimate D2E/DX2                !
 ! D60   D(4,1,13,27)          -18.4196         estimate D2E/DX2                !
 ! D61   D(5,1,13,27)          -56.2382         estimate D2E/DX2                !
 ! D62   D(7,1,13,27)           59.1373         estimate D2E/DX2                !
 ! D63   D(8,1,13,27)           25.3486         estimate D2E/DX2                !
 ! D64   D(10,1,13,27)        -158.5307         estimate D2E/DX2                !
 ! D65   D(11,1,13,27)         157.5429         estimate D2E/DX2                !
 ! D66   D(14,2,4,1)           178.6606         estimate D2E/DX2                !
 ! D67   D(14,2,4,5)           -93.3125         estimate D2E/DX2                !
 ! D68   D(14,2,4,8)            88.5696         estimate D2E/DX2                !
 ! D69   D(16,2,4,1)            77.454          estimate D2E/DX2                !
 ! D70   D(16,2,4,5)           165.4809         estimate D2E/DX2                !
 ! D71   D(16,2,4,8)           -12.637          estimate D2E/DX2                !
 ! D72   D(30,2,4,1)           -51.7251         estimate D2E/DX2                !
 ! D73   D(30,2,4,5)            36.3018         estimate D2E/DX2                !
 ! D74   D(30,2,4,8)          -141.816          estimate D2E/DX2                !
 ! D75   D(4,2,14,15)          -79.3312         estimate D2E/DX2                !
 ! D76   D(4,2,14,31)          165.7764         estimate D2E/DX2                !
 ! D77   D(4,2,14,32)           44.4757         estimate D2E/DX2                !
 ! D78   D(16,2,14,15)          27.523          estimate D2E/DX2                !
 ! D79   D(16,2,14,31)         -87.3694         estimate D2E/DX2                !
 ! D80   D(16,2,14,32)         151.3299         estimate D2E/DX2                !
 ! D81   D(30,2,14,15)         148.0201         estimate D2E/DX2                !
 ! D82   D(30,2,14,31)          33.1277         estimate D2E/DX2                !
 ! D83   D(30,2,14,32)         -88.173          estimate D2E/DX2                !
 ! D84   D(4,2,16,17)           98.6041         estimate D2E/DX2                !
 ! D85   D(4,2,16,33)          -18.8837         estimate D2E/DX2                !
 ! D86   D(4,2,16,34)         -138.9908         estimate D2E/DX2                !
 ! D87   D(14,2,16,17)          -6.1179         estimate D2E/DX2                !
 ! D88   D(14,2,16,33)        -123.6057         estimate D2E/DX2                !
 ! D89   D(14,2,16,34)         116.2871         estimate D2E/DX2                !
 ! D90   D(30,2,16,17)        -128.138          estimate D2E/DX2                !
 ! D91   D(30,2,16,33)         114.3742         estimate D2E/DX2                !
 ! D92   D(30,2,16,34)          -5.7329         estimate D2E/DX2                !
 ! D93   D(4,2,30,3)            23.1863         estimate D2E/DX2                !
 ! D94   D(4,2,30,28)         -157.1267         estimate D2E/DX2                !
 ! D95   D(14,2,30,3)          146.6465         estimate D2E/DX2                !
 ! D96   D(14,2,30,28)         -33.6665         estimate D2E/DX2                !
 ! D97   D(16,2,30,3)         -101.9878         estimate D2E/DX2                !
 ! D98   D(16,2,30,28)          77.6992         estimate D2E/DX2                !
 ! D99   D(18,3,9,1)           178.8395         estimate D2E/DX2                !
 ! D100  D(18,3,9,10)           88.3952         estimate D2E/DX2                !
 ! D101  D(18,3,9,13)          -93.0761         estimate D2E/DX2                !
 ! D102  D(20,3,9,1)            77.544          estimate D2E/DX2                !
 ! D103  D(20,3,9,10)          -12.9002         estimate D2E/DX2                !
 ! D104  D(20,3,9,13)          165.6284         estimate D2E/DX2                !
 ! D105  D(30,3,9,1)           -51.4772         estimate D2E/DX2                !
 ! D106  D(30,3,9,10)         -141.9214         estimate D2E/DX2                !
 ! D107  D(30,3,9,13)           36.6072         estimate D2E/DX2                !
 ! D108  D(9,3,18,19)          -79.5446         estimate D2E/DX2                !
 ! D109  D(9,3,18,47)          165.5471         estimate D2E/DX2                !
 ! D110  D(9,3,18,48)           44.2494         estimate D2E/DX2                !
 ! D111  D(20,3,18,19)          27.3268         estimate D2E/DX2                !
 ! D112  D(20,3,18,47)         -87.5815         estimate D2E/DX2                !
 ! D113  D(20,3,18,48)         151.1208         estimate D2E/DX2                !
 ! D114  D(30,3,18,19)         147.8827         estimate D2E/DX2                !
 ! D115  D(30,3,18,47)          32.9745         estimate D2E/DX2                !
 ! D116  D(30,3,18,48)         -88.3233         estimate D2E/DX2                !
 ! D117  D(9,3,20,21)           99.0251         estimate D2E/DX2                !
 ! D118  D(9,3,20,49)          -18.4479         estimate D2E/DX2                !
 ! D119  D(9,3,20,50)         -138.5488         estimate D2E/DX2                !
 ! D120  D(18,3,20,21)          -5.8393         estimate D2E/DX2                !
 ! D121  D(18,3,20,49)        -123.3123         estimate D2E/DX2                !
 ! D122  D(18,3,20,50)         116.5868         estimate D2E/DX2                !
 ! D123  D(30,3,20,21)        -127.9597         estimate D2E/DX2                !
 ! D124  D(30,3,20,49)         114.5672         estimate D2E/DX2                !
 ! D125  D(30,3,20,50)          -5.5336         estimate D2E/DX2                !
 ! D126  D(9,3,30,2)            22.8149         estimate D2E/DX2                !
 ! D127  D(9,3,30,29)         -157.4735         estimate D2E/DX2                !
 ! D128  D(18,3,30,2)          146.3596         estimate D2E/DX2                !
 ! D129  D(18,3,30,29)         -33.9289         estimate D2E/DX2                !
 ! D130  D(20,3,30,2)         -102.1686         estimate D2E/DX2                !
 ! D131  D(20,3,30,29)          77.543          estimate D2E/DX2                !
 ! D132  D(2,4,5,6)           -176.6791         estimate D2E/DX2                !
 ! D133  D(2,4,5,22)             0.1274         estimate D2E/DX2                !
 ! D134  D(8,4,5,6)              1.7822         estimate D2E/DX2                !
 ! D135  D(8,4,5,22)           178.5886         estimate D2E/DX2                !
 ! D136  D(2,4,8,7)            176.6123         estimate D2E/DX2                !
 ! D137  D(2,4,8,25)            -0.4716         estimate D2E/DX2                !
 ! D138  D(5,4,8,7)             -1.7778         estimate D2E/DX2                !
 ! D139  D(5,4,8,25)          -178.8617         estimate D2E/DX2                !
 ! D140  D(4,5,6,7)             -1.1201         estimate D2E/DX2                !
 ! D141  D(4,5,6,23)           176.5634         estimate D2E/DX2                !
 ! D142  D(22,5,6,7)          -177.9333         estimate D2E/DX2                !
 ! D143  D(22,5,6,23)           -0.2498         estimate D2E/DX2                !
 ! D144  D(5,6,7,8)             -0.0007         estimate D2E/DX2                !
 ! D145  D(5,6,7,24)           177.7418         estimate D2E/DX2                !
 ! D146  D(23,6,7,8)          -177.6814         estimate D2E/DX2                !
 ! D147  D(23,6,7,24)            0.0611         estimate D2E/DX2                !
 ! D148  D(6,7,8,4)              1.1141         estimate D2E/DX2                !
 ! D149  D(6,7,8,25)           178.2311         estimate D2E/DX2                !
 ! D150  D(24,7,8,4)          -176.6307         estimate D2E/DX2                !
 ! D151  D(24,7,8,25)            0.4863         estimate D2E/DX2                !
 ! D152  D(3,9,10,11)          176.8858         estimate D2E/DX2                !
 ! D153  D(3,9,10,26)           -0.0975         estimate D2E/DX2                !
 ! D154  D(13,9,10,11)          -1.8557         estimate D2E/DX2                !
 ! D155  D(13,9,10,26)        -178.8391         estimate D2E/DX2                !
 ! D156  D(3,9,13,12)         -177.0391         estimate D2E/DX2                !
 ! D157  D(3,9,13,27)            0.1279         estimate D2E/DX2                !
 ! D158  D(10,9,13,12)           1.7593         estimate D2E/DX2                !
 ! D159  D(10,9,13,27)         178.9263         estimate D2E/DX2                !
 ! D160  D(9,10,11,12)           1.2646         estimate D2E/DX2                !
 ! D161  D(9,10,11,39)        -176.6545         estimate D2E/DX2                !
 ! D162  D(26,10,11,12)        178.2824         estimate D2E/DX2                !
 ! D163  D(26,10,11,39)          0.3634         estimate D2E/DX2                !
 ! D164  D(10,11,12,13)         -0.1635         estimate D2E/DX2                !
 ! D165  D(10,11,12,40)       -177.8031         estimate D2E/DX2                !
 ! D166  D(39,11,12,13)        177.7537         estimate D2E/DX2                !
 ! D167  D(39,11,12,40)          0.1141         estimate D2E/DX2                !
 ! D168  D(11,12,13,9)          -1.0049         estimate D2E/DX2                !
 ! D169  D(11,12,13,27)       -178.1784         estimate D2E/DX2                !
 ! D170  D(40,12,13,9)         176.6376         estimate D2E/DX2                !
 ! D171  D(40,12,13,27)         -0.5359         estimate D2E/DX2                !
 ! D172  D(2,14,15,17)         -41.4323         estimate D2E/DX2                !
 ! D173  D(2,14,15,35)        -164.35           estimate D2E/DX2                !
 ! D174  D(2,14,15,36)          77.7117         estimate D2E/DX2                !
 ! D175  D(31,14,15,17)         74.4748         estimate D2E/DX2                !
 ! D176  D(31,14,15,35)        -48.4429         estimate D2E/DX2                !
 ! D177  D(31,14,15,36)       -166.3812         estimate D2E/DX2                !
 ! D178  D(32,14,15,17)       -164.0915         estimate D2E/DX2                !
 ! D179  D(32,14,15,35)         72.9909         estimate D2E/DX2                !
 ! D180  D(32,14,15,36)        -44.9475         estimate D2E/DX2                !
 ! D181  D(2,14,32,41)          56.4669         estimate D2E/DX2                !
 ! D182  D(2,14,32,42)         -64.2382         estimate D2E/DX2                !
 ! D183  D(2,14,32,43)         176.0895         estimate D2E/DX2                !
 ! D184  D(15,14,32,41)        172.969          estimate D2E/DX2                !
 ! D185  D(15,14,32,42)         52.2639         estimate D2E/DX2                !
 ! D186  D(15,14,32,43)        -67.4085         estimate D2E/DX2                !
 ! D187  D(31,14,32,41)        -65.6059         estimate D2E/DX2                !
 ! D188  D(31,14,32,42)        173.689          estimate D2E/DX2                !
 ! D189  D(31,14,32,43)         54.0166         estimate D2E/DX2                !
 ! D190  D(14,15,17,16)         40.3045         estimate D2E/DX2                !
 ! D191  D(14,15,17,37)        164.3481         estimate D2E/DX2                !
 ! D192  D(14,15,17,38)        -79.5706         estimate D2E/DX2                !
 ! D193  D(35,15,17,16)        163.2329         estimate D2E/DX2                !
 ! D194  D(35,15,17,37)        -72.7235         estimate D2E/DX2                !
 ! D195  D(35,15,17,38)         43.3577         estimate D2E/DX2                !
 ! D196  D(36,15,17,16)        -79.048          estimate D2E/DX2                !
 ! D197  D(36,15,17,37)         44.9956         estimate D2E/DX2                !
 ! D198  D(36,15,17,38)        161.0768         estimate D2E/DX2                !
 ! D199  D(2,16,17,15)         -17.881          estimate D2E/DX2                !
 ! D200  D(2,16,17,37)        -141.8353         estimate D2E/DX2                !
 ! D201  D(2,16,17,38)         101.0718         estimate D2E/DX2                !
 ! D202  D(33,16,17,15)        100.2371         estimate D2E/DX2                !
 ! D203  D(33,16,17,37)        -23.7172         estimate D2E/DX2                !
 ! D204  D(33,16,17,38)       -140.8102         estimate D2E/DX2                !
 ! D205  D(34,16,17,15)       -138.2772         estimate D2E/DX2                !
 ! D206  D(34,16,17,37)         97.7684         estimate D2E/DX2                !
 ! D207  D(34,16,17,38)        -19.3245         estimate D2E/DX2                !
 ! D208  D(2,16,34,44)          58.9119         estimate D2E/DX2                !
 ! D209  D(2,16,34,45)         -61.6248         estimate D2E/DX2                !
 ! D210  D(2,16,34,46)         178.7319         estimate D2E/DX2                !
 ! D211  D(17,16,34,44)        176.0403         estimate D2E/DX2                !
 ! D212  D(17,16,34,45)         55.5036         estimate D2E/DX2                !
 ! D213  D(17,16,34,46)        -64.1398         estimate D2E/DX2                !
 ! D214  D(33,16,34,44)        -62.1236         estimate D2E/DX2                !
 ! D215  D(33,16,34,45)        177.3397         estimate D2E/DX2                !
 ! D216  D(33,16,34,46)         57.6963         estimate D2E/DX2                !
 ! D217  D(3,18,19,21)         -41.3783         estimate D2E/DX2                !
 ! D218  D(3,18,19,51)        -164.2936         estimate D2E/DX2                !
 ! D219  D(3,18,19,52)          77.7519         estimate D2E/DX2                !
 ! D220  D(47,18,19,21)         74.5142         estimate D2E/DX2                !
 ! D221  D(47,18,19,51)        -48.4011         estimate D2E/DX2                !
 ! D222  D(47,18,19,52)       -166.3556         estimate D2E/DX2                !
 ! D223  D(48,18,19,21)       -164.029          estimate D2E/DX2                !
 ! D224  D(48,18,19,51)         73.0557         estimate D2E/DX2                !
 ! D225  D(48,18,19,52)        -44.8988         estimate D2E/DX2                !
 ! D226  D(3,18,48,55)         -64.1989         estimate D2E/DX2                !
 ! D227  D(3,18,48,56)         176.1204         estimate D2E/DX2                !
 ! D228  D(3,18,48,57)          56.4948         estimate D2E/DX2                !
 ! D229  D(19,18,48,55)         52.2887         estimate D2E/DX2                !
 ! D230  D(19,18,48,56)        -67.392          estimate D2E/DX2                !
 ! D231  D(19,18,48,57)        172.9824         estimate D2E/DX2                !
 ! D232  D(47,18,48,55)        173.7457         estimate D2E/DX2                !
 ! D233  D(47,18,48,56)         54.065          estimate D2E/DX2                !
 ! D234  D(47,18,48,57)        -65.5606         estimate D2E/DX2                !
 ! D235  D(18,19,21,20)         40.4746         estimate D2E/DX2                !
 ! D236  D(18,19,21,53)        164.5049         estimate D2E/DX2                !
 ! D237  D(18,19,21,54)        -79.396          estimate D2E/DX2                !
 ! D238  D(51,19,21,20)        163.4003         estimate D2E/DX2                !
 ! D239  D(51,19,21,53)        -72.5694         estimate D2E/DX2                !
 ! D240  D(51,19,21,54)         43.5297         estimate D2E/DX2                !
 ! D241  D(52,19,21,20)        -78.8628         estimate D2E/DX2                !
 ! D242  D(52,19,21,53)         45.1675         estimate D2E/DX2                !
 ! D243  D(52,19,21,54)        161.2666         estimate D2E/DX2                !
 ! D244  D(3,20,21,19)         -18.1668         estimate D2E/DX2                !
 ! D245  D(3,20,21,53)        -142.1093         estimate D2E/DX2                !
 ! D246  D(3,20,21,54)         100.7786         estimate D2E/DX2                !
 ! D247  D(49,20,21,19)         99.931          estimate D2E/DX2                !
 ! D248  D(49,20,21,53)        -24.0114         estimate D2E/DX2                !
 ! D249  D(49,20,21,54)       -141.1235         estimate D2E/DX2                !
 ! D250  D(50,20,21,19)       -138.5956         estimate D2E/DX2                !
 ! D251  D(50,20,21,53)         97.462          estimate D2E/DX2                !
 ! D252  D(50,20,21,54)        -19.6501         estimate D2E/DX2                !
 ! D253  D(3,20,50,58)         -61.6499         estimate D2E/DX2                !
 ! D254  D(3,20,50,59)         178.6989         estimate D2E/DX2                !
 ! D255  D(3,20,50,60)          58.8857         estimate D2E/DX2                !
 ! D256  D(21,20,50,58)         55.4756         estimate D2E/DX2                !
 ! D257  D(21,20,50,59)        -64.1755         estimate D2E/DX2                !
 ! D258  D(21,20,50,60)        176.0112         estimate D2E/DX2                !
 ! D259  D(49,20,50,58)        177.3125         estimate D2E/DX2                !
 ! D260  D(49,20,50,59)         57.6614         estimate D2E/DX2                !
 ! D261  D(49,20,50,60)        -62.1518         estimate D2E/DX2                !
 --------------------------------------------------------------------------------
 Trust Radius=3.00D-01 FncErr=1.00D-07 GrdErr=1.00D-06
 Number of steps in this run=    360 maximum allowed number of steps=    360.
 GradGradGradGradGradGradGradGradGradGradGradGradGradGradGradGradGradGrad

 Stoichiometry    C22H32Cl2FeP2Pd
 Framework group  C1[X(C22H32Cl2FeP2Pd)]
 Deg. of freedom   174
 Full point group                 C1      NOp   1
 Largest Abelian subgroup         C1      NOp   1
 Largest concise Abelian subgroup C1      NOp   1
                         Standard orientation:                         
 ---------------------------------------------------------------------
 Center     Atomic      Atomic             Coordinates (Angstroms)
 Number     Number       Type             X           Y           Z
 ---------------------------------------------------------------------
      1         26           0       -0.059785    2.676817   -0.001858
      2         15           0       -1.798198   -0.275903    0.001597
      3         15           0        1.810987   -0.200831   -0.000049
      4          6           0       -1.546400    1.477446   -0.635736
      5          6           0       -0.709486    1.836550   -1.743330
      6          6           0       -0.707075    3.259568   -1.883507
      7          6           0       -1.566128    3.799236   -0.877427
      8          6           0       -2.095658    2.704908   -0.119702
      9          6           0        1.478248    1.539976    0.631531
     10          6           0        1.975928    2.790340    0.117798
     11          6           0        1.397942    3.860740    0.874517
     12          6           0        0.562515    3.284482    1.880262
     13          6           0        0.625056    1.863042    1.738090
     14          6           0       -3.297949   -0.805230   -0.907262
     15          6           0       -4.413360   -0.133574   -0.101767
     16          6           0       -2.577618   -0.064912    1.646264
     17          6           0       -4.084451   -0.277994    1.395594
     18          6           0        3.329164   -0.663654    0.914320
     19          6           0        4.417592    0.050393    0.108216
     20          6           0        2.584354    0.041747   -1.643108
     21          6           0        4.097632   -0.112714   -1.389239
     22          1           0       -0.130106    1.149245   -2.340253
     23          1           0       -0.126693    3.826940   -2.596937
     24          1           0       -1.752288    4.847933   -0.694562
     25          1           0       -2.756860    2.798421    0.729010
     26          1           0        2.633814    2.912708   -0.729974
     27          1           0        0.078091    1.151203    2.336800
     28         17           0       -1.523594   -3.601358    0.011250
     29         17           0        1.676973   -3.533646   -0.014748
     30         46           0        0.040592   -1.863718   -0.000703
     31          1           0       -3.416954   -1.884628   -0.826916
     32          6           0       -3.263558   -0.429550   -2.394493
     33          1           0       -2.412998    0.946515    2.014415
     34          6           0       -1.980384   -1.057458    2.651523
     35          1           0       -5.388343   -0.560886   -0.338238
     36          1           0       -4.463383    0.925679   -0.358790
     37          1           0       -4.684719    0.406110    1.996112
     38          1           0       -4.366787   -1.284851    1.706785
     39          1           0        1.539951    4.916518    0.692878
     40          1           0       -0.041521    3.826035    2.594052
     41          1           0       -2.379397   -0.840142   -2.881766
     42          1           0       -3.256588    0.650564   -2.543467
     43          1           0       -4.139143   -0.821225   -2.911938
     44          1           0       -0.903430   -0.925588    2.754273
     45          1           0       -2.159969   -2.089899    2.351862
     46          1           0       -2.423456   -0.923030    3.638713
     47          1           0        3.492586   -1.737711    0.838919
     48          6           0        3.275841   -0.283190    2.399748
     49          1           0        2.381191    1.046447   -2.010599
     50          6           0        2.028171   -0.971813   -2.650947
     51          1           0        5.408885   -0.335765    0.347871
     52          1           0        4.423327    1.111697    0.361408
     53          1           0        4.672497    0.591497   -1.991568
     54          1           0        4.418751   -1.109362   -1.695633
     55          1           0        3.223191    0.796337    2.543550
     56          1           0        4.165823   -0.635499    2.920729
     57          1           0        2.408540   -0.728276    2.887054
     58          1           0        2.247427   -1.996891   -2.352598
     59          1           0        2.467291   -0.818461   -3.637048
     60          1           0        0.946955   -0.881819   -2.755284
 ---------------------------------------------------------------------
 Rotational constants (GHZ):      0.1504690      0.1431288      0.0946441
 General basis read from cards:  (6D, 7F)
 ======================================================================================================
                                       Pseudopotential Parameters
 ======================================================================================================
  Center     Atomic      Valence      Angular      Power
  Number     Number     Electrons     Momentum     of R      Exponent        Coefficient   SO-Coeffient
 ======================================================================================================
    1         26           16
                                      D and up 
                                                     1      392.6149787      -10.00000000    0.00000000
                                                     2       71.1756979      -63.26675180    0.00000000
                                                     2       17.7320281      -10.96133380    0.00000000
                                      S - D
                                                     0      126.0571895        3.00000000    0.00000000
                                                     1      138.1264251       18.17291370    0.00000000
                                                     2       54.2098858      339.12311640    0.00000000
                                                     2        9.2837966      317.10680120    0.00000000
                                                     2        8.6289082     -207.34216490    0.00000000
                                      P - D
                                                     0       83.1759490        5.00000000    0.00000000
                                                     1      106.0559938        5.95359300    0.00000000
                                                     2       42.8284937      294.26655270    0.00000000
                                                     2        8.7701805      154.42446350    0.00000000
                                                     2        8.0397818      -95.31642490    0.00000000
    2         15
                                   No pseudopotential on this center.
    3         15
                                   No pseudopotential on this center.
    4          6
                                   No pseudopotential on this center.
    5          6
                                   No pseudopotential on this center.
    6          6
                                   No pseudopotential on this center.
    7          6
                                   No pseudopotential on this center.
    8          6
                                   No pseudopotential on this center.
    9          6
                                   No pseudopotential on this center.
   10          6
                                   No pseudopotential on this center.
   11          6
                                   No pseudopotential on this center.
   12          6
                                   No pseudopotential on this center.
   13          6
                                   No pseudopotential on this center.
   14          6
                                   No pseudopotential on this center.
   15          6
                                   No pseudopotential on this center.
   16          6
                                   No pseudopotential on this center.
   17          6
                                   No pseudopotential on this center.
   18          6
                                   No pseudopotential on this center.
   19          6
                                   No pseudopotential on this center.
   20          6
                                   No pseudopotential on this center.
   21          6
                                   No pseudopotential on this center.
   22          1
                                   No pseudopotential on this center.
   23          1
                                   No pseudopotential on this center.
   24          1
                                   No pseudopotential on this center.
   25          1
                                   No pseudopotential on this center.
   26          1
                                   No pseudopotential on this center.
   27          1
                                   No pseudopotential on this center.
   28         17
                                   No pseudopotential on this center.
   29         17
                                   No pseudopotential on this center.
   30         46           18
                                      F and up 
                                                     0      598.3336444       -0.05631770    0.00000000
                                                     1      162.4298290      -20.12880360    0.00000000
                                                     2       51.5714771     -105.81979230    0.00000000
                                                     2       16.4888260      -42.57333450    0.00000000
                                                     2        5.8287656       -3.61650860    0.00000000
                                      S - F
                                                     0       73.3806304        3.00036510    0.00000000
                                                     1       14.7550438       32.43500930    0.00000000
                                                     2       17.8350204      459.08303830    0.00000000
                                                     2       12.7111477     -868.06290290    0.00000000
                                                     2        9.3292063      514.47260980    0.00000000
                                      P - F
                                                     0       55.6689877        4.95930990    0.00000000
                                                     1       64.2337771       21.17110290    0.00000000
                                                     2       17.6254952      605.05600920    0.00000000
                                                     2       11.9058155     -726.96418460    0.00000000
                                                     2        8.5100832      396.32748830    0.00000000
                                      D - F
                                                     0       49.9994728        3.05087450    0.00000000
                                                     1       39.7477547       22.25065800    0.00000000
                                                     2       11.4321366      674.83576980    0.00000000
                                                     2        9.1790080    -1040.85540480    0.00000000
                                                     2        7.5624429      505.93751470    0.00000000
   31          1
                                   No pseudopotential on this center.
   32          6
                                   No pseudopotential on this center.
   33          1
                                   No pseudopotential on this center.
   34          6
                                   No pseudopotential on this center.
   35          1
                                   No pseudopotential on this center.
   36          1
                                   No pseudopotential on this center.
   37          1
                                   No pseudopotential on this center.
   38          1
                                   No pseudopotential on this center.
   39          1
                                   No pseudopotential on this center.
   40          1
                                   No pseudopotential on this center.
   41          1
                                   No pseudopotential on this center.
   42          1
                                   No pseudopotential on this center.
   43          1
                                   No pseudopotential on this center.
   44          1
                                   No pseudopotential on this center.
   45          1
                                   No pseudopotential on this center.
   46          1
                                   No pseudopotential on this center.
   47          1
                                   No pseudopotential on this center.
   48          6
                                   No pseudopotential on this center.
   49          1
                                   No pseudopotential on this center.
   50          6
                                   No pseudopotential on this center.
   51          1
                                   No pseudopotential on this center.
   52          1
                                   No pseudopotential on this center.
   53          1
                                   No pseudopotential on this center.
   54          1
                                   No pseudopotential on this center.
   55          1
                                   No pseudopotential on this center.
   56          1
                                   No pseudopotential on this center.
   57          1
                                   No pseudopotential on this center.
   58          1
                                   No pseudopotential on this center.
   59          1
                                   No pseudopotential on this center.
   60          1
                                   No pseudopotential on this center.
 ======================================================================================================
 There are   518 symmetry adapted cartesian basis functions of A   symmetry.
 There are   518 symmetry adapted basis functions of A   symmetry.
   518 basis functions,  1053 primitive gaussians,   518 cartesian basis functions
   131 alpha electrons      131 beta electrons
       nuclear repulsion energy      4471.4194794182 Hartrees.
 NAtoms=   60 NActive=   60 NUniq=   60 SFac= 1.00D+00 NAtFMM=   60 NAOKFM=T Big=T
 Integral buffers will be    131072 words long.
 Raffenetti 2 integral format.
 Two-electron integral symmetry is turned on.
 Nuclear repulsion after empirical dispersion term =     4471.3095296223 Hartrees.
 Standard density basis: Auto (5D, 7F)
  2481 Density fitting functions
 There are  2481 symmetry adapted density basis functions of A   symmetry.
 One-electron integrals computed using PRISM.
   1 Symmetry operations used in ECPInt.
 ECPInt:  NShTT=   17766 NPrTT=  112280 LenC2=   15859 LenP2D=   57080.
 LDataN:  DoStor=T MaxTD1= 5 Len=  102
 NBasis=   518 RedAO= T EigKep=  7.96D-04  NBF=   518
 NBsUse=   518 1.00D-06 EigRej= -1.00D+00 NBFU=   518
 NBasis=      518 NBas6D=      518 NTT=      134421   NTT6D=   134421
 NDBShl=      495 NDBF=       2481 NDBF6D=     2993  NNucDB=        0
 IDenFi=        2 ISolve=        0 FullAP=F BlkAPC=T NucTyp=        0
 TolInv= 1.00D-06 TolIt=  1.00D-10 IR12=0.
 FoFCou: FMM=F IPFlag=           0 FMFlag=           0 FMFlg1=           0
         NFxFlg=           0 DoJE=F BraDBF=T KetDBF=T FulRan=T
         wScrn=  0.000000 ICntrl=     600 IOpCl=  3 I1Cent=           6 NGrid=           0
         NMat0=    1 NMatS0=   2993 NMatT0=    0 NMatD0=    1 NMtDS0=    0 NMtDT0=    0
 Petite list used in FoFCou.
 DBF EigKep=  1.32D-06 EigRej=  8.97D-07
 NDBF=   2481  NBFD=  2481
 NRank=  2479 NBFDU=  2479
 S*AI*S=  12.5966466013    
 Defaulting to unpruned grid for atomic number  46.
 ExpMin= 2.20D-02 ExpMax= 2.52D+04 ExpMxC= 3.78D+03 IAcc=3 IRadAn=         5 AccDes= 0.00D+00
 Harris functional with IExCor= 1009 and IRadAn=       5 diagonalized for initial guess.
 HarFok:  IExCor= 1009 AccDes= 0.00D+00 IRadAn=         5 IDoV= 1 UseB2=F ITyADJ=14
 ICtDFT=  3500011 ScaDFX=  1.000000  1.000000  1.000000  1.000000
 Defaulting to unpruned grid for atomic number  46.
 Defaulting to unpruned grid for atomic number  46.
 Defaulting to unpruned grid for atomic number  46.
 Defaulting to unpruned grid for atomic number  46.
 Defaulting to unpruned grid for atomic number  46.
 Defaulting to unpruned grid for atomic number  46.
 Defaulting to unpruned grid for atomic number  46.
 Defaulting to unpruned grid for atomic number  46.
 Defaulting to unpruned grid for atomic number  46.
 Defaulting to unpruned grid for atomic number  46.
 Defaulting to unpruned grid for atomic number  46.
 Defaulting to unpruned grid for atomic number  46.
 Defaulting to unpruned grid for atomic number  46.
 Defaulting to unpruned grid for atomic number  46.
 FoFCou: FMM=F IPFlag=           0 FMFlag=      100000 FMFlg1=        2001
         NFxFlg=           0 DoJE=T BraDBF=F KetDBF=T FulRan=T
         wScrn=  0.000000 ICntrl=     500 IOpCl=  0 I1Cent=   200000004 NGrid=           0
         NMat0=    1 NMatS0=      1 NMatT0=    0 NMatD0=    1 NMtDS0=    0 NMtDT0=    0
 Petite list used in FoFCou.
 Requested convergence on RMS density matrix=1.00D-08 within 500 cycles.
 Requested convergence on MAX density matrix=1.00D-06.
 Requested convergence on             energy=1.00D-06.
 No special actions if energy rises.
 FoFCou: FMM=F IPFlag=           0 FMFlag=      100000 FMFlg1=        2001
         NFxFlg=           0 DoJE=T BraDBF=T KetDBF=F FulRan=T
         wScrn=  0.000000 ICntrl=     500 IOpCl=  0 I1Cent=           5 NGrid=           0
         NMat0=    1 NMatS0=      1 NMatT0=    0 NMatD0=    1 NMtDS0=    0 NMtDT0=    0
 Symmetry not used in FoFCou.
 Defaulting to unpruned grid for atomic number  46.
 Defaulting to unpruned grid for atomic number  46.
 Defaulting to unpruned grid for atomic number  46.
 Defaulting to unpruned grid for atomic number  46.
 Defaulting to unpruned grid for atomic number  46.
 Defaulting to unpruned grid for atomic number  46.
 Defaulting to unpruned grid for atomic number  46.
 Defaulting to unpruned grid for atomic number  46.
 Defaulting to unpruned grid for atomic number  46.
 Defaulting to unpruned grid for atomic number  46.
 Defaulting to unpruned grid for atomic number  46.
 Defaulting to unpruned grid for atomic number  46.
 Defaulting to unpruned grid for atomic number  46.
 Defaulting to unpruned grid for atomic number  46.
 EnCoef did     3 forward-backward iterations
 EnCoef did   100 forward-backward iterations
 Problem detected with inexpensive integrals.
 Switching to full accuracy and repeating last cycle.
 EnCoef did   100 forward-backward iterations
 EnCoef did     4 forward-backward iterations
 EnCoef did     4 forward-backward iterations
 EnCoef did    37 forward-backward iterations
 EnCoef did     7 forward-backward iterations
 EnCoef did     1 forward-backward iterations
 EnCoef did     4 forward-backward iterations
 EnCoef did     2 forward-backward iterations
 EnCoef did     1 forward-backward iterations
 Restarting incremental Fock formation.
 SCF Done:  E(RPBE-PBE) =  -2709.29411484     A.U. after   30 cycles
            NFock= 30  Conv=0.83D-08     -V/T= 2.0577

 **********************************************************************

            Population analysis using the SCF density.

 **********************************************************************

 Orbital symmetries:
       Occupied  (A) (A) (A) (A) (A) (A) (A) (A) (A) (A) (A) (A)
                 (A) (A) (A) (A) (A) (A) (A) (A) (A) (A) (A) (A)
                 (A) (A) (A) (A) (A) (A) (A) (A) (A) (A) (A) (A)
                 (A) (A) (A) (A) (A) (A) (A) (A) (A) (A) (A) (A)
                 (A) (A) (A) (A) (A) (A) (A) (A) (A) (A) (A) (A)
                 (A) (A) (A) (A) (A) (A) (A) (A) (A) (A) (A) (A)
                 (A) (A) (A) (A) (A) (A) (A) (A) (A) (A) (A) (A)
                 (A) (A) (A) (A) (A) (A) (A) (A) (A) (A) (A) (A)
                 (A) (A) (A) (A) (A) (A) (A) (A) (A) (A) (A) (A)
                 (A) (A) (A) (A) (A) (A) (A) (A) (A) (A) (A) (A)
                 (A) (A) (A) (A) (A) (A) (A) (A) (A) (A) (A)
       Virtual   (A) (A) (A) (A) (A) (A) (A) (A) (A) (A) (A) (A)
                 (A) (A) (A) (A) (A) (A) (A) (A) (A) (A) (A) (A)
                 (A) (A) (A) (A) (A) (A) (A) (A) (A) (A) (A) (A)
                 (A) (A) (A) (A) (A) (A) (A) (A) (A) (A) (A) (A)
                 (A) (A) (A) (A) (A) (A) (A) (A) (A) (A) (A) (A)
                 (A) (A) (A) (A) (A) (A) (A) (A) (A) (A) (A) (A)
                 (A) (A) (A) (A) (A) (A) (A) (A) (A) (A) (A) (A)
                 (A) (A) (A) (A) (A) (A) (A) (A) (A) (A) (A) (A)
                 (A) (A) (A) (A) (A) (A) (A) (A) (A) (A) (A) (A)
                 (A) (A) (A) (A) (A) (A) (A) (A) (A) (A) (A) (A)
                 (A) (A) (A) (A) (A) (A) (A) (A) (A) (A) (A) (A)
                 (A) (A) (A) (A) (A) (A) (A) (A) (A) (A) (A) (A)
                 (A) (A) (A) (A) (A) (A) (A) (A) (A) (A) (A) (A)
                 (A) (A) (A) (A) (A) (A) (A) (A) (A) (A) (A) (A)
                 (A) (A) (A) (A) (A) (A) (A) (A) (A) (A) (A) (A)
                 (A) (A) (A) (A) (A) (A) (A) (A) (A) (A) (A) (A)
                 (A) (A) (A) (A) (A) (A) (A) (A) (A) (A) (A) (A)
                 (A) (A) (A) (A) (A) (A) (A) (A) (A) (A) (A) (A)
                 (A) (A) (A) (A) (A) (A) (A) (A) (A) (A) (A) (A)
                 (A) (A) (A) (A) (A) (A) (A) (A) (A) (A) (A) (A)
                 (A) (A) (A) (A) (A) (A) (A) (A) (A) (A) (A) (A)
                 (A) (A) (A) (A) (A) (A) (A) (A) (A) (A) (A) (A)
                 (A) (A) (A) (A) (A) (A) (A) (A) (A) (A) (A) (A)
                 (A) (A) (A) (A) (A) (A) (A) (A) (A) (A) (A) (A)
                 (A) (A) (A) (A) (A) (A) (A) (A) (A) (A) (A) (A)
                 (A) (A) (A) (A) (A) (A) (A) (A) (A) (A) (A) (A)
                 (A) (A) (A) (A) (A) (A) (A) (A) (A) (A) (A) (A)
                 (A) (A) (A) (A) (A) (A) (A) (A) (A) (A) (A) (A)
                 (A) (A) (A) (A) (A) (A) (A) (A) (A) (A) (A) (A)
                 (A) (A) (A) (A) (A) (A) (A) (A) (A) (A) (A) (A)
                 (A) (A) (A) (A) (A) (A) (A) (A) (A) (A) (A) (A)
                 (A) (A) (A) (A) (A) (A) (A) (A) (A) (A) (A) (A)
                 (A) (A) (A)
 The electronic state is 1-A.
 Alpha  occ. eigenvalues -- -100.59693-100.59682 -76.36818 -76.36813  -9.94498
 Alpha  occ. eigenvalues --   -9.94493  -9.93774  -9.93762  -9.93628  -9.93624
 Alpha  occ. eigenvalues --   -9.93593  -9.93586  -9.93503  -9.93495  -9.92445
 Alpha  occ. eigenvalues --   -9.92444  -9.91393  -9.91367  -9.90767  -9.90763
 Alpha  occ. eigenvalues --   -9.90615  -9.90600  -9.89422  -9.89402  -9.88835
 Alpha  occ. eigenvalues --   -9.88830  -9.09223  -9.09213  -6.91550  -6.91540
 Alpha  occ. eigenvalues --   -6.90825  -6.90815  -6.90769  -6.90759  -6.34803
 Alpha  occ. eigenvalues --   -6.34796  -4.56663  -4.56656  -4.56508  -4.56502
 Alpha  occ. eigenvalues --   -4.56316  -4.56309  -3.29271  -3.19940  -2.14463
 Alpha  occ. eigenvalues --   -2.10242  -2.10106  -1.96770  -1.96743  -1.92815
 Alpha  occ. eigenvalues --   -0.84361  -0.82632  -0.77338  -0.77292  -0.70687
 Alpha  occ. eigenvalues --   -0.70654  -0.67935  -0.67759  -0.67041  -0.66939
 Alpha  occ. eigenvalues --   -0.65638  -0.65581  -0.64999  -0.64132  -0.60292
 Alpha  occ. eigenvalues --   -0.60239  -0.58628  -0.58611  -0.52477  -0.52380
 Alpha  occ. eigenvalues --   -0.52128  -0.51509  -0.50911  -0.50876  -0.50499
 Alpha  occ. eigenvalues --   -0.49924  -0.46265  -0.46088  -0.43653  -0.43359
 Alpha  occ. eigenvalues --   -0.42661  -0.42411  -0.39754  -0.39328  -0.39204
 Alpha  occ. eigenvalues --   -0.38811  -0.38062  -0.37765  -0.37751  -0.37330
 Alpha  occ. eigenvalues --   -0.37213  -0.37097  -0.36557  -0.36239  -0.36172
 Alpha  occ. eigenvalues --   -0.36124  -0.36115  -0.34412  -0.33683  -0.33625
 Alpha  occ. eigenvalues --   -0.33196  -0.33107  -0.31229  -0.30717  -0.30304
 Alpha  occ. eigenvalues --   -0.30175  -0.29885  -0.29855  -0.29703  -0.29607
 Alpha  occ. eigenvalues --   -0.29130  -0.28991  -0.28536  -0.28464  -0.27018
 Alpha  occ. eigenvalues --   -0.26964  -0.26749  -0.25250  -0.25028  -0.24139
 Alpha  occ. eigenvalues --   -0.23724  -0.23388  -0.23257  -0.19365  -0.19026
 Alpha  occ. eigenvalues --   -0.18813  -0.18586  -0.18438  -0.18372  -0.18011
 Alpha  occ. eigenvalues --   -0.17751
 Alpha virt. eigenvalues --   -0.09839  -0.07505  -0.07475  -0.03206  -0.02054
 Alpha virt. eigenvalues --   -0.01767  -0.00936  -0.00587   0.00248   0.00867
 Alpha virt. eigenvalues --    0.01221   0.01345   0.02391   0.03072   0.03673
 Alpha virt. eigenvalues --    0.04113   0.04314   0.04592   0.06711   0.06914
 Alpha virt. eigenvalues --    0.07533   0.07609   0.08360   0.09029   0.09192
 Alpha virt. eigenvalues --    0.10428   0.10563   0.10724   0.11115   0.12042
 Alpha virt. eigenvalues --    0.12229   0.12362   0.12672   0.13007   0.13136
 Alpha virt. eigenvalues --    0.13309   0.13773   0.14427   0.14654   0.14666
 Alpha virt. eigenvalues --    0.15075   0.15244   0.15622   0.15753   0.15940
 Alpha virt. eigenvalues --    0.16184   0.16369   0.16608   0.17181   0.17276
 Alpha virt. eigenvalues --    0.17331   0.17866   0.18228   0.18302   0.18859
 Alpha virt. eigenvalues --    0.19483   0.19890   0.19989   0.20351   0.21532
 Alpha virt. eigenvalues --    0.21567   0.22057   0.22247   0.22515   0.23317
 Alpha virt. eigenvalues --    0.23624   0.24699   0.25302   0.25485   0.26122
 Alpha virt. eigenvalues --    0.28415   0.29545   0.29711   0.30157   0.30840
 Alpha virt. eigenvalues --    0.31330   0.32363   0.32697   0.34361   0.35376
 Alpha virt. eigenvalues --    0.36422   0.37946   0.39222   0.39524   0.39770
 Alpha virt. eigenvalues --    0.41610   0.42315   0.42847   0.43625   0.44068
 Alpha virt. eigenvalues --    0.44672   0.45701   0.46428   0.46643   0.47621
 Alpha virt. eigenvalues --    0.48048   0.49481   0.49715   0.50984   0.51036
 Alpha virt. eigenvalues --    0.51665   0.51683   0.52577   0.53600   0.53668
 Alpha virt. eigenvalues --    0.54547   0.54788   0.55384   0.55395   0.56454
 Alpha virt. eigenvalues --    0.56650   0.57047   0.57465   0.58330   0.58427
 Alpha virt. eigenvalues --    0.59436   0.59631   0.60242   0.61486   0.62035
 Alpha virt. eigenvalues --    0.62458   0.62702   0.62751   0.63740   0.64007
 Alpha virt. eigenvalues --    0.64603   0.64896   0.64929   0.65655   0.65859
 Alpha virt. eigenvalues --    0.66265   0.67070   0.68685   0.69174   0.69887
 Alpha virt. eigenvalues --    0.70200   0.70752   0.72351   0.72534   0.72590
 Alpha virt. eigenvalues --    0.72652   0.72871   0.74204   0.74878   0.75190
 Alpha virt. eigenvalues --    0.75601   0.75763   0.76820   0.76989   0.77031
 Alpha virt. eigenvalues --    0.77455   0.77917   0.78355   0.78905   0.79101
 Alpha virt. eigenvalues --    0.80274   0.80297   0.80824   0.81667   0.81926
 Alpha virt. eigenvalues --    0.82339   0.82786   0.82811   0.83250   0.84260
 Alpha virt. eigenvalues --    0.84328   0.85075   0.85083   0.85703   0.86006
 Alpha virt. eigenvalues --    0.86268   0.87198   0.88061   0.88430   0.88760
 Alpha virt. eigenvalues --    0.89118   0.89298   0.89870   0.89954   0.90006
 Alpha virt. eigenvalues --    0.90947   0.91620   0.91815   0.92193   0.92449
 Alpha virt. eigenvalues --    0.92666   0.93078   0.93959   0.94132   0.95017
 Alpha virt. eigenvalues --    0.95224   0.95423   0.95929   0.97022   0.97618
 Alpha virt. eigenvalues --    0.97865   0.98211   0.99197   1.00117   1.00540
 Alpha virt. eigenvalues --    1.01607   1.02518   1.03103   1.03156   1.04345
 Alpha virt. eigenvalues --    1.04442   1.06463   1.07000   1.07850   1.07872
 Alpha virt. eigenvalues --    1.08571   1.08846   1.10746   1.11350   1.11728
 Alpha virt. eigenvalues --    1.12927   1.12960   1.14413   1.14553   1.18006
 Alpha virt. eigenvalues --    1.18067   1.20702   1.21032   1.21298   1.23478
 Alpha virt. eigenvalues --    1.24122   1.25609   1.26117   1.26849   1.27918
 Alpha virt. eigenvalues --    1.29291   1.30250   1.30842   1.31283   1.34112
 Alpha virt. eigenvalues --    1.34344   1.37551   1.37633   1.39120   1.40624
 Alpha virt. eigenvalues --    1.41567   1.43164   1.43998   1.44406   1.45922
 Alpha virt. eigenvalues --    1.47173   1.49062   1.49413   1.49677   1.53465
 Alpha virt. eigenvalues --    1.54549   1.54617   1.60058   1.60966   1.62204
 Alpha virt. eigenvalues --    1.63586   1.63912   1.64965   1.66653   1.69018
 Alpha virt. eigenvalues --    1.70343   1.71038   1.71151   1.73577   1.73943
 Alpha virt. eigenvalues --    1.76996   1.77288   1.79897   1.79940   1.80628
 Alpha virt. eigenvalues --    1.81909   1.82689   1.83921   1.83960   1.84013
 Alpha virt. eigenvalues --    1.85722   1.86319   1.86981   1.87152   1.88877
 Alpha virt. eigenvalues --    1.89200   1.91190   1.91913   1.93125   1.94107
 Alpha virt. eigenvalues --    1.94279   1.94633   1.94935   1.95704   1.96074
 Alpha virt. eigenvalues --    1.96782   1.98813   1.99188   1.99906   2.00726
 Alpha virt. eigenvalues --    2.03801   2.04458   2.07099   2.07499   2.08450
 Alpha virt. eigenvalues --    2.09292   2.11848   2.12593   2.12996   2.13676
 Alpha virt. eigenvalues --    2.14814   2.15241   2.16232   2.16628   2.17057
[...]
 32,-0.00000266,-0.00001378,0.00000332,-0.00000482,0.00002526,-0.000010
 78,-0.00002851,-0.00000383,-0.00000377,0.00002041,0.00000829,-0.000002
 08,-0.00000085,0.00000647,-0.00001109,-0.00000218,0.00000905,-0.000000
 41,0.00000030,-0.00000716,-0.00000524,0.00000571,0.00000789,-0.0000086
 2,0.00000121,0.00000695,-0.00000006,0.00000040,0.00001578,0.00005388,-
 0.00002011,0.00003424,-0.00002754,-0.00000467,-0.00000651,-0.00000397,
 0.00001104,0.00000600,0.00001580,0.00001246,-0.00001716,0.00000120,0.0
 0001313,0.00001667,-0.00001360,-0.00000219,0.00006671,0.00005827,-0.00
 005153,-0.00005628,0.00001190,-0.00000047,-0.00053026,-0.00130285,-0.0
 0190256,-0.04655885,-0.00788436,0.00245339,-0.00004517,0.00002576,0.00
 003102,-0.00002431,0.00009472,0.00014994,0.00004547,0.00011147,-0.0000
 3027,-0.00054123,0.00047693,-0.00017804,-0.00000033,-0.00000252,0.0000
 0675,-0.00001191,0.00000022,-0.00001980,-0.00000092,0.00000252,0.00003
 784,0.04860768,0.00002880,0.00004673,-0.00004356,0.00002875,-0.0001224
 6,0.00007863,-0.00038561,-0.00036051,0.00038621,0.00004762,-0.00002362
 ,-0.00001476,-0.00004251,0.00006092,0.00005380,-0.00000211,0.00001578,
 0.00000635,0.00000101,-0.00000142,-0.00000776,0.00000864,-0.00000881,-
 0.00000990,0.00012061,-0.00008907,0.00007241,-0.00006207,-0.00006192,0
 .00006866,-0.00002027,0.00008547,-0.00002342,0.00001003,-0.00001055,-0
 .00001824,0.00002189,0.00002133,-0.00001296,0.00000699,-0.00000819,-0.
 00003799,0.00001159,0.00000440,0.00001774,0.00000130,0.00002473,0.0000
 0166,-0.00000390,0.00000116,-0.00000180,0.00008551,0.00003653,-0.00001
 781,0.00009003,0.00027930,0.00002162,-0.00070794,-0.01674325,0.0011537
 8,0.00094936,0.00060886,0.00049758,-0.00004145,-0.00002811,-0.00003433
 ,-0.00000629,0.00000848,-0.00000411,0.00000122,-0.00000010,-0.00000189
 ,0.00000023,-0.00000363,-0.00000418,0.00006591,0.00008337,-0.00002764,
 0.00000889,-0.00000060,-0.00000339,-0.00004343,-0.00004119,-0.00000407
 ,-0.00003335,-0.00163298,0.00129830,-0.00009962,0.00024290,-0.00015034
 ,0.00000155,0.00000328,0.00000021,0.00001733,-0.00000823,-0.00001805,-
 0.00000419,0.00000276,0.00000712,-0.00000551,-0.00000794,0.00000788,0.
 00000599,-0.00000150,-0.00000416,-0.00000341,0.00000259,-0.00000110,0.
 00000298,-0.00000016,-0.00000054,0.00000226,-0.00000084,0.00000062,-0.
 00000102,0.00000092,0.00000230,0.00000879,0.00000468,-0.00000680,-0.00
 000478,0.00000109,0.00000775,-0.00001139,0.00000442,0.00000157,-0.0000
 0215,0.00000134,0.00000568,-0.00000024,0.00000309,-0.00000147,-0.00000
 185,0.00000761,0.00000358,-0.00000226,0.00000496,-0.00000146,0.0000331
 2,0.00004798,-0.00003000,-0.00001409,-0.00000744,0.00001311,-0.0014344
 9,-0.00041898,-0.00241832,-0.00784862,-0.29077964,0.06347751,0.0000008
 0,0.00002147,-0.00001691,0.00005929,0.00004450,0.00018498,0.00009637,0
 .00008540,0.00008729,-0.00074390,0.00046405,-0.00021536,0.00000252,0.0
 0000282,0.00000398,0.00000473,-0.00000079,0.00000555,-0.00000373,-0.00
 000120,0.00001364,0.01021562,0.31508577,0.00015590,0.00010905,-0.00011
 846,0.00017692,-0.00030151,0.00008932,-0.00046571,-0.00227234,0.000893
 08,-0.00016025,0.00006882,0.00004398,-0.00004403,-0.00001632,0.0000774
 9,0.00001444,0.00003875,-0.00000351,-0.00000239,0.00002012,0.00001510,
 0.00001576,-0.00001734,-0.00009239,0.00021473,0.00003762,0.00003978,-0
 .00011808,-0.00018730,0.00005282,-0.00000178,0.00014419,-0.00005105,0.
 00004330,-0.00003400,-0.00002987,0.00001755,-0.00000731,-0.00002665,-0
 .00002078,0.00014423,0.00008497,-0.00004531,-0.00004799,-0.00005200,-0
 .00007393,0.00007421,-0.00005633,-0.00000442,0.00002984,0.00002435,0.0
 0010617,0.00010398,-0.00002145,0.00008761,-0.00011914,0.00014401,-0.00
 130261,-0.02562129,0.00407066,0.00138252,-0.00038737,0.00050247,-0.000
 08919,0.00003125,-0.00005153,0.00000180,0.00001029,-0.00000560,0.00001
 227,0.00000722,-0.00000472,0.00000362,-0.00000844,-0.00000098,0.000070
 82,0.00020095,-0.00006488,0.00001133,-0.00001642,-0.00002186,-0.000021
 20,-0.00006442,-0.00003887,-0.00031787,0.00089051,-0.00047027,0.000782
 01,-0.00019124,-0.00057505,0.00003157,-0.00001372,0.00002770,-0.000051
 24,0.00000309,0.00003042,-0.00003668,0.00000975,0.00003585,0.00000550,
 0.00000388,-0.00002548,-0.00003251,0.00000655,0.00001322,-0.00000145,0
 .00001012,0.00000171,-0.00002387,-0.00000425,-0.00000153,0.00000929,-0
 .00000135,-0.00000779,-0.00000318,0.00000515,0.00000147,0.00000835,0.0
 0000535,-0.00001366,0.00002281,-0.00000016,-0.00000263,0.00000655,0.00
 000351,-0.00001349,-0.00000797,0.00000390,-0.00002059,0.00000467,-0.00
 002095,-0.00001672,0.00001319,-0.00000314,-0.00001618,-0.00001518,0.00
 000800,0.00001068,-0.00014710,-0.00005412,-0.00008410,0.00004218,0.000
 03805,-0.00003191,-0.00256821,-0.00320341,-0.00367974,0.00245810,0.066
 72736,-0.06126041,0.00003281,0.00008405,-0.00003942,0.00003283,0.00011
 711,0.00001752,0.00007542,0.00009137,0.00002869,-0.00029563,0.00055317
 ,0.00032545,0.00000311,0.00002861,0.00003290,-0.00000293,-0.00000411,0
 .00002214,0.00000068,-0.00001198,-0.00003212,-0.00024015,-0.06601755,0
 .06836877,0.00007658,0.00005270,0.00009157,0.00019855,-0.00016163,0.00
 002151,-0.00067862,-0.00151822,-0.00113788,-0.00004382,0.00009785,-0.0
 0004241,0.00001147,-0.00001147,-0.00015832,-0.00009721,-0.00006425,0.0
 0010666,-0.00000042,0.00007379,0.00002470,-0.00000665,-0.00001032,-0.0
 0000909,0.00030493,0.00026516,-0.00066909,-0.00001353,0.00006654,0.000
 03539,-0.00000275,0.00001252,-0.00000051,0.00007736,0.00000981,-0.0000
 5146,-0.00007263,-0.00022803,-0.00000161,0.00000966,0.00005568,0.00001
 804,-0.00001234,-0.00001976,-0.00001838,-0.00001773,0.00002733,-0.0000
 5112,-0.00000283,0.00001557,0.00002313,0.00002317,0.00026742,-0.000614
 46,0.00027267,-0.00003368,0.00012330,0.00627438,0.00094576,-0.01206794
 ,0.00101137,0.00023725,-0.00042797,0.00011866,-0.00033088,0.00005181,0
 .00000643,0.00003102,0.00000505,0.00000041,0.00000813,0.00001859,0.000
 00201,0.00000879,0.00000780,0.00000725,-0.00001217,0.00001656,-0.00000
 948,-0.00000137,-0.00000513,-0.00002895,-0.00002840,0.00000614,0.00008
 722,-0.00007746,0.00010765,-0.00012274,0.00003417,0.00028548,0.0000126
 6,-0.00000208,0.00000376,0.00000977,-0.00003924,-0.00004353,-0.0000192
 6,0.00000460,0.00001974,-0.00001099,0.00000411,-0.00000500,-0.00001543
 ,0.00000092,0.00000418,0.00000224,0.00000604,0.00000120,-0.00001525,-0
 .00000240,0.00000271,0.00000313,-0.00000284,-0.00000286,-0.00000072,0.
 00000195,0.00000040,0.00000263,-0.00002277,0.00000921,0.00002867,0.000
 01881,0.00005069,-0.00000050,0.00000859,0.00000694,-0.00003077,0.00000
 673,0.00000569,0.00000005,-0.00000626,-0.00000691,0.00001633,0.0000026
 1,-0.00001500,-0.00001010,0.00000406,0.00001164,-0.00004421,-0.0000066
 3,-0.00002497,-0.00015048,0.00011164,-0.00002899,0.00038159,0.00053600
 ,0.00049306,-0.12265950,-0.01491456,0.11594712,0.00000879,0.00000554,0
 .00005160,0.00002706,0.00004214,0.00004552,0.00010435,-0.00021983,0.00
 021531,0.00007479,0.00015898,0.00009421,0.00001338,0.00000662,0.000016
 37,-0.00001404,-0.00001079,-0.00006979,-0.00000698,0.00000321,0.000012
 98,-0.00106357,0.00047039,-0.00076845,0.13106435,0.00001842,-0.0000835
 2,0.00006599,0.00002182,-0.00014323,0.00007022,-0.00193040,-0.00151348
 ,-0.00113275,-0.00006438,0.00002281,0.00001541,0.00000458,-0.00003864,
 0.00004414,0.00003732,0.00001935,-0.00005446,0.00000738,-0.00002640,0.
 00000027,0.00000575,-0.00000795,-0.00003321,0.00035861,0.00019149,-0.0
 0064457,0.00007532,0.00014740,-0.00003759,0.00000099,-0.00001043,-0.00
 000499,0.00006537,0.00000861,-0.00006087,-0.00007824,-0.00024448,0.000
 02483,-0.00001246,0.00004422,0.00001313,-0.00000562,-0.00001369,-0.000
 00716,-0.00001804,0.00003031,-0.00002225,-0.00000401,0.00000791,0.0000
 0711,0.00041687,0.00004974,-0.00069182,0.00028801,-0.00023549,0.000002
 72,0.00886810,0.00025436,-0.01612613,0.00064481,0.00054993,0.00039775,
 -0.00009677,0.00018936,-0.00005109,0.00000899,-0.00002287,0.00000066,0
 .00000536,0.00000048,-0.00000534,0.00000478,-0.00000738,-0.00000055,-0
 .00001357,-0.00001170,0.00000714,-0.00001152,-0.00000138,-0.00000434,-
 0.00000614,-0.00001530,0.00000326,-0.00004475,-0.00033247,0.00083580,0
 .00018670,-0.00000189,-0.00005244,0.00001714,-0.00000269,0.00000773,-0
 .00000044,-0.00000032,0.00000899,-0.00001568,0.00000623,0.00001498,-0.
 00001344,0.00000100,0.00000219,-0.00000723,0.00000215,0.00000235,-0.00
 000371,0.00000518,0.00000047,-0.00000687,-0.00000080,0.00000043,0.0000
 0367,0.00000005,-0.00000202,0.00000281,-0.00000660,-0.00000348,0.00000
 626,-0.00003393,0.00000634,-0.00000005,-0.00000504,-0.00000278,-0.0000
 0361,0.00000245,-0.00000490,-0.00000250,0.00000147,-0.00000581,0.00000
 626,-0.00000458,-0.00000435,0.00001386,0.00000537,-0.00000838,-0.00000
 443,0.00000451,0.00000440,-0.00011216,-0.00002919,-0.00005993,-0.00029
 640,0.00017667,-0.00003407,0.00071456,0.00062088,0.00042872,-0.0152083
 6,-0.04801161,0.02441312,-0.00000302,0.00001189,0.00007123,0.00000691,
 0.00000068,-0.00004697,-0.00021983,0.00003185,0.00012966,-0.00011639,-
 0.00006827,0.00027705,0.00001225,-0.00000066,0.00001593,-0.00000854,-0
 .00003626,-0.00011763,0.00000860,-0.00000358,0.00000579,-0.01747927,0.
 00021449,0.02431516,0.01835647,0.04839330,0.00009395,-0.00019282,0.000
 17787,-0.00025690,0.00008382,0.00001305,-0.00211170,-0.00233484,0.0003
 2997,0.00005144,0.00001992,-0.00004313,-0.00002473,0.00005489,-0.00005
 002,-0.00002668,-0.00001612,0.00000106,0.00000864,-0.00001198,-0.00001
 494,-0.00000592,-0.00000585,0.00002692,0.00030720,0.00044401,-0.001203
 19,0.00006173,0.00016677,-0.00010143,0.00002295,-0.00004121,-0.0000022
 3,0.00012644,-0.00000397,-0.00008838,-0.00024702,-0.00037606,0.0000649
 6,-0.00000821,-0.00003211,-0.00004741,0.00002344,0.00001722,0.00003440
 ,0.00002940,-0.00002098,0.00001849,-0.00000933,-0.00000862,-0.00000850
 ,0.00050629,-0.00001859,-0.00057906,0.00005621,0.00003372,-0.00017691,
 0.01124241,0.00143852,-0.02146144,0.00116879,0.00020233,0.00124239,0.0
 0003332,-0.00008543,-0.00005547,0.00000175,-0.00002016,0.00000023,-0.0
 0000237,-0.00000389,0.00000354,0.00000278,0.00000533,0.00000413,0.0000
 0670,0.00000349,0.00000905,-0.00000576,0.00000742,0.00000770,0.0001301
 8,0.00012048,0.00002108,0.00000757,0.00010812,-0.00010719,0.00002169,-
 0.00002672,-0.00020678,-0.00000591,0.00000930,-0.00000683,0.00003958,-
 0.00001121,-0.00002382,0.00000231,0.00000215,-0.00000404,-0.00001239,0
 .00000453,0.00000475,0.00001920,-0.00000137,-0.00000681,-0.00000518,-0
 .00000452,-0.00000246,0.00001226,-0.00000007,-0.00000079,-0.00000284,0
 .00000261,0.00000455,0.00001784,-0.00002168,-0.00000144,0.00001975,-0.
 00005218,0.00001611,-0.00000339,0.00001187,-0.00000193,-0.00000685,-0.
 00000389,-0.00000117,0.00000252,0.00000236,0.00001514,0.00000970,0.000
 00355,0.00001307,-0.00000217,0.00000137,0.00001066,0.00001172,-0.00000
 406,-0.00000786,-0.00007366,0.00000301,-0.00005265,-0.00047184,0.00016
 062,-0.00000414,0.00008750,-0.00001312,0.00092824,0.11646991,0.0244309
 0,-0.21651629,-0.00004946,-0.00000757,0.00007215,0.00003760,0.00004168
 ,0.00012167,-0.00076851,-0.00020630,-0.00012955,-0.00020841,0.00035306
 ,-0.00017389,0.00003370,-0.00001356,0.00001057,-0.00000940,-0.00003880
 ,-0.00017021,0.00000520,-0.00000162,0.00006405,0.00366540,-0.00028599,
 -0.00580718,-0.12601902,-0.02317818,0.23784122,0.00008465,-0.00004208,
 0.00026619,-0.00003796,0.00019564,-0.00000108,-0.00059908,-0.00010665,
 0.00061163,0.00006892,0.00021279,-0.00008133,-0.00047198,0.00053356,0.
 00010736,-0.00019513,-0.00013776,0.00016304,0.00001730,0.00007522,-0.0
 0000784,-0.00007400,0.00001317,0.00015085,0.00020040,0.00010613,-0.000
 27126,0.00000827,0.00001022,-0.00006125,-0.00000167,0.00002890,0.00001
 920,0.00005047,0.00001230,-0.00000947,-0.00011031,-0.00009887,0.000035
 66,0.00004038,-0.00006569,-0.00001750,0.00001093,0.00000885,0.00000694
 ,0.00000879,-0.00003931,-0.00001307,0.00000682,0.00000793,0.00001353,-
 0.00029077,0.00000170,-0.00020605,-0.00061681,0.00021403,0.00054107,-0
 .00985642,0.00397036,-0.00104406,0.00055210,-0.00164048,-0.00285317,0.
 00041424,0.00018006,0.00005962,0.00001177,-0.00004196,-0.00000244,-0.0
 0001829,0.00000901,0.00004042,0.00000052,0.00003213,0.00003009,-0.0000
 2395,0.00002827,-0.00004141,-0.00001141,-0.00000222,0.00000648,0.00007
 899,0.00006087,-0.00000507,0.00017952,0.00003346,-0.00014521,-0.000040
 68,-0.00006480,0.00000047,-0.00002576,0.00001490,-0.00001656,0.0000045
 9,0.00002881,0.00001425,0.00000733,-0.00000382,-0.00001054,-0.00002597
 ,0.00000753,0.00000611,0.00000328,-0.00000380,-0.00000485,0.00000682,-
 0.00000472,-0.00000037,-0.00000493,-0.00000009,0.00000366,-0.00000759,
 -0.00000410,0.00000157,0.00000333,-0.00000359,-0.00000423,0.00000059,-
 0.00001062,0.00000796,0.00004905,0.00001468,-0.00003850,0.00002223,-0.
 00001734,-0.00000076,-0.00000274,-0.00001357,-0.00000276,-0.00000100,0
 .00000845,-0.00000085,0.00000641,0.00000031,0.00000419,0.,-0.00000617,
 0.00000976,0.00001893,-0.00002339,0.00000337,0.00011486,0.00005467,-0.
 00001465,0.00030939,-0.00031834,0.00015737,-0.26626314,0.07347535,-0.0
 4698755,0.00003789,0.00000227,-0.00035449,-0.00003202,-0.00006621,-0.0
 0012824,0.00013743,-0.00004124,0.00014833,0.00031475,-0.00028235,0.000
 15943,-0.00002485,-0.00001503,-0.00000392,-0.00000089,-0.00001329,0.00
 002026,0.00002055,0.00000084,-0.00006016,0.00104262,-0.00087996,0.0010
 1824,-0.01508041,0.00561987,-0.00399945,0.28998362,-0.00008920,0.00000
 685,0.00022250,-0.00004315,0.00036044,-0.00006177,0.00020532,0.0005145
 6,-0.00009983,-0.00003496,0.00012463,-0.00008775,0.00061147,-0.0008458
 6,-0.00059514,-0.00011608,-0.00008420,0.00000703,0.00000574,0.00001291
 ,0.00002204,-0.00004690,0.00004757,0.00011942,-0.00008716,-0.00008020,
 0.00007608,0.00003075,0.00000553,-0.00004794,0.00001256,-0.00004095,0.
 00002096,-0.00002174,0.00000464,0.00002036,-0.00000490,0.00004333,0.00
 002044,0.00004943,-0.00006009,0.00002775,-0.00002455,0.00002227,-0.000
 03365,-0.00001686,-0.00003799,0.00001745,0.00002266,-0.00001572,-0.000
 00636,-0.00010540,-0.00013513,0.00014251,-0.00109046,0.00072983,-0.000
 11792,-0.01747252,0.00454535,-0.00308039,-0.00021044,-0.00188061,-0.00
 280203,0.00072561,-0.00041165,-0.00041941,0.00001130,-0.00003127,0.000
 00436,-0.00000811,0.00000179,0.00002691,0.00000625,0.00002356,0.000022
 19,-0.00003807,-0.00003019,-0.00001628,-0.00001069,0.00000815,0.000016
 85,0.00001815,-0.00000617,-0.00010583,-0.00048527,0.00000068,0.0003580
 4,0.00028070,-0.00028533,0.00002432,-0.00004134,-0.00000702,0.00000853
 ,-0.00013081,0.00007599,0.00010230,0.00002369,-0.00001201,-0.00002078,
 0.00001416,-0.00001428,-0.00002274,-0.00000327,-0.00000102,0.00000612,
 0.00001211,-0.00001087,-0.00000198,0.00000157,-0.00000057,-0.00001000,
 -0.00000505,-0.00000305,0.00000585,0.00000579,-0.00000189,-0.00000337,
 -0.00000358,-0.00000149,0.00000207,0.00000469,0.00001297,-0.00005377,0
 .00004890,-0.00003714,-0.00001660,0.00002353,-0.00002206,-0.00002413,-
 0.00000853,0.00000331,0.00001463,-0.00001583,0.00000268,0.00002123,0.0
 0000639,-0.00000460,-0.00000342,0.00002299,0.00001949,-0.00004073,0.00
 005069,0.00002558,0.00000128,0.00008292,0.00078702,0.00075768,0.073952
 00,-0.06850992,0.01539271,-0.00009630,-0.00007491,-0.00040860,0.000026
 34,-0.00001376,0.00013480,0.00014079,0.00007022,0.00011675,-0.00020080
 ,0.00033418,-0.00013323,-0.00001107,-0.00000537,0.00000381,-0.00000410
 ,-0.00000560,0.00002257,0.00000829,-0.00000129,-0.00000650,0.02927108,
 -0.00716004,0.00470196,-0.00423386,-0.00008032,-0.00068957,-0.08101487
 ,0.07212908,0.00006468,0.00010959,0.00013230,0.00023142,0.00001136,0.0
 0001596,-0.00145220,0.00028045,0.00050180,-0.00004471,0.00014926,-0.00
 011217,0.00023827,-0.00026099,-0.00046141,-0.00020333,-0.00013655,0.00
 016229,-0.00000015,0.00010063,0.00003968,-0.00003174,0.00000230,0.0000
 6416,0.00015177,0.00003248,0.00001470,-0.00004026,-0.00003461,0.000045
 69,-0.00001011,0.00005909,-0.00000537,0.00001107,0.00000103,0.00000437
 ,-0.00001745,-0.00000990,0.00001794,0.00000812,0.00000623,0.00000836,-
 0.00000012,-0.00001950,-0.00001224,-0.00000180,-0.00000330,-0.00006384
 ,-0.00000264,0.00001475,0.00003103,-0.00015770,0.00013931,0.00010012,-
 0.00157680,0.00036439,0.00024839,-0.02172365,0.00860786,-0.00564413,-0
 .00039310,-0.00298895,-0.00315702,0.00060261,-0.00092639,0.00035897,0.
 00001855,0.00003083,0.00000205,-0.00000335,0.00001231,0.00003076,0.000
 00647,0.00002538,0.00002145,0.00000676,0.00002794,-0.00002857,-0.00000
 174,-0.00001098,-0.00001444,-0.00006270,-0.00004082,0.00000364,0.00033
 316,-0.00005558,-0.00013468,0.00000578,0.00007448,0.00016973,0.0000013
 4,0.00000251,-0.00000465,-0.00000724,-0.00001018,-0.00002087,-0.000017
 46,0.00000332,0.00001438,-0.00002633,0.00001405,0.00001910,-0.00001652
 ,0.00000152,0.00000292,0.00000497,0.00000160,0.00000190,-0.00001719,-0
 .00000225,-0.00000186,0.00000276,-0.00000270,-0.00000418,-0.00000589,0
 .00000763,0.00000006,-0.00000639,0.00000746,-0.00000205,0.00004015,-0.
 00000511,0.00006654,0.00000427,0.00000489,0.00001158,-0.00003423,0.000
 00236,-0.00000344,-0.00000051,-0.00001458,-0.00002887,0.00001241,0.000
 00187,-0.00001670,-0.00000700,0.00000414,0.00001305,0.00002964,-0.0000
 3611,0.00001031,0.00013837,0.00000922,0.00000272,0.00063323,0.00013202
 ,0.00085162,-0.04611518,0.01525544,-0.05352639,-0.00009957,-0.00009072
 ,-0.00060897,0.00001835,-0.00005634,-0.00000930,-0.00053037,-0.0002284
 3,-0.00015447,0.00037627,-0.00017850,-0.00012903,-0.00002598,-0.000007
 32,-0.00000691,0.00000695,-0.00000729,0.00005073,0.00000413,-0.0000002
 4,-0.00006110,-0.00740335,0.00195633,-0.00221615,0.02430421,-0.0087949
 0,0.00600011,0.05278101,-0.01353176,0.05741040\\0.00000467,-0.00013078
 ,-0.00000020,-0.00003658,-0.00001023,0.00001551,0.00002211,-0.00001454
 ,-0.00001474,-0.00002069,0.00002405,0.00002798,0.00000276,0.00000740,-
 0.00000134,0.00001948,-0.00000151,0.00000713,0.00003177,0.00002363,-0.
 00000909,0.00001606,0.00002582,0.00002423,0.00001270,0.00002390,-0.000
 02299,-0.00001880,0.00002993,-0.00002617,-0.00003144,0.00002339,0.0000
 1051,-0.00002074,-0.00000208,-0.00000590,-0.00000337,0.00001131,0.0000
 0261,-0.00000311,-0.00004609,0.00005730,0.00001276,0.00003998,-0.00002
 344,0.00001932,0.00002345,-0.00001309,-0.00003817,-0.00005380,0.000006
 79,-0.00000031,-0.00004911,-0.00006644,-0.00001505,0.00003919,0.000022
 38,-0.00001963,0.00002693,0.00001410,0.00003739,-0.00004984,-0.0000082
 3,-0.00000739,-0.00001135,0.00001106,0.00000455,-0.00000932,-0.0000050
 9,0.00000641,0.00000249,-0.00000359,-0.00000578,0.00000987,-0.00000434
 ,0.00000615,0.00001106,0.00000732,0.00000534,-0.00001505,-0.00000993,-
 0.00000486,-0.00001461,-0.00000405,0.00001618,0.00001599,0.00000492,0.
 00001531,0.00002063,0.00000104,0.00001285,0.00001180,-0.00000939,-0.00
 002155,0.00001695,-0.00001234,0.00000997,0.00000758,-0.00000390,-0.000
 02327,0.00000061,0.00001905,0.00000229,-0.00000571,0.00000422,0.000006
 45,0.00000034,-0.00000216,-0.00000530,0.00000856,-0.00001133,0.0000018
 5,0.00001003,0.00000319,-0.00000647,0.00000243,0.00000333,-0.00000336,
 -0.00000872,0.00000517,-0.00000425,0.00000151,-0.00001123,0.00001013,0
 .00000346,0.00001055,0.00000731,-0.00000619,-0.00000232,0.00001323,-0.
 00000358,-0.00000888,0.00001252,0.00000118,-0.00001034,0.00000043,0.00
 000278,-0.00000995,-0.00001595,-0.00000132,0.00000778,0.00002022,0.000
 01564,0.00001289,-0.00000987,-0.00000111,0.00000301,0.00002896,-0.0000
 0237,-0.00001709,-0.00000225,-0.00000592,-0.00000526,-0.00000857,-0.00
 000095,0.00000163,0.00000636,0.00000669,0.00001202,-0.00000124,0.00000
 780,-0.00000254,-0.00000978,0.00000271,-0.00001175,-0.00000708,-0.0000
 0573,0.00000192,0.00000350,0.00000182,0.00001014,-0.00001461,-0.000004
 00,0.00001109,-0.00000161,0.00000125,0.00000867,-0.00000795,-0.0000082
 7,0.00000956\\\@


 ON A CLEAR DISK YOU CAN SEEK FOREVER.
 Job cpu time:       0 days  4 hours 56 minutes 26.8 seconds.
 File lengths (MBytes):  RWF=   2047 Int=      0 D2E=      0 Chk=     80 Scr=      1
 Normal termination of Gaussian 09 at Tue Nov 16 15:03:45 2021.
