 Entering Gaussian System, Link 0=g09
 Input=RR_Me_Ferrolane_3_SPE.com
 Output=RR_Me_Ferrolane_3_SPE.log
 Initial command:
 /gstore/apps/gaussian/g09.e01-foss-2017a/g09/l1.exe "/local/22791346/Gau-20499.inp" -scrdir="/local/22791346/"
 Entering Link 1 = /gstore/apps/gaussian/g09.e01-foss-2017a/g09/l1.exe PID=     20500.
  
 Copyright (c) 1988,1990,1992,1993,1995,1998,2003,2009,2015,
            Gaussian, Inc.  All Rights Reserved.
  
 This is part of the Gaussian(R) 09 program.  It is based on
 the Gaussian(R) 03 system (copyright 2003, Gaussian, Inc.),
 the Gaussian(R) 98 system (copyright 1998, Gaussian, Inc.),
 the Gaussian(R) 94 system (copyright 1995, Gaussian, Inc.),
 the Gaussian 92(TM) system (copyright 1992, Gaussian, Inc.),
 the Gaussian 90(TM) system (copyright 1990, Gaussian, Inc.),
 the Gaussian 88(TM) system (copyright 1988, Gaussian, Inc.),
 the Gaussian 86(TM) system (copyright 1986, Carnegie Mellon
 University), and the Gaussian 82(TM) system (copyright 1983,
 Carnegie Mellon University). Gaussian is a federally registered
 trademark of Gaussian, Inc.
  
 This software contains proprietary and confidential information,
 including trade secrets, belonging to Gaussian, Inc.
  
 This software is provided under written license and may be
 used, copied, transmitted, or stored only in accord with that
 written license.
  
 The following legend is applicable only to US Government
 contracts under FAR:
  
                    RESTRICTED RIGHTS LEGEND
  
 Use, reproduction and disclosure by the US Government is
 subject to restrictions as set forth in subparagraphs (a)
 and (c) of the Commercial Computer Software - Restricted
 Rights clause in FAR 52.227-19.
  
 Gaussian, Inc.
 340 Quinnipiac St., Bldg. 40, Wallingford CT 06492
  
  
 ---------------------------------------------------------------
 Warning -- This program may not be used in any manner that
 competes with the business of Gaussian, Inc. or will provide
 assistance to any competitor of Gaussian, Inc.  The licensee
 of this program is prohibited from giving any competitor of
 Gaussian, Inc. access to this program.  By using this program,
 the user acknowledges that Gaussian, Inc. is engaged in the
 business of creating and licensing software in the field of
 computational chemistry and represents and warrants to the
 licensee that it is not a competitor of Gaussian, Inc. and that
 it will not use this program in any manner prohibited above.
 ---------------------------------------------------------------
  

 Cite this work as:
 Gaussian 09, Revision E.01,
 M. J. Frisch, G. W. Trucks, H. B. Schlegel, G. E. Scuseria, 
 M. A. Robb, J. R. Cheeseman, G. Scalmani, V. Barone, B. Mennucci, 
 G. A. Petersson, H. Nakatsuji, M. Caricato, X. Li, H. P. Hratchian, 
 A. F. Izmaylov, J. Bloino, G. Zheng, J. L. Sonnenberg, M. Hada, 
 M. Ehara, K. Toyota, R. Fukuda, J. Hasegawa, M. Ishida, T. Nakajima, 
 Y. Honda, O. Kitao, H. Nakai, T. Vreven, J. A. Montgomery, Jr., 
 J. E. Peralta, F. Ogliaro, M. Bearpark, J. J. Heyd, E. Brothers, 
 K. N. Kudin, V. N. Staroverov, T. Keith, R. Kobayashi, J. Normand, 
 K. Raghavachari, A. Rendell, J. C. Burant, S. S. Iyengar, J. Tomasi, 
 M. Cossi, N. Rega, J. M. Millam, M. Klene, J. E. Knox, J. B. Cross, 
 V. Bakken, C. Adamo, J. Jaramillo, R. Gomperts, R. E. Stratmann, 
 O. Yazyev, A. J. Austin, R. Cammi, C. Pomelli, J. W. Ochterski, 
 R. L. Martin, K. Morokuma, V. G. Zakrzewski, G. A. Voth, 
 P. Salvador, J. J. Dannenberg, S. Dapprich, A. D. Daniels, 
 O. Farkas, J. B. Foresman, J. V. Ortiz, J. Cioslowski, 
 and D. J. Fox, Gaussian, Inc., Wallingford CT, 2013.
 
 ******************************************
 Gaussian 09:  ES64L-G09RevE.01 30-Nov-2015
                 5-Dec-2021 
 ******************************************
 %nprocs=14
 Will use up to   14 processors via shared memory.
 %mem=128GB
 %chk=RR_Me_Ferrolane_3_SPE.chk
 ----------------------------------------------------------------------
 # PBE1PBE gen pseudo=read int=(grid=ultrafine) empiricaldispersion=GD3
 BJ nmr=giao
 ----------------------------------------------------------------------
 1/38=1/1;
 2/12=2,17=6,18=5,40=1/2;
 3/5=7,11=2,16=1,17=8,25=1,30=1,74=-13,75=-5,124=41/1,2,8,3;
 4//1;
 5/5=2,38=5/2;
 8/6=1,10=90,11=11/1;
 10/13=100,45=16/2;
 6/7=2,8=2,9=2,10=2,28=1/1;
 99/9=1/99;
 -----------------------
 RR_Me_Ferrolane_3 title
 -----------------------
 Symbolic Z-matrix:
 Charge =  0 Multiplicity = 1
 Fe                   -0.04105   2.61344  -0.02528 
 P                    -1.77664  -0.26719  -0.0335 
 P                     1.80004  -0.22246  -0.00208 
 C                    -1.53259   1.43108  -0.64212 
 C                    -0.68422   1.78458  -1.75851 
 C                    -0.6754    3.21282  -1.88705 
 C                    -1.52908   3.75748  -0.87075 
 C                    -2.06607   2.66778  -0.10632 
 C                     1.49797   1.4794    0.57758 
 C                     1.9834    2.74237   0.05764 
 C                     1.40372   3.80218   0.83323 
 C                     0.57232   3.21438   1.84372 
 C                     0.6352    1.78952   1.69737 
 C                    -3.35349  -0.84978  -0.90963 
 C                    -4.31432  -1.14511   0.26606 
 C                    -2.56247  -0.04181   1.66339 
 C                    -4.07989  -0.09871   1.37017 
 C                     3.28113  -0.71571   1.04871 
 C                     4.46672  -0.15649   0.23903 
 C                     2.7698   -0.03323  -1.60976 
 C                     4.20363  -0.4876   -1.23767 
 H                    -0.10448   1.07787  -2.35272 
 H                    -0.08221   3.78507  -2.60105 
 H                    -1.69727   4.81697  -0.67364 
 H                    -2.72413   2.76114   0.7578 
 H                     2.63453   2.87687  -0.80576 
 H                     0.09256   1.05299   2.29066 
 Cl                   -1.59624  -3.44786  -0.07411 
 Cl                    1.75955  -3.3482   -0.29202 
 Pd                    0.03273  -1.69499  -0.09057 
 H                    -3.08664  -1.78641  -1.42255 
 C                    -3.91065   0.16852  -1.91131 
 H                    -2.26483   0.95533   2.03197 
 C                    -2.08885  -1.11216   2.65725 
 H                    -4.09414  -2.15463   0.65301 
 H                    -5.36272  -1.13817  -0.08344 
 H                    -4.43378   0.89222   1.02789 
 H                    -4.64118  -0.3433    2.29016 
 H                     1.53226   4.86929   0.64787 
 H                    -0.04067   3.7555    2.5653 
 H                    -4.80908  -0.25642  -2.39321 
 H                    -3.18352   0.40832  -2.7048 
 H                    -4.20163   1.11778  -1.42927 
 H                    -2.30449  -2.12921   2.29189 
 H                    -0.99675  -1.06003   2.8108 
 H                    -2.58797  -0.96452   3.63177 
 H                     3.28722  -1.81764   0.98479 
 C                     3.21888  -0.27922   2.51081 
 H                     2.77139   1.04846  -1.83523 
 C                     2.183    -0.79852  -2.79999 
 H                     5.41607  -0.59625   0.59501 
 H                     4.54027   0.93956   0.38584 
 H                     4.94287  -0.01929  -1.91173 
 H                     4.26639  -1.58162  -1.38005 
 H                     4.1164   -0.64037   3.04338 
 H                     3.18261   0.81898   2.61283 
 H                     2.33772  -0.70436   3.0214 
 H                     2.84116  -0.67869  -3.6795 
 H                     1.17932  -0.43424  -3.0773 
 H                     2.09525  -1.87139  -2.56369 
 
 Stoichiometry    C22H32Cl2FeP2Pd
 Framework group  C1[X(C22H32Cl2FeP2Pd)]
 Deg. of freedom   174
 Full point group                 C1      NOp   1
 Largest Abelian subgroup         C1      NOp   1
 Largest concise Abelian subgroup C1      NOp   1
                         Standard orientation:                         
 ---------------------------------------------------------------------
 Center     Atomic      Atomic             Coordinates (Angstroms)
 Number     Number       Type             X           Y           Z
 ---------------------------------------------------------------------
      1         26           0       -0.059828    2.605755   -0.041493
      2         15           0       -1.768992   -0.290607   -0.055036
      3         15           0        1.805924   -0.212820    0.042523
      4          6           0       -1.528885    1.404158   -0.674890
      5          6           0       -0.663009    1.755143   -1.778556
      6          6           0       -0.664620    3.182162   -1.920273
      7          6           0       -1.542012    3.728293   -0.925184
      8          6           0       -2.083391    2.640793   -0.160716
      9          6           0        1.477782    1.491460    0.600505
     10          6           0        1.961478    2.753993    0.077882
     11          6           0        1.357891    3.815526    0.832590
     12          6           0        0.513066    3.229450    1.832896
     13          6           0        0.591478    1.803944    1.701085
     14          6           0       -3.323885   -0.895652   -0.954873
     15          6           0       -4.303843   -1.188953    0.205441
     16          6           0       -2.588408   -0.056846    1.624748
     17          6           0       -4.099510   -0.130336    1.303879
     18          6           0        3.271488   -0.682801    1.125271
     19          6           0        4.466930   -0.120208    0.332594
     20          6           0        2.803834   -0.029505   -1.548530
     21          6           0        4.234485   -0.467269   -1.145577
     22          1           0       -0.065928    1.048336   -2.355230
     23          1           0       -0.063355    3.753229   -2.628438
     24          1           0       -1.723378    4.787964   -0.741165
     25          1           0       -2.758299    2.736060    0.690103
     26          1           0        2.627403    2.886506   -0.774470
     27          1           0        0.044475    1.067959    2.291044
     28         17           0       -1.559283   -3.469726   -0.062504
     29         17           0        1.798959   -3.341335   -0.218843
     30         46           0        0.053891   -1.702234   -0.065056
     31          1           0       -3.039088   -1.834477   -1.453947
     32          6           0       -3.871357    0.108245   -1.976236
     33          1           0       -2.306683    0.946324    1.989443
     34          6           0       -2.123847   -1.113628    2.637223
     35          1           0       -4.081870   -2.192810    0.605861
     36          1           0       -5.345543   -1.194833   -0.163561
     37          1           0       -4.455828    0.854121    0.945806
     38          1           0       -4.675678   -0.371591    2.215508
     39          1           0        1.480281    4.882021    0.639670
     40          1           0       -0.118147    3.771543    2.537840
     41          1           0       -4.756759   -0.329314   -2.470777
     42          1           0       -3.131698    0.347398   -2.758269
     43          1           0       -4.179814    1.059196   -1.508614
     44          1           0       -2.323467   -2.135922    2.277455
     45          1           0       -1.035325   -1.050080    2.810581
     46          1           0       -2.642414   -0.961610    3.600858
     47          1           0        3.288669   -1.785168    1.071798
     48          6           0        3.177989   -0.233472    2.581812
     49          1           0        2.799913    1.050045   -1.784050
     50          6           0        2.246287   -0.811050   -2.742255
     51          1           0        5.413372   -0.547957    0.710291
     52          1           0        4.527868    0.977775    0.470484
     53          1           0        4.981957    0.001573   -1.810123
     54          1           0        4.309726   -1.561935   -1.276521
     55          1           0        4.068603   -0.581470    3.134347
     56          1           0        3.129944    0.865239    2.672850
     57          1           0        2.291288   -0.661952    3.079870
     58          1           0        2.919679   -0.693277   -3.610451
     59          1           0        1.244736   -0.458543   -3.041600
     60          1           0        2.163792   -1.882462   -2.497596
 ---------------------------------------------------------------------
 Rotational constants (GHZ):      0.1515258      0.1463315      0.0959206
 General basis read from cards:  (5D, 7F)
 ======================================================================================================
                                       Pseudopotential Parameters
 ======================================================================================================
  Center     Atomic      Valence      Angular      Power
  Number     Number     Electrons     Momentum     of R      Exponent        Coefficient   SO-Coeffient
 ======================================================================================================
    1         26           16
                                      F and up 
                                                     2        1.0000000        0.00000000    0.00000000
                                      S - F
                                                     2       20.9300000      253.74958800    0.00000000
                                                     2        9.4450000       37.92284500    0.00000000
                                      P - F
                                                     2       21.7600000      161.03681200    0.00000000
                                                     2        9.1780000       27.65129800    0.00000000
                                      D - F
                                                     2       25.9000000      -24.43127600    0.00000000
                                                     2        8.8350000       -1.43425100    0.00000000
    2         15
                                   No pseudopotential on this center.
    3         15
                                   No pseudopotential on this center.
    4          6
                                   No pseudopotential on this center.
    5          6
                                   No pseudopotential on this center.
    6          6
                                   No pseudopotential on this center.
    7          6
                                   No pseudopotential on this center.
    8          6
                                   No pseudopotential on this center.
    9          6
                                   No pseudopotential on this center.
   10          6
                                   No pseudopotential on this center.
   11          6
                                   No pseudopotential on this center.
   12          6
                                   No pseudopotential on this center.
   13          6
                                   No pseudopotential on this center.
   14          6
                                   No pseudopotential on this center.
   15          6
                                   No pseudopotential on this center.
   16          6
                                   No pseudopotential on this center.
   17          6
                                   No pseudopotential on this center.
   18          6
                                   No pseudopotential on this center.
   19          6
                                   No pseudopotential on this center.
   20          6
                                   No pseudopotential on this center.
   21          6
                                   No pseudopotential on this center.
   22          1
                                   No pseudopotential on this center.
   23          1
                                   No pseudopotential on this center.
   24          1
                                   No pseudopotential on this center.
   25          1
                                   No pseudopotential on this center.
   26          1
                                   No pseudopotential on this center.
   27          1
                                   No pseudopotential on this center.
   28         17
                                   No pseudopotential on this center.
   29         17
                                   No pseudopotential on this center.
   30         46           18
                                      G and up 
                                                     2        1.0000000        0.00000000    0.00000000
                                      S - G
                                                     2       12.4300000      240.22904000    0.00000000
                                                     2        6.1707590       35.17194300    0.00000000
                                      P - G
                                                     2       11.0800000      170.41727600    0.00000000
                                                     2        5.8295540       28.47213300    0.00000000
                                      D - G
                                                     2        9.5100000       69.01384500    0.00000000
                                                     2        4.1397810       11.75086200    0.00000000
                                      F - G
                                                     2       13.2700000      -31.92955400    0.00000000
                                                     2        6.6300000       -5.39821700    0.00000000
   31          1
                                   No pseudopotential on this center.
   32          6
                                   No pseudopotential on this center.
   33          1
                                   No pseudopotential on this center.
   34          6
                                   No pseudopotential on this center.
   35          1
                                   No pseudopotential on this center.
   36          1
                                   No pseudopotential on this center.
   37          1
                                   No pseudopotential on this center.
   38          1
                                   No pseudopotential on this center.
   39          1
                                   No pseudopotential on this center.
   40          1
                                   No pseudopotential on this center.
   41          1
                                   No pseudopotential on this center.
   42          1
                                   No pseudopotential on this center.
   43          1
                                   No pseudopotential on this center.
   44          1
                                   No pseudopotential on this center.
   45          1
                                   No pseudopotential on this center.
   46          1
                                   No pseudopotential on this center.
   47          1
                                   No pseudopotential on this center.
   48          6
                                   No pseudopotential on this center.
   49          1
                                   No pseudopotential on this center.
   50          6
                                   No pseudopotential on this center.
   51          1
                                   No pseudopotential on this center.
   52          1
                                   No pseudopotential on this center.
   53          1
                                   No pseudopotential on this center.
   54          1
                                   No pseudopotential on this center.
   55          1
                                   No pseudopotential on this center.
   56          1
                                   No pseudopotential on this center.
   57          1
                                   No pseudopotential on this center.
   58          1
                                   No pseudopotential on this center.
   59          1
                                   No pseudopotential on this center.
   60          1
                                   No pseudopotential on this center.
 ======================================================================================================
 There are  1240 symmetry adapted cartesian basis functions of A   symmetry.
 There are  1101 symmetry adapted basis functions of A   symmetry.
  1101 basis functions,  1794 primitive gaussians,  1240 cartesian basis functions
   131 alpha electrons      131 beta electrons
       nuclear repulsion energy      4489.8835537177 Hartrees.
 NAtoms=   60 NActive=   60 NUniq=   60 SFac= 1.00D+00 NAtFMM=   60 NAOKFM=T Big=T
 Integral buffers will be    131072 words long.
 Raffenetti 2 integral format.
 Two-electron integral symmetry is turned on.
 Nuclear repulsion after empirical dispersion term =     4489.7799334403 Hartrees.
 One-electron integrals computed using PRISM.
   1 Symmetry operations used in ECPInt.
 ECPInt:  NShTT=  101926 NPrTT=  307682 LenC2=   89562 LenP2D=  189275.
 LDataN:  DoStor=T MaxTD1= 7 Len=  274
 NBasis=  1101 RedAO= T EigKep=  1.42D-05  NBF=  1101
 NBsUse=  1101 1.00D-06 EigRej= -1.00D+00 NBFU=  1101
 Defaulting to unpruned grid for atomic number  46.
 ExpMin= 1.00D-02 ExpMax= 6.95D+04 ExpMxC= 2.37D+03 IAcc=3 IRadAn=         5 AccDes= 0.00D+00
 Harris functional with IExCor= 1009 and IRadAn=       5 diagonalized for initial guess.
 HarFok:  IExCor= 1009 AccDes= 0.00D+00 IRadAn=         5 IDoV= 1 UseB2=F ITyADJ=14
 ICtDFT=  3500011 ScaDFX=  1.000000  1.000000  1.000000  1.000000
 Defaulting to unpruned grid for atomic number  46.
 Defaulting to unpruned grid for atomic number  46.
 Defaulting to unpruned grid for atomic number  46.
 Defaulting to unpruned grid for atomic number  46.
 Defaulting to unpruned grid for atomic number  46.
 Defaulting to unpruned grid for atomic number  46.
 Defaulting to unpruned grid for atomic number  46.
 Defaulting to unpruned grid for atomic number  46.
 Defaulting to unpruned grid for atomic number  46.
 Defaulting to unpruned grid for atomic number  46.
 Defaulting to unpruned grid for atomic number  46.
 Defaulting to unpruned grid for atomic number  46.
 Defaulting to unpruned grid for atomic number  46.
 Defaulting to unpruned grid for atomic number  46.
 FoFCou: FMM=F IPFlag=           0 FMFlag=      100000 FMFlg1=        2001
         NFxFlg=           0 DoJE=T BraDBF=F KetDBF=T FulRan=T
         wScrn=  0.000000 ICntrl=     500 IOpCl=  0 I1Cent=   200000004 NGrid=           0
         NMat0=    1 NMatS0=      1 NMatT0=    0 NMatD0=    1 NMtDS0=    0 NMtDT0=    0
 Petite list used in FoFCou.
 Requested convergence on RMS density matrix=1.00D-08 within 128 cycles.
 Requested convergence on MAX density matrix=1.00D-06.
 Requested convergence on             energy=1.00D-06.
 No special actions if energy rises.
 Defaulting to unpruned grid for atomic number  46.
 Defaulting to unpruned grid for atomic number  46.
 Defaulting to unpruned grid for atomic number  46.
 Defaulting to unpruned grid for atomic number  46.
 Defaulting to unpruned grid for atomic number  46.
 Defaulting to unpruned grid for atomic number  46.
 Defaulting to unpruned grid for atomic number  46.
 Defaulting to unpruned grid for atomic number  46.
 Defaulting to unpruned grid for atomic number  46.
 Defaulting to unpruned grid for atomic number  46.
 Defaulting to unpruned grid for atomic number  46.
 Defaulting to unpruned grid for atomic number  46.
 Defaulting to unpruned grid for atomic number  46.
 Defaulting to unpruned grid for atomic number  46.
 DSYEVD-2 returned Info=     1176935 IAlg= 4 N=  1101 NDim=  1101 NE2=    15599661 trying  DSYEV.
 EnCoef did     3 forward-backward iterations
 EnCoef did   100 forward-backward iterations
 EnCoef did     4 forward-backward iterations
 EnCoef did     5 forward-backward iterations
 EnCoef did     4 forward-backward iterations
 EnCoef did   100 forward-backward iterations
 EnCoef did     3 forward-backward iterations
 Restarting incremental Fock formation.
 SCF Done:  E(RPBE1PBE) =  -2711.51114065     A.U. after   25 cycles
            NFock= 25  Conv=0.36D-08     -V/T= 2.0547
 DoSCS=F DFT=T ScalE2(SS,OS)=  1.000000  1.000000
 Range of M.O.s used for correlation:     1  1101
 NBasis=  1101 NAE=   131 NBE=   131 NFC=     0 NFV=     0
 NROrb=   1101 NOA=   131 NOB=   131 NVA=   970 NVB=   970

 **** Warning!!: The largest alpha MO coefficient is  0.32700089D+02

          Differentiating once with respect to magnetic field using GIAOs.
          Electric field/nuclear overlap derivatives assumed to be zero.
 Defaulting to unpruned grid for atomic number  46.
 FoFCou: FMM=F IPFlag=           0 FMFlag=      100000 FMFlg1=        2001
         NFxFlg=           0 DoJE=F BraDBF=F KetDBF=T FulRan=T
         wScrn=  0.000000 ICntrl=    6100 IOpCl=  0 I1Cent=           7 NGrid=          60
         NMat0=    1 NMatS0=      1 NMatT0=    0 NMatD0=    1 NMtDS0=    0 NMtDT0=    0
 Symmetry not used in FoFCou.
   1 Symmetry operations used in ECPInt.
 ECPInt:  NShTT=  101926 NPrTT=  307682 LenC2=  101927 LenP2D=  307682.
 LDataN:  DoStor=T MaxTD1= 8 Len=  415
 FoFJK:  IHMeth= 1 ICntrl=    6127 DoSepK=F KAlg= 0 I1Cent=   0 FoldK=F
 IRaf=         1 NMat=   1 IRICut=       1 DoRegI=T DoRafI=F ISym2E= 0.
 Defaulting to unpruned grid for atomic number  46.
 Defaulting to unpruned grid for atomic number  46.
 Defaulting to unpruned grid for atomic number  46.
 Defaulting to unpruned grid for atomic number  46.
 Defaulting to unpruned grid for atomic number  46.
 Defaulting to unpruned grid for atomic number  46.
 Defaulting to unpruned grid for atomic number  46.
 Defaulting to unpruned grid for atomic number  46.
 Defaulting to unpruned grid for atomic number  46.
 Defaulting to unpruned grid for atomic number  46.
 Defaulting to unpruned grid for atomic number  46.
 Defaulting to unpruned grid for atomic number  46.
 Defaulting to unpruned grid for atomic number  46.
 Defaulting to unpruned grid for atomic number  46.
          There are     3 degrees of freedom in the 1st order CPHF.  IDoFFX=0 NUNeed=     3.
      3 vectors produced by pass  0 Test12= 4.24D-12 3.33D-08 XBig12= 1.04D+02 2.02D+00.
 AX will form     3 AO Fock derivatives at one time.
      3 vectors produced by pass  1 Test12= 4.24D-12 3.33D-08 XBig12= 9.40D-01 5.07D-01.
      3 vectors produced by pass  2 Test12= 4.24D-12 3.33D-08 XBig12= 3.35D-02 4.85D-02.
      3 vectors produced by pass  3 Test12= 4.24D-12 3.33D-08 XBig12= 3.87D-04 7.57D-03.
      3 vectors produced by pass  4 Test12= 4.24D-12 3.33D-08 XBig12= 1.47D-05 1.24D-03.
      3 vectors produced by pass  5 Test12= 4.24D-12 3.33D-08 XBig12= 2.80D-07 2.13D-04.
      3 vectors produced by pass  6 Test12= 4.24D-12 3.33D-08 XBig12= 8.33D-09 4.71D-05.
      3 vectors produced by pass  7 Test12= 4.24D-12 3.33D-08 XBig12= 7.46D-11 3.96D-06.
      3 vectors produced by pass  8 Test12= 4.24D-12 3.33D-08 XBig12= 5.29D-13 2.62D-07.
 InvSVY:  IOpt=1 It=  1 EMax= 3.55D-15
 Solved reduced A of dimension    27 with     3 vectors.
 Calculating GIAO nuclear magnetic shielding tensors.
 SCF GIAO Magnetic shielding tensor (ppm):
      1  Fe   Isotropic = -5863.0305   Anisotropy =  7805.7689
   XX= -3797.1562   YX=   145.9121   ZX=  3896.7060
   XY=   143.1012   YY= -8501.8450   ZY=   157.5424
   XZ=  3715.9485   YZ=   151.2376   ZZ= -5290.0904
   Eigenvalues: -8515.5070 -8414.4000  -659.1846
      2  P    Isotropic =   202.3547   Anisotropy =   103.3670
   XX=   266.9136   YX=   -25.9899   ZX=    12.0686
   XY=   -15.8822   YY=   165.8568   ZY=    24.4597
   XZ=   -12.7602   YZ=    14.9226   ZZ=   174.2937
   Eigenvalues:   147.6931   188.1050   271.2660
      3  P    Isotropic =   213.4231   Anisotropy =   126.8268
   XX=   279.9614   YX=    53.1476   ZX=    12.1867
   XY=    37.2924   YY=   182.0012   ZY=   -20.1223
   XZ=     8.0005   YZ=     2.8863   ZZ=   178.3069
   Eigenvalues:   157.6112   184.6839   297.9744
      4  C    Isotropic =   105.6803   Anisotropy =    84.6140
   XX=   125.4581   YX=   -22.9882   ZX=    34.9394
   XY=   -16.2104   YY=    69.4770   ZY=     1.8839
   XZ=    36.1071   YZ=    -6.5139   ZZ=   122.1057
   Eigenvalues:    61.6421    93.3091   162.0896
      5  C    Isotropic =   104.1931   Anisotropy =    85.9577
   XX=   134.3142   YX=    11.3130   ZX=    40.5949
   XY=    13.4563   YY=    87.6066   ZY=   -27.5485
   XZ=    45.4830   YZ=   -38.8096   ZZ=    90.6586
   Eigenvalues:    39.1200   111.9612   161.4983
      6  C    Isotropic =   106.8295   Anisotropy =    90.8617
   XX=   139.2967   YX=     1.2585   ZX=    39.8128
   XY=    -5.7170   YY=    95.5297   ZY=    23.2506
   XZ=    51.5773   YZ=    30.2319   ZZ=    85.6620
   Eigenvalues:    47.0280   106.0565   167.4039
      7  C    Isotropic =   110.1495   Anisotropy =    87.6450
   XX=   133.3908   YX=    34.4681   ZX=    30.4019
   XY=    22.8035   YY=    61.7499   ZY=     0.9043
   XZ=    24.3552   YZ=    17.7744   ZZ=   135.3079
   Eigenvalues:    51.7099   110.1592   168.5795
      8  C    Isotropic =   107.9876   Anisotropy =    80.5235
   XX=    97.1904   YX=     7.1631   ZX=    62.3004
   XY=    13.0673   YY=   113.9811   ZY=    -6.0619
   XZ=    48.8771   YZ=     1.8899   ZZ=   112.7913
   Eigenvalues:    47.6319   114.6609   161.6699
      9  C    Isotropic =   106.9424   Anisotropy =    82.6400
   XX=   124.9593   YX=    29.4442   ZX=    32.0774
   XY=    20.4742   YY=    72.7486   ZY=     2.7631
   XZ=    32.3547   YZ=    10.1405   ZZ=   123.1192
   Eigenvalues:    61.9671    96.8243   162.0357
     10  C    Isotropic =   107.8166   Anisotropy =    79.4454
   XX=    98.5195   YX=    -9.9319   ZX=    60.7116
   XY=   -13.7221   YY=   112.3318   ZY=     8.8485
   XZ=    48.4484   YZ=     4.0209   ZZ=   112.5986
   Eigenvalues:    47.8498   114.8199   160.7802
     11  C    Isotropic =   110.6394   Anisotropy =    87.6359
   XX=   136.9519   YX=   -29.8345   ZX=    30.2638
   XY=   -18.5857   YY=    59.4306   ZY=     1.2774
   XZ=    26.1358   YZ=   -15.3506   ZZ=   135.5356
   Eigenvalues:    52.4772   110.3776   169.0633
     12  C    Isotropic =   106.7592   Anisotropy =    90.4844
   XX=   138.9389   YX=     1.3711   ZX=    40.8883
   XY=     8.7953   YY=    95.1809   ZY=   -21.2416
   XZ=    52.3614   YZ=   -27.9307   ZZ=    86.1580
   Eigenvalues:    47.0673   106.1282   167.0822
     13  C    Isotropic =   103.5072   Anisotropy =    88.9744
   XX=   136.4135   YX=    -7.5451   ZX=    40.8587
   XY=    -8.8788   YY=    84.8298   ZY=    28.7928
   XZ=    43.5826   YZ=    40.1866   ZZ=    89.2783
   Eigenvalues:    38.9520   108.7462   162.8235
     14  C    Isotropic =   140.2734   Anisotropy =    35.8596
   XX=   158.1378   YX=     6.8216   ZX=    11.6399
   XY=    13.1865   YY=   125.3700   ZY=    -4.4261
   XZ=     7.9641   YZ=     3.2042   ZZ=   137.3124
   Eigenvalues:   121.7701   134.8702   164.1798
     15  C    Isotropic =   146.5147   Anisotropy =    39.6132
   XX=   162.0116   YX=    10.9811   ZX=   -11.9335
   XY=    20.0435   YY=   125.4664   ZY=    12.6256
   XZ=   -13.4307   YZ=    -1.5017   ZZ=   152.0661
   Eigenvalues:   116.9905   149.6301   172.9235
     16  C    Isotropic =   142.1725   Anisotropy =    30.2364
   XX=   154.4585   YX=     5.0168   ZX=    -8.8181
   XY=    -1.5097   YY=   122.0603   ZY=     7.2024
   XZ=   -10.1033   YZ=     9.3926   ZZ=   149.9986
   Eigenvalues:   119.2473   144.9400   162.3300
     17  C    Isotropic =   149.9385   Anisotropy =    34.6035
   XX=   172.4301   YX=     4.4132   ZX=    -2.9877
   XY=     5.3330   YY=   128.1319   ZY=    15.1803
   XZ=     2.9380   YZ=     4.1077   ZZ=   149.2536
   Eigenvalues:   123.9626   152.8455   173.0075
     18  C    Isotropic =   138.5341   Anisotropy =    32.3556
   XX=   157.4390   YX=    -5.0748   ZX=     2.7607
   XY=     1.1845   YY=   118.1850   ZY=    -8.5144
   XZ=    11.0475   YZ=    -0.4719   ZZ=   139.9782
   Eigenvalues:   117.2865   138.2112   160.1045
     19  C    Isotropic =   147.5912   Anisotropy =    29.7578
   XX=   157.3061   YX=     2.7348   ZX=   -10.1344
   XY=    12.6293   YY=   121.7472   ZY=     2.3509
   XZ=    -1.4303   YZ=    -1.6278   ZZ=   163.7202
   Eigenvalues:   120.1042   155.2396   167.4297
     20  C    Isotropic =   143.5789   Anisotropy =    28.8550
   XX=   160.3171   YX=     2.8578   ZX=    -0.7787
   XY=    -2.4245   YY=   118.7290   ZY=    -3.1570
   XZ=    -9.6039   YZ=    -3.6654   ZZ=   151.6904
   Eigenvalues:   118.3773   149.5438   162.8156
     21  C    Isotropic =   146.8470   Anisotropy =    26.6248
   XX=   161.3525   YX=    -3.8630   ZX=    10.1478
   XY=    -8.9996   YY=   124.1530   ZY=     8.8041
   XZ=     0.5330   YZ=     3.1287   ZZ=   155.0355
   Eigenvalues:   121.6802   154.2640   164.5969
     22  H    Isotropic =    27.2049   Anisotropy =     4.7648
   XX=    27.0412   YX=    -2.2843   ZX=    -2.1586
   XY=    -3.0632   YY=    28.0165   ZY=    -1.5376
   XZ=    -2.5407   YZ=    -0.8266   ZZ=    26.5570
   Eigenvalues:    22.9611    28.2721    30.3815
     23  H    Isotropic =    27.2013   Anisotropy =     8.1570
   XX=    25.1795   YX=     0.7590   ZX=    -2.1266
   XY=     0.9913   YY=    28.6402   ZY=    -3.7936
   XZ=    -2.5069   YZ=    -3.6913   ZZ=    27.7841
   Eigenvalues:    23.3826    25.5819    32.6393
     24  H    Isotropic =    27.3537   Anisotropy =     9.2316
   XX=    24.8715   YX=    -2.2103   ZX=    -0.6198
   XY=    -1.8995   YY=    33.0148   ZY=    -0.2019
   XZ=    -0.8699   YZ=     0.2540   ZZ=    24.1750
   Eigenvalues:    23.5504    25.0027    33.5081
     25  H    Isotropic =    27.5709   Anisotropy =     4.8553
   XX=    26.9533   YX=    -0.9539   ZX=    -3.9432
   XY=    -0.9139   YY=    30.3498   ZY=    -0.0787
   XZ=    -3.0737   YZ=    -0.1918   ZZ=    25.4097
   Eigenvalues:    22.5277    29.3772    30.8078
     26  H    Isotropic =    27.5725   Anisotropy =     5.1611
   XX=    26.9164   YX=     0.7683   ZX=    -4.1370
   XY=     0.8106   YY=    30.2143   ZY=    -0.4559
   XZ=    -3.2505   YZ=    -0.4493   ZZ=    25.5868
   Eigenvalues:    22.4952    29.2091    31.0132
     27  H    Isotropic =    27.3484   Anisotropy =     3.8534
   XX=    27.7036   YX=     1.4716   ZX=    -1.7861
   XY=     2.3046   YY=    28.2209   ZY=     1.6048
   XZ=    -2.0982   YZ=     0.8589   ZZ=    26.1208
   Eigenvalues:    23.8052    28.3227    29.9174
     28  Cl   Isotropic =   914.1455   Anisotropy =   408.7626
   XX=   712.1566   YX=   168.0157   ZX=    42.4103
   XY=   164.2732   YY=   854.8189   ZY=     1.6271
   XZ=   100.2285   YZ=   -74.3302   ZZ=  1175.4611
   Eigenvalues:   591.8302   963.9525  1186.6539
     29  Cl   Isotropic =   892.8805   Anisotropy =   403.1259
   XX=   728.3613   YX=  -129.0432   ZX=    31.8011
   XY=  -152.1690   YY=   796.0938   ZY=     8.9133
   XZ=    70.6537   YZ=    66.4774   ZZ=  1154.1864
   Eigenvalues:   610.1724   906.8380  1161.6311
     30  Pd   Isotropic =  -153.1237   Anisotropy =   247.7281
   XX=    11.4530   YX=     0.5454   ZX=     4.5405
   XY=    -3.8673   YY=     7.1494   ZY=    17.7585
   XZ=     5.7939   YZ=    24.3393   ZZ=  -477.9734
   Eigenvalues:  -478.9409     7.5414    12.0284
     31  H    Isotropic =    27.3475   Anisotropy =     7.9196
   XX=    26.5929   YX=    -3.1666   ZX=     2.8272
   XY=    -4.1151   YY=    30.4281   ZY=     1.4945
   XZ=     2.7784   YZ=     1.6444   ZZ=    25.0214
   Eigenvalues:    21.4822    27.9330    32.6272
     32  C    Isotropic =   166.7246   Anisotropy =    22.5247
   XX=   173.8702   YX=     0.7389   ZX=    10.9077
   XY=     4.9682   YY=   159.5374   ZY=   -12.7163
   XZ=     9.1494   YZ=    -8.1955   ZZ=   166.7663
   Eigenvalues:   149.2026   169.2302   181.7411
     33  H    Isotropic =    28.5868   Anisotropy =     6.3950
   XX=    26.9847   YX=     2.4644   ZX=    -1.1834
   XY=     1.7582   YY=    31.9533   ZY=     1.4114
   XZ=    -1.0011   YZ=     1.1603   ZZ=    26.8223
   Eigenvalues:    24.9791    27.9311    32.8501
     34  C    Isotropic =   162.0832   Anisotropy =    25.4765
   XX=   166.7529   YX=    -4.9664   ZX=    -8.7870
   XY=   -10.0856   YY=   147.4163   ZY=   -15.6006
   XZ=    -3.2161   YZ=   -12.7010   ZZ=   172.0803
   Eigenvalues:   137.9390   169.2431   179.0675
     35  H    Isotropic =    28.4396   Anisotropy =     6.9130
   XX=    28.6105   YX=     1.5377   ZX=    -1.5132
   XY=     1.2635   YY=    31.9634   ZY=    -1.4458
   XZ=    -1.5543   YZ=    -2.0566   ZZ=    24.7449
   Eigenvalues:    24.0140    28.2566    33.0483
     36  H    Isotropic =    29.8208   Anisotropy =    12.8392
   XX=    37.0993   YX=     3.4130   ZX=     1.6309
   XY=     3.9492   YY=    25.6028   ZY=     0.6940
   XZ=     1.1124   YZ=     0.8720   ZZ=    26.7604
   Eigenvalues:    24.4621    26.6201    38.3803
     37  H    Isotropic =    29.4441   Anisotropy =     8.7845
   XX=    32.0233   YX=    -3.5181   ZX=    -1.4220
   XY=    -3.7532   YY=    31.1842   ZY=     0.2420
   XZ=     0.1006   YZ=     0.1157   ZZ=    25.1248
   Eigenvalues:    25.0556    27.9762    35.3004
     38  H    Isotropic =    29.6300   Anisotropy =    12.2495
   XX=    32.8599   YX=     0.4847   ZX=    -6.3174
   XY=    -0.4235   YY=    24.6405   ZY=     0.3832
   XZ=    -4.9165   YZ=     0.5868   ZZ=    31.3896
   Eigenvalues:    24.5561    26.5377    37.7963
     39  H    Isotropic =    27.3668   Anisotropy =     9.3259
   XX=    24.6336   YX=     1.7969   ZX=    -0.6821
   XY=     1.4832   YY=    33.2730   ZY=    -0.0126
   XZ=    -0.7880   YZ=    -0.3446   ZZ=    24.1939
   Eigenvalues:    23.5638    24.9526    33.5841
     40  H    Isotropic =    27.2047   Anisotropy =     8.0889
   XX=    25.2669   YX=    -0.9455   ZX=    -2.2362
   XY=    -1.1695   YY=    28.7150   ZY=     3.6861
   XZ=    -2.7145   YZ=     3.4485   ZZ=    27.6321
   Eigenvalues:    23.3811    25.6355    32.5973
     41  H    Isotropic =    30.6578   Anisotropy =    13.9570
   XX=    34.0361   YX=     3.0555   ZX=     6.5359
   XY=     1.1935   YY=    26.6131   ZY=     0.0417
   XZ=     7.1669   YZ=     1.0565   ZZ=    31.3241
   Eigenvalues:    25.0399    26.9710    39.9625
     42  H    Isotropic =    30.9315   Anisotropy =     6.6745
   XX=    31.4285   YX=     3.7051   ZX=     1.1350
   XY=     2.5389   YY=    26.5100   ZY=    -3.4195
   XZ=     0.6775   YZ=    -0.8642   ZZ=    34.8559
   Eigenvalues:    24.4752    32.9380    35.3812
     43  H    Isotropic =    31.0664   Anisotropy =     5.7442
   XX=    32.6734   YX=    -0.7048   ZX=     2.0220
   XY=    -2.1606   YY=    32.8434   ZY=    -0.0692
   XZ=     4.3785   YZ=     0.7654   ZZ=    27.6825
   Eigenvalues:    25.9874    32.3159    34.8959
     44  H    Isotropic =    28.6604   Anisotropy =     4.8585
   XX=    24.6207   YX=    -0.1810   ZX=    -2.3641
   XY=    -0.1600   YY=    31.7267   ZY=     0.3793
   XZ=    -2.1664   YZ=     0.5408   ZZ=    29.6338
   Eigenvalues:    23.7488    30.3331    31.8994
     45  H    Isotropic =    29.6952   Anisotropy =     5.4128
   XX=    33.1331   YX=    -0.1627   ZX=     0.0038
   XY=    -1.3216   YY=    24.9728   ZY=    -1.3991
   XZ=     0.6742   YZ=    -1.4547   ZZ=    30.9795
   Eigenvalues:    24.6015    31.1803    33.3037
     46  H    Isotropic =    30.2248   Anisotropy =    13.0340
   XX=    27.6694   YX=    -0.8046   ZX=    -3.8280
   XY=     0.0211   YY=    25.5572   ZY=    -1.8886
   XZ=    -3.9749   YZ=    -0.8352   ZZ=    37.4478
   Eigenvalues:    24.9605    26.7998    38.9141
     47  H    Isotropic =    26.8814   Anisotropy =     8.8861
   XX=    25.4798   YX=     1.1737   ZX=     3.4508
   XY=     2.4192   YY=    31.6424   ZY=     1.2548
   XZ=     3.3420   YZ=     1.7995   ZZ=    23.5218
   Eigenvalues:    20.9642    26.8744    32.8054
     48  C    Isotropic =   169.8953   Anisotropy =    18.8451
   XX=   161.6475   YX=    -0.0100   ZX=     0.2177
   XY=    -2.8269   YY=   165.6210   ZY=    -1.0002
   XZ=    -2.0191   YZ=     1.2734   ZZ=   182.4174
   Eigenvalues:   161.1617   166.0654   182.4587
     49  H    Isotropic =    28.8869   Anisotropy =     6.1859
   XX=    26.7210   YX=    -0.7545   ZX=    -3.3409
   XY=    -0.4216   YY=    32.6450   ZY=    -1.5652
   XZ=    -2.1216   YZ=    -1.3190   ZZ=    27.2948
   Eigenvalues:    24.0313    29.6186    33.0109
     50  C    Isotropic =   164.2629   Anisotropy =    20.5091
   XX=   162.9913   YX=     0.9516   ZX=     2.2661
   XY=     2.2608   YY=   156.4614   ZY=     7.6845
   XZ=     7.1439   YZ=     7.6044   ZZ=   173.3360
   Eigenvalues:   153.5089   161.3442   177.9356
     51  H    Isotropic =    29.5454   Anisotropy =    12.6697
   XX=    36.9071   YX=    -2.6636   ZX=     2.4949
   XY=    -1.2662   YY=    24.4263   ZY=    -0.2167
   XZ=     3.1473   YZ=    -1.1482   ZZ=    27.3029
   Eigenvalues:    24.1007    26.5437    37.9919
     52  H    Isotropic =    30.2439   Anisotropy =     7.0194
   XX=    32.7053   YX=     1.9702   ZX=    -0.1699
   XY=     3.0978   YY=    31.6351   ZY=     1.5104
   XZ=     1.3843   YZ=     0.7312   ZZ=    26.3912
   Eigenvalues:    26.1603    29.6478    34.9234
     53  H    Isotropic =    29.3933   Anisotropy =    12.1117
   XX=    34.0720   YX=     1.5832   ZX=    -5.1804
   XY=     1.5764   YY=    24.7496   ZY=    -0.9124
   XZ=    -4.5574   YZ=    -1.9112   ZZ=    29.3583
   Eigenvalues:    24.3434    26.3688    37.4678
     54  H    Isotropic =    29.3666   Anisotropy =     7.3169
   XX=    30.4959   YX=    -2.9892   ZX=    -1.6447
   XY=    -2.4211   YY=    30.8739   ZY=     2.3973
   XZ=    -1.0189   YZ=     2.0015   ZZ=    26.7300
   Eigenvalues:    25.7733    28.0820    34.2446
     55  H    Isotropic =    30.3904   Anisotropy =    13.6536
   XX=    31.7969   YX=    -3.0678   ZX=     5.7859
   XY=    -2.0901   YY=    25.7237   ZY=    -1.2485
   XZ=     6.2827   YZ=    -2.2791   ZZ=    33.6507
   Eigenvalues:    24.7313    26.9472    39.4928
     56  H    Isotropic =    31.3730   Anisotropy =     5.7420
   XX=    29.9970   YX=    -3.6457   ZX=     4.5149
   XY=    -1.3713   YY=    32.6382   ZY=     2.3098
   XZ=     4.0447   YZ=     0.7819   ZZ=    31.4838
   Eigenvalues:    25.2445    33.6735    35.2010
     57  H    Isotropic =    30.1706   Anisotropy =     7.8093
   XX=    30.7080   YX=     0.5216   ZX=    -0.8987
   XY=     1.5553   YY=    25.7335   ZY=    -1.4990
   XZ=    -2.1983   YZ=    -3.2758   ZZ=    34.0703
   Eigenvalues:    25.0298    30.1052    35.3768
     58  H    Isotropic =    30.0429   Anisotropy =    12.6407
   XX=    28.3918   YX=     0.5949   ZX=    -4.1806
   XY=     0.1452   YY=    25.1764   ZY=     0.9149
   XZ=    -4.5372   YZ=     0.5407   ZZ=    36.5606
   Eigenvalues:    24.9083    26.7504    38.4701
     59  H    Isotropic =    29.8312   Anisotropy =     5.7150
   XX=    32.0271   YX=    -2.0810   ZX=     1.0708
   XY=    -1.6389   YY=    25.5834   ZY=     0.1330
   XZ=     1.8687   YZ=     0.1029   ZZ=    31.8832
   Eigenvalues:    25.0479    30.8045    33.6412
     60  H    Isotropic =    28.4279   Anisotropy =     6.8928
   XX=    23.9683   YX=     1.5579   ZX=    -3.3327
   XY=     1.6594   YY=    31.5846   ZY=    -1.2731
   XZ=    -2.6094   YZ=    -0.9401   ZZ=    29.7308
   Eigenvalues:    22.5838    29.6768    33.0231
 End of Minotr F.D. properties file   721 does not exist.
 End of Minotr F.D. properties file   722 does not exist.
 End of Minotr F.D. properties file   788 does not exist.

 **********************************************************************

            Population analysis using the SCF density.

 **********************************************************************

 Orbital symmetries:
       Occupied  (A) (A) (A) (A) (A) (A) (A) (A) (A) (A) (A) (A)
                 (A) (A) (A) (A) (A) (A) (A) (A) (A) (A) (A) (A)
                 (A) (A) (A) (A) (A) (A) (A) (A) (A) (A) (A) (A)
                 (A) (A) (A) (A) (A) (A) (A) (A) (A) (A) (A) (A)
                 (A) (A) (A) (A) (A) (A) (A) (A) (A) (A) (A) (A)
                 (A) (A) (A) (A) (A) (A) (A) (A) (A) (A) (A) (A)
                 (A) (A) (A) (A) (A) (A) (A) (A) (A) (A) (A) (A)
                 (A) (A) (A) (A) (A) (A) (A) (A) (A) (A) (A) (A)
                 (A) (A) (A) (A) (A) (A) (A) (A) (A) (A) (A) (A)
                 (A) (A) (A) (A) (A) (A) (A) (A) (A) (A) (A) (A)
                 (A) (A) (A) (A) (A) (A) (A) (A) (A) (A) (A)
       Virtual   (A) (A) (A) (A) (A) (A) (A) (A) (A) (A) (A) (A)
                 (A) (A) (A) (A) (A) (A) (A) (A) (A) (A) (A) (A)
                 (A) (A) (A) (A) (A) (A) (A) (A) (A) (A) (A) (A)
                 (A) (A) (A) (A) (A) (A) (A) (A) (A) (A) (A) (A)
                 (A) (A) (A) (A) (A) (A) (A) (A) (A) (A) (A) (A)
                 (A) (A) (A) (A) (A) (A) (A) (A) (A) (A) (A) (A)
                 (A) (A) (A) (A) (A) (A) (A) (A) (A) (A) (A) (A)
                 (A) (A) (A) (A) (A) (A) (A) (A) (A) (A) (A) (A)
                 (A) (A) (A) (A) (A) (A) (A) (A) (A) (A) (A) (A)
                 (A) (A) (A) (A) (A) (A) (A) (A) (A) (A) (A) (A)
                 (A) (A) (A) (A) (A) (A) (A) (A) (A) (A) (A) (A)
                 (A) (A) (A) (A) (A) (A) (A) (A) (A) (A) (A) (A)
                 (A) (A) (A) (A) (A) (A) (A) (A) (A) (A) (A) (A)
                 (A) (A) (A) (A) (A) (A) (A) (A) (A) (A) (A) (A)
                 (A) (A) (A) (A) (A) (A) (A) (A) (A) (A) (A) (A)
                 (A) (A) (A) (A) (A) (A) (A) (A) (A) (A) (A) (A)
                 (A) (A) (A) (A) (A) (A) (A) (A) (A) (A) (A) (A)
                 (A) (A) (A) (A) (A) (A) (A) (A) (A) (A) (A) (A)
                 (A) (A) (A) (A) (A) (A) (A) (A) (A) (A) (A) (A)
                 (A) (A) (A) (A) (A) (A) (A) (A) (A) (A) (A) (A)
                 (A) (A) (A) (A) (A) (A) (A) (A) (A) (A) (A) (A)
                 (A) (A) (A) (A) (A) (A) (A) (A) (A) (A) (A) (A)
                 (A) (A) (A) (A) (A) (A) (A) (A) (A) (A) (A) (A)
                 (A) (A) (A) (A) (A) (A) (A) (A) (A) (A) (A) (A)
                 (A) (A) (A) (A) (A) (A) (A) (A) (A) (A) (A) (A)
                 (A) (A) (A) (A) (A) (A) (A) (A) (A) (A) (A) (A)
                 (A) (A) (A) (A) (A) (A) (A) (A) (A) (A) (A) (A)
                 (A) (A) (A) (A) (A) (A) (A) (A) (A) (A) (A) (A)
                 (A) (A) (A) (A) (A) (A) (A) (A) (A) (A) (A) (A)
                 (A) (A) (A) (A) (A) (A) (A) (A) (A) (A) (A) (A)
                 (A) (A) (A) (A) (A) (A) (A) (A) (A) (A) (A) (A)
                 (A) (A) (A) (A) (A) (A) (A) (A) (A) (A) (A) (A)
                 (A) (A) (A) (A) (A) (A) (A) (A) (A) (A) (A) (A)
                 (A) (A) (A) (A) (A) (A) (A) (A) (A) (A) (A) (A)
                 (A) (A) (A) (A) (A) (A) (A) (A) (A) (A) (A) (A)
                 (A) (A) (A) (A) (A) (A) (A) (A) (A) (A) (A) (A)
                 (A) (A) (A) (A) (A) (A) (A) (A) (A) (A) (A) (A)
                 (A) (A) (A) (A) (A) (A) (A) (A) (A) (A) (A) (A)
                 (A) (A) (A) (A) (A) (A) (A) (A) (A) (A) (A) (A)
                 (A) (A) (A) (A) (A) (A) (A) (A) (A) (A) (A) (A)
                 (A) (A) (A) (A) (A) (A) (A) (A) (A) (A) (A) (A)
                 (A) (A) (A) (A) (A) (A) (A) (A) (A) (A) (A) (A)
                 (A) (A) (A) (A) (A) (A) (A) (A) (A) (A) (A) (A)
                 (A) (A) (A) (A) (A) (A) (A) (A) (A) (A) (A) (A)
                 (A) (A) (A) (A) (A) (A) (A) (A) (A) (A) (A) (A)
                 (A) (A) (A) (A) (A) (A) (A) (A) (A) (A) (A) (A)
                 (A) (A) (A) (A) (A) (A) (A) (A) (A) (A) (A) (A)
                 (A) (A) (A) (A) (A) (A) (A) (A) (A) (A) (A) (A)
                 (A) (A) (A) (A) (A) (A) (A) (A) (A) (A) (A) (A)
                 (A) (A) (A) (A) (A) (A) (A) (A) (A) (A) (A) (A)
                 (A) (A) (A) (A) (A) (A) (A) (A) (A) (A) (A) (A)
                 (A) (A) (A) (A) (A) (A) (A) (A) (A) (A) (A) (A)
                 (A) (A) (A) (A) (A) (A) (A) (A) (A) (A) (A) (A)
                 (A) (A) (A) (A) (A) (A) (A) (A) (A) (A) (A) (A)
                 (A) (A) (A) (A) (A) (A) (A) (A) (A) (A) (A) (A)
                 (A) (A) (A) (A) (A) (A) (A) (A) (A) (A) (A) (A)
                 (A) (A) (A) (A) (A) (A) (A) (A) (A) (A) (A) (A)
                 (A) (A) (A) (A) (A) (A) (A) (A) (A) (A) (A) (A)
                 (A) (A) (A) (A) (A) (A) (A) (A) (A) (A) (A) (A)
                 (A) (A) (A) (A) (A) (A) (A) (A) (A) (A) (A) (A)
                 (A) (A) (A) (A) (A) (A) (A) (A) (A) (A) (A) (A)
                 (A) (A) (A) (A) (A) (A) (A) (A) (A) (A) (A) (A)
                 (A) (A) (A) (A) (A) (A) (A) (A) (A) (A) (A) (A)
                 (A) (A) (A) (A) (A) (A) (A) (A) (A) (A) (A) (A)
                 (A) (A) (A) (A) (A) (A) (A) (A) (A) (A) (A) (A)
                 (A) (A) (A) (A) (A) (A) (A) (A) (A) (A) (A) (A)
                 (A) (A) (A) (A) (A) (A) (A) (A) (A) (A) (A) (A)
                 (A) (A) (A) (A) (A) (A) (A) (A) (A) (A) (A) (A)
                 (A) (A) (A) (A) (A) (A) (A) (A) (A) (A) (A) (A)
                 (A) (A) (A) (A) (A) (A) (A) (A) (A) (A) (A) (A)
                 (A) (A) (A) (A) (A) (A) (A) (A) (A) (A) (A) (A)
                 (A) (A) (A) (A) (A) (A) (A) (A) (A) (A) (A) (A)
                 (A) (A) (A) (A) (A) (A) (A) (A) (A) (A) (A) (A)
                 (A) (A) (A) (A) (A) (A) (A) (A) (A) (A) (A) (A)
                 (A) (A) (A) (A) (A) (A) (A) (A) (A) (A) (A) (A)
                 (A) (A) (A) (A) (A) (A) (A) (A) (A) (A) (A) (A)
                 (A) (A) (A) (A) (A) (A) (A) (A) (A) (A) (A) (A)
                 (A) (A) (A) (A) (A) (A) (A) (A) (A) (A) (A) (A)
                 (A) (A) (A) (A) (A) (A) (A) (A) (A) (A) (A) (A)
                 (A) (A) (A) (A) (A) (A) (A) (A) (A) (A) (A) (A)
                 (A) (A) (A) (A) (A) (A) (A) (A) (A) (A)
 The electronic state is 1-A.
 Alpha  occ. eigenvalues -- -101.61815-101.61630 -77.25518 -77.25448 -10.27079
 Alpha  occ. eigenvalues --  -10.27076 -10.26793 -10.26744 -10.26559 -10.26550
 Alpha  occ. eigenvalues --  -10.26525 -10.26519 -10.26492 -10.26480 -10.25677
 Alpha  occ. eigenvalues --  -10.25603 -10.24446 -10.24299 -10.23878 -10.23538
 Alpha  occ. eigenvalues --  -10.23395 -10.22870 -10.22465 -10.22391 -10.22064
 Alpha  occ. eigenvalues --  -10.21915  -9.44333  -9.44147  -7.17512  -7.17331
 Alpha  occ. eigenvalues --   -7.17061  -7.17020  -7.16875  -7.16832  -6.64772
 Alpha  occ. eigenvalues --   -6.64699  -4.78384  -4.78317  -4.78296  -4.78216
 Alpha  occ. eigenvalues --   -4.78107  -4.78039  -3.63123  -3.51934  -2.27678
 Alpha  occ. eigenvalues --   -2.23456  -2.23395  -2.19781  -2.19440  -2.16183
 Alpha  occ. eigenvalues --   -0.94571  -0.92550  -0.86782  -0.86724  -0.79927
 Alpha  occ. eigenvalues --   -0.79772  -0.77436  -0.77165  -0.76186  -0.76135
 Alpha  occ. eigenvalues --   -0.74865  -0.74327  -0.73954  -0.73749  -0.68375
 Alpha  occ. eigenvalues --   -0.68313  -0.67605  -0.66555  -0.60311  -0.59817
 Alpha  occ. eigenvalues --   -0.59331  -0.58946  -0.58274  -0.57963  -0.57363
 Alpha  occ. eigenvalues --   -0.56839  -0.53151  -0.52495  -0.49905  -0.49580
 Alpha  occ. eigenvalues --   -0.48953  -0.48558  -0.46463  -0.45858  -0.45239
 Alpha  occ. eigenvalues --   -0.44773  -0.44393  -0.43966  -0.43639  -0.43312
 Alpha  occ. eigenvalues --   -0.42967  -0.42638  -0.42513  -0.42369  -0.42264
 Alpha  occ. eigenvalues --   -0.41918  -0.41471  -0.40419  -0.40113  -0.39631
 Alpha  occ. eigenvalues --   -0.39430  -0.38565  -0.37013  -0.36817  -0.36055
 Alpha  occ. eigenvalues --   -0.35815  -0.35295  -0.35107  -0.35008  -0.34853
 Alpha  occ. eigenvalues --   -0.34663  -0.34102  -0.33807  -0.33505  -0.32910
 Alpha  occ. eigenvalues --   -0.31490  -0.31336  -0.30722  -0.30085  -0.29657
 Alpha  occ. eigenvalues --   -0.29280  -0.28446  -0.28181  -0.27250  -0.25965
 Alpha  occ. eigenvalues --   -0.25225  -0.25177  -0.25147  -0.24738  -0.24113
 Alpha  occ. eigenvalues --   -0.24040
 Alpha virt. eigenvalues --   -0.07272  -0.02708  -0.02648  -0.01800  -0.01791
 Alpha virt. eigenvalues --    0.00118   0.00648   0.01208   0.01662   0.02062
 Alpha virt. eigenvalues --    0.02801   0.03102   0.03164   0.03950   0.04284
 Alpha virt. eigenvalues --    0.04628   0.04896   0.05265   0.05666   0.06219
 Alpha virt. eigenvalues --    0.06808   0.07335   0.07771   0.08023   0.08440
 Alpha virt. eigenvalues --    0.08709   0.08800   0.09177   0.09465   0.09724
 Alpha virt. eigenvalues --    0.10066   0.10678   0.10839   0.11331   0.11762
 Alpha virt. eigenvalues --    0.12212   0.12409   0.12731   0.12874   0.12960
 Alpha virt. eigenvalues --    0.13445   0.13819   0.14041   0.14113   0.14618
 Alpha virt. eigenvalues --    0.15023   0.15329   0.15384   0.15628   0.15821
 Alpha virt. eigenvalues --    0.16006   0.16393   0.16578   0.16989   0.17178
 Alpha virt. eigenvalues --    0.17362   0.17795   0.18214   0.18467   0.18579
 Alpha virt. eigenvalues --    0.18867   0.19333   0.19599   0.19895   0.20443
 Alpha virt. eigenvalues --    0.20717   0.20919   0.21080   0.21519   0.21842
 Alpha virt. eigenvalues --    0.21936   0.22371   0.22428   0.22856   0.23361
 Alpha virt. eigenvalues --    0.23736   0.24024   0.24290   0.24541   0.25247
 Alpha virt. eigenvalues --    0.25496   0.25876   0.26039   0.26367   0.26898
 Alpha virt. eigenvalues --    0.27085   0.27483   0.27778   0.28184   0.28475
 Alpha virt. eigenvalues --    0.28985   0.29274   0.29366   0.29466   0.29989
 Alpha virt. eigenvalues --    0.30090   0.30874   0.31174   0.31648   0.31812
 Alpha virt. eigenvalues --    0.32192   0.32651   0.33081   0.33671   0.34205
 Alpha virt. eigenvalues --    0.34649   0.34883   0.35190   0.36020   0.36253
 Alpha virt. eigenvalues --    0.36355   0.36674   0.37054   0.37411   0.37714
 Alpha virt. eigenvalues --    0.37817   0.38058   0.38397   0.39134   0.39377
 Alpha virt. eigenvalues --    0.39630   0.40090   0.40199   0.40671   0.40943
 Alpha virt. eigenvalues --    0.41295   0.41553   0.41574   0.41827   0.42199
 Alpha virt. eigenvalues --    0.42271   0.42592   0.42961   0.43097   0.43469
 Alpha virt. eigenvalues --    0.43553   0.43946   0.44040   0.44580   0.44865
 Alpha virt. eigenvalues --    0.44936   0.45056   0.45342   0.45498   0.45723
 Alpha virt. eigenvalues --    0.45914   0.46054   0.46365   0.46659   0.46707
 Alpha virt. eigenvalues --    0.46909   0.47286   0.47663   0.47859   0.47979
 Alpha virt. eigenvalues --    0.48485   0.48607   0.48988   0.49261   0.49650
 Alpha virt. eigenvalues --    0.49922   0.50431   0.50693   0.50971   0.51074
 Alpha virt. eigenvalues --    0.51605   0.52070   0.52283   0.52427   0.52659
 Alpha virt. eigenvalues --    0.53117   0.53304   0.53573   0.54238   0.54334
 Alpha virt. eigenvalues --    0.54645   0.54759   0.54926   0.55448   0.55596
 Alpha virt. eigenvalues --    0.55912   0.56123   0.56167   0.56742   0.57186
 Alpha virt. eigenvalues --    0.57716   0.57838   0.58354   0.58447   0.58853
 Alpha virt. eigenvalues --    0.59134   0.59487   0.59914   0.60029   0.60587
 Alpha virt. eigenvalues --    0.60933   0.61299   0.61532   0.61869   0.62104
 Alpha virt. eigenvalues --    0.62158   0.63557   0.63931   0.64092   0.64492
 Alpha virt. eigenvalues --    0.65266   0.65586   0.65868   0.66191   0.66436
 Alpha virt. eigenvalues --    0.66970   0.67570   0.67957   0.68109   0.68438
 Alpha virt. eigenvalues --    0.69019   0.69241   0.69596   0.69767   0.69985
 Alpha virt. eigenvalues --    0.71411   0.71668   0.72223   0.72461   0.72727
 Alpha virt. eigenvalues --    0.73663   0.74519   0.74946   0.75327   0.75638
 Alpha virt. eigenvalues --    0.76397   0.76690   0.77846   0.78266   0.78293
 Alpha virt. eigenvalues --    0.79007   0.79547   0.80429   0.80680   0.81368
 Alpha virt. eigenvalues --    0.81804   0.82283   0.82550   0.83049   0.83974
 Alpha virt. eigenvalues --    0.84596   0.85076   0.85943   0.86473   0.86596
 Alpha virt. eigenvalues --    0.87328   0.87852   0.88053   0.88502   0.88960
 Alpha virt. eigenvalues --    0.89523   0.90211   0.90750   0.90926   0.91221
 Alpha virt. eigenvalues --    0.92317   0.92497   0.93117   0.93550   0.93858
 Alpha virt. eigenvalues --    0.94064   0.94276   0.94849   0.95518   0.95867
 Alpha virt. eigenvalues --    0.96196   0.97028   0.97344   0.97412   0.97924
 Alpha virt. eigenvalues --    0.98571   0.99166   0.99928   1.00148   1.00977
 Alpha virt. eigenvalues --    1.01547   1.02060   1.02445   1.03650   1.04169
 Alpha virt. eigenvalues --    1.04517   1.05542   1.05587   1.06481   1.07244
 Alpha virt. eigenvalues --    1.07638   1.07705   1.09076   1.09348   1.09773
 Alpha virt. eigenvalues --    1.10173   1.10922   1.11229   1.11872   1.11975
 Alpha virt. eigenvalues --    1.12842   1.13076   1.13530   1.14044   1.14453
 Alpha virt. eigenvalues --    1.15194   1.15360   1.16246   1.16851   1.17492
 Alpha virt. eigenvalues --    1.17879   1.18476   1.18990   1.19279   1.19813
 Alpha virt. eigenvalues --    1.20185   1.20434   1.20616   1.21531   1.21722
 Alpha virt. eigenvalues --    1.22334   1.22509   1.23299   1.23622   1.23750
 Alpha virt. eigenvalues --    1.24230   1.24449   1.24735   1.24976   1.25585
 Alpha virt. eigenvalues --    1.25975   1.26661   1.26904   1.27319   1.27365
 Alpha virt. eigenvalues --    1.28175   1.28677   1.29469   1.30018   1.30307
 Alpha virt. eigenvalues --    1.31184   1.31662   1.32999   1.33658   1.33839
 Alpha virt. eigenvalues --    1.34401   1.34901   1.35425   1.35670   1.36591
 Alpha virt. eigenvalues --    1.37217   1.37928   1.38113   1.38662   1.39397
 Alpha virt. eigenvalues --    1.39859   1.40307   1.41235   1.41945   1.42075
 Alpha virt. eigenvalues --    1.43402   1.44495   1.45403   1.45704   1.46456
 Alpha virt. eigenvalues --    1.47230   1.48448   1.49129   1.49549   1.50147
 Alpha virt. eigenvalues --    1.50488   1.51826   1.52120   1.52341   1.53994
 Alpha virt. eigenvalues --    1.54269   1.54572   1.55115   1.55654   1.55864
 Alpha virt. eigenvalues --    1.56851   1.57203   1.57582   1.57716   1.58899
 Alpha virt. eigenvalues --    1.59299   1.59627   1.59756   1.60253   1.60864
 Alpha virt. eigenvalues --    1.61174   1.61562   1.61984   1.62648   1.62924
 Alpha virt. eigenvalues --    1.63204   1.64050   1.64172   1.64571   1.64931
 Alpha virt. eigenvalues --    1.65095   1.65388   1.66081   1.66815   1.67192
 Alpha virt. eigenvalues --    1.67447   1.68158   1.68511   1.68913   1.69369
 Alpha virt. eigenvalues --    1.69591   1.69874   1.70049   1.70971   1.71812
 Alpha virt. eigenvalues --    1.72650   1.73264   1.73347   1.73610   1.74046
 Alpha virt. eigenvalues --    1.75390   1.76464   1.77346   1.78168   1.78481
 Alpha virt. eigenvalues --    1.78922   1.79438   1.79758   1.80072   1.80720
 Alpha virt. eigenvalues --    1.81160   1.82356   1.82557   1.83277   1.83465
 Alpha virt. eigenvalues --    1.84536   1.85099   1.85502   1.86435   1.87138
 Alpha virt. eigenvalues --    1.87521   1.88205   1.88644   1.89651   1.89989
 Alpha virt. eigenvalues --    1.90840   1.91176   1.91900   1.92281   1.92708
 Alpha virt. eigenvalues --    1.93388   1.93858   1.94722   1.95235   1.95685
 Alpha virt. eigenvalues --    1.96249   1.97002   1.97239   1.98028   1.98325
 Alpha virt. eigenvalues --    1.98696   1.99227   2.00069   2.00664   2.01268
 Alpha virt. eigenvalues --    2.01764   2.02460   2.02738   2.03519   2.04224
 Alpha virt. eigenvalues --    2.04410   2.04814   2.05090   2.05257   2.05654
 Alpha virt. eigenvalues --    2.06548   2.07381   2.07599   2.08174   2.08466
 Alpha virt. eigenvalues --    2.08745   2.09520   2.09861   2.10832   2.11325
 Alpha virt. eigenvalues --    2.11608   2.12851   2.13578   2.13984   2.14371
 Alpha virt. eigenvalues --    2.14646   2.15122   2.15451   2.15837   2.16832
 Alpha virt. eigenvalues --    2.17074   2.17405   2.17998   2.18121   2.18585
 Alpha virt. eigenvalues --    2.18824   2.19572   2.19715   2.20189   2.20674
 Alpha virt. eigenvalues --    2.20780   2.21440   2.21506   2.21893   2.22875
 Alpha virt. eigenvalues --    2.23320   2.23680   2.24286   2.24815   2.25479
 Alpha virt. eigenvalues --    2.26371   2.26623   2.27097   2.27533   2.27889
 Alpha virt. eigenvalues --    2.28367   2.30028   2.30696   2.30961   2.31550
 Alpha virt. eigenvalues --    2.32771   2.33151   2.33673   2.34103   2.34328
 Alpha virt. eigenvalues --    2.34886   2.35526   2.36064   2.36450   2.37140
 Alpha virt. eigenvalues --    2.37754   2.38347   2.38721   2.38811   2.39574
 Alpha virt. eigenvalues --    2.40391   2.40876   2.41336   2.42563   2.42883
 Alpha virt. eigenvalues --    2.43112   2.43633   2.44342   2.45024   2.45494
 Alpha virt. eigenvalues --    2.46339   2.46371   2.46603   2.46988   2.47742
 Alpha virt. eigenvalues --    2.48028   2.48356   2.48753   2.48889   2.49767
 Alpha virt. eigenvalues --    2.50077   2.50496   2.51484   2.51817   2.52640
 Alpha virt. eigenvalues --    2.52999   2.53137   2.53251   2.53614   2.54229
 Alpha virt. eigenvalues --    2.54519   2.54845   2.55820   2.55993   2.56443
 Alpha virt. eigenvalues --    2.56657   2.57188   2.57809   2.57924   2.58481
 Alpha virt. eigenvalues --    2.58971   2.59407   2.59607   2.60176   2.60508
 Alpha virt. eigenvalues --    2.60822   2.61432   2.61980   2.62432   2.62924
 Alpha virt. eigenvalues --    2.63030   2.63276   2.64166   2.64536   2.64900
 Alpha virt. eigenvalues --    2.65360   2.65930   2.66161   2.66684   2.67244
 Alpha virt. eigenvalues --    2.67839   2.68057   2.68194   2.69303   2.69695
 Alpha virt. eigenvalues --    2.69825   2.70164   2.70772   2.70928   2.71708
 Alpha virt. eigenvalues --    2.71981   2.72803   2.73083   2.73654   2.74475
 Alpha virt. eigenvalues --    2.75283   2.76059   2.76262   2.76565   2.77253
 Alpha virt. eigenvalues --    2.77579   2.77879   2.78492   2.78972   2.79337
 Alpha virt. eigenvalues --    2.80011   2.80281   2.81013   2.82181   2.82672
 Alpha virt. eigenvalues --    2.83613   2.84097   2.84673   2.84896   2.85953
 Alpha virt. eigenvalues --    2.86030   2.86972   2.87618   2.88352   2.89032
 Alpha virt. eigenvalues --    2.89334   2.89419   2.90258   2.91043   2.91550
 Alpha virt. eigenvalues --    2.92732   2.92993   2.94106   2.94615   2.95079
 Alpha virt. eigenvalues --    2.95461   2.96415   2.97132   2.98011   2.98749
 Alpha virt. eigenvalues --    2.98970   3.00049   3.00801   3.01452   3.02640
 Alpha virt. eigenvalues --    3.03284   3.03988   3.04444   3.05354   3.05627
 Alpha virt. eigenvalues --    3.05931   3.06504   3.07018   3.08620   3.09220
 Alpha virt. eigenvalues --    3.09288   3.10168   3.10710   3.10983   3.12107
 Alpha virt. eigenvalues --    3.12342   3.13511   3.13596   3.14394   3.15489
 Alpha virt. eigenvalues --    3.15626   3.15831   3.16265   3.17391   3.17631
 Alpha virt. eigenvalues --    3.18242   3.18728   3.19842   3.20005   3.21030
 Alpha virt. eigenvalues --    3.21388   3.21826   3.22126   3.22529   3.23229
 Alpha virt. eigenvalues --    3.23299   3.23695   3.24390   3.24865   3.25748
 Alpha virt. eigenvalues --    3.26317   3.26953   3.27750   3.27963   3.28679
 Alpha virt. eigenvalues --    3.29470   3.29727   3.29954   3.30108   3.30399
 Alpha virt. eigenvalues --    3.31529   3.31695   3.32643   3.33029   3.33649
 Alpha virt. eigenvalues --    3.33885   3.34294   3.35003   3.35276   3.35540
 Alpha virt. eigenvalues --    3.36562   3.36782   3.37180   3.37555   3.37957
 Alpha virt. eigenvalues --    3.38247   3.38423   3.38840   3.39492   3.39726
 Alpha virt. eigenvalues --    3.40207   3.40555   3.41176   3.41437   3.42123
 Alpha virt. eigenvalues --    3.42720   3.42909   3.43181   3.43460   3.43970
 Alpha virt. eigenvalues --    3.44375   3.44673   3.45563   3.46023   3.46392
 Alpha virt. eigenvalues --    3.47031   3.47339   3.47807   3.48719   3.49230
 Alpha virt. eigenvalues --    3.49967   3.50464   3.51137   3.51512   3.51777
 Alpha virt. eigenvalues --    3.52436   3.52759   3.53578   3.54474   3.55096
 Alpha virt. eigenvalues --    3.55352   3.55775   3.56721   3.57410   3.57777
 Alpha virt. eigenvalues --    3.58285   3.58864   3.60113   3.60500   3.61094
 Alpha virt. eigenvalues --    3.62547   3.62943   3.63408   3.64256   3.65669
 Alpha virt. eigenvalues --    3.65977   3.67124   3.67910   3.68263   3.69124
 Alpha virt. eigenvalues --    3.69370   3.70185   3.72682   3.73152   3.74227
 Alpha virt. eigenvalues --    3.74808   3.75982   3.76709   3.77198   3.79332
 Alpha virt. eigenvalues --    3.81181   3.81729   3.82138   3.83278   3.83788
 Alpha virt. eigenvalues --    3.84386   3.85160   3.86200   3.86726   3.87559
 Alpha virt. eigenvalues --    3.87715   3.88254   3.90215   3.91247   3.92096
 Alpha virt. eigenvalues --    3.93567   3.93861   3.94664   3.95638   3.96222
 Alpha virt. eigenvalues --    3.96923   3.97041   3.98145   3.98743   3.99202
 Alpha virt. eigenvalues --    4.00141   4.00487   4.00904   4.02073   4.02725
 Alpha virt. eigenvalues --    4.03865   4.04116   4.04518   4.05126   4.06229
 Alpha virt. eigenvalues --    4.08475   4.09595   4.10089   4.10397   4.10526
 Alpha virt. eigenvalues --    4.12027   4.12667   4.13644   4.13883   4.13922
 Alpha virt. eigenvalues --    4.14313   4.14887   4.15961   4.16358   4.16962
 Alpha virt. eigenvalues --    4.18255   4.18919   4.19336   4.20564   4.20944
 Alpha virt. eigenvalues --    4.21982   4.22516   4.23326   4.23981   4.25544
 Alpha virt. eigenvalues --    4.27225   4.28043   4.29378   4.30681   4.32485
 Alpha virt. eigenvalues --    4.33626   4.34780   4.35023   4.35999   4.37133
 Alpha virt. eigenvalues --    4.38757   4.39566   4.41002   4.41484   4.41771
 Alpha virt. eigenvalues --    4.42455   4.43712   4.44396   4.46365   4.46838
 Alpha virt. eigenvalues --    4.47818   4.50386   4.50756   4.52615   4.53345
 Alpha virt. eigenvalues --    4.54405   4.56093   4.57651   4.58884   4.59150
 Alpha virt. eigenvalues --    4.60374   4.60753   4.62161   4.66343   4.67066
 Alpha virt. eigenvalues --    4.68506   4.68985   4.70706   4.71118   4.71478
 Alpha virt. eigenvalues --    4.72041   4.80191   4.83516   4.85849   4.86327
 Alpha virt. eigenvalues --    4.89012   4.90226   4.91874   4.93499   4.94675
 Alpha virt. eigenvalues --    4.95485   4.96314   4.98927   5.01664   5.02675
 Alpha virt. eigenvalues --    5.04186   5.06922   5.07552   5.10013   5.12006
 Alpha virt. eigenvalues --    5.13693   5.14236   5.16519   5.17584   5.19444
 Alpha virt. eigenvalues --    5.19798   5.21673   5.24812   5.26181   5.32479
 Alpha virt. eigenvalues --    5.41118   5.43163   5.60469   5.62058   7.86084
 Alpha virt. eigenvalues --    7.87667   7.89839   7.93243   8.04996   8.05990
 Alpha virt. eigenvalues --   10.93171  10.93685  10.99056  11.05169  11.05823
 Alpha virt. eigenvalues --   11.07611  15.79985  15.87645  22.44953  22.47372
 Alpha virt. eigenvalues --   22.48053  22.49840  22.52200  22.53806  22.58160
 Alpha virt. eigenvalues --   22.59254  22.62355  22.64434  22.65329  22.68127
 Alpha virt. eigenvalues --   22.70403  22.70894  22.73156  22.75642  22.78112
 Alpha virt. eigenvalues --   22.80020  22.88278  22.89544  23.05372  23.07730
 Alpha virt. eigenvalues --   25.48761  25.70985  40.20357  40.34427  40.36341
 Alpha virt. eigenvalues --   40.75851  41.04584  41.13615  52.13175  56.93142
          Condensed to atoms (all electrons):
 Mulliken charges:
               1
     1  Fe  -0.580282
     2  P    0.133551
     3  P    0.142892
     4  C    0.068940
     5  C   -0.059979
     6  C   -0.037538
     7  C   -0.082432
     8  C   -0.076481
     9  C    0.127821
    10  C   -0.079284
    11  C   -0.121572
    12  C   -0.017215
    13  C   -0.167251
    14  C   -0.074015
    15  C   -0.231482
    16  C   -0.106219
    17  C   -0.214334
    18  C   -0.061963
    19  C   -0.218644
    20  C   -0.087165
    21  C   -0.191012
    22  H    0.099947
    23  H    0.126841
    24  H    0.125819
    25  H    0.141518
    26  H    0.135133
    27  H    0.129106
    28  Cl  -0.424768
    29  Cl  -0.424158
    30  Pd   0.191165
    31  H    0.156215
    32  C   -0.387400
    33  H    0.120247
    34  C   -0.399274
    35  H    0.156513
    36  H    0.108913
    37  H    0.115737
    38  H    0.115328
    39  H    0.125167
    40  H    0.126542
    41  H    0.137793
    42  H    0.134636
    43  H    0.124594
    44  H    0.169629
    45  H    0.138279
    46  H    0.128205
    47  H    0.149371
    48  C   -0.403527
    49  H    0.091621
    50  C   -0.386792
    51  H    0.120018
    52  H    0.109418
    53  H    0.113699
    54  H    0.133424
    55  H    0.134964
    56  H    0.137236
    57  H    0.139401
    58  H    0.125551
    59  H    0.125059
    60  H    0.172496
 Sum of Mulliken charges =  -0.00000
 Mulliken charges with hydrogens summed into heavy atoms:
               1
     1  Fe  -0.580282
     2  P    0.133551
     3  P    0.142892
     4  C    0.068940
     5  C    0.039968
     6  C    0.089304
     7  C    0.043386
     8  C    0.065037
     9  C    0.127821
    10  C    0.055849
    11  C    0.003594
    12  C    0.109327
    13  C   -0.038145
    14  C    0.082201
    15  C    0.033943
    16  C    0.014028
    17  C    0.016730
    18  C    0.087408
    19  C    0.010792
    20  C    0.004456
    21  C    0.056111
    28  Cl  -0.424768
    29  Cl  -0.424158
    30  Pd   0.191165
    32  C    0.009623
    34  C    0.036839
    48  C    0.008073
    50  C    0.036314
 Electronic spatial extent (au):  <R**2>=          11633.2637
 Charge=             -0.0000 electrons
 Dipole moment (field-independent basis, Debye):
    X=             -0.2835    Y=             11.5736    Z=              0.5083  Tot=             11.5883
 Quadrupole moment (field-independent basis, Debye-Ang):
   XX=           -204.3700   YY=           -243.5537   ZZ=           -212.6526
   XY=              1.0617   XZ=             -5.9597   YZ=             -2.3345
 Traceless Quadrupole moment (field-independent basis, Debye-Ang):
   XX=             15.8221   YY=            -23.3616   ZZ=              7.5395
   XY=              1.0617   XZ=             -5.9597   YZ=             -2.3345
 Octapole moment (field-independent basis, Debye-Ang**2):
  XXX=              4.3503  YYY=            154.1499  ZZZ=             -4.4609  XYY=             -3.7170
  XXY=             -9.8767  XXZ=              0.3320  XZZ=              1.1626  YZZ=            -13.4343
  YYZ=              2.2829  XYZ=            -18.6619
 Hexadecapole moment (field-independent basis, Debye-Ang**3):
 XXXX=          -7358.6990 YYYY=          -6081.2349 ZZZZ=          -2464.9758 XXXY=              0.1375
 XXXZ=            -31.8419 YYYX=            -11.8959 YYYZ=            -17.7009 ZZZX=            -56.7121
 ZZZY=             -2.2000 XXYY=          -2334.8218 XXZZ=          -1649.7200 YYZZ=          -1389.4191
 XXYZ=            -11.0309 YYXZ=            -42.6344 ZZXY=              1.1127
 N-N= 4.489779933440D+03 E-N=-1.534055283115D+04  KE= 2.570911164727D+03
 1\1\GINC-NC252\SP\RPBE1PBE\Gen\C22H32Cl2Fe1P2Pd1\MACKK4\05-Dec-2021\0\
 \# PBE1PBE gen pseudo=read int=(grid=ultrafine) empiricaldispersion=GD
 3BJ nmr=giao\\RR_Me_Ferrolane_3 title\\0,1\Fe,0,-0.0410485214,2.613435
 65,-0.025282636\P,0,-1.7766356896,-0.267190305,-0.0334958701\P,0,1.800
 0391764,-0.2224607338,-0.0020810666\C,0,-1.5325881541,1.4310766105,-0.
 642123297\C,0,-0.684224738,1.7845824403,-1.7585114477\C,0,-0.675398071
 6,3.2128225021,-1.8870471089\C,0,-1.529075697,3.7574776597,-0.87074901
 25\C,0,-2.066074162,2.6677787479,-0.1063238303\C,0,1.4979691047,1.4794
 018205,0.5775840876\C,0,1.983401862,2.7423728562,0.0576389488\C,0,1.40
 37186929,3.8021767548,0.8332268693\C,0,0.572322779,3.2143782036,1.8437
 226138\C,0,0.6352034669,1.7895214565,1.69736853\C,0,-3.3534856737,-0.8
 497816067,-0.9096293102\C,0,-4.3143239184,-1.1451128929,0.2660586568\C
 ,0,-2.5624691625,-0.0418108593,1.6633932156\C,0,-4.0798907704,-0.09870
 62408,1.370169951\C,0,3.2811346453,-0.7157144303,1.0487100033\C,0,4.46
 67208769,-0.1564934087,0.2390273817\C,0,2.7698012244,-0.0332337876,-1.
 6097604673\C,0,4.2036335426,-0.4875950557,-1.2376684093\H,0,-0.1044816
 087,1.0778669394,-2.3527220957\H,0,-0.0822098856,3.7850667829,-2.60104
 97836\H,0,-1.6972684574,4.8169671037,-0.6736367657\H,0,-2.724128723,2.
 7611381684,0.7578047295\H,0,2.6345339681,2.8768692474,-0.805760928\H,0
 ,0.0925550513,1.0529922185,2.2906596807\Cl,0,-1.5962402379,-3.44785661
 54,-0.0741110125\Cl,0,1.7595455683,-3.3482014782,-0.2920235052\Pd,0,0.
 0327341946,-1.6949915823,-0.0905736023\H,0,-3.086641017,-1.786414132,-
 1.4225511384\C,0,-3.9106514543,0.1685153744,-1.9113052132\H,0,-2.26482
 52577,0.9553264325,2.0319651299\C,0,-2.0888464666,-1.1121607426,2.6572
 471032\H,0,-4.0941443684,-2.1546294521,0.6530120999\H,0,-5.3627223441,
 -1.138172622,-0.0834415675\H,0,-4.4337764827,0.8922234267,1.0278883017
 \H,0,-4.6411779487,-0.343297988,2.2901557897\H,0,1.5322627077,4.869287
 8779,0.6478661094\H,0,-0.0406670342,3.755499237,2.5652998348\H,0,-4.80
 90764169,-0.2564161259,-2.3932077561\H,0,-3.1835162152,0.4083222359,-2
 .7047981293\H,0,-4.2016256927,1.1177814567,-1.4292739897\H,0,-2.304486
 2885,-2.1292053141,2.2918903357\H,0,-0.9967499863,-1.0600263116,2.8107
 996445\H,0,-2.5879735274,-0.9645164264,3.6317650852\H,0,3.2872159253,-
 1.8176422683,0.9847923977\C,0,3.2188819824,-0.2792208558,2.5108141633\
 H,0,2.7713888713,1.0484649088,-1.8352305222\C,0,2.1829958683,-0.798524
 1807,-2.7999878368\H,0,5.4160696376,-0.5962508326,0.5950142101\H,0,4.5
 402726157,0.9395579857,0.385842644\H,0,4.9428717919,-0.019289532,-1.91
 17347042\H,0,4.2663904704,-1.5816195043,-1.3800544083\H,0,4.11639952,-
 0.6403688542,3.0433781141\H,0,3.1826092139,0.8189768648,2.6128316115\H
 ,0,2.337716183,-0.7043569456,3.0214026963\H,0,2.8411623865,-0.67868507
 11,-3.6795031036\H,0,1.1793180336,-0.4342402042,-3.0773014368\H,0,2.09
 52546112,-1.8713946022,-2.563689984\\Version=ES64L-G09RevE.01\State=1-
 A\HF=-2711.5111406\RMSD=3.590e-09\Dipole=-0.0660667,4.5521683,0.243886
 4\Quadrupole=11.6077485,-17.3468664,5.7391179,0.5332924,-4.553534,-1.9
 209447\PG=C01 [X(C22H32Cl2Fe1P2Pd1)]\\@


 CHRISTMAS IS ON TOP OF A STEEP HILL.
 THE CLOSER YOU GET, THE STEEPER THE HILL IS.
          -- LINUS, OF PEANUTS
 Job cpu time:       0 days 22 hours 49 minutes 38.0 seconds.
 File lengths (MBytes):  RWF=    679 Int=      0 D2E=      0 Chk=     96 Scr=      1
 Normal termination of Gaussian 09 at Sun Dec  5 03:32:51 2021.
 Initial command:
 /gstore/apps/gaussian/g09.e01-foss-2017a/g09/l1.exe "/local/22791346/Gau-20499.inp" -scrdir="/local/22791346/"
 Entering Link 1 = /gstore/apps/gaussian/g09.e01-foss-2017a/g09/l1.exe PID=     17056.
  
 Copyright (c) 1988,1990,1992,1993,1995,1998,2003,2009,2015,
            Gaussian, Inc.  All Rights Reserved.
  
 This is part of the Gaussian(R) 09 program.  It is based on
 the Gaussian(R) 03 system (copyright 2003, Gaussian, Inc.),
 the Gaussian(R) 98 system (copyright 1998, Gaussian, Inc.),
 the Gaussian(R) 94 system (copyright 1995, Gaussian, Inc.),
 the Gaussian 92(TM) system (copyright 1992, Gaussian, Inc.),
 the Gaussian 90(TM) system (copyright 1990, Gaussian, Inc.),
 the Gaussian 88(TM) system (copyright 1988, Gaussian, Inc.),
 the Gaussian 86(TM) system (copyright 1986, Carnegie Mellon
 University), and the Gaussian 82(TM) system (copyright 1983,
 Carnegie Mellon University). Gaussian is a federally registered
 trademark of Gaussian, Inc.
  
 This software contains proprietary and confidential information,
 including trade secrets, belonging to Gaussian, Inc.
  
 This software is provided under written license and may be
 used, copied, transmitted, or stored only in accord with that
 written license.
  
 The following legend is applicable only to US Government
 contracts under FAR:
  
                    RESTRICTED RIGHTS LEGEND
  
 Use, reproduction and disclosure by the US Government is
 subject to restrictions as set forth in subparagraphs (a)
 and (c) of the Commercial Computer Software - Restricted
 Rights clause in FAR 52.227-19.
  
 Gaussian, Inc.
 340 Quinnipiac St., Bldg. 40, Wallingford CT 06492
  
  
 ---------------------------------------------------------------
 Warning -- This program may not be used in any manner that
 competes with the business of Gaussian, Inc. or will provide
 assistance to any competitor of Gaussian, Inc.  The licensee
 of this program is prohibited from giving any competitor of
 Gaussian, Inc. access to this program.  By using this program,
 the user acknowledges that Gaussian, Inc. is engaged in the
 business of creating and licensing software in the field of
 computational chemistry and represents and warrants to the
 licensee that it is not a competitor of Gaussian, Inc. and that
 it will not use this program in any manner prohibited above.
 ---------------------------------------------------------------
  

 Cite this work as:
 Gaussian 09, Revision E.01,
 M. J. Frisch, G. W. Trucks, H. B. Schlegel, G. E. Scuseria, 
 M. A. Robb, J. R. Cheeseman, G. Scalmani, V. Barone, B. Mennucci, 
 G. A. Petersson, H. Nakatsuji, M. Caricato, X. Li, H. P. Hratchian, 
 A. F. Izmaylov, J. Bloino, G. Zheng, J. L. Sonnenberg, M. Hada, 
 M. Ehara, K. Toyota, R. Fukuda, J. Hasegawa, M. Ishida, T. Nakajima, 
 Y. Honda, O. Kitao, H. Nakai, T. Vreven, J. A. Montgomery, Jr., 
 J. E. Peralta, F. Ogliaro, M. Bearpark, J. J. Heyd, E. Brothers, 
 K. N. Kudin, V. N. Staroverov, T. Keith, R. Kobayashi, J. Normand, 
 K. Raghavachari, A. Rendell, J. C. Burant, S. S. Iyengar, J. Tomasi, 
 M. Cossi, N. Rega, J. M. Millam, M. Klene, J. E. Knox, J. B. Cross, 
 V. Bakken, C. Adamo, J. Jaramillo, R. Gomperts, R. E. Stratmann, 
 O. Yazyev, A. J. Austin, R. Cammi, C. Pomelli, J. W. Ochterski, 
 R. L. Martin, K. Morokuma, V. G. Zakrzewski, G. A. Voth, 
 P. Salvador, J. J. Dannenberg, S. Dapprich, A. D. Daniels, 
 O. Farkas, J. B. Foresman, J. V. Ortiz, J. Cioslowski, 
 and D. J. Fox, Gaussian, Inc., Wallingford CT, 2013.
 
 ******************************************
 Gaussian 09:  ES64L-G09RevE.01 30-Nov-2015
                 5-Dec-2021 
 ******************************************
 %nprocs=14
 Will use up to   14 processors via shared memory.
 %mem=128GB
 %chk=RR_Me_Ferrolane_3_SPE.chk
 ----------------------------------------------------------------------
 # PBE1PBE gen pseudo=read int=(grid=ultrafine) empiricaldispersion=GD3
 BJ pop=nbo guess=read geom=check
 ----------------------------------------------------------------------
 1/29=2,38=1/1;
 2/12=2,40=1/2;
 3/5=7,11=2,14=-4,16=1,17=8,25=1,30=1,74=-13,75=-5,116=-2,124=41/1,2,3;
 4/5=1/1;
 5/5=2,38=6/2;
 6/7=2,8=2,9=2,10=2,28=1,40=1/1,7;
 99/5=1,9=1/99;
 -----------------------
 RR_Me_Ferrolane_3 title
 -----------------------
 Structure from the checkpoint file:  "RR_Me_Ferrolane_3_SPE.chk"
 Charge =  0 Multiplicity = 1
 Z-Matrix found in file.
 Fe,0,-0.0410485214,2.61343565,-0.025282636
 P,0,-1.7766356896,-0.267190305,-0.0334958701
 P,0,1.8000391764,-0.2224607338,-0.0020810666
 C,0,-1.5325881541,1.4310766105,-0.642123297
 C,0,-0.684224738,1.7845824403,-1.7585114477
 C,0,-0.6753980716,3.2128225021,-1.8870471089
 C,0,-1.529075697,3.7574776597,-0.8707490125
 C,0,-2.066074162,2.6677787479,-0.1063238303
 C,0,1.4979691047,1.4794018205,0.5775840876
 C,0,1.983401862,2.7423728562,0.0576389488
 C,0,1.4037186929,3.8021767548,0.8332268693
 C,0,0.572322779,3.2143782036,1.8437226138
 C,0,0.6352034669,1.7895214565,1.69736853
 C,0,-3.3534856737,-0.8497816067,-0.9096293102
 C,0,-4.3143239184,-1.1451128929,0.2660586568
 C,0,-2.5624691625,-0.0418108593,1.6633932156
 C,0,-4.0798907704,-0.0987062408,1.370169951
 C,0,3.2811346453,-0.7157144303,1.0487100033
 C,0,4.4667208769,-0.1564934087,0.2390273817
 C,0,2.7698012244,-0.0332337876,-1.6097604673
 C,0,4.2036335426,-0.4875950557,-1.2376684093
 H,0,-0.1044816087,1.0778669394,-2.3527220957
 H,0,-0.0822098856,3.7850667829,-2.6010497836
 H,0,-1.6972684574,4.8169671037,-0.6736367657
 H,0,-2.724128723,2.7611381684,0.7578047295
 H,0,2.6345339681,2.8768692474,-0.805760928
 H,0,0.0925550513,1.0529922185,2.2906596807
[...]
                                                    252(v),195(v),164(g),333(r)
                                                    418(r),1096(r),352(g)
  1038. BD*(   1)Fe   1 - C  10          0.45912     0.31050  1037(g),1034(g),1036(g)
                                                    1039(g),1033(g),136(g)
                                                    143(g),152(g),141(g),147(g)
                                                    148(g),149(g),145(g),157(g)
                                                    354(v),224(v),355(v),146(g)
                                                    225(v),4(g),7(g),1035(g)
                                                    121(g),432(r),457(v),406(v)
                                                    456(v),248(v),249(v),122(r)
                                                    379(g),327(r),155(g),301(v)
                                                    275(v),378(g),5(g),328(r)
                                                    251(v),153(g),274(v),142(g)
                                                    230(v),407(v),300(v),151(g)
                                                    458(v),356(v),430(r),329(r)
                                                    1057(g),163(g),361(v),459(v)
                                                    404(v),326(r),360(v),433(r)
                                                    138(g),1059(g),165(g),250(v)
                                                    408(v),776(r),1040(v),144(g)
                                                    226(v),277(v),380(g),303(v)
                                                    381(g),353(v),395(g),150(g)
                                                    284(v),154(g),389(g),434(r)
                                                    310(v),440(r),364(v),386(g)
                                                    164(g),1047(r),804(r)
                                                    1043(r),782(r),468(v),260(v)
                                                    383(g),830(r),195(r),789(r)
                                                    414(v),334(r),384(g),170(r)
                                                    1055(v),1082(r),359(v)
                                                    203(r),418(v),415(v),926(r)
                                                    256(v),464(v),1056(r),173(r)
                                                    1008(r),198(r),952(r),388(g)
                                                    343(r),124(r),311(v),229(v)
                                                    201(r),331(r),382(g),196(r)
                                                    431(r),302(v),234(v),586(r)
                                                    166(r),712(v),194(r),167(r)
                                                    282(v),336(r),317(v),1097(r)
                                                    335(r),168(r),235(v),400(g)
                                                    469(v),254(v),123(v),704(r)
                                                    376(v),445(r),363(v),304(v)
                                                    435(r),137(g),231(v),158(g)
                                                    330(r),365(v),1064(r),711(v)
                                                    266(v),474(v)
  1039. BD*(   1)Fe   1 - C  13          0.26031     0.48281  1036(g),1034(g),1038(g)
                                                    136(g),354(v),1037(g),143(g)
                                                    141(g),145(g),147(g),146(g)
                                                    148(g),152(g),157(g),121(g)
                                                    149(g),355(v),224(v),7(g)
                                                    225(v),1035(g),432(v)
                                                    1033(g),457(g),456(g),153(g)
                                                    406(r),151(g),378(v),379(v)
                                                    433(v),230(v),155(g),3(g)
                                                    458(g),329(r),404(r),144(g)
                                                    327(r),459(g),162(g),430(v)
                                                    4(g),328(r),154(g),5(g)
                                                    380(v),408(r),1063(g),356(v)
                                                    407(r),776(r),226(v),1058(g)
                                                    353(v),1043(r),381(v),248(v)
                                                    251(v),1047(r),163(g),360(v)
                                                    361(v),464(g),165(g),468(g)
                                                    364(v),1008(r),460(g),469(g)
                                                    301(v),249(v),142(g),164(g)
                                                    195(r),250(v),284(v),275(v)
                                                    434(v),326(r),389(v),440(v)
                                                    830(r),418(r),137(g),926(r)
                                                    223(v),395(v),789(r),461(g)
                                                    474(g),804(r),201(r),310(v)
                                                    465(g),415(r),138(g),782(r)
                                                    203(r),300(v),414(r),198(r)
                                                    952(r),405(r),462(g),170(r)
                                                    445(v),123(r),168(r),1097(r)
                                                    586(r),335(r),715(v),717(v)
                                                    382(v),311(v),158(g),334(r)
                                                    196(r),229(v),302(v),232(v)
                                                    473(g),1062(r),359(v)
                                                    1054(v),1073(r),704(r)
  1040. BD*(   1) P   2 - C   4          0.07398     0.21867   
  1041. BD*(   1) P   2 - C  14          0.08331     0.15908   
  1042. BD*(   1) P   2 - C  16          0.06999     0.15939   
  1043. BD*(   1) P   2 -Pd  30          0.16482     0.55663  1047(g),791(g),794(g),166(g)
                                                    786(g),194(v),785(g),782(g)
                                                    795(g),777(g),725(v),222(v)
                                                    752(v),352(r),789(g),776(g)
                                                    1088(g),586(r),787(g),482(v)
                                                    201(v),724(v),755(v),788(g)
                                                    170(g),198(v),174(g),638(r)
                                                    175(g),781(g),784(g),728(v)
                                                    757(v),534(v),202(v),229(v)
                                                    906(r),779(g),535(v),200(v)
                                                    203(v),250(r),1034(r),173(g)
                                                    211(v),715(r),186(g),205(v)
                                                    458(r),491(v),1039(r),178(g)
                                                    690(r),209(v),588(r),183(g)
                                                    1028(r),148(r),359(r),171(g)
                                                    729(v),179(g),225(v),176(g)
                                                    727(v),612(r),195(v),1029(r)
                                                    560(r),1067(v),328(r),753(v)
                                                    235(v),485(v),901(r),965(r)
                                                    843(r),590(r),136(r),1008(r)
                                                    332(r),749(v),1036(r),615(r)
                                                    495(v),909(r),722(v),363(r)
                                                    751(v),380(r),768(v),172(g)
                                                    929(r),210(v),806(r),1038(r)
                                                    640(r),486(v),1031(r),740(v)
                                                    842(r),643(r),907(r),617(r)
                                                    488(v),460(r),620(r),233(v)
                                                    484(v),540(v),864(r),732(v)
                                                    1094(r),775(v),650(r),181(g)
                                                    596(r),812(r),594(r),252(r)
                                                    561(r),169(g),932(r),536(v)
                                                    1033(v),231(v),963(r),177(g)
                                                    206(v),1000(r),353(r)
  1044. BD*(   1) P   3 - C   9          0.07903     0.21596   
  1045. BD*(   1) P   3 - C  18          0.08059     0.16323   
  1046. BD*(   1) P   3 - C  20          0.06986     0.16080   
  1047. BD*(   1) P   3 -Pd  30          0.16654     0.55899  1043(g),791(g),794(g),786(g)
                                                    194(g),166(v),785(g),782(g)
                                                    795(g),777(g),752(v),352(v)
                                                    725(v),789(g),222(r),788(g)
                                                    776(g),482(r),1089(g),201(g)
                                                    586(v),198(g),728(v),170(v)
                                                    638(v),724(v),202(g),755(v)
                                                    174(v),203(g),906(r),784(g)
                                                    787(g),534(r),535(r),173(v)
                                                    211(g),175(v),757(v),715(r)
                                                    729(v),209(g),229(r),200(g)
                                                    195(g),250(r),458(r),779(g)
                                                    1034(r),205(g),359(v)
                                                    1029(r),1039(r),176(v)
                                                    178(v),843(r),751(v),612(r)
                                                    148(r),491(r),727(v),485(r)
                                                    171(v),183(v),363(v),495(r)
                                                    1008(r),225(r),186(v),590(v)
                                                    560(r),690(r),328(r),842(r)
                                                    179(v),136(r),486(r),901(r)
                                                    1028(r),929(r),721(v),615(r)
                                                    965(r),643(v),909(r),722(v)
                                                    332(r),172(v),235(r),380(r)
                                                    740(v),210(g),460(r),1031(r)
                                                    177(v),840(r),588(v),650(v)
                                                    750(v),748(v),1038(r)
                                                    1078(v),768(v),620(r),353(v)
                                                    488(r),932(r),746(v),640(v)
                                                    617(r),864(r),197(g),1036(r)
                                                    536(r),1037(v),732(v),806(r)
                                                    366(v),812(r),594(v),561(r)
                                                    142(r),144(r),596(v),1040(v)
                                                    907(r),540(r),206(g),780(g)
  1048. BD*(   1) C   4 - C   5          0.03413     0.40594   
  1049. BD*(   1) C   4 - C   8          0.04710     0.39363   
  1050. BD*(   1) C   5 - C   6          0.02055     0.42310   
  1051. BD*(   1) C   5 - H  22          0.01856     0.39857   
  1052. BD*(   1) C   6 - C   7          0.02005     0.41914   
  1053. BD*(   1) C   6 - H  23          0.01507     0.38538   
  1054. BD*(   1) C   7 - C   8          0.02896     0.41124   
  1055. BD*(   1) C   7 - H  24          0.01548     0.38448   
  1056. BD*(   1) C   8 - H  25          0.01692     0.38619   
  1057. BD*(   1) C   9 - C  10          0.03947     0.40166   
  1058. BD*(   1) C   9 - C  13          0.03451     0.40338   
  1059. BD*(   1) C  10 - C  11          0.02864     0.41210   
  1060. BD*(   1) C  10 - H  26          0.01737     0.38586   
  1061. BD*(   1) C  11 - C  12          0.03071     0.40653   
  1062. BD*(   1) C  11 - H  39          0.01505     0.38463   
  1063. BD*(   1) C  12 - C  13          0.02803     0.41579   
  1064. BD*(   1) C  12 - H  40          0.01498     0.38476   
  1065. BD*(   1) C  13 - H  27          0.01715     0.39700   
  1066. BD*(   1) C  14 - C  15          0.02030     0.33000   
  1067. BD*(   1) C  14 - H  31          0.02084     0.38152   
  1068. BD*(   1) C  14 - C  32          0.01552     0.34289   
  1069. BD*(   1) C  15 - C  17          0.01365     0.33683   
  1070. BD*(   1) C  15 - H  35          0.01508     0.37586   
  1071. BD*(   1) C  15 - H  36          0.01465     0.36284   
  1072. BD*(   1) C  16 - C  17          0.02335     0.32045   
  1073. BD*(   1) C  16 - H  33          0.02087     0.35345   
  1074. BD*(   1) C  16 - C  34          0.01282     0.33609   
  1075. BD*(   1) C  17 - H  37          0.01526     0.35065   
  1076. BD*(   1) C  17 - H  38          0.01500     0.35833   
  1077. BD*(   1) C  18 - C  19          0.02216     0.33023   
  1078. BD*(   1) C  18 - H  47          0.02792     0.36730   
  1079. BD*(   1) C  18 - C  48          0.01187     0.34893   
  1080. BD*(   1) C  19 - C  21          0.00894     0.34476   
  1081. BD*(   1) C  19 - H  51          0.01500     0.36000   
  1082. BD*(   1) C  19 - H  52          0.01904     0.35135   
  1083. BD*(   1) C  20 - C  21          0.02178     0.32185   
  1084. BD*(   1) C  20 - H  49          0.02368     0.34965   
  1085. BD*(   1) C  20 - C  50          0.00996     0.34301   
  1086. BD*(   1) C  21 - H  53          0.01378     0.35915   
  1087. BD*(   1) C  21 - H  54          0.01646     0.36171   
  1088. BD*(   1)Cl  28 -Pd  30          0.19246     0.16060  1089(g),1041(v),1046(v)
                                                    1043(g),166(v),794(g),785(g)
                                                    1045(v),1042(v),194(v)
                                                    787(g),222(r),795(g),724(g)
                                                    781(g),725(g),720(g),352(r)
                                                    786(g),782(g),752(v),586(r)
                                                    174(v),792(g)
  1089. BD*(   1)Cl  29 -Pd  30          0.19406     0.16200  1088(g),1045(v),1047(g)
                                                    1046(v),1041(v),194(v)
                                                    1042(v),794(g),788(g),785(g)
                                                    166(v),752(g),352(r),786(g)
                                                    795(g),782(g),748(g),222(r)
                                                    201(v),1044(v),482(r),792(g)
                                                    1101(r),725(v),1078(r)
                                                    796(g)
  1090. BD*(   1) C  32 - H  41          0.00843     0.36921   
  1091. BD*(   1) C  32 - H  42          0.00685     0.37297   
  1092. BD*(   1) C  32 - H  43          0.00989     0.36893   
  1093. BD*(   1) C  34 - H  44          0.01100     0.38875   
  1094. BD*(   1) C  34 - H  45          0.00616     0.37730   
  1095. BD*(   1) C  34 - H  46          0.01010     0.37278   
  1096. BD*(   1) C  48 - H  55          0.00843     0.36851   
  1097. BD*(   1) C  48 - H  56          0.00961     0.37291   
  1098. BD*(   1) C  48 - H  57          0.00632     0.37092   
  1099. BD*(   1) C  50 - H  58          0.00956     0.37241   
  1100. BD*(   1) C  50 - H  59          0.00684     0.37573   
  1101. BD*(   1) C  50 - H  60          0.01158     0.39366   
       -------------------------------
              Total Lewis  292.64004  ( 97.5467%)
        Valence non-Lewis    6.92664  (  2.3089%)
        Rydberg non-Lewis    0.43331  (  0.1444%)
       -------------------------------
            Total unit  1  300.00000  (100.0000%)
           Charge unit  1    0.00000
 1\1\GINC-NC252\SP\RPBE1PBE\Gen\C22H32Cl2Fe1P2Pd1\MACKK4\05-Dec-2021\0\
 \# PBE1PBE gen pseudo=read int=(grid=ultrafine) empiricaldispersion=GD
 3BJ pop=nbo guess=read geom=check\\RR_Me_Ferrolane_3 title\\0,1\Fe,0,-
 0.0410485214,2.61343565,-0.025282636\P,0,-1.7766356896,-0.267190305,-0
 .0334958701\P,0,1.8000391764,-0.2224607338,-0.0020810666\C,0,-1.532588
 1541,1.4310766105,-0.642123297\C,0,-0.684224738,1.7845824403,-1.758511
 4477\C,0,-0.6753980716,3.2128225021,-1.8870471089\C,0,-1.529075697,3.7
 574776597,-0.8707490125\C,0,-2.066074162,2.6677787479,-0.1063238303\C,
 0,1.4979691047,1.4794018205,0.5775840876\C,0,1.983401862,2.7423728562,
 0.0576389488\C,0,1.4037186929,3.8021767548,0.8332268693\C,0,0.57232277
 9,3.2143782036,1.8437226138\C,0,0.6352034669,1.7895214565,1.69736853\C
 ,0,-3.3534856737,-0.8497816067,-0.9096293102\C,0,-4.3143239184,-1.1451
 128929,0.2660586568\C,0,-2.5624691625,-0.0418108593,1.6633932156\C,0,-
 4.0798907704,-0.0987062408,1.370169951\C,0,3.2811346453,-0.7157144303,
 1.0487100033\C,0,4.4667208769,-0.1564934087,0.2390273817\C,0,2.7698012
 244,-0.0332337876,-1.6097604673\C,0,4.2036335426,-0.4875950557,-1.2376
 684093\H,0,-0.1044816087,1.0778669394,-2.3527220957\H,0,-0.0822098856,
 3.7850667829,-2.6010497836\H,0,-1.6972684574,4.8169671037,-0.673636765
 7\H,0,-2.724128723,2.7611381684,0.7578047295\H,0,2.6345339681,2.876869
 2474,-0.805760928\H,0,0.0925550513,1.0529922185,2.2906596807\Cl,0,-1.5
 962402379,-3.4478566154,-0.0741110125\Cl,0,1.7595455683,-3.3482014782,
 -0.2920235052\Pd,0,0.0327341946,-1.6949915823,-0.0905736023\H,0,-3.086
 641017,-1.786414132,-1.4225511384\C,0,-3.9106514543,0.1685153744,-1.91
 13052132\H,0,-2.2648252577,0.9553264325,2.0319651299\C,0,-2.0888464666
 ,-1.1121607426,2.6572471032\H,0,-4.0941443684,-2.1546294521,0.65301209
 99\H,0,-5.3627223441,-1.138172622,-0.0834415675\H,0,-4.4337764827,0.89
 22234267,1.0278883017\H,0,-4.6411779487,-0.343297988,2.2901557897\H,0,
 1.5322627077,4.8692878779,0.6478661094\H,0,-0.0406670342,3.755499237,2
 .5652998348\H,0,-4.8090764169,-0.2564161259,-2.3932077561\H,0,-3.18351
 62152,0.4083222359,-2.7047981293\H,0,-4.2016256927,1.1177814567,-1.429
 2739897\H,0,-2.3044862885,-2.1292053141,2.2918903357\H,0,-0.9967499863
 ,-1.0600263116,2.8107996445\H,0,-2.5879735274,-0.9645164264,3.63176508
 52\H,0,3.2872159253,-1.8176422683,0.9847923977\C,0,3.2188819824,-0.279
 2208558,2.5108141633\H,0,2.7713888713,1.0484649088,-1.8352305222\C,0,2
 .1829958683,-0.7985241807,-2.7999878368\H,0,5.4160696376,-0.5962508326
 ,0.5950142101\H,0,4.5402726157,0.9395579857,0.385842644\H,0,4.94287179
 19,-0.019289532,-1.9117347042\H,0,4.2663904704,-1.5816195043,-1.380054
 4083\H,0,4.11639952,-0.6403688542,3.0433781141\H,0,3.1826092139,0.8189
 768648,2.6128316115\H,0,2.337716183,-0.7043569456,3.0214026963\H,0,2.8
 411623865,-0.6786850711,-3.6795031036\H,0,1.1793180336,-0.4342402042,-
 3.0773014368\H,0,2.0952546112,-1.8713946022,-2.563689984\\Version=ES64
 L-G09RevE.01\State=1-A\HF=-2711.5111406\RMSD=5.267e-09\Dipole=-0.06606
 77,4.5521662,0.243884\Quadrupole=11.6077691,-17.3468721,5.739103,0.533
 3062,-4.5535313,-1.9209405\PG=C01 [X(C22H32Cl2Fe1P2Pd1)]\\@


 Everywhere is walking distance if you have the time.
                                    -- Steven Wright
 Job cpu time:       0 days  0 hours 44 minutes 44.7 seconds.
 File lengths (MBytes):  RWF=    614 Int=      0 D2E=      0 Chk=     96 Scr=      1
 Normal termination of Gaussian 09 at Sun Dec  5 03:36:08 2021.
