 Entering Gaussian System, Link 0=g09
 Input=RR_Me_Ferrolane_1_SPE.com
 Output=RR_Me_Ferrolane_1_SPE.log
 Initial command:
 /gstore/apps/gaussian/g09.e01-foss-2017a/g09/l1.exe "/local/22791342/Gau-9518.inp" -scrdir="/local/22791342/"
 Entering Link 1 = /gstore/apps/gaussian/g09.e01-foss-2017a/g09/l1.exe PID=      9519.
  
 Copyright (c) 1988,1990,1992,1993,1995,1998,2003,2009,2015,
            Gaussian, Inc.  All Rights Reserved.
  
 This is part of the Gaussian(R) 09 program.  It is based on
 the Gaussian(R) 03 system (copyright 2003, Gaussian, Inc.),
 the Gaussian(R) 98 system (copyright 1998, Gaussian, Inc.),
 the Gaussian(R) 94 system (copyright 1995, Gaussian, Inc.),
 the Gaussian 92(TM) system (copyright 1992, Gaussian, Inc.),
 the Gaussian 90(TM) system (copyright 1990, Gaussian, Inc.),
 the Gaussian 88(TM) system (copyright 1988, Gaussian, Inc.),
 the Gaussian 86(TM) system (copyright 1986, Carnegie Mellon
 University), and the Gaussian 82(TM) system (copyright 1983,
 Carnegie Mellon University). Gaussian is a federally registered
 trademark of Gaussian, Inc.
  
 This software contains proprietary and confidential information,
 including trade secrets, belonging to Gaussian, Inc.
  
 This software is provided under written license and may be
 used, copied, transmitted, or stored only in accord with that
 written license.
  
 The following legend is applicable only to US Government
 contracts under FAR:
  
                    RESTRICTED RIGHTS LEGEND
  
 Use, reproduction and disclosure by the US Government is
 subject to restrictions as set forth in subparagraphs (a)
 and (c) of the Commercial Computer Software - Restricted
 Rights clause in FAR 52.227-19.
  
 Gaussian, Inc.
 340 Quinnipiac St., Bldg. 40, Wallingford CT 06492
  
  
 ---------------------------------------------------------------
 Warning -- This program may not be used in any manner that
 competes with the business of Gaussian, Inc. or will provide
 assistance to any competitor of Gaussian, Inc.  The licensee
 of this program is prohibited from giving any competitor of
 Gaussian, Inc. access to this program.  By using this program,
 the user acknowledges that Gaussian, Inc. is engaged in the
 business of creating and licensing software in the field of
 computational chemistry and represents and warrants to the
 licensee that it is not a competitor of Gaussian, Inc. and that
 it will not use this program in any manner prohibited above.
 ---------------------------------------------------------------
  

 Cite this work as:
 Gaussian 09, Revision E.01,
 M. J. Frisch, G. W. Trucks, H. B. Schlegel, G. E. Scuseria, 
 M. A. Robb, J. R. Cheeseman, G. Scalmani, V. Barone, B. Mennucci, 
 G. A. Petersson, H. Nakatsuji, M. Caricato, X. Li, H. P. Hratchian, 
 A. F. Izmaylov, J. Bloino, G. Zheng, J. L. Sonnenberg, M. Hada, 
 M. Ehara, K. Toyota, R. Fukuda, J. Hasegawa, M. Ishida, T. Nakajima, 
 Y. Honda, O. Kitao, H. Nakai, T. Vreven, J. A. Montgomery, Jr., 
 J. E. Peralta, F. Ogliaro, M. Bearpark, J. J. Heyd, E. Brothers, 
 K. N. Kudin, V. N. Staroverov, T. Keith, R. Kobayashi, J. Normand, 
 K. Raghavachari, A. Rendell, J. C. Burant, S. S. Iyengar, J. Tomasi, 
 M. Cossi, N. Rega, J. M. Millam, M. Klene, J. E. Knox, J. B. Cross, 
 V. Bakken, C. Adamo, J. Jaramillo, R. Gomperts, R. E. Stratmann, 
 O. Yazyev, A. J. Austin, R. Cammi, C. Pomelli, J. W. Ochterski, 
 R. L. Martin, K. Morokuma, V. G. Zakrzewski, G. A. Voth, 
 P. Salvador, J. J. Dannenberg, S. Dapprich, A. D. Daniels, 
 O. Farkas, J. B. Foresman, J. V. Ortiz, J. Cioslowski, 
 and D. J. Fox, Gaussian, Inc., Wallingford CT, 2013.
 
 ******************************************
 Gaussian 09:  ES64L-G09RevE.01 30-Nov-2015
                 5-Dec-2021 
 ******************************************
 %nprocs=14
 Will use up to   14 processors via shared memory.
 %mem=128GB
 %chk=RR_Me_Ferrolane_1_SPE.chk
 ----------------------------------------------------------------------
 # PBE1PBE gen pseudo=read int=(grid=ultrafine) empiricaldispersion=GD3
 BJ nmr=giao
 ----------------------------------------------------------------------
 1/38=1/1;
 2/12=2,17=6,18=5,40=1/2;
 3/5=7,11=2,16=1,17=8,25=1,30=1,74=-13,75=-5,124=41/1,2,8,3;
 4//1;
 5/5=2,38=5/2;
 8/6=1,10=90,11=11/1;
 10/13=100,45=16/2;
 6/7=2,8=2,9=2,10=2,28=1/1;
 99/9=1/99;
 -----------------------
 RR_Me_Ferrolane_1 title
 -----------------------
 Symbolic Z-matrix:
 Charge =  0 Multiplicity = 1
 Fe                   -0.03681   2.61826   0.04083 
 P                    -1.79153  -0.27215   0.05741 
 P                     1.78069  -0.23287   0.00691 
 C                    -1.55245   1.43974  -0.52305 
 C                    -0.7336    1.78552  -1.66565 
 C                    -0.72275   3.21263  -1.8038 
 C                    -1.54331   3.76645  -0.76588 
 C                    -2.06473   2.68321   0.01898 
 C                     1.50422   1.46983   0.59764 
 C                     1.98917   2.72744   0.06312 
 C                     1.44427   3.79427   0.8545 
 C                     0.63612   3.21639   1.88903 
 C                     0.67816   1.79072   1.7423 
 C                    -3.31581  -0.78344  -0.91759 
 C                    -4.46344  -0.22359  -0.05603 
 C                    -2.67848  -0.1164    1.71435 
 C                    -4.13358  -0.55526   1.40757 
 C                     3.31692  -0.71571   0.97755 
 C                     4.45078  -0.12441   0.1188 
 C                     2.66233  -0.048    -1.64986 
 C                     4.12755  -0.45458  -1.34663 
 H                    -0.17768   1.07383  -2.27619 
 H                    -0.14839   3.77769  -2.53863 
 H                    -1.70169   4.82754  -0.56933 
 H                    -2.69479   2.79009   0.90178 
 H                     2.61667   2.85334  -0.81899 
 H                     0.138     1.06335   2.34848 
 Cl                   -1.64872  -3.41896   0.23676 
 Cl                    1.70738  -3.38066  -0.18858 
 Pd                    0.01057  -1.701     0.02863 
 H                    -3.31128  -1.88502  -0.84599 
 C                    -3.32191  -0.35835  -2.38435 
 H                    -2.65801   0.95849   1.96958 
 C                    -2.03178  -0.92138   2.84651 
 H                    -5.42803  -0.66373  -0.36791 
 H                    -4.54431   0.87218  -0.19996 
 H                    -4.83706  -0.08083   2.1147 
 H                    -4.20141  -1.64861   1.55343 
 H                     1.57938   4.85973   0.66434 
 H                     0.04964   3.76434   2.62725 
 H                    -2.46365  -0.78675  -2.92992 
 H                    -3.29212   0.73911  -2.49612 
 H                    -4.24197  -0.72506  -2.87274 
 H                    -1.0107   -0.57193   3.07617 
 H                    -1.96357  -1.98667   2.57148 
 H                    -2.63814  -0.82657   3.76536 
 H                     3.3373   -1.81665   0.89892 
 C                     3.31449  -0.29997   2.447 
 H                     2.61652   1.02737  -1.89966 
 C                     2.03339  -0.86218  -2.78547 
 H                     5.42543  -0.54422   0.42736 
 H                     4.50662   0.97202   0.26944 
 H                     4.81927   0.04042  -2.05124 
 H                     4.22079  -1.54514  -1.49927 
 H                     3.25983   0.79579   2.56579 
 H                     4.24303  -0.64875   2.93247 
 H                     2.46659  -0.75128   2.9903 
 H                     1.99039  -1.93016  -2.51577 
 H                     2.6363   -0.74858  -3.70446 
 H                     1.00411  -0.53564  -3.01225 
 
 Stoichiometry    C22H32Cl2FeP2Pd
 Framework group  C1[X(C22H32Cl2FeP2Pd)]
 Deg. of freedom   174
 Full point group                 C1      NOp   1
 Largest Abelian subgroup         C1      NOp   1
 Largest concise Abelian subgroup C1      NOp   1
                         Standard orientation:                         
 ---------------------------------------------------------------------
 Center     Atomic      Atomic             Coordinates (Angstroms)
 Number     Number       Type             X           Y           Z
 ---------------------------------------------------------------------
      1         26           0       -0.001515    2.612033   -0.000398
      2         15           0        1.786504   -0.257889    0.016322
      3         15           0       -1.786142   -0.259941   -0.016006
      4          6           0        1.514207    1.449473    0.595473
      5          6           0        0.665133    1.782544    1.719644
      6          6           0        0.634543    3.209034    1.861173
      7          6           0        1.472463    3.775227    0.844010
      8          6           0        2.024459    2.700298    0.068678
      9          6           0       -1.515815    1.447502   -0.595777
     10          6           0       -2.027562    2.697908   -0.069432
     11          6           0       -1.476876    3.773197   -0.845200
     12          6           0       -0.638318    3.207614   -1.862184
     13          6           0       -0.667214    1.781142   -1.720128
     14          6           0        3.293604   -0.754334    1.025127
     15          6           0        4.454329   -0.178852    0.191876
     16          6           0        2.709762   -0.087221   -1.619174
     17          6           0        4.162349   -0.510141   -1.279840
     18          6           0       -3.293760   -0.757711   -1.023281
     19          6           0       -4.453995   -0.181962   -0.189559
     20          6           0       -2.708031   -0.089961    1.620325
     21          6           0       -4.161017   -0.512544    1.282124
     22          1           0        0.103502    1.062766    2.315286
     23          1           0        0.036797    3.765349    2.583930
     24          1           0        1.623050    4.838621    0.653910
     25          1           0        2.673529    2.816945   -0.798982
     26          1           0       -2.676761    2.814063    0.798200
     27          1           0       -0.104749    1.061766   -2.315475
     28         17           0        1.684383   -3.405616   -0.174382
     29         17           0       -1.680897   -3.407222    0.173047
     30         46           0        0.000907   -1.707495   -0.000406
     31          1           0        3.303507   -1.855693    0.950610
     32          6           0        3.260771   -0.333367    2.492721
     33          1           0        2.682753    0.988078   -1.872047
     34          6           0        2.098856   -0.896385   -2.768109
     35          1           0        5.416460   -0.608724    0.524925
     36          1           0        4.519131    0.917371    0.340461
     37          1           0        4.876485   -0.025629   -1.969225
     38          1           0        4.246210   -1.602222   -1.426887
     39          1           0       -1.628699    4.836486   -0.655490
     40          1           0       -0.041271    3.764377   -2.585174
     41          1           0        2.395115   -0.773184    3.017120
     42          1           0        3.215682    0.763348    2.606582
     43          1           0        4.173455   -0.690828    3.001390
     44          1           0        1.079387   -0.558087   -3.020503
     45          1           0        2.036642   -1.963172   -2.497472
     46          1           0        2.725209   -0.791985   -3.672393
     47          1           0       -3.303192   -1.859034   -0.947976
     48          6           0       -3.262089   -0.337801   -2.491199
     49          1           0       -2.680497    0.985161    1.873880
     50          6           0       -2.096184   -0.900052    2.768134
     51          1           0       -5.416305   -0.612106   -0.521742
     52          1           0       -4.519035    0.914172   -0.338641
     53          1           0       -4.874580   -0.027551    1.971759
     54          1           0       -4.245122   -1.604532    1.429750
     55          1           0       -3.217399    0.758848   -2.605873
     56          1           0       -4.175017   -0.695886   -2.998987
     57          1           0       -2.396650   -0.777754   -3.015835
     58          1           0       -2.034565   -1.966693    2.496763
     59          1           0       -2.721516   -0.796016    3.673167
     60          1           0       -1.076297   -0.562310    3.019581
 ---------------------------------------------------------------------
 Rotational constants (GHZ):      0.1503727      0.1467099      0.0970726
 General basis read from cards:  (5D, 7F)
 ======================================================================================================
                                       Pseudopotential Parameters
 ======================================================================================================
  Center     Atomic      Valence      Angular      Power
  Number     Number     Electrons     Momentum     of R      Exponent        Coefficient   SO-Coeffient
 ======================================================================================================
    1         26           16
                                      F and up 
                                                     2        1.0000000        0.00000000    0.00000000
                                      S - F
                                                     2       20.9300000      253.74958800    0.00000000
                                                     2        9.4450000       37.92284500    0.00000000
                                      P - F
                                                     2       21.7600000      161.03681200    0.00000000
                                                     2        9.1780000       27.65129800    0.00000000
                                      D - F
                                                     2       25.9000000      -24.43127600    0.00000000
                                                     2        8.8350000       -1.43425100    0.00000000
    2         15
                                   No pseudopotential on this center.
    3         15
                                   No pseudopotential on this center.
    4          6
                                   No pseudopotential on this center.
    5          6
                                   No pseudopotential on this center.
    6          6
                                   No pseudopotential on this center.
    7          6
                                   No pseudopotential on this center.
    8          6
                                   No pseudopotential on this center.
    9          6
                                   No pseudopotential on this center.
   10          6
                                   No pseudopotential on this center.
   11          6
                                   No pseudopotential on this center.
   12          6
                                   No pseudopotential on this center.
   13          6
                                   No pseudopotential on this center.
   14          6
                                   No pseudopotential on this center.
   15          6
                                   No pseudopotential on this center.
   16          6
                                   No pseudopotential on this center.
   17          6
                                   No pseudopotential on this center.
   18          6
                                   No pseudopotential on this center.
   19          6
                                   No pseudopotential on this center.
   20          6
                                   No pseudopotential on this center.
   21          6
                                   No pseudopotential on this center.
   22          1
                                   No pseudopotential on this center.
   23          1
                                   No pseudopotential on this center.
   24          1
                                   No pseudopotential on this center.
   25          1
                                   No pseudopotential on this center.
   26          1
                                   No pseudopotential on this center.
   27          1
                                   No pseudopotential on this center.
   28         17
                                   No pseudopotential on this center.
   29         17
                                   No pseudopotential on this center.
   30         46           18
                                      G and up 
                                                     2        1.0000000        0.00000000    0.00000000
                                      S - G
                                                     2       12.4300000      240.22904000    0.00000000
                                                     2        6.1707590       35.17194300    0.00000000
                                      P - G
                                                     2       11.0800000      170.41727600    0.00000000
                                                     2        5.8295540       28.47213300    0.00000000
                                      D - G
                                                     2        9.5100000       69.01384500    0.00000000
                                                     2        4.1397810       11.75086200    0.00000000
                                      F - G
                                                     2       13.2700000      -31.92955400    0.00000000
                                                     2        6.6300000       -5.39821700    0.00000000
   31          1
                                   No pseudopotential on this center.
   32          6
                                   No pseudopotential on this center.
   33          1
                                   No pseudopotential on this center.
   34          6
                                   No pseudopotential on this center.
   35          1
                                   No pseudopotential on this center.
   36          1
                                   No pseudopotential on this center.
   37          1
                                   No pseudopotential on this center.
   38          1
                                   No pseudopotential on this center.
   39          1
                                   No pseudopotential on this center.
   40          1
                                   No pseudopotential on this center.
   41          1
                                   No pseudopotential on this center.
   42          1
                                   No pseudopotential on this center.
   43          1
                                   No pseudopotential on this center.
   44          1
                                   No pseudopotential on this center.
   45          1
                                   No pseudopotential on this center.
   46          1
                                   No pseudopotential on this center.
   47          1
                                   No pseudopotential on this center.
   48          6
                                   No pseudopotential on this center.
   49          1
                                   No pseudopotential on this center.
   50          6
                                   No pseudopotential on this center.
   51          1
                                   No pseudopotential on this center.
   52          1
                                   No pseudopotential on this center.
   53          1
                                   No pseudopotential on this center.
   54          1
                                   No pseudopotential on this center.
   55          1
                                   No pseudopotential on this center.
   56          1
                                   No pseudopotential on this center.
   57          1
                                   No pseudopotential on this center.
   58          1
                                   No pseudopotential on this center.
   59          1
                                   No pseudopotential on this center.
   60          1
                                   No pseudopotential on this center.
 ======================================================================================================
 There are  1240 symmetry adapted cartesian basis functions of A   symmetry.
 There are  1101 symmetry adapted basis functions of A   symmetry.
  1101 basis functions,  1794 primitive gaussians,  1240 cartesian basis functions
   131 alpha electrons      131 beta electrons
       nuclear repulsion energy      4489.7312728717 Hartrees.
 NAtoms=   60 NActive=   60 NUniq=   60 SFac= 1.00D+00 NAtFMM=   60 NAOKFM=T Big=T
 Integral buffers will be    131072 words long.
 Raffenetti 2 integral format.
 Two-electron integral symmetry is turned on.
 Nuclear repulsion after empirical dispersion term =     4489.6280748051 Hartrees.
 One-electron integrals computed using PRISM.
   1 Symmetry operations used in ECPInt.
 ECPInt:  NShTT=  101926 NPrTT=  307682 LenC2=   89731 LenP2D=  189486.
 LDataN:  DoStor=T MaxTD1= 7 Len=  274
 NBasis=  1101 RedAO= T EigKep=  1.42D-05  NBF=  1101
 NBsUse=  1101 1.00D-06 EigRej= -1.00D+00 NBFU=  1101
 Defaulting to unpruned grid for atomic number  46.
 ExpMin= 1.00D-02 ExpMax= 6.95D+04 ExpMxC= 2.37D+03 IAcc=3 IRadAn=         5 AccDes= 0.00D+00
 Harris functional with IExCor= 1009 and IRadAn=       5 diagonalized for initial guess.
 HarFok:  IExCor= 1009 AccDes= 0.00D+00 IRadAn=         5 IDoV= 1 UseB2=F ITyADJ=14
 ICtDFT=  3500011 ScaDFX=  1.000000  1.000000  1.000000  1.000000
 Defaulting to unpruned grid for atomic number  46.
 Defaulting to unpruned grid for atomic number  46.
 Defaulting to unpruned grid for atomic number  46.
 Defaulting to unpruned grid for atomic number  46.
 Defaulting to unpruned grid for atomic number  46.
 Defaulting to unpruned grid for atomic number  46.
 Defaulting to unpruned grid for atomic number  46.
 Defaulting to unpruned grid for atomic number  46.
 Defaulting to unpruned grid for atomic number  46.
 Defaulting to unpruned grid for atomic number  46.
 Defaulting to unpruned grid for atomic number  46.
 Defaulting to unpruned grid for atomic number  46.
 Defaulting to unpruned grid for atomic number  46.
 Defaulting to unpruned grid for atomic number  46.
 FoFCou: FMM=F IPFlag=           0 FMFlag=      100000 FMFlg1=        2001
         NFxFlg=           0 DoJE=T BraDBF=F KetDBF=T FulRan=T
         wScrn=  0.000000 ICntrl=     500 IOpCl=  0 I1Cent=   200000004 NGrid=           0
         NMat0=    1 NMatS0=      1 NMatT0=    0 NMatD0=    1 NMtDS0=    0 NMtDT0=    0
 Petite list used in FoFCou.
 Requested convergence on RMS density matrix=1.00D-08 within 128 cycles.
 Requested convergence on MAX density matrix=1.00D-06.
 Requested convergence on             energy=1.00D-06.
 No special actions if energy rises.
 Defaulting to unpruned grid for atomic number  46.
 Defaulting to unpruned grid for atomic number  46.
 Defaulting to unpruned grid for atomic number  46.
 Defaulting to unpruned grid for atomic number  46.
 Defaulting to unpruned grid for atomic number  46.
 Defaulting to unpruned grid for atomic number  46.
 Defaulting to unpruned grid for atomic number  46.
 Defaulting to unpruned grid for atomic number  46.
 Defaulting to unpruned grid for atomic number  46.
 Defaulting to unpruned grid for atomic number  46.
 Defaulting to unpruned grid for atomic number  46.
 Defaulting to unpruned grid for atomic number  46.
 Defaulting to unpruned grid for atomic number  46.
 Defaulting to unpruned grid for atomic number  46.
 EnCoef did     2 forward-backward iterations
 EnCoef did   100 forward-backward iterations
 EnCoef did   100 forward-backward iterations
 EnCoef did   100 forward-backward iterations
 EnCoef did     4 forward-backward iterations
 EnCoef did     2 forward-backward iterations
 Restarting incremental Fock formation.
 SCF Done:  E(RPBE1PBE) =  -2711.51384130     A.U. after   26 cycles
            NFock= 26  Conv=0.12D-08     -V/T= 2.0547
 DoSCS=F DFT=T ScalE2(SS,OS)=  1.000000  1.000000
 Range of M.O.s used for correlation:     1  1101
 NBasis=  1101 NAE=   131 NBE=   131 NFC=     0 NFV=     0
 NROrb=   1101 NOA=   131 NOB=   131 NVA=   970 NVB=   970

 **** Warning!!: The largest alpha MO coefficient is  0.35133872D+02

          Differentiating once with respect to magnetic field using GIAOs.
          Electric field/nuclear overlap derivatives assumed to be zero.
 Defaulting to unpruned grid for atomic number  46.
 FoFCou: FMM=F IPFlag=           0 FMFlag=      100000 FMFlg1=        2001
         NFxFlg=           0 DoJE=F BraDBF=F KetDBF=T FulRan=T
         wScrn=  0.000000 ICntrl=    6100 IOpCl=  0 I1Cent=           7 NGrid=          60
         NMat0=    1 NMatS0=      1 NMatT0=    0 NMatD0=    1 NMtDS0=    0 NMtDT0=    0
 Symmetry not used in FoFCou.
   1 Symmetry operations used in ECPInt.
 ECPInt:  NShTT=  101926 NPrTT=  307682 LenC2=  101927 LenP2D=  307682.
 LDataN:  DoStor=T MaxTD1= 8 Len=  415
 FoFJK:  IHMeth= 1 ICntrl=    6127 DoSepK=F KAlg= 0 I1Cent=   0 FoldK=F
 IRaf=         1 NMat=   1 IRICut=       1 DoRegI=T DoRafI=F ISym2E= 0.
 Defaulting to unpruned grid for atomic number  46.
 Defaulting to unpruned grid for atomic number  46.
 Defaulting to unpruned grid for atomic number  46.
 Defaulting to unpruned grid for atomic number  46.
 Defaulting to unpruned grid for atomic number  46.
 Defaulting to unpruned grid for atomic number  46.
 Defaulting to unpruned grid for atomic number  46.
 Defaulting to unpruned grid for atomic number  46.
 Defaulting to unpruned grid for atomic number  46.
 Defaulting to unpruned grid for atomic number  46.
 Defaulting to unpruned grid for atomic number  46.
 Defaulting to unpruned grid for atomic number  46.
 Defaulting to unpruned grid for atomic number  46.
 Defaulting to unpruned grid for atomic number  46.
          There are     3 degrees of freedom in the 1st order CPHF.  IDoFFX=0 NUNeed=     3.
      3 vectors produced by pass  0 Test12= 4.24D-12 3.33D-08 XBig12= 1.02D+02 1.94D+00.
 AX will form     3 AO Fock derivatives at one time.
      3 vectors produced by pass  1 Test12= 4.24D-12 3.33D-08 XBig12= 9.37D-01 5.68D-01.
      3 vectors produced by pass  2 Test12= 4.24D-12 3.33D-08 XBig12= 3.34D-02 4.78D-02.
      3 vectors produced by pass  3 Test12= 4.24D-12 3.33D-08 XBig12= 3.80D-04 7.07D-03.
      3 vectors produced by pass  4 Test12= 4.24D-12 3.33D-08 XBig12= 1.45D-05 1.42D-03.
      3 vectors produced by pass  5 Test12= 4.24D-12 3.33D-08 XBig12= 2.75D-07 1.96D-04.
      3 vectors produced by pass  6 Test12= 4.24D-12 3.33D-08 XBig12= 8.18D-09 4.73D-05.
      3 vectors produced by pass  7 Test12= 4.24D-12 3.33D-08 XBig12= 7.52D-11 3.82D-06.
      3 vectors produced by pass  8 Test12= 4.24D-12 3.33D-08 XBig12= 5.50D-13 2.23D-07.
 InvSVY:  IOpt=1 It=  1 EMax= 5.33D-15
 Solved reduced A of dimension    27 with     3 vectors.
 Calculating GIAO nuclear magnetic shielding tensors.
 SCF GIAO Magnetic shielding tensor (ppm):
      1  Fe   Isotropic = -5811.7335   Anisotropy =  7793.1159
   XX= -3552.2568   YX=     3.2967   ZX=  3847.4324
   XY=     3.3984   YY= -8465.0423   ZY=     2.8912
   XZ=  3661.7881   YZ=     2.7099   ZZ= -5417.9014
   Eigenvalues: -8465.0450 -8353.8327  -616.3229
      2  P    Isotropic =   211.4817   Anisotropy =   127.9293
   XX=   280.1728   YX=    53.5992   ZX=     8.6023
   XY=    34.5412   YY=   179.7035   ZY=   -25.9208
   XZ=     2.7336   YZ=    -0.3566   ZZ=   174.5687
   Eigenvalues:   153.4412   184.2360   296.7678
      3  P    Isotropic =   211.4198   Anisotropy =   127.9710
   XX=   280.1811   YX=   -53.6056   ZX=     8.5364
   XY=   -34.4484   YY=   179.6099   ZY=    26.0618
   XZ=     2.6128   YZ=     0.4424   ZZ=   174.4684
   Eigenvalues:   153.3062   184.2194   296.7339
      4  C    Isotropic =   106.5973   Anisotropy =    83.1996
   XX=   127.6435   YX=    27.0386   ZX=    32.5266
   XY=    18.9595   YY=    70.7518   ZY=     0.9779
   XZ=    33.2264   YZ=     8.1391   ZZ=   121.3965
   Eigenvalues:    61.6409    96.0872   162.0637
      5  C    Isotropic =   104.7808   Anisotropy =    86.5608
   XX=   137.6321   YX=    -9.6485   ZX=    39.8549
   XY=   -11.7692   YY=    88.2271   ZY=    29.3391
   XZ=    43.6550   YZ=    39.4383   ZZ=    88.4832
   Eigenvalues:    39.1499   112.7045   162.4880
      6  C    Isotropic =   106.4838   Anisotropy =    90.7668
   XX=   140.8512   YX=    -0.8562   ZX=    39.3119
   XY=     6.6476   YY=    95.3493   ZY=   -22.7707
   XZ=    50.6999   YZ=   -29.4859   ZZ=    83.2508
   Eigenvalues:    46.3479   106.1084   166.9950
      7  C    Isotropic =   110.3109   Anisotropy =    87.9215
   XX=   136.5429   YX=   -32.3143   ZX=    30.4372
   XY=   -20.7752   YY=    60.5365   ZY=     0.4188
   XZ=    25.5961   YZ=   -15.7534   ZZ=   133.8532
   Eigenvalues:    52.1673   109.8402   168.9253
      8  C    Isotropic =   107.1780   Anisotropy =    79.4607
   XX=   100.7135   YX=    -9.4925   ZX=    61.1954
   XY=   -13.4258   YY=   112.4454   ZY=     7.0999
   XZ=    48.9609   YZ=     2.5414   ZZ=   108.3750
   Eigenvalues:    47.2401   114.1421   160.1518
      9  C    Isotropic =   106.5848   Anisotropy =    83.2240
   XX=   127.6818   YX=   -26.9450   ZX=    32.5625
   XY=   -18.8806   YY=    70.6875   ZY=    -0.9228
   XZ=    33.2643   YZ=    -8.0749   ZZ=   121.3849
   Eigenvalues:    61.6343    96.0525   162.0674
     10  C    Isotropic =   107.1743   Anisotropy =    79.4500
   XX=   100.6936   YX=     9.4952   ZX=    61.1981
   XY=    13.4313   YY=   112.4745   ZY=    -7.0297
   XZ=    48.9591   YZ=    -2.4930   ZZ=   108.3547
   Eigenvalues:    47.2339   114.1480   160.1410
     11  C    Isotropic =   110.3083   Anisotropy =    87.9199
   XX=   136.4796   YX=    32.4271   ZX=    30.4269
   XY=    20.8735   YY=    60.6049   ZY=    -0.3573
   XZ=    25.5639   YZ=    15.8114   ZZ=   133.8406
   Eigenvalues:    52.1639   109.8395   168.9216
     12  C    Isotropic =   106.4839   Anisotropy =    90.7761
   XX=   140.8629   YX=     0.9272   ZX=    39.2850
   XY=    -6.5711   YY=    95.3634   ZY=    22.8085
   XZ=    50.6753   YZ=    29.5430   ZZ=    83.2253
   Eigenvalues:    46.3445   106.1059   167.0013
     13  C    Isotropic =   104.7676   Anisotropy =    86.5632
   XX=   137.5920   YX=     9.7129   ZX=    39.8874
   XY=    11.8379   YY=    88.2157   ZY=   -29.2885
   XZ=    43.6983   YZ=   -39.3916   ZZ=    88.4951
   Eigenvalues:    39.1387   112.6877   162.4764
     14  C    Isotropic =   138.6248   Anisotropy =    31.5152
   XX=   157.9125   YX=    -4.8305   ZX=     0.9136
   XY=     1.0482   YY=   118.8685   ZY=    -9.3120
   XZ=    10.0490   YZ=    -0.5493   ZZ=   139.0934
   Eigenvalues:   117.7209   138.5186   159.6350
     15  C    Isotropic =   147.7143   Anisotropy =    29.8273
   XX=   157.5048   YX=     2.6700   ZX=    -9.7186
   XY=    12.5731   YY=   121.5493   ZY=     1.2224
   XZ=    -1.2488   YZ=    -2.1957   ZZ=   164.0889
   Eigenvalues:   119.9917   155.5521   167.5992
     16  C    Isotropic =   143.9551   Anisotropy =    29.1851
   XX=   160.1404   YX=     2.1133   ZX=    -1.8283
   XY=    -2.8366   YY=   118.9171   ZY=    -2.6442
   XZ=    -9.8784   YZ=    -3.4778   ZZ=   152.8077
   Eigenvalues:   118.6236   149.8298   163.4118
     17  C    Isotropic =   147.0516   Anisotropy =    26.8219
   XX=   161.8026   YX=    -4.0912   ZX=    10.3133
   XY=    -8.5295   YY=   124.7346   ZY=     9.2602
   XZ=     0.6013   YZ=     3.3603   ZZ=   154.6174
   Eigenvalues:   122.1091   154.1127   164.9328
     18  C    Isotropic =   138.6382   Anisotropy =    31.4766
   XX=   157.9147   YX=     4.8356   ZX=     0.8712
   XY=    -1.0359   YY=   118.9013   ZY=     9.3450
   XZ=    10.0261   YZ=     0.5584   ZZ=   139.0987
   Eigenvalues:   117.7427   138.5494   159.6226
     19  C    Isotropic =   147.7182   Anisotropy =    29.8332
   XX=   157.5206   YX=    -2.6629   ZX=    -9.7103
   XY=   -12.5613   YY=   121.5382   ZY=    -1.1927
   XZ=    -1.2471   YZ=     2.2151   ZZ=   164.0958
   Eigenvalues:   119.9862   155.5615   167.6070
     20  C    Isotropic =   143.9610   Anisotropy =    29.2090
   XX=   160.1400   YX=    -2.0950   ZX=    -1.8604
   XY=     2.8475   YY=   118.9125   ZY=     2.6278
   XZ=    -9.8875   YZ=     3.4744   ZZ=   152.8305
   Eigenvalues:   118.6204   149.8290   163.4337
     21  C    Isotropic =   147.0566   Anisotropy =    26.8356
   XX=   161.8146   YX=     4.1073   ZX=    10.3232
   XY=     8.5254   YY=   124.7563   ZY=    -9.2681
   XZ=     0.6105   YZ=    -3.3646   ZZ=   154.5990
   Eigenvalues:   122.1232   154.0997   164.9470
     22  H    Isotropic =    27.1913   Anisotropy =     4.3420
   XX=    27.1475   YX=     1.7986   ZX=    -2.0002
   XY=     2.7053   YY=    28.1009   ZY=     1.2423
   XZ=    -2.2581   YZ=     0.5049   ZZ=    26.3254
   Eigenvalues:    23.5364    27.9514    30.0859
     23  H    Isotropic =    27.1904   Anisotropy =     8.2126
   XX=    25.0059   YX=    -0.7895   ZX=    -2.0905
   XY=    -1.0105   YY=    28.7107   ZY=     3.7801
   XZ=    -2.5277   YZ=     3.6366   ZZ=    27.8544
   Eigenvalues:    23.3695    25.5362    32.6654
     24  H    Isotropic =    27.3341   Anisotropy =     9.3826
   XX=    24.6745   YX=     2.1030   ZX=    -0.6426
   XY=     1.7560   YY=    33.1632   ZY=     0.0638
   XZ=    -0.8052   YZ=    -0.3071   ZZ=    24.1645
   Eigenvalues:    23.5233    24.8898    33.5891
     25  H    Isotropic =    27.5683   Anisotropy =     5.1827
   XX=    26.8508   YX=     0.9066   ZX=    -4.1057
   XY=     0.9472   YY=    30.1895   ZY=    -0.3303
   XZ=    -3.2244   YZ=    -0.3600   ZZ=    25.6647
   Eigenvalues:    22.5299    29.1516    31.0235
     26  H    Isotropic =    27.5689   Anisotropy =     5.1820
   XX=    26.8540   YX=    -0.9113   ZX=    -4.1032
   XY=    -0.9517   YY=    30.1884   ZY=     0.3249
   XZ=    -3.2221   YZ=     0.3566   ZZ=    25.6645
   Eigenvalues:    22.5329    29.1503    31.0236
     27  H    Isotropic =    27.1906   Anisotropy =     4.3444
   XX=    27.1500   YX=    -1.8015   ZX=    -2.0027
   XY=    -2.7086   YY=    28.0951   ZY=    -1.2471
   XZ=    -2.2607   YZ=    -0.5088   ZZ=    26.3267
   Eigenvalues:    23.5307    27.9542    30.0869
     28  Cl   Isotropic =   889.9732   Anisotropy =   404.2313
   XX=   725.9833   YX=  -123.2420   ZX=    46.2860
   XY=  -155.1623   YY=   801.9979   ZY=    43.4077
   XZ=   100.4568   YZ=    83.6185   ZZ=  1141.9384
   Eigenvalues:   602.3037   908.1552  1159.4607
     29  Cl   Isotropic =   889.7587   Anisotropy =   403.7195
   XX=   725.7171   YX=   122.9834   ZX=    46.2574
   XY=   155.1676   YY=   802.2077   ZY=   -43.5319
   XZ=   100.5833   YZ=   -83.4740   ZZ=  1141.3513
   Eigenvalues:   602.3059   908.0652  1158.9050
     30  Pd   Isotropic =  -147.7337   Anisotropy =   247.5311
   XX=    12.0256   YX=     0.0224   ZX=    -9.5889
   XY=    -0.0046   YY=    17.2870   ZY=     0.0730
   XZ=   -13.6219   YZ=     0.0993   ZZ=  -472.5137
   Eigenvalues:  -472.7915    12.3034    17.2870
     31  H    Isotropic =    26.8651   Anisotropy =     9.0886
   XX=    25.9765   YX=     1.3771   ZX=     3.2868
   XY=     2.6294   YY=    31.7437   ZY=     1.0059
   XZ=     3.1694   YZ=     1.6730   ZZ=    22.8751
   Eigenvalues:    20.8441    26.8270    32.9241
     32  C    Isotropic =   170.2722   Anisotropy =    19.1815
   XX=   161.8107   YX=     0.0267   ZX=     1.0509
   XY=    -2.8594   YY=   165.9482   ZY=    -1.2061
   XZ=    -0.9564   YZ=     0.8353   ZZ=   183.0576
   Eigenvalues:   161.3723   166.3844   183.0598
     33  H    Isotropic =    28.8604   Anisotropy =     6.0012
   XX=    26.6246   YX=    -0.8300   ZX=    -3.1272
   XY=    -0.4652   YY=    32.4915   ZY=    -1.5327
   XZ=    -1.9949   YZ=    -1.2917   ZZ=    27.4650
   Eigenvalues:    24.2079    29.5120    32.8611
     34  C    Isotropic =   163.8616   Anisotropy =    20.2898
   XX=   163.8544   YX=     1.0578   ZX=     2.3908
   XY=     2.5106   YY=   155.9365   ZY=     8.2797
   XZ=     7.9655   YZ=     7.8656   ZZ=   171.7938
   Eigenvalues:   152.5373   161.6594   177.3881
     35  H    Isotropic =    29.5677   Anisotropy =    12.7321
   XX=    37.1684   YX=    -2.7837   ZX=     2.0780
   XY=    -1.3476   YY=    24.4656   ZY=    -0.2047
   XZ=     2.7378   YZ=    -1.0918   ZZ=    27.0692
   Eigenvalues:    24.1104    26.5370    38.0558
     36  H    Isotropic =    30.2192   Anisotropy =     6.8320
   XX=    32.7782   YX=     1.8139   ZX=    -0.4160
   XY=     2.9383   YY=    31.6599   ZY=     1.4473
   XZ=     1.2504   YZ=     0.6653   ZZ=    26.2193
   Eigenvalues:    26.0213    29.8623    34.7738
     37  H    Isotropic =    29.3558   Anisotropy =    12.0577
   XX=    33.5900   YX=     1.5463   ZX=    -5.3202
   XY=     1.5692   YY=    24.7887   ZY=    -1.0473
   XZ=    -4.7155   YZ=    -2.0567   ZZ=    29.6885
   Eigenvalues:    24.3363    26.3367    37.3942
     38  H    Isotropic =    29.4755   Anisotropy =     7.6761
   XX=    30.5104   YX=    -3.2139   ZX=    -1.7231
   XY=    -2.6001   YY=    30.7945   ZY=     2.6583
   XZ=    -1.0725   YZ=     2.3042   ZZ=    27.1216
   Eigenvalues:    25.8699    27.9637    34.5929
     39  H    Isotropic =    27.3343   Anisotropy =     9.3828
   XX=    24.6792   YX=    -2.1127   ZX=    -0.6411
   XY=    -1.7662   YY=    33.1593   ZY=    -0.0684
   XZ=    -0.8056   YZ=     0.3031   ZZ=    24.1643
   Eigenvalues:    23.5233    24.8900    33.5895
     40  H    Isotropic =    27.1902   Anisotropy =     8.2129
   XX=    25.0032   YX=     0.7845   ZX=    -2.0865
   XY=     1.0054   YY=    28.7098   ZY=    -3.7829
   XZ=    -2.5238   YZ=    -3.6398   ZZ=    27.8576
   Eigenvalues:    23.3693    25.5359    32.6655
     41  H    Isotropic =    30.1401   Anisotropy =     7.8354
   XX=    30.4585   YX=     0.5065   ZX=    -0.7281
   XY=     1.5853   YY=    25.8637   ZY=    -1.7023
   XZ=    -2.0119   YZ=    -3.4378   ZZ=    34.0980
   Eigenvalues:    25.0507    30.0058    35.3637
     42  H    Isotropic =    31.3767   Anisotropy =     5.8319
   XX=    30.1157   YX=    -3.7281   ZX=     4.5726
   XY=    -1.4243   YY=    32.6821   ZY=     2.2896
   XZ=     4.0917   YZ=     0.8262   ZZ=    31.3323
   Eigenvalues:    25.1734    33.6921    35.2646
     43  H    Isotropic =    30.4076   Anisotropy =    13.7222
   XX=    32.2721   YX=    -3.2685   ZX=     5.8251
   XY=    -2.2635   YY=    25.8366   ZY=    -1.3257
   XZ=     6.3497   YZ=    -2.3342   ZZ=    33.1141
   Eigenvalues:    24.7671    26.9000    39.5557
     44  H    Isotropic =    29.8069   Anisotropy =     5.8589
   XX=    32.5365   YX=    -1.9368   ZX=     0.9942
   XY=    -1.4865   YY=    25.3753   ZY=     0.3807
   XZ=     1.8463   YZ=     0.3695   ZZ=    31.5088
   Eigenvalues:    24.9148    30.7930    33.7128
     45  H    Isotropic =    28.4805   Anisotropy =     6.5133
   XX=    24.0189   YX=     1.4113   ZX=    -3.0965
   XY=     1.4811   YY=    31.5487   ZY=    -1.1680
   XZ=    -2.4540   YZ=    -0.8524   ZZ=    29.8738
   Eigenvalues:    22.8017    29.8170    32.8227
     46  H    Isotropic =    30.0288   Anisotropy =    12.5815
   XX=    28.0921   YX=     0.5752   ZX=    -3.7954
   XY=     0.0934   YY=    25.1529   ZY=     1.1846
   XZ=    -4.1285   YZ=     0.7735   ZZ=    36.8415
   Eigenvalues:    24.8493    26.8207    38.4165
     47  H    Isotropic =    26.8612   Anisotropy =     9.1003
   XX=    25.9845   YX=    -1.3857   ZX=     3.2852
   XY=    -2.6384   YY=    31.7421   ZY=    -1.0040
   XZ=     3.1689   YZ=    -1.6725   ZZ=    22.8570
   Eigenvalues:    20.8344    26.8211    32.9281
     48  C    Isotropic =   170.2834   Anisotropy =    19.1932
   XX=   161.8152   YX=    -0.0262   ZX=     1.0637
   XY=     2.8579   YY=   165.9587   ZY=     1.2143
   XZ=    -0.9374   YZ=    -0.8208   ZZ=   183.0763
   Eigenvalues:   161.3776   166.3937   183.0789
     49  H    Isotropic =    28.8601   Anisotropy =     5.9958
   XX=    26.6243   YX=     0.8307   ZX=    -3.1205
   XY=     0.4652   YY=    32.4868   ZY=     1.5334
   XZ=    -1.9912   YZ=     1.2922   ZZ=    27.4692
   Eigenvalues:    24.2142    29.5087    32.8573
     50  C    Isotropic =   163.8445   Anisotropy =    20.2798
   XX=   163.8711   YX=    -1.0544   ZX=     2.3881
   XY=    -2.5110   YY=   155.9172   ZY=    -8.2919
   XZ=     7.9871   YZ=    -7.8742   ZZ=   171.7453
   Eigenvalues:   152.5055   161.6637   177.3644
     51  H    Isotropic =    29.5683   Anisotropy =    12.7336
   XX=    37.1719   YX=     2.7893   ZX=     2.0702
   XY=     1.3528   YY=    24.4678   ZY=     0.2051
   XZ=     2.7307   YZ=     1.0923   ZZ=    27.0652
   Eigenvalues:    24.1108    26.5367    38.0573
     52  H    Isotropic =    30.2180   Anisotropy =     6.8255
   XX=    32.7799   YX=    -1.8079   ZX=    -0.4201
   XY=    -2.9314   YY=    31.6604   ZY=    -1.4483
   XZ=     1.2498   YZ=    -0.6648   ZZ=    26.2137
   Eigenvalues:    26.0158    29.8699    34.7683
     53  H    Isotropic =    29.3547   Anisotropy =    12.0554
   XX=    33.5809   YX=    -1.5460   ZX=    -5.3216
   XY=    -1.5690   YY=    24.7908   ZY=     1.0503
   XZ=    -4.7176   YZ=     2.0599   ZZ=    29.6924
   Eigenvalues:    24.3370    26.3355    37.3916
     54  H    Isotropic =    29.4785   Anisotropy =     7.6863
   XX=    30.5122   YX=     3.2206   ZX=    -1.7232
   XY=     2.6051   YY=    30.7918   ZY=    -2.6662
   XZ=    -1.0730   YZ=    -2.3126   ZZ=    27.1316
   Eigenvalues:    25.8704    27.9625    34.6027
     55  H    Isotropic =    31.3772   Anisotropy =     5.8337
   XX=    30.1132   YX=     3.7302   ZX=     4.5729
   XY=     1.4264   YY=    32.6848   ZY=    -2.2875
   XZ=     4.0926   YZ=    -0.8248   ZZ=    31.3337
   Eigenvalues:    25.1720    33.6933    35.2664
     56  H    Isotropic =    30.4082   Anisotropy =    13.7242
   XX=    32.2781   YX=     3.2759   ZX=     5.8241
   XY=     2.2710   YY=    25.8423   ZY=     1.3316
   XZ=     6.3496   YZ=     2.3406   ZZ=    33.1043
   Eigenvalues:    24.7682    26.8987    39.5577
     57  H    Isotropic =    30.1397   Anisotropy =     7.8375
   XX=    30.4533   YX=    -0.5063   ZX=    -0.7250
   XY=    -1.5855   YY=    25.8679   ZY=     1.7084
   XZ=    -2.0088   YZ=     3.4433   ZZ=    34.0980
   Eigenvalues:    25.0514    30.0031    35.3648
     58  H    Isotropic =    28.4808   Anisotropy =     6.5097
   XX=    24.0179   YX=    -1.4089   ZX=    -3.0955
   XY=    -1.4783   YY=    31.5471   ZY=     1.1661
   XZ=    -2.4552   YZ=     0.8521   ZZ=    29.8773
   Eigenvalues:    22.8016    29.8201    32.8205
     59  H    Isotropic =    30.0287   Anisotropy =    12.5799
   XX=    28.0853   YX=    -0.5747   ZX=    -3.7880
   XY=    -0.0919   YY=    25.1545   ZY=    -1.1928
   XZ=    -4.1196   YZ=    -0.7811   ZZ=    36.8462
   Eigenvalues:    24.8490    26.8218    38.4153
     60  H    Isotropic =    29.8061   Anisotropy =     5.8578
   XX=    32.5425   YX=     1.9302   ZX=     0.9912
   XY=     1.4807   YY=    25.3726   ZY=    -0.3877
   XZ=     1.8455   YZ=    -0.3761   ZZ=    31.5032
   Eigenvalues:    24.9141    30.7929    33.7113
 End of Minotr F.D. properties file   721 does not exist.
 End of Minotr F.D. properties file   722 does not exist.
 End of Minotr F.D. properties file   788 does not exist.

 **********************************************************************

            Population analysis using the SCF density.

 **********************************************************************

 Orbital symmetries:
       Occupied  (A) (A) (A) (A) (A) (A) (A) (A) (A) (A) (A) (A)
                 (A) (A) (A) (A) (A) (A) (A) (A) (A) (A) (A) (A)
                 (A) (A) (A) (A) (A) (A) (A) (A) (A) (A) (A) (A)
                 (A) (A) (A) (A) (A) (A) (A) (A) (A) (A) (A) (A)
                 (A) (A) (A) (A) (A) (A) (A) (A) (A) (A) (A) (A)
                 (A) (A) (A) (A) (A) (A) (A) (A) (A) (A) (A) (A)
                 (A) (A) (A) (A) (A) (A) (A) (A) (A) (A) (A) (A)
                 (A) (A) (A) (A) (A) (A) (A) (A) (A) (A) (A) (A)
                 (A) (A) (A) (A) (A) (A) (A) (A) (A) (A) (A) (A)
                 (A) (A) (A) (A) (A) (A) (A) (A) (A) (A) (A) (A)
                 (A) (A) (A) (A) (A) (A) (A) (A) (A) (A) (A)
       Virtual   (A) (A) (A) (A) (A) (A) (A) (A) (A) (A) (A) (A)
                 (A) (A) (A) (A) (A) (A) (A) (A) (A) (A) (A) (A)
                 (A) (A) (A) (A) (A) (A) (A) (A) (A) (A) (A) (A)
                 (A) (A) (A) (A) (A) (A) (A) (A) (A) (A) (A) (A)
                 (A) (A) (A) (A) (A) (A) (A) (A) (A) (A) (A) (A)
                 (A) (A) (A) (A) (A) (A) (A) (A) (A) (A) (A) (A)
                 (A) (A) (A) (A) (A) (A) (A) (A) (A) (A) (A) (A)
                 (A) (A) (A) (A) (A) (A) (A) (A) (A) (A) (A) (A)
                 (A) (A) (A) (A) (A) (A) (A) (A) (A) (A) (A) (A)
                 (A) (A) (A) (A) (A) (A) (A) (A) (A) (A) (A) (A)
                 (A) (A) (A) (A) (A) (A) (A) (A) (A) (A) (A) (A)
                 (A) (A) (A) (A) (A) (A) (A) (A) (A) (A) (A) (A)
                 (A) (A) (A) (A) (A) (A) (A) (A) (A) (A) (A) (A)
                 (A) (A) (A) (A) (A) (A) (A) (A) (A) (A) (A) (A)
                 (A) (A) (A) (A) (A) (A) (A) (A) (A) (A) (A) (A)
                 (A) (A) (A) (A) (A) (A) (A) (A) (A) (A) (A) (A)
                 (A) (A) (A) (A) (A) (A) (A) (A) (A) (A) (A) (A)
                 (A) (A) (A) (A) (A) (A) (A) (A) (A) (A) (A) (A)
                 (A) (A) (A) (A) (A) (A) (A) (A) (A) (A) (A) (A)
                 (A) (A) (A) (A) (A) (A) (A) (A) (A) (A) (A) (A)
                 (A) (A) (A) (A) (A) (A) (A) (A) (A) (A) (A) (A)
                 (A) (A) (A) (A) (A) (A) (A) (A) (A) (A) (A) (A)
                 (A) (A) (A) (A) (A) (A) (A) (A) (A) (A) (A) (A)
                 (A) (A) (A) (A) (A) (A) (A) (A) (A) (A) (A) (A)
                 (A) (A) (A) (A) (A) (A) (A) (A) (A) (A) (A) (A)
                 (A) (A) (A) (A) (A) (A) (A) (A) (A) (A) (A) (A)
                 (A) (A) (A) (A) (A) (A) (A) (A) (A) (A) (A) (A)
                 (A) (A) (A) (A) (A) (A) (A) (A) (A) (A) (A) (A)
                 (A) (A) (A) (A) (A) (A) (A) (A) (A) (A) (A) (A)
                 (A) (A) (A) (A) (A) (A) (A) (A) (A) (A) (A) (A)
                 (A) (A) (A) (A) (A) (A) (A) (A) (A) (A) (A) (A)
                 (A) (A) (A) (A) (A) (A) (A) (A) (A) (A) (A) (A)
                 (A) (A) (A) (A) (A) (A) (A) (A) (A) (A) (A) (A)
                 (A) (A) (A) (A) (A) (A) (A) (A) (A) (A) (A) (A)
                 (A) (A) (A) (A) (A) (A) (A) (A) (A) (A) (A) (A)
                 (A) (A) (A) (A) (A) (A) (A) (A) (A) (A) (A) (A)
                 (A) (A) (A) (A) (A) (A) (A) (A) (A) (A) (A) (A)
                 (A) (A) (A) (A) (A) (A) (A) (A) (A) (A) (A) (A)
                 (A) (A) (A) (A) (A) (A) (A) (A) (A) (A) (A) (A)
                 (A) (A) (A) (A) (A) (A) (A) (A) (A) (A) (A) (A)
                 (A) (A) (A) (A) (A) (A) (A) (A) (A) (A) (A) (A)
                 (A) (A) (A) (A) (A) (A) (A) (A) (A) (A) (A) (A)
                 (A) (A) (A) (A) (A) (A) (A) (A) (A) (A) (A) (A)
                 (A) (A) (A) (A) (A) (A) (A) (A) (A) (A) (A) (A)
                 (A) (A) (A) (A) (A) (A) (A) (A) (A) (A) (A) (A)
                 (A) (A) (A) (A) (A) (A) (A) (A) (A) (A) (A) (A)
                 (A) (A) (A) (A) (A) (A) (A) (A) (A) (A) (A) (A)
                 (A) (A) (A) (A) (A) (A) (A) (A) (A) (A) (A) (A)
                 (A) (A) (A) (A) (A) (A) (A) (A) (A) (A) (A) (A)
                 (A) (A) (A) (A) (A) (A) (A) (A) (A) (A) (A) (A)
                 (A) (A) (A) (A) (A) (A) (A) (A) (A) (A) (A) (A)
                 (A) (A) (A) (A) (A) (A) (A) (A) (A) (A) (A) (A)
                 (A) (A) (A) (A) (A) (A) (A) (A) (A) (A) (A) (A)
                 (A) (A) (A) (A) (A) (A) (A) (A) (A) (A) (A) (A)
                 (A) (A) (A) (A) (A) (A) (A) (A) (A) (A) (A) (A)
                 (A) (A) (A) (A) (A) (A) (A) (A) (A) (A) (A) (A)
                 (A) (A) (A) (A) (A) (A) (A) (A) (A) (A) (A) (A)
                 (A) (A) (A) (A) (A) (A) (A) (A) (A) (A) (A) (A)
                 (A) (A) (A) (A) (A) (A) (A) (A) (A) (A) (A) (A)
                 (A) (A) (A) (A) (A) (A) (A) (A) (A) (A) (A) (A)
                 (A) (A) (A) (A) (A) (A) (A) (A) (A) (A) (A) (A)
                 (A) (A) (A) (A) (A) (A) (A) (A) (A) (A) (A) (A)
                 (A) (A) (A) (A) (A) (A) (A) (A) (A) (A) (A) (A)
                 (A) (A) (A) (A) (A) (A) (A) (A) (A) (A) (A) (A)
                 (A) (A) (A) (A) (A) (A) (A) (A) (A) (A) (A) (A)
                 (A) (A) (A) (A) (A) (A) (A) (A) (A) (A) (A) (A)
                 (A) (A) (A) (A) (A) (A) (A) (A) (A) (A) (A) (A)
                 (A) (A) (A) (A) (A) (A) (A) (A) (A) (A) (A) (A)
                 (A) (A) (A) (A) (A) (A) (A) (A) (A) (A) (A) (A)
                 (A) (A) (A) (A) (A) (A) (A) (A) (A) (A) (A) (A)
                 (A) (A) (A) (A) (A) (A) (A) (A) (A) (A) (A) (A)
                 (A) (A) (A) (A) (A) (A) (A) (A) (A) (A) (A) (A)
                 (A) (A) (A) (A) (A) (A) (A) (A) (A) (A) (A) (A)
                 (A) (A) (A) (A) (A) (A) (A) (A) (A) (A) (A) (A)
                 (A) (A) (A) (A) (A) (A) (A) (A) (A) (A) (A) (A)
                 (A) (A) (A) (A) (A) (A) (A) (A) (A) (A) (A) (A)
                 (A) (A) (A) (A) (A) (A) (A) (A) (A) (A) (A) (A)
                 (A) (A) (A) (A) (A) (A) (A) (A) (A) (A) (A) (A)
                 (A) (A) (A) (A) (A) (A) (A) (A) (A) (A) (A) (A)
                 (A) (A) (A) (A) (A) (A) (A) (A) (A) (A) (A) (A)
                 (A) (A) (A) (A) (A) (A) (A) (A) (A) (A)
 The electronic state is 1-A.
 Alpha  occ. eigenvalues -- -101.61786-101.61785 -77.25467 -77.25466 -10.27071
 Alpha  occ. eigenvalues --  -10.27070 -10.26779 -10.26778 -10.26516 -10.26516
 Alpha  occ. eigenvalues --  -10.26482 -10.26482 -10.26446 -10.26445 -10.25666
 Alpha  occ. eigenvalues --  -10.25666 -10.24293 -10.24292 -10.23585 -10.23584
 Alpha  occ. eigenvalues --  -10.23526 -10.23523 -10.22327 -10.22325 -10.22023
 Alpha  occ. eigenvalues --  -10.22023  -9.44302  -9.44301  -7.17481  -7.17479
 Alpha  occ. eigenvalues --   -7.17032  -7.17030  -7.16990  -7.16988  -6.64722
 Alpha  occ. eigenvalues --   -6.64722  -4.78337  -4.78337  -4.78241  -4.78240
 Alpha  occ. eigenvalues --   -4.78063  -4.78063  -3.63086  -3.51986  -2.27643
 Alpha  occ. eigenvalues --   -2.23421  -2.23362  -2.19838  -2.19493  -2.16234
 Alpha  occ. eigenvalues --   -0.94537  -0.92511  -0.86828  -0.86770  -0.79970
 Alpha  occ. eigenvalues --   -0.79938  -0.77400  -0.77119  -0.76157  -0.76099
 Alpha  occ. eigenvalues --   -0.74925  -0.74534  -0.74174  -0.73851  -0.68396
 Alpha  occ. eigenvalues --   -0.68324  -0.66616  -0.66601  -0.60318  -0.59963
 Alpha  occ. eigenvalues --   -0.59632  -0.59278  -0.58385  -0.58210  -0.57731
 Alpha  occ. eigenvalues --   -0.56755  -0.52667  -0.52389  -0.49783  -0.49318
 Alpha  occ. eigenvalues --   -0.48715  -0.48538  -0.45992  -0.45825  -0.45784
 Alpha  occ. eigenvalues --   -0.44967  -0.44391  -0.44095  -0.43872  -0.43167
 Alpha  occ. eigenvalues --   -0.43073  -0.43028  -0.42446  -0.42370  -0.42305
 Alpha  occ. eigenvalues --   -0.41926  -0.41900  -0.40289  -0.39877  -0.39535
 Alpha  occ. eigenvalues --   -0.38717  -0.38595  -0.37052  -0.36850  -0.35988
 Alpha  occ. eigenvalues --   -0.35789  -0.35243  -0.35158  -0.35118  -0.35028
 Alpha  occ. eigenvalues --   -0.34692  -0.34680  -0.33978  -0.33402  -0.32933
 Alpha  occ. eigenvalues --   -0.31507  -0.31410  -0.30768  -0.30088  -0.29646
 Alpha  occ. eigenvalues --   -0.29221  -0.28481  -0.28218  -0.27229  -0.26041
 Alpha  occ. eigenvalues --   -0.25312  -0.25138  -0.25130  -0.24709  -0.24134
 Alpha  occ. eigenvalues --   -0.24091
 Alpha virt. eigenvalues --   -0.07325  -0.02625  -0.02587  -0.01819  -0.01767
 Alpha virt. eigenvalues --    0.00195   0.00712   0.01511   0.01768   0.02059
 Alpha virt. eigenvalues --    0.02788   0.03013   0.03217   0.03885   0.04411
 Alpha virt. eigenvalues --    0.04590   0.04846   0.05212   0.05604   0.06065
 Alpha virt. eigenvalues --    0.06791   0.06996   0.08188   0.08332   0.08418
 Alpha virt. eigenvalues --    0.08630   0.08835   0.08889   0.09909   0.10068
 Alpha virt. eigenvalues --    0.10369   0.10752   0.11017   0.11272   0.11918
 Alpha virt. eigenvalues --    0.11994   0.12508   0.12650   0.12763   0.13092
 Alpha virt. eigenvalues --    0.13547   0.13659   0.14047   0.14310   0.14616
 Alpha virt. eigenvalues --    0.14728   0.14979   0.15438   0.15646   0.16174
 Alpha virt. eigenvalues --    0.16303   0.16370   0.16456   0.16653   0.16998
 Alpha virt. eigenvalues --    0.17140   0.17640   0.17668   0.18109   0.18773
 Alpha virt. eigenvalues --    0.19072   0.19339   0.19529   0.19711   0.20125
 Alpha virt. eigenvalues --    0.20235   0.20786   0.21331   0.21450   0.21596
 Alpha virt. eigenvalues --    0.21761   0.22198   0.22219   0.22499   0.22849
 Alpha virt. eigenvalues --    0.23601   0.23760   0.24034   0.24703   0.25187
 Alpha virt. eigenvalues --    0.25580   0.26065   0.26183   0.26654   0.26659
 Alpha virt. eigenvalues --    0.26942   0.27623   0.27813   0.28203   0.28727
 Alpha virt. eigenvalues --    0.28974   0.29156   0.29340   0.29436   0.30267
 Alpha virt. eigenvalues --    0.30869   0.30998   0.31043   0.31752   0.32159
 Alpha virt. eigenvalues --    0.32422   0.32783   0.32835   0.33024   0.33556
 Alpha virt. eigenvalues --    0.34584   0.34625   0.35497   0.35957   0.36066
 Alpha virt. eigenvalues --    0.36202   0.36334   0.36935   0.37034   0.37330
 Alpha virt. eigenvalues --    0.37755   0.37843   0.38778   0.39468   0.39547
 Alpha virt. eigenvalues --    0.40023   0.40381   0.40436   0.40592   0.41356
 Alpha virt. eigenvalues --    0.41369   0.41390   0.41921   0.41926   0.42034
 Alpha virt. eigenvalues --    0.42314   0.42894   0.43210   0.43370   0.43580
 Alpha virt. eigenvalues --    0.43618   0.43750   0.43845   0.44431   0.44571
 Alpha virt. eigenvalues --    0.44922   0.45189   0.45216   0.45459   0.45794
 Alpha virt. eigenvalues --    0.46044   0.46079   0.46148   0.46454   0.46723
 Alpha virt. eigenvalues --    0.46964   0.47253   0.47409   0.47829   0.48252
 Alpha virt. eigenvalues --    0.48424   0.48511   0.48662   0.49036   0.49398
 Alpha virt. eigenvalues --    0.49553   0.49726   0.50076   0.50730   0.50965
 Alpha virt. eigenvalues --    0.51515   0.51764   0.52260   0.52336   0.53093
 Alpha virt. eigenvalues --    0.53148   0.53217   0.53343   0.53817   0.53890
 Alpha virt. eigenvalues --    0.54211   0.54472   0.54740   0.55115   0.55784
 Alpha virt. eigenvalues --    0.56343   0.56399   0.56842   0.57372   0.57413
 Alpha virt. eigenvalues --    0.58168   0.58282   0.58306   0.58586   0.58995
 Alpha virt. eigenvalues --    0.59114   0.59643   0.59756   0.60301   0.60483
 Alpha virt. eigenvalues --    0.60704   0.61194   0.62028   0.62169   0.62649
 Alpha virt. eigenvalues --    0.63203   0.63251   0.63946   0.64241   0.64378
 Alpha virt. eigenvalues --    0.65027   0.65144   0.65453   0.66364   0.66561
 Alpha virt. eigenvalues --    0.66672   0.67298   0.67891   0.68104   0.68780
 Alpha virt. eigenvalues --    0.69056   0.69896   0.69985   0.70500   0.70903
 Alpha virt. eigenvalues --    0.70977   0.71424   0.71981   0.72438   0.72826
 Alpha virt. eigenvalues --    0.73178   0.73914   0.75078   0.75693   0.75979
 Alpha virt. eigenvalues --    0.76180   0.76656   0.76797   0.77697   0.77997
 Alpha virt. eigenvalues --    0.78778   0.79398   0.80595   0.80767   0.81254
 Alpha virt. eigenvalues --    0.81513   0.82750   0.82779   0.83012   0.83678
 Alpha virt. eigenvalues --    0.84893   0.85088   0.85651   0.85707   0.85865
 Alpha virt. eigenvalues --    0.86611   0.87192   0.87373   0.87973   0.88351
 Alpha virt. eigenvalues --    0.88751   0.89339   0.89803   0.90148   0.91765
 Alpha virt. eigenvalues --    0.91992   0.92547   0.93298   0.93513   0.93865
 Alpha virt. eigenvalues --    0.94195   0.94520   0.94949   0.95251   0.95772
 Alpha virt. eigenvalues --    0.96754   0.96963   0.97236   0.97609   0.98423
 Alpha virt. eigenvalues --    0.98589   0.99283   0.99370   0.99472   1.01400
 Alpha virt. eigenvalues --    1.02021   1.02424   1.03049   1.03106   1.03898
 Alpha virt. eigenvalues --    1.04752   1.05546   1.06051   1.06589   1.07364
 Alpha virt. eigenvalues --    1.07635   1.08473   1.09026   1.09959   1.10011
 Alpha virt. eigenvalues --    1.10109   1.10232   1.10829   1.11329   1.12104
 Alpha virt. eigenvalues --    1.12257   1.12699   1.13106   1.14247   1.14515
 Alpha virt. eigenvalues --    1.14842   1.16245   1.16631   1.16755   1.16990
 Alpha virt. eigenvalues --    1.17124   1.18021   1.18593   1.18885   1.19697
 Alpha virt. eigenvalues --    1.20209   1.20730   1.21418   1.21457   1.21765
 Alpha virt. eigenvalues --    1.22318   1.22771   1.23190   1.23246   1.23552
 Alpha virt. eigenvalues --    1.24732   1.24777   1.25366   1.25506   1.25587
 Alpha virt. eigenvalues --    1.25695   1.26915   1.27206   1.27245   1.27749
 Alpha virt. eigenvalues --    1.27951   1.28184   1.29608   1.30280   1.30535
 Alpha virt. eigenvalues --    1.30882   1.31932   1.32357   1.33529   1.33830
 Alpha virt. eigenvalues --    1.34344   1.34817   1.34891   1.35888   1.37162
 Alpha virt. eigenvalues --    1.37599   1.37898   1.38765   1.38893   1.39459
 Alpha virt. eigenvalues --    1.39630   1.40043   1.41220   1.41259   1.42158
 Alpha virt. eigenvalues --    1.42199   1.44298   1.45404   1.45470   1.47283
 Alpha virt. eigenvalues --    1.47375   1.48954   1.49253   1.49632   1.50799
 Alpha virt. eigenvalues --    1.51345   1.52243   1.52948   1.52979   1.53783
 Alpha virt. eigenvalues --    1.54148   1.54540   1.54552   1.55418   1.55903
 Alpha virt. eigenvalues --    1.56779   1.57349   1.57897   1.58787   1.58959
 Alpha virt. eigenvalues --    1.59373   1.59977   1.60076   1.60143   1.60341
 Alpha virt. eigenvalues --    1.60929   1.61485   1.61906   1.62179   1.62631
 Alpha virt. eigenvalues --    1.63409   1.63623   1.64226   1.64358   1.64884
 Alpha virt. eigenvalues --    1.65192   1.65507   1.65795   1.66136   1.66982
 Alpha virt. eigenvalues --    1.67193   1.67561   1.68760   1.69087   1.69214
 Alpha virt. eigenvalues --    1.69690   1.70166   1.70960   1.72004   1.72246
 Alpha virt. eigenvalues --    1.73261   1.73799   1.73995   1.74564   1.74693
 Alpha virt. eigenvalues --    1.75800   1.76062   1.77295   1.77846   1.78123
 Alpha virt. eigenvalues --    1.79125   1.79287   1.79959   1.80330   1.80562
 Alpha virt. eigenvalues --    1.80975   1.81294   1.82335   1.83401   1.83460
 Alpha virt. eigenvalues --    1.84391   1.85626   1.86348   1.86448   1.87184
 Alpha virt. eigenvalues --    1.87386   1.88205   1.88759   1.89595   1.90157
 Alpha virt. eigenvalues --    1.90778   1.90808   1.91879   1.92010   1.93026
 Alpha virt. eigenvalues --    1.93116   1.94282   1.94595   1.95144   1.95452
 Alpha virt. eigenvalues --    1.95536   1.97031   1.97201   1.97307   1.98591
 Alpha virt. eigenvalues --    1.98861   1.99186   1.99276   2.01364   2.01641
 Alpha virt. eigenvalues --    2.02079   2.02591   2.03286   2.03997   2.04073
 Alpha virt. eigenvalues --    2.04503   2.04901   2.05202   2.05292   2.05605
 Alpha virt. eigenvalues --    2.06670   2.07371   2.07396   2.07779   2.07979
 Alpha virt. eigenvalues --    2.08597   2.09248   2.09944   2.09999   2.11194
 Alpha virt. eigenvalues --    2.11851   2.11936   2.12490   2.13076   2.14207
 Alpha virt. eigenvalues --    2.14224   2.14739   2.14975   2.15712   2.16545
 Alpha virt. eigenvalues --    2.17113   2.17413   2.17761   2.17927   2.18328
 Alpha virt. eigenvalues --    2.18738   2.19183   2.19281   2.19452   2.20025
 Alpha virt. eigenvalues --    2.20363   2.20873   2.21297   2.21680   2.22224
 Alpha virt. eigenvalues --    2.23078   2.23585   2.23893   2.24742   2.25255
 Alpha virt. eigenvalues --    2.25488   2.25714   2.26754   2.26825   2.28150
 Alpha virt. eigenvalues --    2.28705   2.30691   2.30738   2.31557   2.32064
 Alpha virt. eigenvalues --    2.33319   2.33396   2.33696   2.34653   2.34793
 Alpha virt. eigenvalues --    2.35299   2.35567   2.36012   2.36803   2.37087
 Alpha virt. eigenvalues --    2.37767   2.38028   2.38401   2.38511   2.39645
 Alpha virt. eigenvalues --    2.39748   2.41012   2.42220   2.42609   2.42822
 Alpha virt. eigenvalues --    2.43973   2.44177   2.44340   2.44915   2.45309
 Alpha virt. eigenvalues --    2.45378   2.45764   2.46772   2.46846   2.47077
 Alpha virt. eigenvalues --    2.47505   2.47741   2.48195   2.49204   2.49427
 Alpha virt. eigenvalues --    2.49792   2.49878   2.52103   2.52263   2.52700
 Alpha virt. eigenvalues --    2.53455   2.53493   2.53873   2.54004   2.54203
 Alpha virt. eigenvalues --    2.54672   2.55674   2.56262   2.56301   2.56843
 Alpha virt. eigenvalues --    2.57458   2.57526   2.57975   2.58015   2.58913
 Alpha virt. eigenvalues --    2.59024   2.59421   2.59908   2.60476   2.60638
 Alpha virt. eigenvalues --    2.60714   2.61505   2.61544   2.62526   2.62587
 Alpha virt. eigenvalues --    2.63223   2.63632   2.63880   2.64509   2.64786
 Alpha virt. eigenvalues --    2.64802   2.65243   2.65518   2.65668   2.66488
 Alpha virt. eigenvalues --    2.67190   2.67751   2.68236   2.68298   2.68576
 Alpha virt. eigenvalues --    2.69264   2.69365   2.69737   2.70038   2.71103
 Alpha virt. eigenvalues --    2.71484   2.71908   2.72040   2.72901   2.73363
 Alpha virt. eigenvalues --    2.74424   2.74892   2.76628   2.76743   2.76883
 Alpha virt. eigenvalues --    2.77288   2.77893   2.77921   2.79640   2.79679
 Alpha virt. eigenvalues --    2.79820   2.79842   2.80801   2.81182   2.83491
 Alpha virt. eigenvalues --    2.83949   2.84486   2.84624   2.85130   2.85804
 Alpha virt. eigenvalues --    2.86668   2.86790   2.87187   2.89048   2.89814
 Alpha virt. eigenvalues --    2.90000   2.90210   2.90839   2.91461   2.92032
 Alpha virt. eigenvalues --    2.92598   2.93581   2.94378   2.94386   2.95394
 Alpha virt. eigenvalues --    2.95746   2.96915   2.97643   2.98144   2.98274
 Alpha virt. eigenvalues --    2.99223   2.99739   3.00561   3.00605   3.03415
 Alpha virt. eigenvalues --    3.04143   3.04293   3.04722   3.04844   3.05545
 Alpha virt. eigenvalues --    3.05819   3.07158   3.07374   3.07523   3.09445
 Alpha virt. eigenvalues --    3.09620   3.10401   3.11283   3.11628   3.12381
 Alpha virt. eigenvalues --    3.12407   3.13417   3.13566   3.15023   3.15200
 Alpha virt. eigenvalues --    3.15654   3.15817   3.16001   3.16651   3.17921
 Alpha virt. eigenvalues --    3.18892   3.18894   3.20035   3.20668   3.20710
 Alpha virt. eigenvalues --    3.21711   3.21736   3.22542   3.23023   3.23287
 Alpha virt. eigenvalues --    3.23733   3.24386   3.24578   3.25260   3.25898
 Alpha virt. eigenvalues --    3.26975   3.27270   3.27544   3.28008   3.28248
 Alpha virt. eigenvalues --    3.28974   3.29145   3.29509   3.30419   3.30636
 Alpha virt. eigenvalues --    3.30807   3.31346   3.31877   3.32741   3.33091
 Alpha virt. eigenvalues --    3.33863   3.33886   3.34725   3.35506   3.35584
 Alpha virt. eigenvalues --    3.36696   3.37181   3.37286   3.38141   3.38166
 Alpha virt. eigenvalues --    3.38740   3.38887   3.38916   3.39647   3.39715
 Alpha virt. eigenvalues --    3.39959   3.40472   3.40781   3.41649   3.42231
 Alpha virt. eigenvalues --    3.42371   3.42615   3.42701   3.43278   3.43865
 Alpha virt. eigenvalues --    3.44855   3.45191   3.45580   3.46387   3.46484
 Alpha virt. eigenvalues --    3.47033   3.47654   3.47797   3.49113   3.49397
 Alpha virt. eigenvalues --    3.50105   3.51026   3.51502   3.51828   3.51888
 Alpha virt. eigenvalues --    3.52473   3.53010   3.53485   3.54221   3.54283
 Alpha virt. eigenvalues --    3.55100   3.55250   3.56313   3.56754   3.57780
 Alpha virt. eigenvalues --    3.57924   3.59046   3.59703   3.59731   3.60700
 Alpha virt. eigenvalues --    3.61203   3.61691   3.62784   3.63405   3.64181
 Alpha virt. eigenvalues --    3.64574   3.66238   3.67066   3.68449   3.69133
 Alpha virt. eigenvalues --    3.69478   3.71175   3.71773   3.72906   3.74058
 Alpha virt. eigenvalues --    3.74515   3.75073   3.76111   3.76424   3.76518
 Alpha virt. eigenvalues --    3.77643   3.81683   3.82127   3.83099   3.83300
 Alpha virt. eigenvalues --    3.83654   3.83723   3.84871   3.84925   3.86935
 Alpha virt. eigenvalues --    3.87876   3.88994   3.89949   3.90775   3.91762
 Alpha virt. eigenvalues --    3.93496   3.93799   3.94007   3.95978   3.96011
 Alpha virt. eigenvalues --    3.96283   3.97407   3.97575   3.98317   3.99011
 Alpha virt. eigenvalues --    3.99239   3.99250   4.00633   4.00686   4.01699
 Alpha virt. eigenvalues --    4.02463   4.03855   4.04642   4.05353   4.05805
 Alpha virt. eigenvalues --    4.08602   4.09425   4.10022   4.10265   4.12196
 Alpha virt. eigenvalues --    4.12305   4.12950   4.13739   4.13746   4.14108
 Alpha virt. eigenvalues --    4.14497   4.15066   4.15748   4.17123   4.17163
 Alpha virt. eigenvalues --    4.18700   4.19905   4.21294   4.21529   4.21719
 Alpha virt. eigenvalues --    4.23103   4.23236   4.23623   4.24473   4.27228
 Alpha virt. eigenvalues --    4.27313   4.28130   4.30728   4.30996   4.32395
 Alpha virt. eigenvalues --    4.32816   4.34315   4.35817   4.36000   4.38089
 Alpha virt. eigenvalues --    4.38278   4.39385   4.39546   4.41011   4.42183
 Alpha virt. eigenvalues --    4.43159   4.44104   4.44486   4.46525   4.47175
 Alpha virt. eigenvalues --    4.47479   4.50426   4.50908   4.52540   4.53515
 Alpha virt. eigenvalues --    4.55647   4.57565   4.57791   4.58860   4.60139
 Alpha virt. eigenvalues --    4.60704   4.60964   4.66607   4.66945   4.67817
 Alpha virt. eigenvalues --    4.68376   4.68636   4.70714   4.71166   4.71446
 Alpha virt. eigenvalues --    4.71830   4.80346   4.80429   4.84196   4.85876
 Alpha virt. eigenvalues --    4.86986   4.90090   4.91989   4.94213   4.94239
 Alpha virt. eigenvalues --    4.94965   4.95839   4.97169   5.02514   5.04254
 Alpha virt. eigenvalues --    5.06983   5.09479   5.09761   5.12003   5.13222
 Alpha virt. eigenvalues --    5.13772   5.14722   5.16742   5.17774   5.19430
 Alpha virt. eigenvalues --    5.19916   5.22009   5.24783   5.26344   5.32730
 Alpha virt. eigenvalues --    5.41182   5.43716   5.60692   5.62455   7.86811
 Alpha virt. eigenvalues --    7.87455   7.91999   7.93684   8.04736   8.06216
 Alpha virt. eigenvalues --   10.92735  10.94080  10.98979  11.04959  11.05376
 Alpha virt. eigenvalues --   11.07453  15.82212  15.89142  22.44519  22.45986
 Alpha virt. eigenvalues --   22.46998  22.47910  22.53447  22.54083  22.57479
 Alpha virt. eigenvalues --   22.59054  22.62512  22.64016  22.64957  22.66272
 Alpha virt. eigenvalues --   22.66867  22.72440  22.75365  22.76498  22.79116
 Alpha virt. eigenvalues --   22.81396  22.89366  22.90220  23.07328  23.07996
 Alpha virt. eigenvalues --   25.48136  25.68633  40.22152  40.34552  40.36521
 Alpha virt. eigenvalues --   40.77379  41.03567  41.13234  52.13816  56.93008
          Condensed to atoms (all electrons):
 Mulliken charges:
               1
     1  Fe  -0.557150
     2  P    0.139687
     3  P    0.139821
     4  C    0.100721
     5  C   -0.112721
     6  C   -0.012283
     7  C   -0.119943
     8  C   -0.076582
     9  C    0.100344
    10  C   -0.076544
    11  C   -0.119838
    12  C   -0.012275
    13  C   -0.112368
    14  C   -0.061437
    15  C   -0.221211
    16  C   -0.088063
    17  C   -0.191317
    18  C   -0.061382
    19  C   -0.221303
    20  C   -0.088158
    21  C   -0.191378
    22  H    0.095489
    23  H    0.127058
    24  H    0.125050
    25  H    0.135837
    26  H    0.135886
    27  H    0.095275
    28  Cl  -0.427893
    29  Cl  -0.427868
    30  Pd   0.195162
    31  H    0.150036
    32  C   -0.405180
    33  H    0.095363
    34  C   -0.387084
    35  H    0.119925
    36  H    0.111796
    37  H    0.114164
    38  H    0.131416
    39  H    0.125053
    40  H    0.127062
    41  H    0.143139
    42  H    0.137466
    43  H    0.134294
    44  H    0.124560
    45  H    0.171700
    46  H    0.126948
    47  H    0.150004
    48  C   -0.405217
    49  H    0.095511
    50  C   -0.387039
    51  H    0.119909
    52  H    0.111866
    53  H    0.114171
    54  H    0.131351
    55  H    0.137469
    56  H    0.134273
    57  H    0.143206
    58  H    0.171669
    59  H    0.126981
    60  H    0.124569
 Sum of Mulliken charges =  -0.00000
 Mulliken charges with hydrogens summed into heavy atoms:
               1
     1  Fe  -0.557150
     2  P    0.139687
     3  P    0.139821
     4  C    0.100721
     5  C   -0.017232
     6  C    0.114776
     7  C    0.005107
     8  C    0.059255
     9  C    0.100344
    10  C    0.059342
    11  C    0.005215
    12  C    0.114787
    13  C   -0.017093
    14  C    0.088598
    15  C    0.010510
    16  C    0.007300
    17  C    0.054264
    18  C    0.088622
    19  C    0.010472
    20  C    0.007352
    21  C    0.054144
    28  Cl  -0.427893
    29  Cl  -0.427868
    30  Pd   0.195162
    32  C    0.009720
    34  C    0.036124
    48  C    0.009731
    50  C    0.036179
 Electronic spatial extent (au):  <R**2>=          11580.1829
 Charge=             -0.0000 electrons
 Dipole moment (field-independent basis, Debye):
    X=             -0.0062    Y=             11.5494    Z=              0.0034  Tot=             11.5494
 Quadrupole moment (field-independent basis, Debye-Ang):
   XX=           -204.1195   YY=           -243.6002   ZZ=           -212.5325
   XY=              0.0203   XZ=             -5.7410   YZ=             -0.0151
 Traceless Quadrupole moment (field-independent basis, Debye-Ang):
   XX=             15.9646   YY=            -23.5162   ZZ=              7.5516
   XY=              0.0203   XZ=             -5.7410   YZ=             -0.0151
 Octapole moment (field-independent basis, Debye-Ang**2):
  XXX=              0.0169  YYY=            154.3458  ZZZ=             -0.0263  XYY=             -0.1116
  XXY=            -10.8162  XXZ=              0.0279  XZZ=              0.0144  YZZ=            -12.4924
  YYZ=             -0.0150  XYZ=            -21.3473
 Hexadecapole moment (field-independent basis, Debye-Ang**3):
 XXXX=          -7195.3440 YYYY=          -6035.1647 ZZZZ=          -2592.8479 XXXY=              0.0889
 XXXZ=            -38.3103 YYYX=             -0.2332 YYYZ=             -0.1922 ZZZX=            -57.2115
 ZZZY=             -0.0403 XXYY=          -2301.4044 XXZZ=          -1644.3793 YYZZ=          -1397.8191
 XXYZ=             -0.0235 YYXZ=            -35.9381 ZZXY=             -0.0693
 N-N= 4.489628074805D+03 E-N=-1.534021468323D+04  KE= 2.570912607822D+03
 1\1\GINC-NC046\SP\RPBE1PBE\Gen\C22H32Cl2Fe1P2Pd1\MACKK4\05-Dec-2021\0\
 \# PBE1PBE gen pseudo=read int=(grid=ultrafine) empiricaldispersion=GD
 3BJ nmr=giao\\RR_Me_Ferrolane_1 title\\0,1\Fe,0,-0.0368124839,2.618256
 6425,0.0408270715\P,0,-1.7915291908,-0.2721492576,0.0574114337\P,0,1.7
 806907594,-0.2328659825,0.0069120476\C,0,-1.5524524242,1.4397376859,-0
 .5230477628\C,0,-0.733596489,1.7855178503,-1.6656477432\C,0,-0.7227497
 59,3.2126264397,-1.8037980633\C,0,-1.5433073585,3.7664505374,-0.765882
 8311\C,0,-2.0647273154,2.6832050971,0.0189814971\C,0,1.5042248991,1.46
 98317502,0.5976371325\C,0,1.9891657222,2.7274358678,0.0631223988\C,0,1
 .4442723969,3.7942709328,0.8544964708\C,0,0.6361224792,3.2163923612,1.
 8890345199\C,0,0.6781591362,1.7907208624,1.7422989275\C,0,-3.315813249
 5,-0.7834380001,-0.9175936742\C,0,-4.4634433445,-0.2235940441,-0.05603
 19139\C,0,-2.6784833394,-0.1163993121,1.7143460551\C,0,-4.1335823914,-
 0.5552578304,1.4075748774\C,0,3.3169216097,-0.71571281,0.9775524654\C,
 0,4.4507768989,-0.1244112767,0.1187991591\C,0,2.66233018,-0.0480048097
 ,-1.6498598653\C,0,4.1275499523,-0.4545831967,-1.346630659\H,0,-0.1776
 807732,1.0738332056,-2.2761892553\H,0,-0.1483946582,3.7776894651,-2.53
 86349444\H,0,-1.7016919361,4.8275354307,-0.569326006\H,0,-2.6947850456
 ,2.790089306,0.9017816939\H,0,2.6166686881,2.8533388016,-0.8189906849\
 H,0,0.1379966429,1.0633450996,2.3484795827\Cl,0,-1.6487221488,-3.41896
 06212,0.2367615542\Cl,0,1.7073819019,-3.3806597587,-0.1885839714\Pd,0,
 0.0105707796,-1.7009951765,0.0286306592\H,0,-3.3112844996,-1.885024998
 ,-0.8459939958\C,0,-3.3219100851,-0.3583481107,-2.384353859\H,0,-2.658
 0117502,0.9584867295,1.9695764197\C,0,-2.0317843303,-0.9213770806,2.84
 65105781\H,0,-5.4280254392,-0.663733208,-0.3679079923\H,0,-4.544311859
 5,0.8721818633,-0.1999620517\H,0,-4.8370635411,-0.080830229,2.11469995
 3\H,0,-4.2014095145,-1.6486113289,1.5534260299\H,0,1.5793812061,4.8597
 325465,0.6643371778\H,0,0.049638385,3.7643365315,2.6272474811\H,0,-2.4
 636455251,-0.7867498407,-2.929923876\H,0,-3.2921241366,0.7391058855,-2
 .4961162444\H,0,-4.2419724501,-0.7250567779,-2.872743062\H,0,-1.010700
 8503,-0.5719334499,3.076165297\H,0,-1.9635725362,-1.9866720943,2.57147
 74198\H,0,-2.6381416884,-0.8265705038,3.7653626652\H,0,3.3373014756,-1
 .8166546635,0.8989232819\C,0,3.31449169,-0.2999719808,2.4469969223\H,0
 ,2.616523263,1.027373011,-1.8996557658\C,0,2.0333871819,-0.8621818347,
 -2.7854729593\H,0,5.4254337962,-0.5442219082,0.427364158\H,0,4.5066173
 558,0.9720170978,0.2694436076\H,0,4.8192746716,0.0404206657,-2.0512401
 846\H,0,4.2207915153,-1.5451402229,-1.4992650473\H,0,3.2598340148,0.79
 57861977,2.565788244\H,0,4.243027691,-0.6487536995,2.9324687898\H,0,2.
 4665938198,-0.7512752519,2.9903018214\H,0,1.990386311,-1.9301598333,-2
 .5157747678\H,0,2.6363032148,-0.7485774762,-3.7044581552\H,0,1.0041124
 751,-0.5356412952,-3.0122520572\\Version=ES64L-G09RevE.01\State=1-A\HF
 =-2711.5138413\RMSD=1.243e-09\Dipole=-0.0499969,4.5436026,0.0115224\Qu
 adrupole=11.6642704,-17.4797548,5.8154844,0.3337644,-4.4077264,-0.1053
 989\PG=C01 [X(C22H32Cl2Fe1P2Pd1)]\\@


 THE ONLY DIFFERENCE BETWEEN ECCENTRICS AND JOGGERS
 IS THAT JOGGERS WEAR SWEATBANDS WHEN THEY RUN IN THE RAIN.
 Job cpu time:       0 days 23 hours 18 minutes 36.0 seconds.
 File lengths (MBytes):  RWF=    679 Int=      0 D2E=      0 Chk=     96 Scr=      1
 Normal termination of Gaussian 09 at Sun Dec  5 03:26:15 2021.
 Initial command:
 /gstore/apps/gaussian/g09.e01-foss-2017a/g09/l1.exe "/local/22791342/Gau-9518.inp" -scrdir="/local/22791342/"
 Entering Link 1 = /gstore/apps/gaussian/g09.e01-foss-2017a/g09/l1.exe PID=      6160.
  
 Copyright (c) 1988,1990,1992,1993,1995,1998,2003,2009,2015,
            Gaussian, Inc.  All Rights Reserved.
  
 This is part of the Gaussian(R) 09 program.  It is based on
 the Gaussian(R) 03 system (copyright 2003, Gaussian, Inc.),
 the Gaussian(R) 98 system (copyright 1998, Gaussian, Inc.),
 the Gaussian(R) 94 system (copyright 1995, Gaussian, Inc.),
 the Gaussian 92(TM) system (copyright 1992, Gaussian, Inc.),
 the Gaussian 90(TM) system (copyright 1990, Gaussian, Inc.),
 the Gaussian 88(TM) system (copyright 1988, Gaussian, Inc.),
 the Gaussian 86(TM) system (copyright 1986, Carnegie Mellon
 University), and the Gaussian 82(TM) system (copyright 1983,
 Carnegie Mellon University). Gaussian is a federally registered
 trademark of Gaussian, Inc.
  
 This software contains proprietary and confidential information,
 including trade secrets, belonging to Gaussian, Inc.
  
 This software is provided under written license and may be
 used, copied, transmitted, or stored only in accord with that
 written license.
  
 The following legend is applicable only to US Government
 contracts under FAR:
  
                    RESTRICTED RIGHTS LEGEND
  
 Use, reproduction and disclosure by the US Government is
 subject to restrictions as set forth in subparagraphs (a)
 and (c) of the Commercial Computer Software - Restricted
 Rights clause in FAR 52.227-19.
  
 Gaussian, Inc.
 340 Quinnipiac St., Bldg. 40, Wallingford CT 06492
  
  
 ---------------------------------------------------------------
 Warning -- This program may not be used in any manner that
 competes with the business of Gaussian, Inc. or will provide
 assistance to any competitor of Gaussian, Inc.  The licensee
 of this program is prohibited from giving any competitor of
 Gaussian, Inc. access to this program.  By using this program,
 the user acknowledges that Gaussian, Inc. is engaged in the
 business of creating and licensing software in the field of
 computational chemistry and represents and warrants to the
 licensee that it is not a competitor of Gaussian, Inc. and that
 it will not use this program in any manner prohibited above.
 ---------------------------------------------------------------
  

 Cite this work as:
 Gaussian 09, Revision E.01,
 M. J. Frisch, G. W. Trucks, H. B. Schlegel, G. E. Scuseria, 
 M. A. Robb, J. R. Cheeseman, G. Scalmani, V. Barone, B. Mennucci, 
 G. A. Petersson, H. Nakatsuji, M. Caricato, X. Li, H. P. Hratchian, 
 A. F. Izmaylov, J. Bloino, G. Zheng, J. L. Sonnenberg, M. Hada, 
 M. Ehara, K. Toyota, R. Fukuda, J. Hasegawa, M. Ishida, T. Nakajima, 
 Y. Honda, O. Kitao, H. Nakai, T. Vreven, J. A. Montgomery, Jr., 
 J. E. Peralta, F. Ogliaro, M. Bearpark, J. J. Heyd, E. Brothers, 
 K. N. Kudin, V. N. Staroverov, T. Keith, R. Kobayashi, J. Normand, 
 K. Raghavachari, A. Rendell, J. C. Burant, S. S. Iyengar, J. Tomasi, 
 M. Cossi, N. Rega, J. M. Millam, M. Klene, J. E. Knox, J. B. Cross, 
 V. Bakken, C. Adamo, J. Jaramillo, R. Gomperts, R. E. Stratmann, 
 O. Yazyev, A. J. Austin, R. Cammi, C. Pomelli, J. W. Ochterski, 
 R. L. Martin, K. Morokuma, V. G. Zakrzewski, G. A. Voth, 
 P. Salvador, J. J. Dannenberg, S. Dapprich, A. D. Daniels, 
 O. Farkas, J. B. Foresman, J. V. Ortiz, J. Cioslowski, 
 and D. J. Fox, Gaussian, Inc., Wallingford CT, 2013.
 
 ******************************************
 Gaussian 09:  ES64L-G09RevE.01 30-Nov-2015
                 5-Dec-2021 
 ******************************************
 %nprocs=14
 Will use up to   14 processors via shared memory.
 %mem=128GB
 %chk=RR_Me_Ferrolane_1_SPE.chk
 ----------------------------------------------------------------------
 # PBE1PBE gen pseudo=read int=(grid=ultrafine) empiricaldispersion=GD3
 BJ pop=nbo guess=read geom=check
 ----------------------------------------------------------------------
 1/29=2,38=1/1;
 2/12=2,40=1/2;
 3/5=7,11=2,14=-4,16=1,17=8,25=1,30=1,74=-13,75=-5,116=-2,124=41/1,2,3;
 4/5=1/1;
 5/5=2,38=6/2;
 6/7=2,8=2,9=2,10=2,28=1,40=1/1,7;
 99/5=1,9=1/99;
 -----------------------
 RR_Me_Ferrolane_1 title
 -----------------------
 Structure from the checkpoint file:  "RR_Me_Ferrolane_1_SPE.chk"
 Charge =  0 Multiplicity = 1
 Z-Matrix found in file.
 Fe,0,-0.0368124839,2.6182566425,0.0408270715
 P,0,-1.7915291908,-0.2721492576,0.0574114337
 P,0,1.7806907594,-0.2328659825,0.0069120476
 C,0,-1.5524524242,1.4397376859,-0.5230477628
 C,0,-0.733596489,1.7855178503,-1.6656477432
 C,0,-0.722749759,3.2126264397,-1.8037980633
 C,0,-1.5433073585,3.7664505374,-0.7658828311
 C,0,-2.0647273154,2.6832050971,0.0189814971
 C,0,1.5042248991,1.4698317502,0.5976371325
 C,0,1.9891657222,2.7274358678,0.0631223988
 C,0,1.4442723969,3.7942709328,0.8544964708
 C,0,0.6361224792,3.2163923612,1.8890345199
 C,0,0.6781591362,1.7907208624,1.7422989275
 C,0,-3.3158132495,-0.7834380001,-0.9175936742
 C,0,-4.4634433445,-0.2235940441,-0.0560319139
 C,0,-2.6784833394,-0.1163993121,1.7143460551
 C,0,-4.1335823914,-0.5552578304,1.4075748774
 C,0,3.3169216097,-0.71571281,0.9775524654
 C,0,4.4507768989,-0.1244112767,0.1187991591
 C,0,2.66233018,-0.0480048097,-1.6498598653
 C,0,4.1275499523,-0.4545831967,-1.346630659
 H,0,-0.1776807732,1.0738332056,-2.2761892553
 H,0,-0.1483946582,3.7776894651,-2.5386349444
 H,0,-1.7016919361,4.8275354307,-0.569326006
 H,0,-2.6947850456,2.790089306,0.9017816939
 H,0,2.6166686881,2.8533388016,-0.8189906849
 H,0,0.1379966429,1.0633450996,2.3484795827
 Cl,0,-1.6487221488,-3.4189606212,0.2367615542
 Cl,0,1.7073819019,-3.3806597587,-0.1885839714
 Pd,0,0.0105707796,-1.7009951765,0.0286306592
[...]
                                                    277(r),166(g),164(g),1045(r)
                                                    354(v),159(g),362(v),460(v)
                                                    232(v),409(v),251(v),303(r)
                                                    1040(v),231(v),390(g),227(v)
                                                    1088(r),139(g),1059(g)
                                                    329(r),396(g),1046(r),385(g)
                                                    365(v),381(g),777(r),441(v)
                                                    275(r),327(r),301(r),230(v)
                                                    328(r),305(r),384(g),469(v)
                                                    285(r),434(v),278(r),1047(r)
                                                    401(g),415(v),360(v),421(v)
                                                    382(g),330(r),162(g),235(v)
                                                    387(g),197(r),927(r),1043(r)
                                                    712(v),261(v),196(r),1004(r)
                                                    386(g),783(r),831(r),154(g)
                                                    311(r),200(r),143(g),790(r)
                                                    953(r),433(v),195(r),587(r)
                                                    317(r),713(v),465(v),257(v)
                                                    474(v)
  1038. BD*(   1)Fe   1 - C  12          0.32907     0.41304  1061(g),1036(g),143(g)
                                                    1039(g),1034(g),145(g)
                                                    1035(g),137(g),355(v),144(g)
                                                    120(g),5(g),1063(g),153(g)
                                                    457(v),148(g),142(g),150(g)
                                                    149(g),458(v),1037(g),407(v)
                                                    158(g),146(g),356(v),147(g)
                                                    226(v),379(v),380(v),163(g)
                                                    431(g),432(g),460(v),121(g)
                                                    354(v),408(v),459(v),139(g)
                                                    225(v),330(r),405(v),1052(r)
                                                    2(g),156(g),1048(v),328(r)
                                                    155(g),152(g),154(g),469(v)
                                                    409(v),381(v),231(v),138(g)
                                                    1060(v),164(g),434(g),382(v)
                                                    439(g),465(v),166(g),461(v)
                                                    227(v),406(v),335(r),1054(r)
                                                    232(v),1051(v),357(v),777(r)
                                                    329(r),446(g),140(g),159(g)
                                                    230(v),1053(r),1004(r)
                                                    440(g),365(v),362(v),474(v)
                                                    202(r),396(v),332(r),333(r)
                                                    361(v),1047(r),467(v),716(r)
                                                    1043(r),285(r),1096(r)
                                                    888(v),391(v),122(r),433(g)
                                                    1057(v),447(g),162(g),390(v)
                                                    327(r),887(v),338(r),124(r)
                                                    927(r),1065(v),421(v),389(v)
                                                    699(r),691(r),1040(v),410(v)
                                                    441(g),415(v),419(v),1049(v)
                                                    161(g),303(r),953(r),383(v)
                                                    831(r),790(r),368(v)
  1039. BD*(   1)Fe   1 - C  13          0.40612     0.24224  1034(g),1036(g),1037(g)
                                                    1038(g),5(g),1035(g),144(g)
                                                    137(g),355(v),153(g),148(g)
                                                    150(g),142(g),158(g),356(v)
                                                    149(g),147(g),225(v),145(g)
                                                    226(v),121(g),146(g),379(v)
                                                    407(r),380(v),156(g),432(v)
                                                    458(g),457(g),431(v),249(v)
                                                    405(r),459(g),357(v),382(v)
                                                    122(r),330(r),1058(g),231(v)
                                                    361(v),143(g),227(v),166(g)
                                                    250(v),328(r),120(g),252(v)
                                                    409(r),329(r),354(v),164(g)
                                                    232(v),434(v),251(v),1063(g)
                                                    408(r),381(v),469(g),362(v)
                                                    303(r),461(g),327(r),1040(v)
                                                    365(v),777(r),474(g),441(v)
                                                    230(v),163(g),390(v),277(r)
                                                    301(r),305(r),139(g),275(r)
                                                    460(g),433(v),159(g),2(g)
                                                    235(v),285(r),360(v),927(r)
                                                    465(g),1004(r),421(r),466(g)
                                                    196(r),790(r),953(r),197(r)
                                                    415(r),831(r),396(v),162(g)
                                                    1043(r),338(r),1047(r)
                                                    200(r),154(g),261(v),1096(r)
                                                    311(r),475(g),587(r),463(g)
                                                    783(r),169(r),439(v),717(v)
  1040. BD*(   1) P   2 - C   4          0.07816     0.21310   
  1041. BD*(   1) P   2 - C  14          0.08063     0.16284   
  1042. BD*(   1) P   2 - C  16          0.07001     0.16043   
  1043. BD*(   1) P   2 -Pd  30          0.16708     0.56376  1047(g),795(g),167(g),195(v)
                                                    796(g),783(g),786(g),753(v)
                                                    778(g),725(v),223(v),793(g)
                                                    353(r),790(g),788(g),587(r)
                                                    1088(g),483(v),171(g),174(g)
                                                    202(v),175(g),535(v),199(v)
                                                    639(r),777(g),203(v),756(v)
                                                    726(v),727(v),181(g),750(v)
                                                    755(v),209(v),758(v),251(r)
                                                    179(g),459(r),721(v),589(r)
                                                    724(v),913(r),509(r),207(v)
                                                    149(r),728(v),1019(r),749(v)
                                                    730(v),613(r),329(r),780(g)
                                                    1020(r),723(v),754(v),485(v)
                                                    897(r),751(v),137(r),782(g)
                                                    912(r),691(r),808(r),785(g)
                                                    512(r),201(v),616(r),752(v)
                                                    185(g),253(r),1004(r),966(r)
                                                    173(g),722(v),811(r),197(v)
                                                    597(r),1034(v),517(r),381(r)
                                                    461(r),716(r),930(r),618(r)
                                                    915(r),230(v),844(r),621(r)
                                                    933(r),514(r),1022(r),493(v)
                                                    640(r),487(v),1036(r),224(v)
                                                    540(v),547(v),1067(v),234(v)
                                                    237(v),184(g),213(v),536(v)
                                                    789(g),360(r),121(r),138(r)
                                                    653(r),357(r),591(r),548(v)
                                                    354(r),651(r),792(g),227(v)
                                                    218(v),588(r),596(r),484(v)
                                                    757(v)
  1044. BD*(   1) P   3 - C   9          0.07817     0.21312   
  1045. BD*(   1) P   3 - C  18          0.08064     0.16286   
  1046. BD*(   1) P   3 - C  20          0.07002     0.16044   
  1047. BD*(   1) P   3 -Pd  30          0.16708     0.56402  1043(g),795(g),195(g),167(v)
                                                    796(g),783(g),786(g),725(v)
                                                    778(g),753(v),353(v),793(g)
                                                    223(r),790(g),788(g),483(r)
                                                    1089(g),587(v),199(g),202(g)
                                                    203(g),174(v),639(v),171(v)
                                                    535(r),777(g),175(v),728(v)
                                                    754(v),755(v),209(g),722(v)
                                                    181(v),727(v),730(v),459(r)
                                                    207(g),251(r),749(v),485(r)
                                                    752(v),1020(r),613(r),179(v)
                                                    149(r),912(r),756(v),792(g)
                                                    1036(v),758(v),721(v),509(r)
                                                    780(g),329(r),913(r),751(v)
                                                    726(v),782(g),589(v),1004(r)
                                                    723(v),137(r),1019(r),785(g)
                                                    930(r),716(r),616(r),173(v)
                                                    512(r),724(v),461(r),897(r)
                                                    844(r),750(v),201(g),933(r)
                                                    169(v),493(r),621(r),381(r)
                                                    253(r),691(r),808(r),514(r)
                                                    1022(r),360(v),517(r),966(r)
                                                    185(v),811(r),618(r),915(r)
                                                    597(v),536(r),591(v),218(g)
                                                    354(v),644(v),651(v),364(v)
                                                    213(g),1078(v),367(v),212(g)
                                                    640(v),653(v),230(r),487(r)
                                                    227(r),224(r),547(r),357(v)
                                                    789(g),1034(r),484(r),548(r)
                                                    492(r),729(v),588(v),540(r)
  1048. BD*(   1) C   4 - C   5          0.03461     0.40262   
  1049. BD*(   1) C   4 - C   8          0.04709     0.39276   
  1050. BD*(   1) C   5 - C   6          0.02807     0.41608   
  1051. BD*(   1) C   5 - H  22          0.01838     0.40073   
  1052. BD*(   1) C   6 - C   7          0.03050     0.40720   
  1053. BD*(   1) C   6 - H  23          0.01493     0.38543   
  1054. BD*(   1) C   7 - C   8          0.03365     0.40461   
  1055. BD*(   1) C   7 - H  24          0.01501     0.38501   
  1056. BD*(   1) C   8 - H  25          0.01704     0.38610   
  1057. BD*(   1) C   9 - C  10          0.03936     0.40051   
  1058. BD*(   1) C   9 - C  13          0.03461     0.40263   
  1059. BD*(   1) C  10 - C  11          0.02862     0.41216   
  1060. BD*(   1) C  10 - H  26          0.01723     0.38604   
  1061. BD*(   1) C  11 - C  12          0.02639     0.41316   
  1062. BD*(   1) C  11 - H  39          0.01501     0.38501   
  1063. BD*(   1) C  12 - C  13          0.02071     0.42397   
  1064. BD*(   1) C  12 - H  40          0.01511     0.38538   
  1065. BD*(   1) C  13 - H  27          0.01839     0.40077   
  1066. BD*(   1) C  14 - C  15          0.02224     0.33013   
  1067. BD*(   1) C  14 - H  31          0.02826     0.36682   
  1068. BD*(   1) C  14 - C  32          0.01174     0.34908   
  1069. BD*(   1) C  15 - C  17          0.00899     0.34344   
  1070. BD*(   1) C  15 - H  35          0.01507     0.35950   
  1071. BD*(   1) C  15 - H  36          0.01906     0.35173   
  1072. BD*(   1) C  16 - C  17          0.02206     0.32011   
  1073. BD*(   1) C  16 - H  33          0.02341     0.34873   
  1074. BD*(   1) C  16 - C  34          0.00987     0.34141   
  1075. BD*(   1) C  17 - H  37          0.01351     0.35845   
  1076. BD*(   1) C  17 - H  38          0.01625     0.35983   
  1077. BD*(   1) C  18 - C  19          0.02224     0.33014   
  1078. BD*(   1) C  18 - H  47          0.02828     0.36681   
  1079. BD*(   1) C  18 - C  48          0.01174     0.34910   
  1080. BD*(   1) C  19 - C  21          0.00899     0.34343   
  1081. BD*(   1) C  19 - H  51          0.01507     0.35949   
  1082. BD*(   1) C  19 - H  52          0.01906     0.35175   
  1083. BD*(   1) C  20 - C  21          0.02207     0.32008   
  1084. BD*(   1) C  20 - H  49          0.02340     0.34872   
  1085. BD*(   1) C  20 - C  50          0.00986     0.34138   
  1086. BD*(   1) C  21 - H  53          0.01350     0.35844   
  1087. BD*(   1) C  21 - H  54          0.01624     0.35977   
  1088. BD*(   1)Cl  28 -Pd  30          0.19442     0.15308  1089(g),1043(g),1041(v)
                                                    793(g),167(v),786(g),796(g)
                                                    795(g),195(v),783(g),223(r)
                                                    725(g),1046(v),789(g)
                                                    1042(v),721(g),726(g)
                                                    1037(r),1045(v),353(r)
                                                    753(v),782(g),175(v),788(g)
                                                    1040(v),587(r),1094(r)
                                                    1067(r)
  1089. BD*(   1)Cl  29 -Pd  30          0.19443     0.15310  1088(g),1047(g),1045(v)
                                                    793(g),195(v),786(g),796(g)
                                                    795(g),167(v),783(g),353(r)
                                                    753(g),1042(v),789(g)
                                                    1046(v),749(g),754(g)
                                                    1041(v),223(r),725(v),782(g)
                                                    203(v),788(g),1044(v),483(r)
                                                    1099(r),1078(r)
  1090. BD*(   1) C  32 - H  41          0.00622     0.37258   
  1091. BD*(   1) C  32 - H  42          0.00953     0.37349   
  1092. BD*(   1) C  32 - H  43          0.00841     0.36882   
  1093. BD*(   1) C  34 - H  44          0.00684     0.37456   
  1094. BD*(   1) C  34 - H  45          0.01137     0.39216   
  1095. BD*(   1) C  34 - H  46          0.00967     0.37214   
  1096. BD*(   1) C  48 - H  55          0.00953     0.37351   
  1097. BD*(   1) C  48 - H  56          0.00841     0.36883   
  1098. BD*(   1) C  48 - H  57          0.00622     0.37262   
  1099. BD*(   1) C  50 - H  58          0.01138     0.39214   
  1100. BD*(   1) C  50 - H  59          0.00967     0.37216   
  1101. BD*(   1) C  50 - H  60          0.00684     0.37455   
       -------------------------------
              Total Lewis  292.46783  ( 97.4893%)
        Valence non-Lewis    7.10387  (  2.3680%)
        Rydberg non-Lewis    0.42830  (  0.1428%)
       -------------------------------
            Total unit  1  300.00000  (100.0000%)
           Charge unit  1    0.00000
 1\1\GINC-NC046\SP\RPBE1PBE\Gen\C22H32Cl2Fe1P2Pd1\MACKK4\05-Dec-2021\0\
 \# PBE1PBE gen pseudo=read int=(grid=ultrafine) empiricaldispersion=GD
 3BJ pop=nbo guess=read geom=check\\RR_Me_Ferrolane_1 title\\0,1\Fe,0,-
 0.0368124839,2.6182566425,0.0408270715\P,0,-1.7915291908,-0.2721492576
 ,0.0574114337\P,0,1.7806907594,-0.2328659825,0.0069120476\C,0,-1.55245
 24242,1.4397376859,-0.5230477628\C,0,-0.733596489,1.7855178503,-1.6656
 477432\C,0,-0.722749759,3.2126264397,-1.8037980633\C,0,-1.5433073585,3
 .7664505374,-0.7658828311\C,0,-2.0647273154,2.6832050971,0.0189814971\
 C,0,1.5042248991,1.4698317502,0.5976371325\C,0,1.9891657222,2.72743586
 78,0.0631223988\C,0,1.4442723969,3.7942709328,0.8544964708\C,0,0.63612
 24792,3.2163923612,1.8890345199\C,0,0.6781591362,1.7907208624,1.742298
 9275\C,0,-3.3158132495,-0.7834380001,-0.9175936742\C,0,-4.4634433445,-
 0.2235940441,-0.0560319139\C,0,-2.6784833394,-0.1163993121,1.714346055
 1\C,0,-4.1335823914,-0.5552578304,1.4075748774\C,0,3.3169216097,-0.715
 71281,0.9775524654\C,0,4.4507768989,-0.1244112767,0.1187991591\C,0,2.6
 6233018,-0.0480048097,-1.6498598653\C,0,4.1275499523,-0.4545831967,-1.
 346630659\H,0,-0.1776807732,1.0738332056,-2.2761892553\H,0,-0.14839465
 82,3.7776894651,-2.5386349444\H,0,-1.7016919361,4.8275354307,-0.569326
 006\H,0,-2.6947850456,2.790089306,0.9017816939\H,0,2.6166686881,2.8533
 388016,-0.8189906849\H,0,0.1379966429,1.0633450996,2.3484795827\Cl,0,-
 1.6487221488,-3.4189606212,0.2367615542\Cl,0,1.7073819019,-3.380659758
 7,-0.1885839714\Pd,0,0.0105707796,-1.7009951765,0.0286306592\H,0,-3.31
 12844996,-1.885024998,-0.8459939958\C,0,-3.3219100851,-0.3583481107,-2
 .384353859\H,0,-2.6580117502,0.9584867295,1.9695764197\C,0,-2.03178433
 03,-0.9213770806,2.8465105781\H,0,-5.4280254392,-0.663733208,-0.367907
 9923\H,0,-4.5443118595,0.8721818633,-0.1999620517\H,0,-4.8370635411,-0
 .080830229,2.114699953\H,0,-4.2014095145,-1.6486113289,1.5534260299\H,
 0,1.5793812061,4.8597325465,0.6643371778\H,0,0.049638385,3.7643365315,
 2.6272474811\H,0,-2.4636455251,-0.7867498407,-2.929923876\H,0,-3.29212
 41366,0.7391058855,-2.4961162444\H,0,-4.2419724501,-0.7250567779,-2.87
 2743062\H,0,-1.0107008503,-0.5719334499,3.076165297\H,0,-1.9635725362,
 -1.9866720943,2.5714774198\H,0,-2.6381416884,-0.8265705038,3.765362665
 2\H,0,3.3373014756,-1.8166546635,0.8989232819\C,0,3.31449169,-0.299971
 9808,2.4469969223\H,0,2.616523263,1.027373011,-1.8996557658\C,0,2.0333
 871819,-0.8621818347,-2.7854729593\H,0,5.4254337962,-0.5442219082,0.42
 7364158\H,0,4.5066173558,0.9720170978,0.2694436076\H,0,4.8192746716,0.
 0404206657,-2.0512401846\H,0,4.2207915153,-1.5451402229,-1.4992650473\
 H,0,3.2598340148,0.7957861977,2.565788244\H,0,4.243027691,-0.648753699
 5,2.9324687898\H,0,2.4665938198,-0.7512752519,2.9903018214\H,0,1.99038
 6311,-1.9301598333,-2.5157747678\H,0,2.6363032148,-0.7485774762,-3.704
 4581552\H,0,1.0041124751,-0.5356412952,-3.0122520572\\Version=ES64L-G0
 9RevE.01\State=1-A\HF=-2711.5138413\RMSD=5.271e-09\Dipole=-0.0499965,4
 .5436021,0.011521\Quadrupole=11.6642697,-17.4797575,5.8154879,0.333752
 1,-4.4077218,-0.1054042\PG=C01 [X(C22H32Cl2Fe1P2Pd1)]\\@


 IF IT HAPPENS, IT MUST BE POSSIBLE.

 -- THE UNNAMED LAW FROM PAUL DICKSON'S 
    "THE OFFICIAL RULES"
 Job cpu time:       0 days  0 hours 45 minutes 34.8 seconds.
 File lengths (MBytes):  RWF=    614 Int=      0 D2E=      0 Chk=     96 Scr=      1
 Normal termination of Gaussian 09 at Sun Dec  5 03:29:39 2021.
