 Entering Gaussian System, Link 0=g09
 Input=RR_Me_Ferrolane_2_SPE_NoPd.com
 Output=RR_Me_Ferrolane_2_SPE_NoPd.log
 Initial command:
 /gstore/apps/gaussian/g09.e01-foss-2017a/g09/l1.exe "/local/22791345/Gau-4910.inp" -scrdir="/local/22791345/"
 Entering Link 1 = /gstore/apps/gaussian/g09.e01-foss-2017a/g09/l1.exe PID=      4911.
  
 Copyright (c) 1988,1990,1992,1993,1995,1998,2003,2009,2015,
            Gaussian, Inc.  All Rights Reserved.
  
 This is part of the Gaussian(R) 09 program.  It is based on
 the Gaussian(R) 03 system (copyright 2003, Gaussian, Inc.),
 the Gaussian(R) 98 system (copyright 1998, Gaussian, Inc.),
 the Gaussian(R) 94 system (copyright 1995, Gaussian, Inc.),
 the Gaussian 92(TM) system (copyright 1992, Gaussian, Inc.),
 the Gaussian 90(TM) system (copyright 1990, Gaussian, Inc.),
 the Gaussian 88(TM) system (copyright 1988, Gaussian, Inc.),
 the Gaussian 86(TM) system (copyright 1986, Carnegie Mellon
 University), and the Gaussian 82(TM) system (copyright 1983,
 Carnegie Mellon University). Gaussian is a federally registered
 trademark of Gaussian, Inc.
  
 This software contains proprietary and confidential information,
 including trade secrets, belonging to Gaussian, Inc.
  
 This software is provided under written license and may be
 used, copied, transmitted, or stored only in accord with that
 written license.
  
 The following legend is applicable only to US Government
 contracts under FAR:
  
                    RESTRICTED RIGHTS LEGEND
  
 Use, reproduction and disclosure by the US Government is
 subject to restrictions as set forth in subparagraphs (a)
 and (c) of the Commercial Computer Software - Restricted
 Rights clause in FAR 52.227-19.
  
 Gaussian, Inc.
 340 Quinnipiac St., Bldg. 40, Wallingford CT 06492
  
  
 ---------------------------------------------------------------
 Warning -- This program may not be used in any manner that
 competes with the business of Gaussian, Inc. or will provide
 assistance to any competitor of Gaussian, Inc.  The licensee
 of this program is prohibited from giving any competitor of
 Gaussian, Inc. access to this program.  By using this program,
 the user acknowledges that Gaussian, Inc. is engaged in the
 business of creating and licensing software in the field of
 computational chemistry and represents and warrants to the
 licensee that it is not a competitor of Gaussian, Inc. and that
 it will not use this program in any manner prohibited above.
 ---------------------------------------------------------------
  

 Cite this work as:
 Gaussian 09, Revision E.01,
 M. J. Frisch, G. W. Trucks, H. B. Schlegel, G. E. Scuseria, 
 M. A. Robb, J. R. Cheeseman, G. Scalmani, V. Barone, B. Mennucci, 
 G. A. Petersson, H. Nakatsuji, M. Caricato, X. Li, H. P. Hratchian, 
 A. F. Izmaylov, J. Bloino, G. Zheng, J. L. Sonnenberg, M. Hada, 
 M. Ehara, K. Toyota, R. Fukuda, J. Hasegawa, M. Ishida, T. Nakajima, 
 Y. Honda, O. Kitao, H. Nakai, T. Vreven, J. A. Montgomery, Jr., 
 J. E. Peralta, F. Ogliaro, M. Bearpark, J. J. Heyd, E. Brothers, 
 K. N. Kudin, V. N. Staroverov, T. Keith, R. Kobayashi, J. Normand, 
 K. Raghavachari, A. Rendell, J. C. Burant, S. S. Iyengar, J. Tomasi, 
 M. Cossi, N. Rega, J. M. Millam, M. Klene, J. E. Knox, J. B. Cross, 
 V. Bakken, C. Adamo, J. Jaramillo, R. Gomperts, R. E. Stratmann, 
 O. Yazyev, A. J. Austin, R. Cammi, C. Pomelli, J. W. Ochterski, 
 R. L. Martin, K. Morokuma, V. G. Zakrzewski, G. A. Voth, 
 P. Salvador, J. J. Dannenberg, S. Dapprich, A. D. Daniels, 
 O. Farkas, J. B. Foresman, J. V. Ortiz, J. Cioslowski, 
 and D. J. Fox, Gaussian, Inc., Wallingford CT, 2013.
 
 ******************************************
 Gaussian 09:  ES64L-G09RevE.01 30-Nov-2015
                 5-Dec-2021 
 ******************************************
 %nprocs=14
 Will use up to   14 processors via shared memory.
 %mem=128GB
 %chk=RR_Me_Ferrolane_2_SPE_NoPd.chk
 ----------------------------------------------------------------------
 # PBE1PBE gen pseudo=read int=(grid=ultrafine) empiricaldispersion=GD3
 BJ nmr=giao
 ----------------------------------------------------------------------
 1/38=1/1;
 2/12=2,17=6,18=5,40=1/2;
 3/5=7,11=2,16=1,17=8,25=1,30=1,74=-13,75=-5,124=41/1,2,8,3;
 4//1;
 5/5=2,38=5/2;
 8/6=1,10=90,11=11/1;
 10/13=100,45=16/2;
 6/7=2,8=2,9=2,10=2,28=1/1;
 99/9=1/99;
 -----------------------
 RR_Me_Ferrolane_2 title
 -----------------------
 Symbolic Z-matrix:
 Charge =  0 Multiplicity = 1
 Fe                   -0.03362   2.61223   0.10655 
 P                    -1.81115  -0.26286   0.06658 
 P                     1.76656  -0.22791   0.09639 
 C                    -1.54727   1.44851  -0.50362 
 C                    -0.69056   1.78292  -1.62104 
 C                    -0.65815   3.20949  -1.75999 
 C                    -1.50285   3.77404  -0.74725 
 C                    -2.06029   2.69803   0.02234 
 C                     1.48441   1.4603    0.71636 
 C                     1.98952   2.71291   0.19018 
 C                     1.42673   3.7842    0.96213 
 C                     0.58509   3.2124    1.97354 
 C                     0.62717   1.78577   1.83445 
 C                    -3.28076  -0.78326  -0.98729 
 C                    -4.47835  -0.25352  -0.1755 
 C                    -2.78518  -0.10394   1.67497 
 C                    -4.20903  -0.5863    1.29972 
 C                     3.35636  -0.78084   0.96856 
 C                     4.32304  -1.04721  -0.20922 
 C                     2.54677   0.02625  -1.59908 
 C                     4.06518   0.00092  -1.30644 
 H                    -0.13161   1.0612   -2.21737 
 H                    -0.05636   3.7674   -2.47819 
 H                    -1.65437   4.83718  -0.55649 
 H                    -2.71464   2.81386   0.88602 
 H                     2.64607   2.82789  -0.67251 
 H                     0.0637    1.06132   2.42293 
 H                    -3.26291  -1.88534  -0.92873 
 C                    -3.22768  -0.33835  -2.44723 
 H                    -2.80941   0.97607   1.90706 
 C                    -2.18253  -0.86398   2.86069 
 H                    -5.41805  -0.71148  -0.53416 
 H                    -4.57507   0.84144  -0.31688 
 H                    -4.95828  -0.13697   1.97563 
 H                    -4.24893  -1.68209   1.43667 
 H                     1.57058   4.84872   0.77307 
 H                    -0.02179   3.7653    2.69126 
 H                    -2.33748  -0.74184  -2.95971 
 H                    -3.21514   0.76087  -2.54378 
 H                    -4.11715  -0.71615  -2.98173 
 H                    -1.18726  -0.4796    3.14117 
 H                    -2.07122  -1.93313   2.61759 
 H                    -2.84367  -0.76425   3.74048 
 H                     3.11064  -1.72637   1.47565 
 C                     3.89096   0.24339   1.97643 
 H                     2.22718   1.01922  -1.9605 
 C                     2.09661  -1.04738  -2.60017 
 H                     4.12499  -2.05877  -0.60273 
 H                     5.37117  -1.01946   0.14006 
 H                     4.39719   0.99721  -0.95785 
 H                     4.63149  -0.22529  -2.22805 
 H                     4.16052   1.2019    1.50029 
 H                     4.79883  -0.16434   2.45551 
 H                     3.15893   0.46195   2.77156 
 H                     2.33489  -2.06188  -2.24183 
 H                     2.59201  -0.8821   -3.57376 
 H                     1.00358  -1.0185   -2.75322 
 
 Stoichiometry    C22H32FeP2
 Framework group  C1[X(C22H32FeP2)]
 Deg. of freedom   165
 Full point group                 C1      NOp   1
 Largest Abelian subgroup         C1      NOp   1
 Largest concise Abelian subgroup C1      NOp   1
                         Standard orientation:                         
 ---------------------------------------------------------------------
 Center     Atomic      Atomic             Coordinates (Angstroms)
 Number     Number       Type             X           Y           Z
 ---------------------------------------------------------------------
      1         26           0       -0.012718    1.710191   -0.223501
      2         15           0       -1.808110   -1.122556    0.200152
      3         15           0        1.768985   -1.097404    0.276628
      4          6           0       -1.525235    0.465646   -0.649062
      5          6           0       -0.650894    0.601441   -1.794269
      6          6           0       -0.607306    1.983365   -2.173512
      7          6           0       -1.462355    2.715524   -1.284287
      8          6           0       -2.037419    1.788531   -0.351127
      9          6           0        1.489178    0.672841    0.595936
     10          6           0        2.009676    1.815515   -0.128238
     11          6           0        1.443137    3.004862    0.441669
     12          6           0        0.583810    2.617034    1.523050
     13          6           0        0.618569    1.187406    1.629465
     14          6           0       -3.266244   -1.808916   -0.771429
     15          6           0       -4.471567   -1.143869   -0.079514
     16          6           0       -2.803398   -0.688148    1.743393
     17          6           0       -4.224985   -1.221640    1.434654
     18          6           0        3.342870   -1.500110    1.253656
     19          6           0        4.324108   -1.967032    0.152877
     20          6           0        2.574368   -1.138813   -1.425605
     21          6           0        4.088356   -1.120036   -1.110445
     22          1           0       -0.088378   -0.213525   -2.250690
     23          1           0        0.008029    2.408400   -2.967202
     24          1           0       -1.609617    3.796216   -1.279546
     25          1           0       -2.702966    2.052380    0.470435
     26          1           0        2.678902    1.779265   -0.988080
     27          1           0        0.042278    0.576020    2.324254
     28          1           0       -3.256356   -2.884984   -0.525876
     29          6           0       -3.189951   -1.619333   -2.284847
     30          1           0       -2.823857    0.415701    1.787875
     31          6           0       -2.222259   -1.237576    3.049984
     32          1           0       -5.409128   -1.652439   -0.368875
     33          1           0       -4.559207   -0.088592   -0.406624
     34          1           0       -4.980650   -0.660768    2.013027
     35          1           0       -4.273889   -2.277932    1.755516
     36          1           0        1.596508    4.021058    0.076320
     37          1           0       -0.029411    3.286519    2.127104
     38          1           0       -2.295340   -2.107774   -2.707913
     39          1           0       -3.168946   -0.552676   -2.566898
     40          1           0       -4.074325   -2.079063   -2.760367
     41          1           0       -1.228524   -0.815046    3.275666
     42          1           0       -2.114515   -2.332953    2.994098
     43          1           0       -2.894937   -0.986831    3.890064
     44          1           0        3.083981   -2.344484    1.910597
     45          6           0        3.870005   -0.321367    2.080298
     46          1           0        2.266281   -0.220627   -1.955475
     47          6           0        2.131247   -2.365428   -2.235902
     48          1           0        4.125007   -3.030030   -0.065601
     49          1           0        5.367431   -1.884425    0.507834
     50          1           0        4.421924   -0.080278   -0.931647
     51          1           0        4.665965   -1.502160   -1.971599
     52          1           0        4.152373    0.540972    1.452000
     53          1           0        4.768452   -0.645192    2.635196
     54          1           0        3.128399    0.032346    2.815670
     55          1           0        2.357931   -3.305032   -1.706613
     56          1           0        2.641211   -2.370345   -3.215965
     57          1           0        1.040664   -2.358647   -2.407829
 ---------------------------------------------------------------------
 Rotational constants (GHZ):      0.2722156      0.1556638      0.1403045
 General basis read from cards:  (5D, 7F)
 ======================================================================================================
                                       Pseudopotential Parameters
 ======================================================================================================
  Center     Atomic      Valence      Angular      Power
  Number     Number     Electrons     Momentum     of R      Exponent        Coefficient   SO-Coeffient
 ======================================================================================================
    1         26           16
                                      F and up 
                                                     2        1.0000000        0.00000000    0.00000000
                                      S - F
                                                     2       20.9300000      253.74958800    0.00000000
                                                     2        9.4450000       37.92284500    0.00000000
                                      P - F
                                                     2       21.7600000      161.03681200    0.00000000
                                                     2        9.1780000       27.65129800    0.00000000
                                      D - F
                                                     2       25.9000000      -24.43127600    0.00000000
                                                     2        8.8350000       -1.43425100    0.00000000
    2         15
                                   No pseudopotential on this center.
    3         15
                                   No pseudopotential on this center.
    4          6
                                   No pseudopotential on this center.
    5          6
                                   No pseudopotential on this center.
    6          6
                                   No pseudopotential on this center.
    7          6
                                   No pseudopotential on this center.
    8          6
                                   No pseudopotential on this center.
    9          6
                                   No pseudopotential on this center.
   10          6
                                   No pseudopotential on this center.
   11          6
                                   No pseudopotential on this center.
   12          6
                                   No pseudopotential on this center.
   13          6
                                   No pseudopotential on this center.
   14          6
                                   No pseudopotential on this center.
   15          6
                                   No pseudopotential on this center.
   16          6
                                   No pseudopotential on this center.
   17          6
                                   No pseudopotential on this center.
   18          6
                                   No pseudopotential on this center.
   19          6
                                   No pseudopotential on this center.
   20          6
                                   No pseudopotential on this center.
   21          6
                                   No pseudopotential on this center.
   22          1
                                   No pseudopotential on this center.
   23          1
                                   No pseudopotential on this center.
   24          1
                                   No pseudopotential on this center.
   25          1
                                   No pseudopotential on this center.
   26          1
                                   No pseudopotential on this center.
   27          1
                                   No pseudopotential on this center.
   28          1
                                   No pseudopotential on this center.
   29          6
                                   No pseudopotential on this center.
   30          1
                                   No pseudopotential on this center.
   31          6
                                   No pseudopotential on this center.
   32          1
                                   No pseudopotential on this center.
   33          1
                                   No pseudopotential on this center.
   34          1
                                   No pseudopotential on this center.
   35          1
                                   No pseudopotential on this center.
   36          1
                                   No pseudopotential on this center.
   37          1
                                   No pseudopotential on this center.
   38          1
                                   No pseudopotential on this center.
   39          1
                                   No pseudopotential on this center.
   40          1
                                   No pseudopotential on this center.
   41          1
                                   No pseudopotential on this center.
   42          1
                                   No pseudopotential on this center.
   43          1
                                   No pseudopotential on this center.
   44          1
                                   No pseudopotential on this center.
   45          6
                                   No pseudopotential on this center.
   46          1
                                   No pseudopotential on this center.
   47          6
                                   No pseudopotential on this center.
   48          1
                                   No pseudopotential on this center.
   49          1
                                   No pseudopotential on this center.
   50          1
                                   No pseudopotential on this center.
   51          1
                                   No pseudopotential on this center.
   52          1
                                   No pseudopotential on this center.
   53          1
                                   No pseudopotential on this center.
   54          1
                                   No pseudopotential on this center.
   55          1
                                   No pseudopotential on this center.
   56          1
                                   No pseudopotential on this center.
   57          1
                                   No pseudopotential on this center.
 ======================================================================================================
 There are  1117 symmetry adapted cartesian basis functions of A   symmetry.
 There are   991 symmetry adapted basis functions of A   symmetry.
   991 basis functions,  1591 primitive gaussians,  1117 cartesian basis functions
   105 alpha electrons      105 beta electrons
       nuclear repulsion energy      3041.6445062752 Hartrees.
 NAtoms=   57 NActive=   57 NUniq=   57 SFac= 1.00D+00 NAtFMM=   60 NAOKFM=F Big=F
 Integral buffers will be    131072 words long.
 Raffenetti 2 integral format.
 Two-electron integral symmetry is turned on.
 Nuclear repulsion after empirical dispersion term =     3041.5648729515 Hartrees.
 One-electron integrals computed using PRISM.
   1 Symmetry operations used in ECPInt.
 ECPInt:  NShTT=   84666 NPrTT=  251649 LenC2=   74598 LenP2D=  156699.
 LDataN:  DoStor=T MaxTD1= 6 Len=  172
 NBasis=   991 RedAO= T EigKep=  1.49D-05  NBF=   991
 NBsUse=   991 1.00D-06 EigRej= -1.00D+00 NBFU=   991
 ExpMin= 1.00D-02 ExpMax= 5.24D+04 ExpMxC= 1.79D+03 IAcc=3 IRadAn=         5 AccDes= 0.00D+00
 Harris functional with IExCor= 1009 and IRadAn=       5 diagonalized for initial guess.
 HarFok:  IExCor= 1009 AccDes= 0.00D+00 IRadAn=         5 IDoV= 1 UseB2=F ITyADJ=14
 ICtDFT=  3500011 ScaDFX=  1.000000  1.000000  1.000000  1.000000
 FoFCou: FMM=F IPFlag=           0 FMFlag=      100000 FMFlg1=           0
         NFxFlg=           0 DoJE=T BraDBF=F KetDBF=T FulRan=T
         wScrn=  0.000000 ICntrl=     500 IOpCl=  0 I1Cent=   200000004 NGrid=           0
         NMat0=    1 NMatS0=      1 NMatT0=    0 NMatD0=    1 NMtDS0=    0 NMtDT0=    0
 Petite list used in FoFCou.
 Requested convergence on RMS density matrix=1.00D-08 within 128 cycles.
 Requested convergence on MAX density matrix=1.00D-06.
 Requested convergence on             energy=1.00D-06.
 No special actions if energy rises.
 SCF Done:  E(RPBE1PBE) =  -1663.30580342     A.U. after   19 cycles
            NFock= 19  Conv=0.24D-08     -V/T= 2.0368
 DoSCS=F DFT=T ScalE2(SS,OS)=  1.000000  1.000000
 Range of M.O.s used for correlation:     1   991
 NBasis=   991 NAE=   105 NBE=   105 NFC=     0 NFV=     0
 NROrb=    991 NOA=   105 NOB=   105 NVA=   886 NVB=   886

 **** Warning!!: The largest alpha MO coefficient is  0.38447893D+02

          Differentiating once with respect to magnetic field using GIAOs.
          Electric field/nuclear overlap derivatives assumed to be zero.
 FoFCou: FMM=F IPFlag=           0 FMFlag=      100000 FMFlg1=           0
         NFxFlg=           0 DoJE=F BraDBF=F KetDBF=T FulRan=T
         wScrn=  0.000000 ICntrl=    6100 IOpCl=  0 I1Cent=           7 NGrid=          57
         NMat0=    1 NMatS0=      1 NMatT0=    0 NMatD0=    1 NMtDS0=    0 NMtDT0=    0
 Symmetry not used in FoFCou.
   1 Symmetry operations used in ECPInt.
 ECPInt:  NShTT=   84666 NPrTT=  251649 LenC2=   84667 LenP2D=  251649.
 LDataN:  DoStor=T MaxTD1= 7 Len=  274
 FoFJK:  IHMeth= 1 ICntrl=    6127 DoSepK=F KAlg= 0 I1Cent=   0 FoldK=F
 IRaf=         1 NMat=   1 IRICut=       1 DoRegI=T DoRafI=F ISym2E= 0.
          There are     3 degrees of freedom in the 1st order CPHF.  IDoFFX=0 NUNeed=     3.
      3 vectors produced by pass  0 Test12= 3.10D-12 3.33D-08 XBig12= 8.40D+01 1.48D+00.
 AX will form     3 AO Fock derivatives at one time.
      3 vectors produced by pass  1 Test12= 3.10D-12 3.33D-08 XBig12= 8.77D-01 5.81D-01.
      3 vectors produced by pass  2 Test12= 3.10D-12 3.33D-08 XBig12= 2.71D-02 3.08D-02.
      3 vectors produced by pass  3 Test12= 3.10D-12 3.33D-08 XBig12= 2.30D-04 5.17D-03.
      3 vectors produced by pass  4 Test12= 3.10D-12 3.33D-08 XBig12= 1.23D-05 1.21D-03.
      3 vectors produced by pass  5 Test12= 3.10D-12 3.33D-08 XBig12= 1.14D-07 7.01D-05.
      3 vectors produced by pass  6 Test12= 3.10D-12 3.33D-08 XBig12= 5.39D-10 7.21D-06.
      3 vectors produced by pass  7 Test12= 3.10D-12 3.33D-08 XBig12= 8.32D-12 1.30D-06.
      2 vectors produced by pass  8 Test12= 3.10D-12 3.33D-08 XBig12= 1.75D-13 1.19D-07.
 InvSVY:  IOpt=1 It=  1 EMax= 3.55D-15
 Solved reduced A of dimension    26 with     3 vectors.
 Calculating GIAO nuclear magnetic shielding tensors.
 SCF GIAO Magnetic shielding tensor (ppm):
      1  Fe   Isotropic = -5892.1054   Anisotropy =  7921.9019
   XX= -3815.3246   YX=   654.0104   ZX=  3868.3738
   XY=   634.2385   YY= -8533.0812   ZY=   522.3262
   XZ=  3732.6522   YZ=   506.3337   ZZ= -5327.9105
   Eigenvalues: -8619.5224 -8445.9564  -610.8375
      2  P    Isotropic =   297.1043   Anisotropy =    60.3891
   XX=   316.2526   YX=    -1.0714   ZX=    12.6677
   XY=    13.8934   YY=   249.9903   ZY=    35.1148
   XZ=     7.0752   YZ=    10.1108   ZZ=   325.0699
   Eigenvalues:   243.5306   310.4185   337.3637
      3  P    Isotropic =   288.4278   Anisotropy =    79.4519
   XX=   309.5048   YX=   -22.4236   ZX=    27.8484
   XY=   -28.0580   YY=   226.1819   ZY=    -5.2822
   XZ=     6.3534   YZ=     0.7051   ZZ=   329.5967
   Eigenvalues:   219.0789   304.8088   341.3958
      4  C    Isotropic =   103.5982   Anisotropy =    89.5497
   XX=   119.8375   YX=   -16.2650   ZX=    43.7048
   XY=    -9.9066   YY=    65.2722   ZY=     6.6760
   XZ=    36.7307   YZ=     5.3332   ZZ=   125.6848
   Eigenvalues:    57.5643    89.9323   163.2980
      5  C    Isotropic =   104.0463   Anisotropy =    87.1742
   XX=   137.5590   YX=    13.1830   ZX=    37.8030
   XY=    19.1813   YY=    71.8553   ZY=   -24.9933
   XZ=    38.4759   YZ=   -35.2008   ZZ=   102.7248
   Eigenvalues:    40.7867   109.1899   162.1625
      6  C    Isotropic =   108.6317   Anisotropy =    88.0838
   XX=   140.6351   YX=     6.4660   ZX=    38.3985
   XY=     1.6592   YY=   106.3189   ZY=    18.5318
   XZ=    51.1166   YZ=    24.8477   ZZ=    78.9409
   Eigenvalues:    49.9534   108.5874   167.3542
      7  C    Isotropic =   110.3196   Anisotropy =    87.9221
   XX=   135.5295   YX=    38.3214   ZX=    24.2080
   XY=    25.6253   YY=    65.8804   ZY=    12.6030
   XZ=    22.6781   YZ=    24.0443   ZZ=   129.5489
   Eigenvalues:    52.3603   109.6641   168.9343
      8  C    Isotropic =   112.4947   Anisotropy =    83.5418
   XX=   100.6686   YX=    16.8796   ZX=    62.8105
   XY=    18.7807   YY=   113.2197   ZY=    -5.7363
   XZ=    45.2259   YZ=    -6.1507   ZZ=   123.5959
   Eigenvalues:    51.8359   117.4590   168.1893
      9  C    Isotropic =   103.0212   Anisotropy =    93.0542
   XX=   118.0015   YX=    27.0075   ZX=    39.5520
   XY=    19.2869   YY=    66.2766   ZY=    12.0624
   XZ=    34.3349   YZ=    14.3522   ZZ=   124.7855
   Eigenvalues:    57.4148    86.5915   165.0573
     10  C    Isotropic =   111.6638   Anisotropy =    81.7433
   XX=    98.0055   YX=     5.5739   ZX=    64.5169
   XY=    -2.0287   YY=   117.7085   ZY=     7.5816
   XZ=    47.2944   YZ=     3.5865   ZZ=   119.2773
   Eigenvalues:    51.6598   117.1722   166.1593
     11  C    Isotropic =   109.7034   Anisotropy =    88.1897
   XX=   134.5631   YX=   -28.8825   ZX=    36.4780
   XY=   -16.9903   YY=    61.3158   ZY=    11.3108
   XZ=    29.6973   YZ=     0.2379   ZZ=   133.2311
   Eigenvalues:    51.7026   108.9110   168.4965
     12  C    Isotropic =   108.7248   Anisotropy =    88.3594
   XX=   140.6840   YX=     6.5345   ZX=    38.3343
   XY=    15.1213   YY=    89.7975   ZY=   -22.3635
   XZ=    49.2265   YZ=   -28.2428   ZZ=    95.6930
   Eigenvalues:    50.1774   108.3660   167.6311
     13  C    Isotropic =   104.7905   Anisotropy =    84.0620
   XX=   136.9220   YX=    -1.2396   ZX=    38.4252
   XY=    -7.1563   YY=    95.7880   ZY=    28.7490
   XZ=    42.5695   YZ=    37.6338   ZZ=    81.6616
   Eigenvalues:    41.7261   111.8137   160.8319
     14  C    Isotropic =   145.2873   Anisotropy =    22.1921
   XX=   156.3211   YX=     3.4717   ZX=   -12.1044
   XY=     1.5187   YY=   129.6615   ZY=     6.8696
   XZ=    -0.2803   YZ=     0.4529   ZZ=   149.8794
   Eigenvalues:   128.5459   147.2341   160.0820
     15  C    Isotropic =   146.2304   Anisotropy =    31.5939
   XX=   157.6485   YX=    -2.2432   ZX=    -9.4437
   XY=   -12.6124   YY=   117.8434   ZY=     2.8349
   XZ=     0.9108   YZ=    10.2385   ZZ=   163.1993
   Eigenvalues:   115.8132   155.5849   167.2930
     16  C    Isotropic =   148.1356   Anisotropy =    27.2563
   XX=   165.6546   YX=     2.6655   ZX=     3.9634
   XY=     7.0324   YY=   124.1137   ZY=     9.8697
   XZ=    -7.5840   YZ=     4.3136   ZZ=   154.6383
   Eigenvalues:   121.9454   156.1548   166.3065
     17  C    Isotropic =   145.5771   Anisotropy =    33.1707
   XX=   156.3065   YX=     8.0329   ZX=    12.9574
   XY=    13.6502   YY=   118.0000   ZY=    -6.1961
   XZ=     1.4400   YZ=     3.0908   ZZ=   162.4246
   Eigenvalues:   114.9056   154.1348   167.6909
     18  C    Isotropic =   149.6781   Anisotropy =    22.8445
   XX=   162.1303   YX=    -8.9925   ZX=    -1.4463
   XY=   -11.2937   YY=   127.5406   ZY=     6.6743
   XZ=     2.5278   YZ=    -5.3841   ZZ=   159.3633
   Eigenvalues:   124.7688   159.3577   164.9078
     19  C    Isotropic =   148.2060   Anisotropy =    38.1542
   XX=   157.4035   YX=   -13.8595   ZX=   -10.4478
   XY=   -28.5550   YY=   122.9478   ZY=   -11.8533
   XZ=    -9.8915   YZ=     1.9212   ZZ=   164.2667
   Eigenvalues:   111.3458   159.6301   173.6421
     20  C    Isotropic =   148.1325   Anisotropy =    21.9277
   XX=   159.0156   YX=    -9.8825   ZX=    -3.6787
   XY=    -2.4852   YY=   131.6057   ZY=     1.2560
   XZ=    -6.2556   YZ=    -3.6245   ZZ=   153.7762
   Eigenvalues:   130.0644   151.5822   162.7510
     21  C    Isotropic =   149.2569   Anisotropy =    34.3525
   XX=   171.6073   YX=    -4.6753   ZX=    -3.3931
   XY=    -4.9312   YY=   124.3291   ZY=   -11.6945
   XZ=     4.6441   YZ=     0.9330   ZZ=   151.8344
   Eigenvalues:   122.8783   152.7339   172.1586
     22  H    Isotropic =    27.5093   Anisotropy =     5.7391
   XX=    29.5149   YX=    -1.8484   ZX=    -1.3858
   XY=    -2.6995   YY=    27.1092   ZY=     0.2338
   XZ=    -1.7226   YZ=     0.6534   ZZ=    25.9037
   Eigenvalues:    25.1671    26.0254    31.3354
     23  H    Isotropic =    27.4028   Anisotropy =     7.4426
   XX=    25.7344   YX=     0.3971   ZX=    -2.1899
   XY=     0.6035   YY=    27.3481   ZY=    -3.2327
   XZ=    -2.8090   YZ=    -3.1527   ZZ=    29.1260
   Eigenvalues:    23.8711    25.9728    32.3646
     24  H    Isotropic =    27.4451   Anisotropy =     8.5734
   XX=    25.0129   YX=    -1.7843   ZX=    -0.3726
   XY=    -1.5609   YY=    32.6178   ZY=    -1.2712
   XZ=    -0.3907   YZ=    -1.4808   ZZ=    24.7046
   Eigenvalues:    23.9340    25.2406    33.1607
     25  H    Isotropic =    27.6986   Anisotropy =     3.9331
   XX=    26.8707   YX=    -0.5430   ZX=    -3.8875
   XY=    -0.9321   YY=    29.8281   ZY=    -0.3503
   XZ=    -3.1386   YZ=    -0.4706   ZZ=    26.3969
   Eigenvalues:    23.0179    29.7572    30.3207
     26  H    Isotropic =    27.7413   Anisotropy =     3.5970
   XX=    26.8982   YX=    -0.5992   ZX=    -3.6608
   XY=    -0.1901   YY=    30.0909   ZY=    -0.6187
   XZ=    -3.0055   YZ=    -0.1663   ZZ=    26.2348
   Eigenvalues:    23.1723    29.9124    30.1393
     27  H    Isotropic =    27.4609   Anisotropy =     6.5071
   XX=    28.7619   YX=     1.9370   ZX=    -2.4256
   XY=     2.5390   YY=    26.5724   ZY=    -0.5385
   XZ=    -3.1056   YZ=    -1.0372   ZZ=    27.0483
   Eigenvalues:    24.5918    25.9918    31.7989
     28  H    Isotropic =    29.7492   Anisotropy =     8.6098
   XX=    26.8634   YX=     2.3861   ZX=     0.2896
   XY=     1.1291   YY=    35.0897   ZY=     1.0788
   XZ=    -0.1841   YZ=     0.0630   ZZ=    27.2946
   Eigenvalues:    26.4985    27.2602    35.4891
     29  C    Isotropic =   169.7842   Anisotropy =    19.3626
   XX=   160.4630   YX=    -0.8633   ZX=    -1.1596
   XY=     2.6403   YY=   166.9117   ZY=     3.8952
   XZ=    -3.5955   YZ=     1.6796   ZZ=   181.9780
   Eigenvalues:   159.9904   166.6696   182.6926
     30  H    Isotropic =    28.8240   Anisotropy =     5.4204
   XX=    26.2743   YX=     1.1544   ZX=    -2.6930
   XY=     1.0456   YY=    32.1582   ZY=     0.1948
   XZ=    -1.6342   YZ=    -0.5224   ZZ=    28.0396
   Eigenvalues:    24.7279    29.3065    32.4376
     31  C    Isotropic =   163.5515   Anisotropy =    27.2886
   XX=   158.0810   YX=     0.2848   ZX=     6.3656
   XY=    -1.2573   YY=   156.5399   ZY=    -8.4601
   XZ=    10.5132   YZ=    -7.6898   ZZ=   176.0335
   Eigenvalues:   152.0291   156.8814   181.7439
     32  H    Isotropic =    29.6931   Anisotropy =    12.1083
   XX=    36.4256   YX=     3.8859   ZX=     1.6294
   XY=     2.6032   YY=    25.1284   ZY=     1.0032
   XZ=     2.1083   YZ=     2.0234   ZZ=    27.5253
   Eigenvalues:    23.9625    27.3515    37.7653
     33  H    Isotropic =    30.1254   Anisotropy =     5.2301
   XX=    32.2437   YX=    -1.1525   ZX=    -0.0629
   XY=    -1.8364   YY=    30.7260   ZY=    -2.0583
   XZ=     1.7937   YZ=    -1.3788   ZZ=    27.4065
   Eigenvalues:    26.6680    30.0961    33.6121
     34  H    Isotropic =    29.1997   Anisotropy =    10.7605
   XX=    33.3141   YX=    -1.4599   ZX=    -4.5456
   XY=    -1.0058   YY=    25.1564   ZY=     1.1791
   XZ=    -4.0475   YZ=     2.5628   ZZ=    29.1287
   Eigenvalues:    24.3779    26.8479    36.3734
     35  H    Isotropic =    30.2591   Anisotropy =     9.0860
   XX=    29.5192   YX=     4.3813   ZX=    -1.4168
   XY=     4.0594   YY=    31.1307   ZY=    -3.8200
   XZ=    -0.3073   YZ=    -3.0082   ZZ=    30.1273
   Eigenvalues:    25.3990    29.0617    36.3164
     36  H    Isotropic =    27.4345   Anisotropy =     8.4958
   XX=    25.0675   YX=     1.5142   ZX=    -0.9218
   XY=     1.3158   YY=    32.5846   ZY=    -1.4036
   XZ=    -0.8919   YZ=    -1.2478   ZZ=    24.6514
   Eigenvalues:    23.9254    25.2797    33.0984
     37  H    Isotropic =    27.4101   Anisotropy =     7.5514
   XX=    25.7834   YX=    -1.1141   ZX=    -1.9769
   XY=    -1.5400   YY=    29.4580   ZY=     3.1159
   XZ=    -2.3882   YZ=     3.1985   ZZ=    26.9889
   Eigenvalues:    23.8961    25.8898    32.4443
     38  H    Isotropic =    30.3664   Anisotropy =     9.1513
   XX=    31.2384   YX=    -0.1468   ZX=    -2.2357
   XY=    -1.4755   YY=    27.7880   ZY=     3.6836
   XZ=    -3.2130   YZ=     5.5600   ZZ=    32.0728
   Eigenvalues:    24.7302    29.9017    36.4672
     39  H    Isotropic =    31.3078   Anisotropy =     6.1718
   XX=    29.7522   YX=     4.7541   ZX=     3.0939
   XY=     2.5883   YY=    32.3587   ZY=    -1.6850
   XZ=     3.2509   YZ=    -0.1781   ZZ=    31.8123
   Eigenvalues:    25.5624    32.9385    35.4223
     40  H    Isotropic =    30.4921   Anisotropy =    12.6899
   XX=    31.3811   YX=     4.3072   ZX=     4.0251
   XY=     3.4823   YY=    27.4112   ZY=     2.9689
   XZ=     5.0366   YZ=     4.0176   ZZ=    32.6839
   Eigenvalues:    24.9333    27.5908    38.9520
     41  H    Isotropic =    29.5944   Anisotropy =     7.2294
   XX=    32.6948   YX=     3.1266   ZX=     1.7204
   XY=     2.8203   YY=    25.4828   ZY=    -1.2113
   XZ=     2.2978   YZ=    -1.0335   ZZ=    30.6055
   Eigenvalues:    23.9463    30.4227    34.4140
     42  H    Isotropic =    30.2100   Anisotropy =     7.9422
   XX=    27.5050   YX=    -1.3147   ZX=     0.1261
   XY=    -1.2063   YY=    33.4965   ZY=    -2.9312
   XZ=     0.3701   YZ=    -3.5084   ZZ=    29.6283
   Eigenvalues:    27.0942    28.0309    35.5047
     43  H    Isotropic =    29.9454   Anisotropy =    11.2941
   XX=    28.1343   YX=    -0.8043   ZX=    -2.7098
   XY=    -0.3704   YY=    25.3157   ZY=    -0.1416
   XZ=    -3.6350   YZ=     0.4790   ZZ=    36.3862
   Eigenvalues:    25.1722    27.1892    37.4748
     44  H    Isotropic =    29.1977   Anisotropy =     9.0857
   XX=    26.9927   YX=     0.1081   ZX=    -0.4238
   XY=     0.7753   YY=    30.9319   ZY=    -4.4064
   XZ=    -0.7896   YZ=    -5.2911   ZZ=    29.6685
   Eigenvalues:    25.3929    26.9453    35.2548
     45  C    Isotropic =   167.0040   Anisotropy =    19.5093
   XX=   172.6666   YX=     2.0437   ZX=     9.2044
   XY=    -3.5880   YY=   164.3875   ZY=    12.3603
   XZ=     7.6864   YZ=     9.2683   ZZ=   163.9578
   Eigenvalues:   151.2222   169.7796   180.0102
     46  H    Isotropic =    28.6050   Anisotropy =     7.0662
   XX=    26.9815   YX=    -3.5997   ZX=     0.4968
   XY=    -3.0479   YY=    31.2825   ZY=    -1.3408
   XZ=     0.4188   YZ=    -0.7541   ZZ=    27.5510
   Eigenvalues:    25.1689    27.3303    33.3158
     47  C    Isotropic =   164.5235   Anisotropy =    33.6977
   XX=   162.4358   YX=     2.7322   ZX=    -5.4194
   XY=     7.5236   YY=   161.9720   ZY=    23.1489
   XZ=    -5.4753   YZ=    19.0220   ZZ=   169.1627
   Eigenvalues:   141.5330   165.0489   186.9886
     48  H    Isotropic =    29.3464   Anisotropy =     9.9939
   XX=    26.5488   YX=    -3.7698   ZX=    -0.1315
   XY=    -3.5771   YY=    34.4617   ZY=     0.7411
   XZ=    -0.0509   YZ=     1.2713   ZZ=    27.0287
   Eigenvalues:    25.0638    26.9664    36.0090
     49  H    Isotropic =    29.8077   Anisotropy =    11.8531
   XX=    35.9263   YX=    -3.4030   ZX=     2.1132
   XY=    -4.6021   YY=    25.5301   ZY=    -0.4756
   XZ=     1.7625   YZ=    -0.7088   ZZ=    27.9666
   Eigenvalues:    24.1665    27.5468    37.7097
     50  H    Isotropic =    29.4015   Anisotropy =     7.3375
   XX=    31.3023   YX=     2.6932   ZX=    -1.7774
   XY=     3.0177   YY=    31.1045   ZY=    -1.2046
   XZ=    -0.0479   YZ=    -0.9516   ZZ=    25.7978
   Eigenvalues:    25.5583    28.3531    34.2932
     51  H    Isotropic =    29.8308   Anisotropy =    11.2057
   XX=    32.6394   YX=    -1.8911   ZX=    -5.5911
   XY=    -0.8311   YY=    25.0231   ZY=     0.9614
   XZ=    -4.1058   YZ=     0.7220   ZZ=    31.8300
   Eigenvalues:    24.7872    27.4040    37.3013
     52  H    Isotropic =    30.9449   Anisotropy =     4.2635
   XX=    32.1959   YX=     0.2981   ZX=     1.6203
   XY=     1.9773   YY=    32.3621   ZY=    -1.0055
   XZ=     4.0104   YZ=    -1.8816   ZZ=    28.2767
   Eigenvalues:    26.2692    32.7782    33.7872
     53  H    Isotropic =    30.8153   Anisotropy =    13.2347
   XX=    33.7461   YX=    -2.2937   ZX=     6.3868
   XY=    -0.1929   YY=    26.8921   ZY=     0.6251
   XZ=     7.0932   YZ=    -0.2400   ZZ=    31.8077
   Eigenvalues:    25.3512    27.4562    39.6385
     54  H    Isotropic =    31.0219   Anisotropy =     6.6564
   XX=    31.6271   YX=    -4.2537   ZX=     1.1494
   XY=    -3.0823   YY=    26.9774   ZY=     3.9927
   XZ=     0.7023   YZ=     1.7043   ZZ=    34.4612
   Eigenvalues:    24.1198    33.4864    35.4595
     55  H    Isotropic =    30.1453   Anisotropy =     7.7494
   XX=    27.2607   YX=    -0.3453   ZX=     0.8904
   XY=    -0.2179   YY=    35.1972   ZY=     0.7417
   XZ=     1.2212   YZ=     1.0663   ZZ=    27.9779
   Eigenvalues:    26.4381    28.6862    35.3116
     56  H    Isotropic =    30.2657   Anisotropy =    12.0270
   XX=    27.4836   YX=     0.1452   ZX=    -2.6711
   XY=    -0.8944   YY=    27.2791   ZY=     4.7143
   XZ=    -3.1365   YZ=     3.1199   ZZ=    36.0343
   Eigenvalues:    25.4395    27.0738    38.2837
     57  H    Isotropic =    29.7871   Anisotropy =     7.8846
   XX=    34.4218   YX=     0.1074   ZX=     1.5803
   XY=     1.2999   YY=    27.6338   ZY=     3.5474
   XZ=     1.4360   YZ=     3.4263   ZZ=    27.3056
   Eigenvalues:    23.9429    30.3749    35.0434
 End of Minotr F.D. properties file   721 does not exist.
 End of Minotr F.D. properties file   722 does not exist.
 End of Minotr F.D. properties file   788 does not exist.

 **********************************************************************

            Population analysis using the SCF density.

 **********************************************************************

 Orbital symmetries:
       Occupied  (A) (A) (A) (A) (A) (A) (A) (A) (A) (A) (A) (A)
                 (A) (A) (A) (A) (A) (A) (A) (A) (A) (A) (A) (A)
                 (A) (A) (A) (A) (A) (A) (A) (A) (A) (A) (A) (A)
                 (A) (A) (A) (A) (A) (A) (A) (A) (A) (A) (A) (A)
                 (A) (A) (A) (A) (A) (A) (A) (A) (A) (A) (A) (A)
                 (A) (A) (A) (A) (A) (A) (A) (A) (A) (A) (A) (A)
                 (A) (A) (A) (A) (A) (A) (A) (A) (A) (A) (A) (A)
                 (A) (A) (A) (A) (A) (A) (A) (A) (A) (A) (A) (A)
                 (A) (A) (A) (A) (A) (A) (A) (A) (A)
       Virtual   (A) (A) (A) (A) (A) (A) (A) (A) (A) (A) (A) (A)
                 (A) (A) (A) (A) (A) (A) (A) (A) (A) (A) (A) (A)
                 (A) (A) (A) (A) (A) (A) (A) (A) (A) (A) (A) (A)
                 (A) (A) (A) (A) (A) (A) (A) (A) (A) (A) (A) (A)
                 (A) (A) (A) (A) (A) (A) (A) (A) (A) (A) (A) (A)
                 (A) (A) (A) (A) (A) (A) (A) (A) (A) (A) (A) (A)
                 (A) (A) (A) (A) (A) (A) (A) (A) (A) (A) (A) (A)
                 (A) (A) (A) (A) (A) (A) (A) (A) (A) (A) (A) (A)
                 (A) (A) (A) (A) (A) (A) (A) (A) (A) (A) (A) (A)
                 (A) (A) (A) (A) (A) (A) (A) (A) (A) (A) (A) (A)
                 (A) (A) (A) (A) (A) (A) (A) (A) (A) (A) (A) (A)
                 (A) (A) (A) (A) (A) (A) (A) (A) (A) (A) (A) (A)
                 (A) (A) (A) (A) (A) (A) (A) (A) (A) (A) (A) (A)
                 (A) (A) (A) (A) (A) (A) (A) (A) (A) (A) (A) (A)
                 (A) (A) (A) (A) (A) (A) (A) (A) (A) (A) (A) (A)
                 (A) (A) (A) (A) (A) (A) (A) (A) (A) (A) (A) (A)
                 (A) (A) (A) (A) (A) (A) (A) (A) (A) (A) (A) (A)
                 (A) (A) (A) (A) (A) (A) (A) (A) (A) (A) (A) (A)
                 (A) (A) (A) (A) (A) (A) (A) (A) (A) (A) (A) (A)
                 (A) (A) (A) (A) (A) (A) (A) (A) (A) (A) (A) (A)
                 (A) (A) (A) (A) (A) (A) (A) (A) (A) (A) (A) (A)
                 (A) (A) (A) (A) (A) (A) (A) (A) (A) (A) (A) (A)
                 (A) (A) (A) (A) (A) (A) (A) (A) (A) (A) (A) (A)
                 (A) (A) (A) (A) (A) (A) (A) (A) (A) (A) (A) (A)
                 (A) (A) (A) (A) (A) (A) (A) (A) (A) (A) (A) (A)
                 (A) (A) (A) (A) (A) (A) (A) (A) (A) (A) (A) (A)
                 (A) (A) (A) (A) (A) (A) (A) (A) (A) (A) (A) (A)
                 (A) (A) (A) (A) (A) (A) (A) (A) (A) (A) (A) (A)
                 (A) (A) (A) (A) (A) (A) (A) (A) (A) (A) (A) (A)
                 (A) (A) (A) (A) (A) (A) (A) (A) (A) (A) (A) (A)
                 (A) (A) (A) (A) (A) (A) (A) (A) (A) (A) (A) (A)
                 (A) (A) (A) (A) (A) (A) (A) (A) (A) (A) (A) (A)
                 (A) (A) (A) (A) (A) (A) (A) (A) (A) (A) (A) (A)
                 (A) (A) (A) (A) (A) (A) (A) (A) (A) (A) (A) (A)
                 (A) (A) (A) (A) (A) (A) (A) (A) (A) (A) (A) (A)
                 (A) (A) (A) (A) (A) (A) (A) (A) (A) (A) (A) (A)
                 (A) (A) (A) (A) (A) (A) (A) (A) (A) (A) (A) (A)
                 (A) (A) (A) (A) (A) (A) (A) (A) (A) (A) (A) (A)
                 (A) (A) (A) (A) (A) (A) (A) (A) (A) (A) (A) (A)
                 (A) (A) (A) (A) (A) (A) (A) (A) (A) (A) (A) (A)
                 (A) (A) (A) (A) (A) (A) (A) (A) (A) (A) (A) (A)
                 (A) (A) (A) (A) (A) (A) (A) (A) (A) (A) (A) (A)
                 (A) (A) (A) (A) (A) (A) (A) (A) (A) (A) (A) (A)
                 (A) (A) (A) (A) (A) (A) (A) (A) (A) (A) (A) (A)
                 (A) (A) (A) (A) (A) (A) (A) (A) (A) (A) (A) (A)
                 (A) (A) (A) (A) (A) (A) (A) (A) (A) (A) (A) (A)
                 (A) (A) (A) (A) (A) (A) (A) (A) (A) (A) (A) (A)
                 (A) (A) (A) (A) (A) (A) (A) (A) (A) (A) (A) (A)
                 (A) (A) (A) (A) (A) (A) (A) (A) (A) (A) (A) (A)
                 (A) (A) (A) (A) (A) (A) (A) (A) (A) (A) (A) (A)
                 (A) (A) (A) (A) (A) (A) (A) (A) (A) (A) (A) (A)
                 (A) (A) (A) (A) (A) (A) (A) (A) (A) (A) (A) (A)
                 (A) (A) (A) (A) (A) (A) (A) (A) (A) (A) (A) (A)
                 (A) (A) (A) (A) (A) (A) (A) (A) (A) (A) (A) (A)
                 (A) (A) (A) (A) (A) (A) (A) (A) (A) (A) (A) (A)
                 (A) (A) (A) (A) (A) (A) (A) (A) (A) (A) (A) (A)
                 (A) (A) (A) (A) (A) (A) (A) (A) (A) (A) (A) (A)
                 (A) (A) (A) (A) (A) (A) (A) (A) (A) (A) (A) (A)
                 (A) (A) (A) (A) (A) (A) (A) (A) (A) (A) (A) (A)
                 (A) (A) (A) (A) (A) (A) (A) (A) (A) (A) (A) (A)
                 (A) (A) (A) (A) (A) (A) (A) (A) (A) (A) (A) (A)
                 (A) (A) (A) (A) (A) (A) (A) (A) (A) (A) (A) (A)
                 (A) (A) (A) (A) (A) (A) (A) (A) (A) (A) (A) (A)
                 (A) (A) (A) (A) (A) (A) (A) (A) (A) (A) (A) (A)
                 (A) (A) (A) (A) (A) (A) (A) (A) (A) (A) (A) (A)
                 (A) (A) (A) (A) (A) (A) (A) (A) (A) (A) (A) (A)
                 (A) (A) (A) (A) (A) (A) (A) (A) (A) (A) (A) (A)
                 (A) (A) (A) (A) (A) (A) (A) (A) (A) (A) (A) (A)
                 (A) (A) (A) (A) (A) (A) (A) (A) (A) (A) (A) (A)
                 (A) (A) (A) (A) (A) (A) (A) (A) (A) (A) (A) (A)
                 (A) (A) (A) (A) (A) (A) (A) (A) (A) (A) (A) (A)
                 (A) (A) (A) (A) (A) (A) (A) (A) (A) (A) (A) (A)
                 (A) (A) (A) (A) (A) (A) (A) (A) (A) (A) (A) (A)
                 (A) (A) (A) (A) (A) (A) (A) (A) (A) (A)
 The electronic state is 1-A.
 Alpha  occ. eigenvalues --  -77.17801 -77.17669 -10.23828 -10.23806 -10.23803
 Alpha  occ. eigenvalues --  -10.23759 -10.23746 -10.23732 -10.23619 -10.23608
 Alpha  occ. eigenvalues --  -10.23596 -10.23504 -10.22987 -10.22843 -10.22426
 Alpha  occ. eigenvalues --  -10.22319 -10.22098 -10.21998 -10.21847 -10.21755
 Alpha  occ. eigenvalues --  -10.21389 -10.21272 -10.20993 -10.20662  -6.57457
 Alpha  occ. eigenvalues --   -6.57328  -4.71060  -4.71004  -4.70927  -4.70886
 Alpha  occ. eigenvalues --   -4.70579  -4.70441  -3.60104  -2.24679  -2.20405
 Alpha  occ. eigenvalues --   -2.20398  -0.91575  -0.89563  -0.84609  -0.84509
 Alpha  occ. eigenvalues --   -0.78279  -0.77894  -0.74332  -0.74133  -0.73311
 Alpha  occ. eigenvalues --   -0.73270  -0.72738  -0.72196  -0.66160  -0.65270
 Alpha  occ. eigenvalues --   -0.65206  -0.65104  -0.57942  -0.57328  -0.56538
 Alpha  occ. eigenvalues --   -0.56407  -0.55548  -0.55448  -0.55253  -0.54113
 Alpha  occ. eigenvalues --   -0.50360  -0.49650  -0.48307  -0.47449  -0.46181
 Alpha  occ. eigenvalues --   -0.45827  -0.43937  -0.43873  -0.42808  -0.42524
 Alpha  occ. eigenvalues --   -0.42278  -0.42039  -0.41677  -0.41283  -0.40803
 Alpha  occ. eigenvalues --   -0.40645  -0.40190  -0.39763  -0.39517  -0.39468
 Alpha  occ. eigenvalues --   -0.39292  -0.38971  -0.37550  -0.37028  -0.36780
 Alpha  occ. eigenvalues --   -0.36550  -0.34053  -0.33697  -0.33664  -0.33353
 Alpha  occ. eigenvalues --   -0.33303  -0.33037  -0.32447  -0.32100  -0.30505
 Alpha  occ. eigenvalues --   -0.30127  -0.28336  -0.27940  -0.26813  -0.26543
 Alpha  occ. eigenvalues --   -0.25033  -0.22385  -0.22379  -0.22167  -0.18710
 Alpha virt. eigenvalues --   -0.00417   0.00166   0.00244   0.01873   0.02276
 Alpha virt. eigenvalues --    0.02379   0.03255   0.04123   0.04835   0.04968
 Alpha virt. eigenvalues --    0.05470   0.05792   0.06271   0.06357   0.06988
 Alpha virt. eigenvalues --    0.07447   0.07682   0.08051   0.08388   0.08803
 Alpha virt. eigenvalues --    0.09107   0.09405   0.09563   0.10553   0.10730
 Alpha virt. eigenvalues --    0.10942   0.11082   0.11268   0.12177   0.12300
 Alpha virt. eigenvalues --    0.12655   0.13116   0.13464   0.14130   0.14418
 Alpha virt. eigenvalues --    0.14506   0.14776   0.14912   0.15070   0.15184
 Alpha virt. eigenvalues --    0.15732   0.15862   0.16158   0.16610   0.17009
 Alpha virt. eigenvalues --    0.17116   0.17752   0.18193   0.18317   0.18777
 Alpha virt. eigenvalues --    0.18950   0.19202   0.19711   0.20015   0.20050
 Alpha virt. eigenvalues --    0.20522   0.21061   0.21092   0.21426   0.21923
 Alpha virt. eigenvalues --    0.22350   0.22585   0.22806   0.23580   0.23768
 Alpha virt. eigenvalues --    0.23939   0.24216   0.24527   0.24902   0.25712
 Alpha virt. eigenvalues --    0.25978   0.26168   0.26381   0.26752   0.27457
 Alpha virt. eigenvalues --    0.27655   0.28404   0.28654   0.28959   0.29186
 Alpha virt. eigenvalues --    0.29367   0.30432   0.30859   0.31020   0.31315
 Alpha virt. eigenvalues --    0.31545   0.31966   0.32552   0.32986   0.33344
 Alpha virt. eigenvalues --    0.33564   0.33921   0.34301   0.35217   0.35628
 Alpha virt. eigenvalues --    0.36205   0.36746   0.37070   0.37296   0.37799
 Alpha virt. eigenvalues --    0.38096   0.38535   0.39019   0.39183   0.39971
 Alpha virt. eigenvalues --    0.40108   0.40330   0.41012   0.41178   0.41395
 Alpha virt. eigenvalues --    0.41617   0.41892   0.42155   0.42491   0.42925
 Alpha virt. eigenvalues --    0.43446   0.43702   0.43795   0.44037   0.44293
 Alpha virt. eigenvalues --    0.44561   0.44726   0.44932   0.45216   0.45435
 Alpha virt. eigenvalues --    0.45630   0.45766   0.46140   0.46344   0.46835
 Alpha virt. eigenvalues --    0.46932   0.47185   0.47342   0.47622   0.47835
 Alpha virt. eigenvalues --    0.48159   0.48201   0.48350   0.48586   0.48980
 Alpha virt. eigenvalues --    0.49117   0.49423   0.49765   0.50157   0.50420
 Alpha virt. eigenvalues --    0.50505   0.51071   0.51512   0.51707   0.51984
 Alpha virt. eigenvalues --    0.52129   0.52941   0.53201   0.53552   0.54235
 Alpha virt. eigenvalues --    0.54426   0.54717   0.55453   0.55694   0.55948
 Alpha virt. eigenvalues --    0.56345   0.56664   0.56988   0.57463   0.57999
 Alpha virt. eigenvalues --    0.58190   0.58915   0.59251   0.59710   0.59864
 Alpha virt. eigenvalues --    0.60436   0.60631   0.61413   0.61855   0.62183
 Alpha virt. eigenvalues --    0.62474   0.63010   0.63092   0.63231   0.64453
 Alpha virt. eigenvalues --    0.64591   0.64846   0.65401   0.66687   0.66833
 Alpha virt. eigenvalues --    0.67293   0.67543   0.68130   0.69143   0.69369
 Alpha virt. eigenvalues --    0.69943   0.70319   0.71083   0.71303   0.71687
 Alpha virt. eigenvalues --    0.72176   0.72799   0.73259   0.73669   0.74338
 Alpha virt. eigenvalues --    0.74553   0.75207   0.75547   0.76220   0.76761
 Alpha virt. eigenvalues --    0.77823   0.78750   0.79199   0.79509   0.80235
 Alpha virt. eigenvalues --    0.81386   0.81754   0.82359   0.83375   0.84181
 Alpha virt. eigenvalues --    0.85257   0.85555   0.86162   0.86730   0.87169
 Alpha virt. eigenvalues --    0.87987   0.88203   0.88951   0.89117   0.89804
 Alpha virt. eigenvalues --    0.90324   0.90927   0.91561   0.91738   0.92034
 Alpha virt. eigenvalues --    0.92179   0.92881   0.93483   0.94114   0.94764
 Alpha virt. eigenvalues --    0.94828   0.95327   0.95944   0.96395   0.96912
 Alpha virt. eigenvalues --    0.97160   0.97800   0.97923   0.99520   0.99699
 Alpha virt. eigenvalues --    1.00556   1.01570   1.02072   1.02521   1.02783
 Alpha virt. eigenvalues --    1.03303   1.04288   1.04725   1.05631   1.06517
 Alpha virt. eigenvalues --    1.07376   1.07949   1.08766   1.09537   1.10292
 Alpha virt. eigenvalues --    1.10370   1.11078   1.11231   1.12178   1.12454
 Alpha virt. eigenvalues --    1.12591   1.13127   1.14375   1.14938   1.15096
 Alpha virt. eigenvalues --    1.15416   1.16407   1.16973   1.17564   1.18938
 Alpha virt. eigenvalues --    1.19300   1.19694   1.19761   1.19905   1.20507
 Alpha virt. eigenvalues --    1.20817   1.21137   1.21855   1.22211   1.22602
 Alpha virt. eigenvalues --    1.23172   1.23649   1.23789   1.24447   1.25018
 Alpha virt. eigenvalues --    1.25715   1.26613   1.26676   1.26963   1.27248
 Alpha virt. eigenvalues --    1.27664   1.28251   1.28464   1.28733   1.29449
 Alpha virt. eigenvalues --    1.30052   1.30820   1.31927   1.33020   1.33238
 Alpha virt. eigenvalues --    1.34114   1.34368   1.34515   1.35482   1.36466
 Alpha virt. eigenvalues --    1.36648   1.37329   1.38262   1.38787   1.40099
 Alpha virt. eigenvalues --    1.40362   1.40508   1.41572   1.41884   1.43074
 Alpha virt. eigenvalues --    1.44142   1.44756   1.45141   1.46226   1.46971
 Alpha virt. eigenvalues --    1.47505   1.48789   1.49742   1.50416   1.51125
 Alpha virt. eigenvalues --    1.51807   1.52086   1.52631   1.53213   1.53912
 Alpha virt. eigenvalues --    1.54452   1.55152   1.55817   1.56379   1.56686
 Alpha virt. eigenvalues --    1.57007   1.57258   1.57985   1.58369   1.58654
 Alpha virt. eigenvalues --    1.59129   1.59521   1.59910   1.60489   1.60662
 Alpha virt. eigenvalues --    1.61003   1.61894   1.62070   1.62869   1.63204
 Alpha virt. eigenvalues --    1.63866   1.64155   1.64756   1.64879   1.65185
 Alpha virt. eigenvalues --    1.66010   1.66482   1.66760   1.67015   1.67612
 Alpha virt. eigenvalues --    1.67893   1.68105   1.68714   1.69236   1.69424
 Alpha virt. eigenvalues --    1.70087   1.70487   1.70741   1.71553   1.72065
 Alpha virt. eigenvalues --    1.73028   1.73316   1.73636   1.73880   1.75114
 Alpha virt. eigenvalues --    1.75840   1.76820   1.77637   1.78226   1.78831
 Alpha virt. eigenvalues --    1.79528   1.79792   1.81083   1.81298   1.81589
 Alpha virt. eigenvalues --    1.81746   1.82360   1.83712   1.84053   1.85712
 Alpha virt. eigenvalues --    1.85815   1.86171   1.86696   1.87094   1.88146
 Alpha virt. eigenvalues --    1.88484   1.89554   1.89987   1.90127   1.91052
 Alpha virt. eigenvalues --    1.91837   1.92520   1.93352   1.93826   1.94855
 Alpha virt. eigenvalues --    1.95542   1.96493   1.97270   1.97834   1.98509
 Alpha virt. eigenvalues --    1.99385   1.99746   2.00274   2.00703   2.01802
 Alpha virt. eigenvalues --    2.02241   2.03374   2.04283   2.05047   2.05744
 Alpha virt. eigenvalues --    2.05897   2.06172   2.06636   2.07498   2.08095
 Alpha virt. eigenvalues --    2.08690   2.09713   2.09952   2.10479   2.11392
 Alpha virt. eigenvalues --    2.11841   2.12977   2.13285   2.14420   2.15044
 Alpha virt. eigenvalues --    2.16117   2.16386   2.16593   2.16946   2.17920
 Alpha virt. eigenvalues --    2.18525   2.18952   2.19975   2.20785   2.21022
 Alpha virt. eigenvalues --    2.21917   2.22638   2.23449   2.23993   2.24666
 Alpha virt. eigenvalues --    2.25697   2.25945   2.26752   2.27926   2.29042
 Alpha virt. eigenvalues --    2.29574   2.30051   2.30359   2.31443   2.32554
 Alpha virt. eigenvalues --    2.32983   2.33821   2.34264   2.35079   2.35530
 Alpha virt. eigenvalues --    2.36491   2.37066   2.37390   2.37991   2.38419
 Alpha virt. eigenvalues --    2.39220   2.39881   2.40883   2.41635   2.41900
 Alpha virt. eigenvalues --    2.42434   2.43032   2.43718   2.44074   2.44802
 Alpha virt. eigenvalues --    2.45561   2.46113   2.46570   2.47092   2.47422
 Alpha virt. eigenvalues --    2.47662   2.48284   2.48710   2.49062   2.50247
 Alpha virt. eigenvalues --    2.51062   2.51358   2.51929   2.52630   2.53320
 Alpha virt. eigenvalues --    2.53435   2.53974   2.54363   2.54780   2.55025
 Alpha virt. eigenvalues --    2.55884   2.56305   2.56590   2.57093   2.57411
 Alpha virt. eigenvalues --    2.58232   2.59421   2.59483   2.60215   2.60276
 Alpha virt. eigenvalues --    2.60592   2.60730   2.61318   2.61659   2.62559
 Alpha virt. eigenvalues --    2.63225   2.63295   2.63567   2.63742   2.64231
 Alpha virt. eigenvalues --    2.65047   2.65983   2.66613   2.66736   2.66858
 Alpha virt. eigenvalues --    2.67050   2.67477   2.68076   2.68626   2.68992
 Alpha virt. eigenvalues --    2.69461   2.70751   2.70829   2.71584   2.71868
 Alpha virt. eigenvalues --    2.72491   2.73183   2.73453   2.74090   2.75182
 Alpha virt. eigenvalues --    2.75294   2.75380   2.76333   2.76781   2.77134
 Alpha virt. eigenvalues --    2.77399   2.78541   2.78716   2.79469   2.79953
 Alpha virt. eigenvalues --    2.80305   2.80870   2.81419   2.81867   2.83186
 Alpha virt. eigenvalues --    2.83706   2.85234   2.85829   2.86089   2.86828
 Alpha virt. eigenvalues --    2.87055   2.87417   2.87678   2.88989   2.90140
 Alpha virt. eigenvalues --    2.90512   2.91138   2.91313   2.92234   2.92995
 Alpha virt. eigenvalues --    2.93682   2.94095   2.95291   2.95827   2.96087
 Alpha virt. eigenvalues --    2.96937   2.97327   2.97909   2.98531   2.99060
 Alpha virt. eigenvalues --    3.00000   3.00548   3.01236   3.01947   3.02176
 Alpha virt. eigenvalues --    3.04352   3.05260   3.05729   3.06218   3.06660
 Alpha virt. eigenvalues --    3.07153   3.08121   3.08656   3.09757   3.10141
 Alpha virt. eigenvalues --    3.10763   3.11446   3.12074   3.12508   3.12604
 Alpha virt. eigenvalues --    3.13853   3.14321   3.14491   3.15086   3.15634
 Alpha virt. eigenvalues --    3.16520   3.17280   3.17570   3.18184   3.18501
 Alpha virt. eigenvalues --    3.19367   3.19748   3.20259   3.20849   3.21464
 Alpha virt. eigenvalues --    3.22161   3.22352   3.22949   3.23239   3.24044
 Alpha virt. eigenvalues --    3.24232   3.24747   3.24989   3.26165   3.26721
 Alpha virt. eigenvalues --    3.27062   3.27839   3.28776   3.29194   3.29600
 Alpha virt. eigenvalues --    3.30561   3.30940   3.31470   3.31978   3.32215
 Alpha virt. eigenvalues --    3.32690   3.33432   3.33657   3.34310   3.34524
 Alpha virt. eigenvalues --    3.35656   3.36026   3.36341   3.37043   3.37312
 Alpha virt. eigenvalues --    3.37831   3.38067   3.38267   3.38684   3.39336
 Alpha virt. eigenvalues --    3.39859   3.40062   3.40252   3.40873   3.41047
 Alpha virt. eigenvalues --    3.42030   3.42674   3.42981   3.43269   3.43872
 Alpha virt. eigenvalues --    3.44297   3.44435   3.44959   3.45217   3.45531
 Alpha virt. eigenvalues --    3.45886   3.46764   3.47513   3.47679   3.48404
 Alpha virt. eigenvalues --    3.48593   3.49125   3.49569   3.49806   3.50237
 Alpha virt. eigenvalues --    3.50741   3.51347   3.52176   3.52312   3.52818
 Alpha virt. eigenvalues --    3.53509   3.54392   3.54594   3.55099   3.55989
 Alpha virt. eigenvalues --    3.56261   3.56968   3.57269   3.57750   3.58820
 Alpha virt. eigenvalues --    3.59371   3.60279   3.60907   3.62022   3.62622
 Alpha virt. eigenvalues --    3.63519   3.64496   3.65651   3.66733   3.67053
 Alpha virt. eigenvalues --    3.67731   3.68768   3.69179   3.69542   3.70771
 Alpha virt. eigenvalues --    3.72548   3.72999   3.73701   3.74559   3.75985
 Alpha virt. eigenvalues --    3.77639   3.78868   3.79838   3.81939   3.82296
 Alpha virt. eigenvalues --    3.82772   3.83804   3.84388   3.84810   3.85401
 Alpha virt. eigenvalues --    3.86250   3.87445   3.88447   3.88982   3.89971
 Alpha virt. eigenvalues --    3.91288   3.92818   3.93058   3.94923   3.95648
 Alpha virt. eigenvalues --    3.96263   3.97255   3.97438   3.97671   3.98809
 Alpha virt. eigenvalues --    3.98981   3.99644   4.00325   4.01254   4.01586
 Alpha virt. eigenvalues --    4.02014   4.02750   4.03208   4.04857   4.04888
 Alpha virt. eigenvalues --    4.05786   4.06362   4.06839   4.10394   4.10715
 Alpha virt. eigenvalues --    4.11720   4.12330   4.12762   4.13180   4.13574
 Alpha virt. eigenvalues --    4.14589   4.14841   4.15747   4.16212   4.16797
 Alpha virt. eigenvalues --    4.17234   4.18202   4.18776   4.19950   4.20401
 Alpha virt. eigenvalues --    4.20640   4.21236   4.22508   4.23335   4.24111
 Alpha virt. eigenvalues --    4.24627   4.25442   4.27725   4.29226   4.30056
 Alpha virt. eigenvalues --    4.30909   4.32011   4.34337   4.35038   4.35528
 Alpha virt. eigenvalues --    4.35792   4.37036   4.38791   4.39715   4.40327
 Alpha virt. eigenvalues --    4.41558   4.42420   4.42482   4.43131   4.43948
 Alpha virt. eigenvalues --    4.45977   4.47683   4.47827   4.49569   4.50248
 Alpha virt. eigenvalues --    4.50824   4.53087   4.53823   4.54786   4.57743
 Alpha virt. eigenvalues --    4.58772   4.59228   4.60585   4.61091   4.61784
 Alpha virt. eigenvalues --    4.63303   4.65832   4.67215   4.67943   4.69539
 Alpha virt. eigenvalues --    4.71661   4.71959   4.73262   4.73861   4.81068
 Alpha virt. eigenvalues --    4.85809   4.87670   4.88468   4.90594   4.91450
 Alpha virt. eigenvalues --    4.92799   4.93493   4.94755   4.95875   4.96593
 Alpha virt. eigenvalues --    4.98473   5.01917   5.04252   5.06208   5.07360
 Alpha virt. eigenvalues --    5.09142   5.10782   5.12383   5.13616   5.16530
 Alpha virt. eigenvalues --    5.18964   5.20234   5.22026   5.22435   5.24251
 Alpha virt. eigenvalues --    5.27146   5.28209   5.34940   5.43603   5.45357
 Alpha virt. eigenvalues --    5.63242   5.64469   7.79391   7.81989   7.90788
 Alpha virt. eigenvalues --    7.92489   8.06980   8.07651  15.70917  15.74428
 Alpha virt. eigenvalues --   22.40144  22.43629  22.47383  22.49463  22.51626
 Alpha virt. eigenvalues --   22.52298  22.58278  22.58859  22.63479  22.63932
 Alpha virt. eigenvalues --   22.64817  22.66383  22.69518  22.70830  22.72730
 Alpha virt. eigenvalues --   22.75526  22.78312  22.80310  22.90117  22.91668
 Alpha virt. eigenvalues --   23.03583  23.06504  40.36926  40.38257  41.15912
 Alpha virt. eigenvalues --   56.89930
          Condensed to atoms (all electrons):
 Mulliken charges:
               1
     1  Fe  -0.581636
     2  P    0.037585
     3  P    0.015906
     4  C    0.169995
     5  C   -0.157762
     6  C   -0.049594
     7  C   -0.099774
     8  C   -0.127243
     9  C    0.141235
    10  C   -0.132856
    11  C   -0.060607
    12  C   -0.065734
    13  C   -0.063112
    14  C   -0.074986
    15  C   -0.187963
    16  C   -0.106408
    17  C   -0.185726
    18  C   -0.042101
    19  C   -0.215792
    20  C   -0.121982
    21  C   -0.198165
    22  H    0.118185
    23  H    0.116658
    24  H    0.114641
    25  H    0.119249
    26  H    0.128019
    27  H    0.089389
    28  H    0.097376
    29  C   -0.395645
    30  H    0.084097
    31  C   -0.363844
    32  H    0.098767
    33  H    0.108164
    34  H    0.107913
    35  H    0.096810
    36  H    0.115220
    37  H    0.116868
    38  H    0.121513
    39  H    0.144270
    40  H    0.122504
    41  H    0.123014
    42  H    0.121744
    43  H    0.120832
    44  H    0.101673
    45  C   -0.404725
    46  H    0.113662
    47  C   -0.384010
    48  H    0.113796
    49  H    0.100513
    50  H    0.112716
    51  H    0.099127
    52  H    0.128954
    53  H    0.119375
    54  H    0.129769
    55  H    0.119668
    56  H    0.120577
    57  H    0.129877
 Sum of Mulliken charges =  -0.00000
 Mulliken charges with hydrogens summed into heavy atoms:
               1
     1  Fe  -0.581636
     2  P    0.037585
     3  P    0.015906
     4  C    0.169995
     5  C   -0.039576
     6  C    0.067064
     7  C    0.014867
     8  C   -0.007994
     9  C    0.141235
    10  C   -0.004836
    11  C    0.054614
    12  C    0.051134
    13  C    0.026277
    14  C    0.022390
    15  C    0.018968
    16  C   -0.022310
    17  C    0.018996
    18  C    0.059572
    19  C   -0.001483
    20  C   -0.008319
    21  C    0.013678
    29  C   -0.007358
    31  C    0.001746
    45  C   -0.026627
    47  C   -0.013888
 Electronic spatial extent (au):  <R**2>=           9106.7559
 Charge=              0.0000 electrons
 Dipole moment (field-independent basis, Debye):
    X=             -0.1978    Y=              1.3018    Z=             -0.2910  Tot=              1.3485
 Quadrupole moment (field-independent basis, Debye-Ang):
   XX=           -172.1180   YY=           -170.7018   ZZ=           -173.5276
   XY=             -0.8444   XZ=             -6.6844   YZ=             -0.1293
 Traceless Quadrupole moment (field-independent basis, Debye-Ang):
   XX=             -0.0022   YY=              1.4140   ZZ=             -1.4118
   XY=             -0.8444   XZ=             -6.6844   YZ=             -0.1293
 Octapole moment (field-independent basis, Debye-Ang**2):
  XXX=             -3.4566  YYY=             67.1629  ZZZ=             -4.8825  XYY=             -6.4096
  XXY=              0.9761  XXZ=              0.9931  XZZ=              2.1462  YZZ=             14.6575
  YYZ=             -6.3901  XYZ=            -12.5341
 Hexadecapole moment (field-independent basis, Debye-Ang**3):
 XXXX=          -7303.3907 YYYY=          -2961.0257 ZZZZ=          -2447.8641 XXXY=              1.1299
 XXXZ=            -39.1420 YYYX=             -4.3771 YYYZ=            -32.2412 ZZZX=            -53.0236
 ZZZY=            -16.3324 XXYY=          -1699.6494 XXZZ=          -1632.0536 YYZZ=           -913.3146
 XXYZ=             -5.6277 YYXZ=            -22.0715 ZZXY=             -8.5677
 N-N= 3.041564872952D+03 E-N=-9.983406304488D+03  KE= 1.604272195554D+03
 1\1\GINC-NC238\SP\RPBE1PBE\Gen\C22H32Fe1P2\MACKK4\05-Dec-2021\0\\# PBE
 1PBE gen pseudo=read int=(grid=ultrafine) empiricaldispersion=GD3BJ nm
 r=giao\\RR_Me_Ferrolane_2 title\\0,1\Fe,0,-0.0336217657,2.6122326121,0
 .1065494476\P,0,-1.8111456149,-0.2628644246,0.0665822269\P,0,1.7665603
 782,-0.2279128791,0.0963948527\C,0,-1.547272802,1.448511135,-0.5036245
 111\C,0,-0.6905624137,1.782921255,-1.6210442581\C,0,-0.6581518804,3.20
 94857689,-1.7599856346\C,0,-1.5028539013,3.7740406908,-0.7472464773\C,
 0,-2.0602903492,2.6980286104,0.0223409721\C,0,1.4844135294,1.460295418
 2,0.7163647795\C,0,1.9895232713,2.712910578,0.1901793069\C,0,1.4267260
 838,3.7841950459,0.9621340144\C,0,0.58509239,3.2123964677,1.9735379022
 \C,0,0.6271656462,1.785774096,1.8344482184\C,0,-3.2807584792,-0.783264
 7003,-0.9872851727\C,0,-4.4783499373,-0.2535243593,-0.1755038561\C,0,-
 2.7851770992,-0.1039415394,1.6749687746\C,0,-4.2090321802,-0.586298174
 6,1.2997201763\C,0,3.356364605,-0.7808391119,0.9685570738\C,0,4.323039
 0432,-1.0472054951,-0.2092155573\C,0,2.5467731013,0.0262521548,-1.5990
 759155\C,0,4.0651808887,0.0009222616,-1.3064391991\H,0,-0.1316081297,1
 .0612024321,-2.2173711367\H,0,-0.0563644937,3.7673966536,-2.4781942236
 \H,0,-1.6543678537,4.8371775131,-0.5564891398\H,0,-2.7146366534,2.8138
 645317,0.8860234083\H,0,2.6460655109,2.8278870448,-0.6725129469\H,0,0.
 0637000019,1.0613227188,2.4229330594\H,0,-3.2629095385,-1.8853393188,-
 0.9287272235\C,0,-3.2276768126,-0.338348426,-2.4472260403\H,0,-2.80940
 62124,0.9760708358,1.9070598925\C,0,-2.1825259079,-0.8639771225,2.8606
 892133\H,0,-5.4180489106,-0.7114846791,-0.5341571314\H,0,-4.5750664255
 ,0.8414416085,-0.3168768025\H,0,-4.9582834958,-0.1369694715,1.97562556
 83\H,0,-4.2489312222,-1.6820856815,1.4366656963\H,0,1.5705812896,4.848
 7230029,0.7730729273\H,0,-0.0217870872,3.7653024548,2.6912589619\H,0,-
 2.3374829815,-0.7418391739,-2.9597094991\H,0,-3.2151396276,0.760866088
 7,-2.543777919\H,0,-4.1171516961,-0.7161497073,-2.9817250245\H,0,-1.18
 72583711,-0.479596584,3.1411653712\H,0,-2.0712247291,-1.9331339526,2.6
 175886907\H,0,-2.8436742163,-0.7642520068,3.7404841482\H,0,3.110637003
 3,-1.7263726969,1.4756529188\C,0,3.8909617078,0.2433850877,1.976432520
 7\H,0,2.2271786864,1.0192151181,-1.9605020691\C,0,2.0966145749,-1.0473
 819125,-2.600169162\H,0,4.1249901882,-2.0587707051,-0.6027285562\H,0,5
 .3711706357,-1.0194635203,0.1400579257\H,0,4.3971856072,0.9972121603,-
 0.9578530836\H,0,4.6314870162,-0.2252904921,-2.2280483826\H,0,4.160517
 5319,1.2018984513,1.5002910602\H,0,4.7988313352,-0.1643364919,2.455511
 9514\H,0,3.1589273344,0.4619496172,2.7715553225\H,0,2.3348931608,-2.06
 18781688,-2.2418289922\H,0,2.5920055962,-0.8820983517,-3.573760339\H,0
 ,1.003583638,-1.0185036506,-2.7532240156\\Version=ES64L-G09RevE.01\Sta
 te=1-A\HF=-1663.3058034\RMSD=2.353e-09\Dipole=-0.0815532,0.5236574,-0.
 0244859\Quadrupole=-0.1441503,1.0255599,-0.8814096,0.2238365,-5.017829
 ,0.2262826\PG=C01 [X(C22H32Fe1P2)]\\@


 Change starts when someone sees the next step.
                            -- William Drayton
 Job cpu time:       0 days 15 hours  3 minutes 15.0 seconds.
 File lengths (MBytes):  RWF=    551 Int=      0 D2E=      0 Chk=     80 Scr=      1
 Normal termination of Gaussian 09 at Sun Dec  5 02:58:28 2021.
 Initial command:
 /gstore/apps/gaussian/g09.e01-foss-2017a/g09/l1.exe "/local/22791345/Gau-4910.inp" -scrdir="/local/22791345/"
 Entering Link 1 = /gstore/apps/gaussian/g09.e01-foss-2017a/g09/l1.exe PID=     23131.
  
 Copyright (c) 1988,1990,1992,1993,1995,1998,2003,2009,2015,
            Gaussian, Inc.  All Rights Reserved.
  
 This is part of the Gaussian(R) 09 program.  It is based on
 the Gaussian(R) 03 system (copyright 2003, Gaussian, Inc.),
 the Gaussian(R) 98 system (copyright 1998, Gaussian, Inc.),
 the Gaussian(R) 94 system (copyright 1995, Gaussian, Inc.),
 the Gaussian 92(TM) system (copyright 1992, Gaussian, Inc.),
 the Gaussian 90(TM) system (copyright 1990, Gaussian, Inc.),
 the Gaussian 88(TM) system (copyright 1988, Gaussian, Inc.),
 the Gaussian 86(TM) system (copyright 1986, Carnegie Mellon
 University), and the Gaussian 82(TM) system (copyright 1983,
 Carnegie Mellon University). Gaussian is a federally registered
 trademark of Gaussian, Inc.
  
 This software contains proprietary and confidential information,
 including trade secrets, belonging to Gaussian, Inc.
  
 This software is provided under written license and may be
 used, copied, transmitted, or stored only in accord with that
 written license.
  
 The following legend is applicable only to US Government
 contracts under FAR:
  
                    RESTRICTED RIGHTS LEGEND
  
 Use, reproduction and disclosure by the US Government is
 subject to restrictions as set forth in subparagraphs (a)
 and (c) of the Commercial Computer Software - Restricted
 Rights clause in FAR 52.227-19.
  
 Gaussian, Inc.
 340 Quinnipiac St., Bldg. 40, Wallingford CT 06492
  
  
 ---------------------------------------------------------------
 Warning -- This program may not be used in any manner that
 competes with the business of Gaussian, Inc. or will provide
 assistance to any competitor of Gaussian, Inc.  The licensee
 of this program is prohibited from giving any competitor of
 Gaussian, Inc. access to this program.  By using this program,
 the user acknowledges that Gaussian, Inc. is engaged in the
 business of creating and licensing software in the field of
 computational chemistry and represents and warrants to the
 licensee that it is not a competitor of Gaussian, Inc. and that
 it will not use this program in any manner prohibited above.
 ---------------------------------------------------------------
  

 Cite this work as:
 Gaussian 09, Revision E.01,
 M. J. Frisch, G. W. Trucks, H. B. Schlegel, G. E. Scuseria, 
 M. A. Robb, J. R. Cheeseman, G. Scalmani, V. Barone, B. Mennucci, 
 G. A. Petersson, H. Nakatsuji, M. Caricato, X. Li, H. P. Hratchian, 
 A. F. Izmaylov, J. Bloino, G. Zheng, J. L. Sonnenberg, M. Hada, 
 M. Ehara, K. Toyota, R. Fukuda, J. Hasegawa, M. Ishida, T. Nakajima, 
 Y. Honda, O. Kitao, H. Nakai, T. Vreven, J. A. Montgomery, Jr., 
 J. E. Peralta, F. Ogliaro, M. Bearpark, J. J. Heyd, E. Brothers, 
 K. N. Kudin, V. N. Staroverov, T. Keith, R. Kobayashi, J. Normand, 
 K. Raghavachari, A. Rendell, J. C. Burant, S. S. Iyengar, J. Tomasi, 
 M. Cossi, N. Rega, J. M. Millam, M. Klene, J. E. Knox, J. B. Cross, 
 V. Bakken, C. Adamo, J. Jaramillo, R. Gomperts, R. E. Stratmann, 
 O. Yazyev, A. J. Austin, R. Cammi, C. Pomelli, J. W. Ochterski, 
 R. L. Martin, K. Morokuma, V. G. Zakrzewski, G. A. Voth, 
 P. Salvador, J. J. Dannenberg, S. Dapprich, A. D. Daniels, 
 O. Farkas, J. B. Foresman, J. V. Ortiz, J. Cioslowski, 
 and D. J. Fox, Gaussian, Inc., Wallingford CT, 2013.
 
 ******************************************
 Gaussian 09:  ES64L-G09RevE.01 30-Nov-2015
                 5-Dec-2021 
 ******************************************
 %nprocs=14
 Will use up to   14 processors via shared memory.
 %mem=128GB
 %chk=RR_Me_Ferrolane_2_SPE_NoPd.chk
 ----------------------------------------------------------------------
 # PBE1PBE gen pseudo=read int=(grid=ultrafine) empiricaldispersion=GD3
 BJ pop=nbo guess=read geom=check
 ----------------------------------------------------------------------
 1/29=2,38=1/1;
 2/12=2,40=1/2;
 3/5=7,11=2,14=-4,16=1,17=8,25=1,30=1,74=-13,75=-5,116=-2,124=41/1,2,3;
 4/5=1/1;
 5/5=2,38=6/2;
 6/7=2,8=2,9=2,10=2,28=1,40=1/1,7;
 99/5=1,9=1/99;
 -----------------------
 RR_Me_Ferrolane_2 title
 -----------------------
 Structure from the checkpoint file:  "RR_Me_Ferrolane_2_SPE_NoPd.chk"
 Charge =  0 Multiplicity = 1
 Z-Matrix found in file.
 Fe,0,-0.0336217657,2.6122326121,0.1065494476
 P,0,-1.8111456149,-0.2628644246,0.0665822269
 P,0,1.7665603782,-0.2279128791,0.0963948527
 C,0,-1.547272802,1.448511135,-0.5036245111
 C,0,-0.6905624137,1.782921255,-1.6210442581
 C,0,-0.6581518804,3.2094857689,-1.7599856346
 C,0,-1.5028539013,3.7740406908,-0.7472464773
 C,0,-2.0602903492,2.6980286104,0.0223409721
 C,0,1.4844135294,1.4602954182,0.7163647795
 C,0,1.9895232713,2.712910578,0.1901793069
 C,0,1.4267260838,3.7841950459,0.9621340144
 C,0,0.58509239,3.2123964677,1.9735379022
 C,0,0.6271656462,1.785774096,1.8344482184
 C,0,-3.2807584792,-0.7832647003,-0.9872851727
 C,0,-4.4783499373,-0.2535243593,-0.1755038561
 C,0,-2.7851770992,-0.1039415394,1.6749687746
 C,0,-4.2090321802,-0.5862981746,1.2997201763
 C,0,3.356364605,-0.7808391119,0.9685570738
 C,0,4.3230390432,-1.0472054951,-0.2092155573
 C,0,2.5467731013,0.0262521548,-1.5990759155
 C,0,4.0651808887,0.0009222616,-1.3064391991
 H,0,-0.1316081297,1.0612024321,-2.2173711367
 H,0,-0.0563644937,3.7673966536,-2.4781942236
 H,0,-1.6543678537,4.8371775131,-0.5564891398
 H,0,-2.7146366534,2.8138645317,0.8860234083
 H,0,2.6460655109,2.8278870448,-0.6725129469
 H,0,0.0637000019,1.0613227188,2.4229330594
 H,0,-3.2629095385,-1.8853393188,-0.9287272235
 C,0,-3.2276768126,-0.338348426,-2.4472260403
 H,0,-2.8094062124,0.9760708358,1.9070598925
 C,0,-2.1825259079,-0.8639771225,2.8606892133
 H,0,-5.4180489106,-0.7114846791,-0.5341571314
 H,0,-4.5750664255,0.8414416085,-0.3168768025
 H,0,-4.9582834958,-0.1369694715,1.9756255683
 H,0,-4.2489312222,-1.6820856815,1.4366656963
 H,0,1.5705812896,4.8487230029,0.7730729273
 H,0,-0.0217870872,3.7653024548,2.6912589619
 H,0,-2.3374829815,-0.7418391739,-2.9597094991
 H,0,-3.2151396276,0.7608660887,-2.543777919
 H,0,-4.1171516961,-0.7161497073,-2.9817250245
 H,0,-1.1872583711,-0.479596584,3.1411653712
 H,0,-2.0712247291,-1.9331339526,2.6175886907
 H,0,-2.8436742163,-0.7642520068,3.7404841482
 H,0,3.1106370033,-1.7263726969,1.4756529188
 C,0,3.8909617078,0.2433850877,1.9764325207
 H,0,2.2271786864,1.0192151181,-1.9605020691
 C,0,2.0966145749,-1.0473819125,-2.600169162
 H,0,4.1249901882,-2.0587707051,-0.6027285562
 H,0,5.3711706357,-1.0194635203,0.1400579257
 H,0,4.3971856072,0.9972121603,-0.9578530836
 H,0,4.6314870162,-0.2252904921,-2.2280483826
 H,0,4.1605175319,1.2018984513,1.5002910602
 H,0,4.7988313352,-0.1643364919,2.4555119514
 H,0,3.1589273344,0.4619496172,2.7715553225
 H,0,2.3348931608,-2.0618781688,-2.2418289922
 H,0,2.5920055962,-0.8820983517,-3.573760339
 H,0,1.003583638,-1.0185036506,-2.7532240156
 Recover connectivity data from disk.
 Stoichiometry    C22H32FeP2
 Framework group  C1[X(C22H32FeP2)]
 Deg. of freedom   165
 Full point group                 C1      NOp   1
 Largest Abelian subgroup         C1      NOp   1
 Largest concise Abelian subgroup C1      NOp   1
                         Standard orientation:                         
 ---------------------------------------------------------------------
 Center     Atomic      Atomic             Coordinates (Angstroms)
 Number     Number       Type             X           Y           Z
 ---------------------------------------------------------------------
      1         26           0       -0.012718    1.710191   -0.223501
      2         15           0       -1.808110   -1.122556    0.200152
      3         15           0        1.768985   -1.097404    0.276628
      4          6           0       -1.525235    0.465646   -0.649062
      5          6           0       -0.650894    0.601441   -1.794269
      6          6           0       -0.607306    1.983365   -2.173512
      7          6           0       -1.462355    2.715524   -1.284287
      8          6           0       -2.037419    1.788531   -0.351127
      9          6           0        1.489178    0.672841    0.595936
     10          6           0        2.009676    1.815515   -0.128238
     11          6           0        1.443137    3.004862    0.441669
     12          6           0        0.583810    2.617034    1.523050
     13          6           0        0.618569    1.187406    1.629465
     14          6           0       -3.266244   -1.808916   -0.771429
     15          6           0       -4.471567   -1.143869   -0.079514
     16          6           0       -2.803398   -0.688148    1.743393
     17          6           0       -4.224985   -1.221640    1.434654
     18          6           0        3.342870   -1.500110    1.253656
     19          6           0        4.324108   -1.967032    0.152877
     20          6           0        2.574368   -1.138813   -1.425605
     21          6           0        4.088356   -1.120036   -1.110445
     22          1           0       -0.088378   -0.213525   -2.250690
     23          1           0        0.008029    2.408400   -2.967202
     24          1           0       -1.609617    3.796216   -1.279546
     25          1           0       -2.702966    2.052380    0.470435
     26          1           0        2.678902    1.779265   -0.988080
     27          1           0        0.042278    0.576020    2.324254
     28          1           0       -3.256356   -2.884984   -0.525876
     29          6           0       -3.189951   -1.619333   -2.284847
     30          1           0       -2.823857    0.415701    1.787875
     31          6           0       -2.222259   -1.237576    3.049984
     32          1           0       -5.409128   -1.652439   -0.368875
     33          1           0       -4.559207   -0.088592   -0.406624
     34          1           0       -4.980650   -0.660768    2.013027
     35          1           0       -4.273889   -2.277932    1.755516
     36          1           0        1.596508    4.021058    0.076320
     37          1           0       -0.029411    3.286519    2.127104
     38          1           0       -2.295340   -2.107774   -2.707913
     39          1           0       -3.168946   -0.552676   -2.566898
     40          1           0       -4.074325   -2.079063   -2.760367
     41          1           0       -1.228524   -0.815046    3.275666
     42          1           0       -2.114515   -2.332953    2.994098
     43          1           0       -2.894937   -0.986831    3.890064
     44          1           0        3.083981   -2.344484    1.910597
     45          6           0        3.870005   -0.321367    2.080298
     46          1           0        2.266281   -0.220627   -1.955475
     47          6           0        2.131247   -2.365428   -2.235902
     48          1           0        4.125007   -3.030030   -0.065601
     49          1           0        5.367431   -1.884425    0.507834
     50          1           0        4.421924   -0.080278   -0.931647
     51          1           0        4.665965   -1.502160   -1.971599
     52          1           0        4.152373    0.540972    1.452000
     53          1           0        4.768452   -0.645192    2.635196
     54          1           0        3.128399    0.032346    2.815670
     55          1           0        2.357931   -3.305032   -1.706613
     56          1           0        2.641211   -2.370345   -3.215965
     57          1           0        1.040664   -2.358647   -2.407829
 ---------------------------------------------------------------------
 Rotational constants (GHZ):      0.2722156      0.1556638      0.1403045
 General basis read from cards:  (5D, 7F)
 ======================================================================================================
                                       Pseudopotential Parameters
 ======================================================================================================
  Center     Atomic      Valence      Angular      Power
  Number     Number     Electrons     Momentum     of R      Exponent        Coefficient   SO-Coeffient
 ======================================================================================================
    1         26           16
                                      F and up 
                                                     2        1.0000000        0.00000000    0.00000000
                                      S - F
                                                     2       20.9300000      253.74958800    0.00000000
                                                     2        9.4450000       37.92284500    0.00000000
                                      P - F
                                                     2       21.7600000      161.03681200    0.00000000
                                                     2        9.1780000       27.65129800    0.00000000
                                      D - F
                                                     2       25.9000000      -24.43127600    0.00000000
                                                     2        8.8350000       -1.43425100    0.00000000
    2         15
                                   No pseudopotential on this center.
    3         15
                                   No pseudopotential on this center.
    4          6
[...]
   591. RY*(   4) C  19                  0.00069     1.72683   
   592. RY*(   5) C  19                  0.00037     1.51387   
   593. RY*(   6) C  19                  0.00031     2.35251   
   594. RY*(   7) C  19                  0.00026     2.25512   
   595. RY*(   8) C  19                  0.00017     2.02510   
   596. RY*(   9) C  19                  0.00016     1.87113   
   597. RY*(  10) C  19                  0.00010     2.38972   
   598. RY*(  11) C  19                  0.00007     1.85788   
   599. RY*(  12) C  19                  0.00007     2.52948   
   600. RY*(  13) C  19                  0.00003     1.95243   
   601. RY*(  14) C  19                  0.00002     2.04002   
   602. RY*(  15) C  19                  0.00001     2.05722   
   603. RY*(  16) C  19                  0.00002     2.92771   
   604. RY*(  17) C  19                  0.00000     2.89035   
   605. RY*(  18) C  19                  0.00000    20.67396   
   606. RY*(  19) C  19                  0.00000     2.94329   
   607. RY*(  20) C  19                  0.00000     3.58261   
   608. RY*(  21) C  19                  0.00001     3.46147   
   609. RY*(  22) C  19                  0.00000     3.48668   
   610. RY*(  23) C  19                  0.00000     3.48077   
   611. RY*(  24) C  19                  0.00000     3.41469   
   612. RY*(  25) C  19                  0.00000     3.55216   
   613. RY*(  26) C  19                  0.00000     3.30194   
   614. RY*(   1) C  20                  0.00339     1.45777   
   615. RY*(   2) C  20                  0.00288     1.43313   
   616. RY*(   3) C  20                  0.00143     1.60329   
   617. RY*(   4) C  20                  0.00110     1.70989   
   618. RY*(   5) C  20                  0.00076     1.58804   
   619. RY*(   6) C  20                  0.00054     1.68729   
   620. RY*(   7) C  20                  0.00046     1.88278   
   621. RY*(   8) C  20                  0.00037     1.83101   
   622. RY*(   9) C  20                  0.00028     2.04062   
   623. RY*(  10) C  20                  0.00018     1.78445   
   624. RY*(  11) C  20                  0.00014     2.23672   
   625. RY*(  12) C  20                  0.00008     2.45409   
   626. RY*(  13) C  20                  0.00006     2.65222   
   627. RY*(  14) C  20                  0.00004     2.43555   
   628. RY*(  15) C  20                  0.00003     2.65429   
   629. RY*(  16) C  20                  0.00002     2.38966   
   630. RY*(  17) C  20                  0.00002     3.52019   
   631. RY*(  18) C  20                  0.00001     2.51984   
   632. RY*(  19) C  20                  0.00000    20.71038   
   633. RY*(  20) C  20                  0.00001     3.19908   
   634. RY*(  21) C  20                  0.00001     3.29173   
   635. RY*(  22) C  20                  0.00000     3.40875   
   636. RY*(  23) C  20                  0.00001     3.82127   
   637. RY*(  24) C  20                  0.00001     3.47044   
   638. RY*(  25) C  20                  0.00000     3.42371   
   639. RY*(  26) C  20                  0.00000     3.58975   
   640. RY*(   1) C  21                  0.00245     1.30575   
   641. RY*(   2) C  21                  0.00178     1.64413   
   642. RY*(   3) C  21                  0.00118     1.37058   
   643. RY*(   4) C  21                  0.00060     1.88281   
   644. RY*(   5) C  21                  0.00037     2.07656   
   645. RY*(   6) C  21                  0.00027     2.02353   
   646. RY*(   7) C  21                  0.00021     1.62238   
   647. RY*(   8) C  21                  0.00018     2.35599   
   648. RY*(   9) C  21                  0.00012     2.06631   
   649. RY*(  10) C  21                  0.00009     2.26449   
   650. RY*(  11) C  21                  0.00006     2.36866   
   651. RY*(  12) C  21                  0.00005     2.41146   
   652. RY*(  13) C  21                  0.00003     2.23627   
   653. RY*(  14) C  21                  0.00003     1.85434   
   654. RY*(  15) C  21                  0.00003     2.64994   
   655. RY*(  16) C  21                  0.00000    20.66481   
   656. RY*(  17) C  21                  0.00000     2.72905   
   657. RY*(  18) C  21                  0.00001     3.06712   
   658. RY*(  19) C  21                  0.00000     3.03191   
   659. RY*(  20) C  21                  0.00001     3.01338   
   660. RY*(  21) C  21                  0.00000     3.48545   
   661. RY*(  22) C  21                  0.00000     3.41731   
   662. RY*(  23) C  21                  0.00000     3.27145   
   663. RY*(  24) C  21                  0.00000     3.56066   
   664. RY*(  25) C  21                  0.00000     3.47013   
   665. RY*(  26) C  21                  0.00000     3.50113   
   686. RY*(   1) H  26                  0.00102     0.69729   
   687. RY*(   2) H  26                  0.00040     2.25152   
   688. RY*(   3) H  26                  0.00025     2.21772   
   689. RY*(   4) H  26                  0.00011     2.67728   
   690. RY*(   5) H  26                  0.00001     3.11845   
   691. RY*(   1) H  27                  0.00181     0.87514   
   692. RY*(   2) H  27                  0.00040     2.34385   
   693. RY*(   3) H  27                  0.00024     2.28771   
   694. RY*(   4) H  27                  0.00011     2.67593   
   695. RY*(   5) H  27                  0.00002     3.21156   
   778. RY*(   1) H  36                  0.00039     2.04161   
   779. RY*(   2) H  36                  0.00032     2.21678   
   780. RY*(   3) H  36                  0.00010     2.64408   
   781. RY*(   4) H  36                  0.00002     0.97557   
   782. RY*(   5) H  36                  0.00001     3.08589   
   783. RY*(   1) H  37                  0.00039     2.04976   
   784. RY*(   2) H  37                  0.00030     2.23521   
   785. RY*(   3) H  37                  0.00010     2.64613   
   786. RY*(   4) H  37                  0.00003     1.08082   
   787. RY*(   5) H  37                  0.00001     2.97464   
   818. RY*(   1) H  44                  0.00044     1.30496   
   819. RY*(   2) H  44                  0.00018     2.39856   
   820. RY*(   3) H  44                  0.00015     2.50151   
   821. RY*(   4) H  44                  0.00009     1.63232   
   822. RY*(   5) H  44                  0.00001     3.05355   
   823. RY*(   1) C  45                  0.00198     1.52880   
   824. RY*(   2) C  45                  0.00172     1.20557   
   825. RY*(   3) C  45                  0.00061     1.47374   
   826. RY*(   4) C  45                  0.00043     1.04246   
   827. RY*(   5) C  45                  0.00027     1.42968   
   828. RY*(   6) C  45                  0.00021     1.17878   
   829. RY*(   7) C  45                  0.00015     1.55436   
   830. RY*(   8) C  45                  0.00013     1.67524   
   831. RY*(   9) C  45                  0.00004     2.10723   
   832. RY*(  10) C  45                  0.00003     1.75685   
   833. RY*(  11) C  45                  0.00003     2.29110   
   834. RY*(  12) C  45                  0.00003     3.04750   
   835. RY*(  13) C  45                  0.00000    21.02144   
   836. RY*(  14) C  45                  0.00001     2.26941   
   837. RY*(  15) C  45                  0.00001     2.80963   
   838. RY*(  16) C  45                  0.00000     2.92424   
   839. RY*(  17) C  45                  0.00000     3.15002   
   840. RY*(  18) C  45                  0.00001     1.77461   
   841. RY*(  19) C  45                  0.00001     2.75332   
   842. RY*(  20) C  45                  0.00000     3.49231   
   843. RY*(  21) C  45                  0.00000     3.25965   
   844. RY*(  22) C  45                  0.00000     3.05829   
   845. RY*(  23) C  45                  0.00000     3.55898   
   846. RY*(  24) C  45                  0.00000     3.46937   
   847. RY*(  25) C  45                  0.00000     3.22361   
   848. RY*(  26) C  45                  0.00000     3.55234   
   849. RY*(   1) H  46                  0.00096     0.87276   
   850. RY*(   2) H  46                  0.00026     2.45677   
   851. RY*(   3) H  46                  0.00018     2.60196   
   852. RY*(   4) H  46                  0.00011     2.54348   
   853. RY*(   5) H  46                  0.00002     3.05348   
   854. RY*(   1) C  47                  0.00225     0.90625   
   855. RY*(   2) C  47                  0.00131     1.05711   
   856. RY*(   3) C  47                  0.00035     1.49977   
   857. RY*(   4) C  47                  0.00031     1.61920   
   858. RY*(   5) C  47                  0.00024     1.30396   
   859. RY*(   6) C  47                  0.00011     1.70145   
   860. RY*(   7) C  47                  0.00010     1.47112   
   861. RY*(   8) C  47                  0.00007     1.59319   
   862. RY*(   9) C  47                  0.00005     1.84551   
   863. RY*(  10) C  47                  0.00002     1.81788   
   864. RY*(  11) C  47                  0.00001     2.04785   
   865. RY*(  12) C  47                  0.00002     1.49270   
   866. RY*(  13) C  47                  0.00002     1.45374   
   867. RY*(  14) C  47                  0.00000     3.12909   
   868. RY*(  15) C  47                  0.00000     3.31793   
   869. RY*(  16) C  47                  0.00000    21.07429   
   870. RY*(  17) C  47                  0.00000     2.86221   
   871. RY*(  18) C  47                  0.00000     3.07941   
   872. RY*(  19) C  47                  0.00000     2.93014   
   873. RY*(  20) C  47                  0.00000     3.43142   
   874. RY*(  21) C  47                  0.00000     3.71202   
   875. RY*(  22) C  47                  0.00000     3.24757   
   876. RY*(  23) C  47                  0.00000     3.32260   
   877. RY*(  24) C  47                  0.00000     3.32999   
   878. RY*(  25) C  47                  0.00000     3.62703   
   879. RY*(  26) C  47                  0.00000     3.21667   
   880. RY*(   1) H  48                  0.00065     1.15248   
   881. RY*(   2) H  48                  0.00019     2.49475   
   882. RY*(   3) H  48                  0.00013     2.17836   
   883. RY*(   4) H  48                  0.00007     1.76085   
   884. RY*(   5) H  48                  0.00003     3.04140   
   885. RY*(   1) H  49                  0.00111     0.85886   
   886. RY*(   2) H  49                  0.00018     2.14872   
   887. RY*(   3) H  49                  0.00014     2.31911   
   888. RY*(   4) H  49                  0.00010     2.17170   
   889. RY*(   5) H  49                  0.00002     3.02238   
   890. RY*(   1) H  50                  0.00062     1.33237   
   891. RY*(   2) H  50                  0.00021     2.18068   
   892. RY*(   3) H  50                  0.00012     2.25329   
   893. RY*(   4) H  50                  0.00007     2.09033   
   894. RY*(   5) H  50                  0.00002     2.88281   
   895. RY*(   1) H  51                  0.00100     0.96140   
   896. RY*(   2) H  51                  0.00017     2.27541   
   897. RY*(   3) H  51                  0.00013     2.25090   
   898. RY*(   4) H  51                  0.00009     2.05906   
   899. RY*(   5) H  51                  0.00002     2.97971   
   900. RY*(   1) H  52                  0.00109     0.72344   
   901. RY*(   2) H  52                  0.00023     2.36850   
   902. RY*(   3) H  52                  0.00013     2.35404   
   903. RY*(   4) H  52                  0.00007     2.27532   
   904. RY*(   5) H  52                  0.00003     2.98061   
   905. RY*(   1) H  53                  0.00109     0.90035   
   906. RY*(   2) H  53                  0.00018     1.86252   
   907. RY*(   3) H  53                  0.00011     2.20936   
   908. RY*(   4) H  53                  0.00006     2.10065   
   909. RY*(   5) H  53                  0.00001     2.98082   
   910. RY*(   1) H  54                  0.00048     1.44879   
   911. RY*(   2) H  54                  0.00017     1.86342   
   912. RY*(   3) H  54                  0.00012     2.35929   
   913. RY*(   4) H  54                  0.00007     1.67237   
   914. RY*(   5) H  54                  0.00002     3.04441   
   915. RY*(   1) H  55                  0.00092     0.87272   
   916. RY*(   2) H  55                  0.00018     2.26262   
   917. RY*(   3) H  55                  0.00012     1.97683   
   918. RY*(   4) H  55                  0.00008     2.10659   
   919. RY*(   5) H  55                  0.00001     2.95391   
   920. RY*(   1) H  56                  0.00094     0.82509   
   921. RY*(   2) H  56                  0.00016     1.85390   
   922. RY*(   3) H  56                  0.00011     2.17768   
   923. RY*(   4) H  56                  0.00007     2.16659   
   924. RY*(   5) H  56                  0.00002     2.98876   
   925. RY*(   1) H  57                  0.00073     1.08055   
   926. RY*(   2) H  57                  0.00012     1.98353   
   927. RY*(   3) H  57                  0.00011     2.23274   
   928. RY*(   4) H  57                  0.00009     2.13264   
   929. RY*(   5) H  57                  0.00003     3.03344   
   933. BD*(   1) P   3 - C   9          0.03107     0.24889   
   934. BD*(   1) P   3 - C  18          0.05196     0.20417   
   935. BD*(   1) P   3 - C  20          0.03638     0.20079   
   947. BD*(   1) C   9 - C  10          0.03838     0.44658   
   948. BD*(   1) C   9 - C  13          0.04738     0.42063   
   949. BD*(   2) C   9 - C  13          0.48159     0.04372  951(v),111(v),948(g),938(r)
                                                    103(r),105(r),934(v),933(g)
                                                    332(g),957(g),435(g),357(v)
                                                    433(g),329(g),940(r),102(r)
                                                    113(r),107(r),120(r),121(r)
                                                    104(r),127(r),114(r),131(r)
                                                    119(r),125(r),117(r),123(r)
                                                    138(r),130(r),110(r),118(r)
                                                    112(r),227(r),201(r),132(r)
   950. BD*(   1) C  10 - C  11          0.03406     0.43548   
   951. BD*(   2) C  10 - C  11          0.43516     0.04341  949(v),938(r),111(v),950(g)
                                                    102(r),105(r),103(r),106(r)
                                                    940(r),381(g),383(g),952(g)
                                                    954(g),114(r),110(r),107(r)
                                                    140(r),113(r),125(r)
   952. BD*(   1) C  10 - H  26          0.01581     0.41215   
   953. BD*(   1) C  11 - C  12          0.02856     0.44248   
   954. BD*(   1) C  11 - H  36          0.01430     0.40902   
   955. BD*(   1) C  12 - C  13          0.02957     0.44537   
   956. BD*(   1) C  12 - H  37          0.01540     0.40983   
   957. BD*(   1) C  13 - H  27          0.01739     0.42083   
   969. BD*(   1) C  18 - C  19          0.02290     0.34485   
   970. BD*(   1) C  18 - H  44          0.02076     0.38104   
   971. BD*(   1) C  18 - C  45          0.01520     0.36051   
   972. BD*(   1) C  19 - C  21          0.01546     0.35121   
   973. BD*(   1) C  19 - H  48          0.01427     0.37282   
   974. BD*(   1) C  19 - H  49          0.01574     0.37398   
   975. BD*(   1) C  20 - C  21          0.02535     0.34285   
   976. BD*(   1) C  20 - H  46          0.02040     0.37770   
   977. BD*(   1) C  20 - C  47          0.01520     0.35254   
   978. BD*(   1) C  21 - H  50          0.01465     0.37025   
   979. BD*(   1) C  21 - H  51          0.01787     0.37376   
   986. BD*(   1) C  45 - H  52          0.00947     0.38820   
   987. BD*(   1) C  45 - H  53          0.01090     0.38393   
   988. BD*(   1) C  45 - H  54          0.00726     0.39080   
   989. BD*(   1) C  47 - H  55          0.00936     0.37928   
   990. BD*(   1) C  47 - H  56          0.01079     0.37542   
   991. BD*(   1) C  47 - H  57          0.00645     0.38217   
       -------------------------------
              Total Lewis   95.14046  ( 98.2530%)
        Valence non-Lewis    1.52906  (  1.5791%)
        Rydberg non-Lewis    0.16257  (  0.1679%)
       -------------------------------
            Total unit  3   96.83209  (100.0000%)
           Charge unit  3    0.16791
 1\1\GINC-NC238\SP\RPBE1PBE\Gen\C22H32Fe1P2\MACKK4\05-Dec-2021\0\\# PBE
 1PBE gen pseudo=read int=(grid=ultrafine) empiricaldispersion=GD3BJ po
 p=nbo guess=read geom=check\\RR_Me_Ferrolane_2 title\\0,1\Fe,0,-0.0336
 217657,2.6122326121,0.1065494476\P,0,-1.8111456149,-0.2628644246,0.066
 5822269\P,0,1.7665603782,-0.2279128791,0.0963948527\C,0,-1.547272802,1
 .448511135,-0.5036245111\C,0,-0.6905624137,1.782921255,-1.6210442581\C
 ,0,-0.6581518804,3.2094857689,-1.7599856346\C,0,-1.5028539013,3.774040
 6908,-0.7472464773\C,0,-2.0602903492,2.6980286104,0.0223409721\C,0,1.4
 844135294,1.4602954182,0.7163647795\C,0,1.9895232713,2.712910578,0.190
 1793069\C,0,1.4267260838,3.7841950459,0.9621340144\C,0,0.58509239,3.21
 23964677,1.9735379022\C,0,0.6271656462,1.785774096,1.8344482184\C,0,-3
 .2807584792,-0.7832647003,-0.9872851727\C,0,-4.4783499373,-0.253524359
 3,-0.1755038561\C,0,-2.7851770992,-0.1039415394,1.6749687746\C,0,-4.20
 90321802,-0.5862981746,1.2997201763\C,0,3.356364605,-0.7808391119,0.96
 85570738\C,0,4.3230390432,-1.0472054951,-0.2092155573\C,0,2.5467731013
 ,0.0262521548,-1.5990759155\C,0,4.0651808887,0.0009222616,-1.306439199
 1\H,0,-0.1316081297,1.0612024321,-2.2173711367\H,0,-0.0563644937,3.767
 3966536,-2.4781942236\H,0,-1.6543678537,4.8371775131,-0.5564891398\H,0
 ,-2.7146366534,2.8138645317,0.8860234083\H,0,2.6460655109,2.8278870448
 ,-0.6725129469\H,0,0.0637000019,1.0613227188,2.4229330594\H,0,-3.26290
 95385,-1.8853393188,-0.9287272235\C,0,-3.2276768126,-0.338348426,-2.44
 72260403\H,0,-2.8094062124,0.9760708358,1.9070598925\C,0,-2.1825259079
 ,-0.8639771225,2.8606892133\H,0,-5.4180489106,-0.7114846791,-0.5341571
 314\H,0,-4.5750664255,0.8414416085,-0.3168768025\H,0,-4.9582834958,-0.
 1369694715,1.9756255683\H,0,-4.2489312222,-1.6820856815,1.4366656963\H
 ,0,1.5705812896,4.8487230029,0.7730729273\H,0,-0.0217870872,3.76530245
 48,2.6912589619\H,0,-2.3374829815,-0.7418391739,-2.9597094991\H,0,-3.2
 151396276,0.7608660887,-2.543777919\H,0,-4.1171516961,-0.7161497073,-2
 .9817250245\H,0,-1.1872583711,-0.479596584,3.1411653712\H,0,-2.0712247
 291,-1.9331339526,2.6175886907\H,0,-2.8436742163,-0.7642520068,3.74048
 41482\H,0,3.1106370033,-1.7263726969,1.4756529188\C,0,3.8909617078,0.2
 433850877,1.9764325207\H,0,2.2271786864,1.0192151181,-1.9605020691\C,0
 ,2.0966145749,-1.0473819125,-2.600169162\H,0,4.1249901882,-2.058770705
 1,-0.6027285562\H,0,5.3711706357,-1.0194635203,0.1400579257\H,0,4.3971
 856072,0.9972121603,-0.9578530836\H,0,4.6314870162,-0.2252904921,-2.22
 80483826\H,0,4.1605175319,1.2018984513,1.5002910602\H,0,4.7988313352,-
 0.1643364919,2.4555119514\H,0,3.1589273344,0.4619496172,2.7715553225\H
 ,0,2.3348931608,-2.0618781688,-2.2418289922\H,0,2.5920055962,-0.882098
 3517,-3.573760339\H,0,1.003583638,-1.0185036506,-2.7532240156\\Version
 =ES64L-G09RevE.01\State=1-A\HF=-1663.3058034\RMSD=1.039e-09\Dipole=-0.
 0815542,0.5236563,-0.0244867\Quadrupole=-0.1441496,1.025559,-0.8814094
 ,0.2238315,-5.0178213,0.2262853\PG=C01 [X(C22H32Fe1P2)]\\@


 HIGGLEDY-PIGGLEDY
 NIC'LAUS COPERNICUS
 LOOKED AT THE UNIVERSE,
 SPOKE TO THE THRONG;
 GIVE UP YOUR PTOLOMY,
 RISE UP AND FOLLOW ME,
 HELIOCENTRICALLY
 PTOLEMY'S WRONG.
   -- NANCY L. STARK
 Job cpu time:       0 days  0 hours 57 minutes 16.4 seconds.
 File lengths (MBytes):  RWF=    506 Int=      0 D2E=      0 Chk=     80 Scr=      1
 Normal termination of Gaussian 09 at Sun Dec  5 03:02:37 2021.
