 Entering Gaussian System, Link 0=g09
 Input=RR_NorPhos_3_SPE.com
 Output=RR_NorPhos_3_SPE.log
 Initial command:
 /gstore/apps/gaussian/g09.e01-foss-2017a/g09/l1.exe "/local/22791353/Gau-12487.inp" -scrdir="/local/22791353/"
 Entering Link 1 = /gstore/apps/gaussian/g09.e01-foss-2017a/g09/l1.exe PID=     12488.
  
 Copyright (c) 1988,1990,1992,1993,1995,1998,2003,2009,2015,
            Gaussian, Inc.  All Rights Reserved.
  
 This is part of the Gaussian(R) 09 program.  It is based on
 the Gaussian(R) 03 system (copyright 2003, Gaussian, Inc.),
 the Gaussian(R) 98 system (copyright 1998, Gaussian, Inc.),
 the Gaussian(R) 94 system (copyright 1995, Gaussian, Inc.),
 the Gaussian 92(TM) system (copyright 1992, Gaussian, Inc.),
 the Gaussian 90(TM) system (copyright 1990, Gaussian, Inc.),
 the Gaussian 88(TM) system (copyright 1988, Gaussian, Inc.),
 the Gaussian 86(TM) system (copyright 1986, Carnegie Mellon
 University), and the Gaussian 82(TM) system (copyright 1983,
 Carnegie Mellon University). Gaussian is a federally registered
 trademark of Gaussian, Inc.
  
 This software contains proprietary and confidential information,
 including trade secrets, belonging to Gaussian, Inc.
  
 This software is provided under written license and may be
 used, copied, transmitted, or stored only in accord with that
 written license.
  
 The following legend is applicable only to US Government
 contracts under FAR:
  
                    RESTRICTED RIGHTS LEGEND
  
 Use, reproduction and disclosure by the US Government is
 subject to restrictions as set forth in subparagraphs (a)
 and (c) of the Commercial Computer Software - Restricted
 Rights clause in FAR 52.227-19.
  
 Gaussian, Inc.
 340 Quinnipiac St., Bldg. 40, Wallingford CT 06492
  
  
 ---------------------------------------------------------------
 Warning -- This program may not be used in any manner that
 competes with the business of Gaussian, Inc. or will provide
 assistance to any competitor of Gaussian, Inc.  The licensee
 of this program is prohibited from giving any competitor of
 Gaussian, Inc. access to this program.  By using this program,
 the user acknowledges that Gaussian, Inc. is engaged in the
 business of creating and licensing software in the field of
 computational chemistry and represents and warrants to the
 licensee that it is not a competitor of Gaussian, Inc. and that
 it will not use this program in any manner prohibited above.
 ---------------------------------------------------------------
  

 Cite this work as:
 Gaussian 09, Revision E.01,
 M. J. Frisch, G. W. Trucks, H. B. Schlegel, G. E. Scuseria, 
 M. A. Robb, J. R. Cheeseman, G. Scalmani, V. Barone, B. Mennucci, 
 G. A. Petersson, H. Nakatsuji, M. Caricato, X. Li, H. P. Hratchian, 
 A. F. Izmaylov, J. Bloino, G. Zheng, J. L. Sonnenberg, M. Hada, 
 M. Ehara, K. Toyota, R. Fukuda, J. Hasegawa, M. Ishida, T. Nakajima, 
 Y. Honda, O. Kitao, H. Nakai, T. Vreven, J. A. Montgomery, Jr., 
 J. E. Peralta, F. Ogliaro, M. Bearpark, J. J. Heyd, E. Brothers, 
 K. N. Kudin, V. N. Staroverov, T. Keith, R. Kobayashi, J. Normand, 
 K. Raghavachari, A. Rendell, J. C. Burant, S. S. Iyengar, J. Tomasi, 
 M. Cossi, N. Rega, J. M. Millam, M. Klene, J. E. Knox, J. B. Cross, 
 V. Bakken, C. Adamo, J. Jaramillo, R. Gomperts, R. E. Stratmann, 
 O. Yazyev, A. J. Austin, R. Cammi, C. Pomelli, J. W. Ochterski, 
 R. L. Martin, K. Morokuma, V. G. Zakrzewski, G. A. Voth, 
 P. Salvador, J. J. Dannenberg, S. Dapprich, A. D. Daniels, 
 O. Farkas, J. B. Foresman, J. V. Ortiz, J. Cioslowski, 
 and D. J. Fox, Gaussian, Inc., Wallingford CT, 2013.
 
 ******************************************
 Gaussian 09:  ES64L-G09RevE.01 30-Nov-2015
                30-Nov-2021 
 ******************************************
 %nprocs=14
 Will use up to   14 processors via shared memory.
 %mem=128GB
 %chk=RR_NorPhos_3_SPE.chk
 ----------------------------------------------------------------------
 # PBE1PBE gen pseudo=read int=(grid=ultrafine) empiricaldispersion=GD3
 BJ nmr=giao
 ----------------------------------------------------------------------
 1/38=1/1;
 2/12=2,17=6,18=5,40=1/2;
 3/5=7,11=2,16=1,17=8,25=1,30=1,74=-13,75=-5,124=41/1,2,8,3;
 4//1;
 5/5=2,38=5/2;
 8/6=1,10=90,11=11/1;
 10/13=100,45=16/2;
 6/7=2,8=2,9=2,10=2,28=1/1;
 99/9=1/99;
 ------------------
 RR_NorPhos_3 title
 ------------------
 Symbolic Z-matrix:
 Charge =  0 Multiplicity = 1
 P                    -1.64323   0.10822   0.03088 
 C                    -2.42202   1.75938   0.05893 
 C                    -3.10545   2.15464  -1.11239 
 C                    -3.72836   3.40628  -1.16221 
 C                    -3.66652   4.27555  -0.06174 
 C                    -2.97465   3.89048   1.0941 
 C                    -2.35338   2.63493   1.15897 
 H                    -1.80768   2.34489   2.05999 
 H                    -2.91509   4.56811   1.95242 
 H                    -4.15099   5.25625  -0.10935 
 H                    -4.25646   3.70795  -2.07238 
 H                    -3.12151   1.4845   -1.9801 
 C                    -3.00684  -1.10067   0.16346 
 C                    -4.09213  -0.83561   1.02194 
 C                    -5.08119  -1.80852   1.21378 
 C                    -4.99134  -3.04166   0.55038 
 C                    -3.91518  -3.30104  -0.31052 
 C                    -2.92232  -2.33284  -0.51018 
 H                    -2.10143  -2.50405  -1.21332 
 H                    -3.85491  -4.25503  -0.84397 
 H                    -5.76938  -3.79793   0.69699 
 H                    -5.92763  -1.60021   1.87636 
 H                    -4.16744   0.13412   1.52626 
 C                    -0.6094   -0.26563   1.5279 
 C                    -0.89904  -0.40585   3.06583 
 C                    -0.94938   0.95698   3.74228 
 C                     0.29479   1.48422   3.704 
 H                     0.60445   2.48389   4.02172 
 C                     1.19295   0.48443   2.97369 
 H                     2.27713   0.60253   3.11015 
 C                     0.54882  -0.83969   3.46189 
 H                     0.90868  -1.73769   2.93191 
 H                     0.66303  -0.97356   4.54935 
 C                     0.6846    0.58646   1.48281 
 P                     1.60251   0.01852  -0.03385 
 C                     2.35054  -1.58242   0.43376 
 C                     3.46917  -1.63439   1.28938 
 C                     3.95049  -2.8725    1.73202 
 C                     3.32371  -4.05944   1.32077 
 C                     2.22233  -4.01029   0.45436 
 C                     1.73705  -2.77475   0.00475 
 H                     0.90018  -2.71669  -0.70085 
 H                     1.74713  -4.93594   0.11445 
 H                     3.70498  -5.02561   1.66685 
 H                     4.82101  -2.91221   2.39486 
 H                     3.96637  -0.70796   1.59596 
 C                     3.00654   1.17074  -0.23637 
 C                     3.15711   2.30289   0.58989 
 C                     4.25827   3.15366   0.42301 
 C                     5.21243   2.88301  -0.56693 
 C                     5.06253   1.75965  -1.39396 
 C                     3.96699   0.90379  -1.23537 
 H                     3.82785   0.04499  -1.89867 
 H                     5.79992   1.54983  -2.17523 
 H                     6.07061   3.55026  -0.69688 
 H                     4.36751   4.03054   1.06948 
 H                     2.4218    2.5288    1.36736 
 Pd                   -0.06324  -0.20732  -1.60338 
 Cl                    1.65283  -0.75677  -3.1698 
 Cl                   -1.83241  -0.46764  -3.1832 
 H                     0.43072   1.63903   1.25374 
 H                    -1.8575    1.42502   4.13127 
 H                    -1.71613  -1.10532   3.29239 
 H                    -0.34019  -1.30075   1.22886 
 
 Stoichiometry    C31H28Cl2P2Pd
 Framework group  C1[X(C31H28Cl2P2Pd)]
 Deg. of freedom   186
 Full point group                 C1      NOp   1
 Largest Abelian subgroup         C1      NOp   1
 Largest concise Abelian subgroup C1      NOp   1
                         Standard orientation:                         
 ---------------------------------------------------------------------
 Center     Atomic      Atomic             Coordinates (Angstroms)
 Number     Number       Type             X           Y           Z
 ---------------------------------------------------------------------
      1         15           0       -1.621516    0.109778    0.036082
      2          6           0       -2.427051    1.748076    0.062704
      3          6           0       -3.112958    2.133077   -1.110595
      4          6           0       -3.755902    3.374489   -1.161611
      5          6           0       -3.711768    4.243845   -0.060346
      6          6           0       -3.017535    3.869182    1.097501
      7          6           0       -2.376220    2.623817    1.163554
      8          1           0       -1.828840    2.342001    2.066167
      9          1           0       -2.971782    4.547055    1.956473
     10          1           0       -4.211912    5.216597   -0.108877
     11          1           0       -4.285836    3.668237   -2.073301
     12          1           0       -3.115309    1.463402   -1.978808
     13          6           0       -2.965781   -1.121148    0.163355
     14          6           0       -4.058034   -0.874342    1.018443
     15          6           0       -5.031826   -1.863284    1.206367
     16          6           0       -4.919829   -3.094323    0.542427
     17          6           0       -3.836784   -3.335596   -0.315103
     18          6           0       -2.859103   -2.351294   -0.510846
     19          1           0       -2.033239   -2.508657   -1.211396
     20          1           0       -3.759321   -4.288089   -0.849002
     21          1           0       -5.685984   -3.863207    0.685959
     22          1           0       -5.883691   -1.669206    1.866306
     23          1           0       -4.150708    0.093677    1.523171
     24          6           0       -0.586676   -0.248372    1.536246
     25          6           0       -0.879043   -0.394399    3.073114
     26          6           0       -0.953680    0.966940    3.750330
     27          6           0        0.281896    1.514296    3.716492
     28          1           0        0.574277    2.518625    4.035918
     29          6           0        1.198533    0.529728    2.988460
     30          1           0        2.280200    0.665287    3.128565
     31          6           0        0.574351   -0.805014    3.473636
     32          1           0        0.950456   -1.696672    2.944235
     33          1           0        0.687147   -0.937808    4.561372
     34          6           0        0.693489    0.624608    1.495989
     35         15           0        1.625439    0.072732   -0.018034
     36          6           0        2.397779   -1.516221    0.450947
     37          6           0        3.514300   -1.550688    1.310199
     38          6           0        4.014167   -2.781157    1.753581
     39          6           0        3.408055   -3.977796    1.339464
     40          6           0        2.308867   -3.945859    0.469469
     41          6           0        1.805109   -2.718019    0.019102
     42          1           0        0.969720   -2.673009   -0.689204
     43          1           0        1.849847   -4.878840    0.127360
     44          1           0        3.803799   -4.937915    1.686136
     45          1           0        4.883044   -2.807249    2.419247
     46          1           0        3.995414   -0.616543    1.619051
     47          6           0        3.011269    1.247703   -0.215147
     48          6           0        3.140768    2.381534    0.612373
     49          6           0        4.228533    3.250160    0.449696
     50          6           0        5.190198    2.995732   -0.537282
     51          6           0        5.061229    1.870700   -1.365572
     52          6           0        3.979188    0.997085   -1.211168
     53          1           0        3.856156    0.136624   -1.875507
     54          1           0        5.804484    1.673430   -2.144555
     55          1           0        6.037865    3.676900   -0.663959
     56          1           0        4.321426    4.128218    1.097115
     57          1           0        2.399350    2.594927    1.387571
     58         46           0       -0.031276   -0.178920   -1.593185
     59         17           0        1.698598   -0.699340   -3.154325
     60         17           0       -1.790807   -0.466715   -3.178986
     61          1           0        0.423331    1.673098    1.266799
     62          1           0       -1.870541    1.419916    4.136647
     63          1           0       -1.685428   -1.107182    3.296512
     64          1           0       -0.299744   -1.278771    1.237387
 ---------------------------------------------------------------------
 Rotational constants (GHZ):      0.1125939      0.0759953      0.0726376
 General basis read from cards:  (5D, 7F)
 ======================================================================================================
                                       Pseudopotential Parameters
 ======================================================================================================
  Center     Atomic      Valence      Angular      Power
  Number     Number     Electrons     Momentum     of R      Exponent        Coefficient   SO-Coeffient
 ======================================================================================================
    1         15
                                   No pseudopotential on this center.
    2          6
                                   No pseudopotential on this center.
    3          6
                                   No pseudopotential on this center.
    4          6
                                   No pseudopotential on this center.
    5          6
                                   No pseudopotential on this center.
    6          6
                                   No pseudopotential on this center.
    7          6
                                   No pseudopotential on this center.
    8          1
                                   No pseudopotential on this center.
    9          1
                                   No pseudopotential on this center.
   10          1
                                   No pseudopotential on this center.
   11          1
                                   No pseudopotential on this center.
   12          1
                                   No pseudopotential on this center.
   13          6
                                   No pseudopotential on this center.
   14          6
                                   No pseudopotential on this center.
   15          6
                                   No pseudopotential on this center.
   16          6
                                   No pseudopotential on this center.
   17          6
                                   No pseudopotential on this center.
   18          6
                                   No pseudopotential on this center.
   19          1
                                   No pseudopotential on this center.
   20          1
                                   No pseudopotential on this center.
   21          1
                                   No pseudopotential on this center.
   22          1
                                   No pseudopotential on this center.
   23          1
                                   No pseudopotential on this center.
   24          6
                                   No pseudopotential on this center.
   25          6
                                   No pseudopotential on this center.
   26          6
                                   No pseudopotential on this center.
   27          6
                                   No pseudopotential on this center.
   28          1
                                   No pseudopotential on this center.
   29          6
                                   No pseudopotential on this center.
   30          1
                                   No pseudopotential on this center.
   31          6
                                   No pseudopotential on this center.
   32          1
                                   No pseudopotential on this center.
   33          1
                                   No pseudopotential on this center.
   34          6
                                   No pseudopotential on this center.
   35         15
                                   No pseudopotential on this center.
   36          6
                                   No pseudopotential on this center.
   37          6
                                   No pseudopotential on this center.
   38          6
                                   No pseudopotential on this center.
   39          6
                                   No pseudopotential on this center.
   40          6
                                   No pseudopotential on this center.
   41          6
                                   No pseudopotential on this center.
   42          1
                                   No pseudopotential on this center.
   43          1
                                   No pseudopotential on this center.
   44          1
                                   No pseudopotential on this center.
   45          1
                                   No pseudopotential on this center.
   46          1
                                   No pseudopotential on this center.
   47          6
                                   No pseudopotential on this center.
   48          6
                                   No pseudopotential on this center.
   49          6
                                   No pseudopotential on this center.
   50          6
                                   No pseudopotential on this center.
   51          6
                                   No pseudopotential on this center.
   52          6
                                   No pseudopotential on this center.
   53          1
                                   No pseudopotential on this center.
   54          1
                                   No pseudopotential on this center.
   55          1
                                   No pseudopotential on this center.
   56          1
                                   No pseudopotential on this center.
   57          1
                                   No pseudopotential on this center.
   58         46           18
                                      G and up 
                                                     2        1.0000000        0.00000000    0.00000000
                                      S - G
                                                     2       12.4300000      240.22904000    0.00000000
                                                     2        6.1707590       35.17194300    0.00000000
                                      P - G
                                                     2       11.0800000      170.41727600    0.00000000
                                                     2        5.8295540       28.47213300    0.00000000
                                      D - G
                                                     2        9.5100000       69.01384500    0.00000000
                                                     2        4.1397810       11.75086200    0.00000000
                                      F - G
                                                     2       13.2700000      -31.92955400    0.00000000
                                                     2        6.6300000       -5.39821700    0.00000000
   59         17
                                   No pseudopotential on this center.
   60         17
                                   No pseudopotential on this center.
   61          1
                                   No pseudopotential on this center.
   62          1
                                   No pseudopotential on this center.
   63          1
                                   No pseudopotential on this center.
   64          1
                                   No pseudopotential on this center.
 ======================================================================================================
 There are  1491 symmetry adapted cartesian basis functions of A   symmetry.
 There are  1313 symmetry adapted basis functions of A   symmetry.
  1313 basis functions,  2146 primitive gaussians,  1491 cartesian basis functions
   148 alpha electrons      148 beta electrons
       nuclear repulsion energy      5166.5511673126 Hartrees.
 NAtoms=   64 NActive=   64 NUniq=   64 SFac= 1.00D+00 NAtFMM=   60 NAOKFM=T Big=T
 Integral buffers will be    131072 words long.
 Raffenetti 2 integral format.
 Two-electron integral symmetry is turned on.
 Nuclear repulsion after empirical dispersion term =     5166.4359826554 Hartrees.
 One-electron integrals computed using PRISM.
   1 Symmetry operations used in ECPInt.
 ECPInt:  NShTT=  134940 NPrTT=  421824 LenC2=  111125 LenP2D=  233096.
 LDataN:  DoStor=T MaxTD1= 7 Len=  274
 NBasis=  1313 RedAO= T EigKep=  6.50D-06  NBF=  1313
 NBsUse=  1313 1.00D-06 EigRej= -1.00D+00 NBFU=  1313
 Defaulting to unpruned grid for atomic number  46.
 ExpMin= 1.60D-02 ExpMax= 6.95D+04 ExpMxC= 2.37D+03 IAcc=3 IRadAn=         5 AccDes= 0.00D+00
 Harris functional with IExCor= 1009 and IRadAn=       5 diagonalized for initial guess.
 HarFok:  IExCor= 1009 AccDes= 0.00D+00 IRadAn=         5 IDoV= 1 UseB2=F ITyADJ=14
 ICtDFT=  3500011 ScaDFX=  1.000000  1.000000  1.000000  1.000000
 Defaulting to unpruned grid for atomic number  46.
 Defaulting to unpruned grid for atomic number  46.
 Defaulting to unpruned grid for atomic number  46.
 Defaulting to unpruned grid for atomic number  46.
 Defaulting to unpruned grid for atomic number  46.
 Defaulting to unpruned grid for atomic number  46.
 Defaulting to unpruned grid for atomic number  46.
 Defaulting to unpruned grid for atomic number  46.
 Defaulting to unpruned grid for atomic number  46.
 Defaulting to unpruned grid for atomic number  46.
 Defaulting to unpruned grid for atomic number  46.
 Defaulting to unpruned grid for atomic number  46.
 Defaulting to unpruned grid for atomic number  46.
 Defaulting to unpruned grid for atomic number  46.
 FoFCou: FMM=F IPFlag=           0 FMFlag=      100000 FMFlg1=        2001
         NFxFlg=           0 DoJE=T BraDBF=F KetDBF=T FulRan=T
         wScrn=  0.000000 ICntrl=     500 IOpCl=  0 I1Cent=   200000004 NGrid=           0
         NMat0=    1 NMatS0=      1 NMatT0=    0 NMatD0=    1 NMtDS0=    0 NMtDT0=    0
 Petite list used in FoFCou.
 Requested convergence on RMS density matrix=1.00D-08 within 128 cycles.
 Requested convergence on MAX density matrix=1.00D-06.
 Requested convergence on             energy=1.00D-06.
 No special actions if energy rises.
 Defaulting to unpruned grid for atomic number  46.
 Defaulting to unpruned grid for atomic number  46.
 Defaulting to unpruned grid for atomic number  46.
 Defaulting to unpruned grid for atomic number  46.
 Defaulting to unpruned grid for atomic number  46.
 Defaulting to unpruned grid for atomic number  46.
 Defaulting to unpruned grid for atomic number  46.
 Defaulting to unpruned grid for atomic number  46.
 Defaulting to unpruned grid for atomic number  46.
 Defaulting to unpruned grid for atomic number  46.
 Defaulting to unpruned grid for atomic number  46.
 Defaulting to unpruned grid for atomic number  46.
 Defaulting to unpruned grid for atomic number  46.
 Defaulting to unpruned grid for atomic number  46.
 EnCoef did     3 forward-backward iterations
 EnCoef did   100 forward-backward iterations
 EnCoef did     5 forward-backward iterations
 Restarting incremental Fock formation.
 SCF Done:  E(RPBE1PBE) =  -2927.82830857     A.U. after   24 cycles
            NFock= 24  Conv=0.59D-08     -V/T= 2.0318
 DoSCS=F DFT=T ScalE2(SS,OS)=  1.000000  1.000000
 Range of M.O.s used for correlation:     1  1313
 NBasis=  1313 NAE=   148 NBE=   148 NFC=     0 NFV=     0
 NROrb=   1313 NOA=   148 NOB=   148 NVA=  1165 NVB=  1165

 **** Warning!!: The largest alpha MO coefficient is  0.41400196D+02

          Differentiating once with respect to magnetic field using GIAOs.
          Electric field/nuclear overlap derivatives assumed to be zero.
 Defaulting to unpruned grid for atomic number  46.
 FoFCou: FMM=F IPFlag=           0 FMFlag=      100000 FMFlg1=        2001
         NFxFlg=           0 DoJE=F BraDBF=F KetDBF=T FulRan=T
         wScrn=  0.000000 ICntrl=    6100 IOpCl=  0 I1Cent=           7 NGrid=          64
         NMat0=    1 NMatS0=      1 NMatT0=    0 NMatD0=    1 NMtDS0=    0 NMtDT0=    0
 Symmetry not used in FoFCou.
   1 Symmetry operations used in ECPInt.
 ECPInt:  NShTT=  134940 NPrTT=  421824 LenC2=  134941 LenP2D=  421824.
 LDataN:  DoStor=T MaxTD1= 8 Len=  415
 FoFJK:  IHMeth= 1 ICntrl=    6127 DoSepK=F KAlg= 0 I1Cent=   0 FoldK=F
 IRaf=         1 NMat=   1 IRICut=       1 DoRegI=T DoRafI=F ISym2E= 0.
 Defaulting to unpruned grid for atomic number  46.
 Defaulting to unpruned grid for atomic number  46.
 Defaulting to unpruned grid for atomic number  46.
 Defaulting to unpruned grid for atomic number  46.
 Defaulting to unpruned grid for atomic number  46.
 Defaulting to unpruned grid for atomic number  46.
 Defaulting to unpruned grid for atomic number  46.
 Defaulting to unpruned grid for atomic number  46.
 Defaulting to unpruned grid for atomic number  46.
 Defaulting to unpruned grid for atomic number  46.
 Defaulting to unpruned grid for atomic number  46.
 Defaulting to unpruned grid for atomic number  46.
 Defaulting to unpruned grid for atomic number  46.
 Defaulting to unpruned grid for atomic number  46.
          There are     3 degrees of freedom in the 1st order CPHF.  IDoFFX=0 NUNeed=     3.
      3 vectors produced by pass  0 Test12= 5.75D-12 3.33D-08 XBig12= 1.23D+02 2.05D+00.
 AX will form     3 AO Fock derivatives at one time.
      3 vectors produced by pass  1 Test12= 5.75D-12 3.33D-08 XBig12= 6.48D-01 1.96D-01.
      3 vectors produced by pass  2 Test12= 5.75D-12 3.33D-08 XBig12= 8.38D-03 3.60D-02.
      3 vectors produced by pass  3 Test12= 5.75D-12 3.33D-08 XBig12= 1.73D-04 4.39D-03.
      3 vectors produced by pass  4 Test12= 5.75D-12 3.33D-08 XBig12= 7.54D-07 1.55D-04.
      3 vectors produced by pass  5 Test12= 5.75D-12 3.33D-08 XBig12= 4.78D-09 2.29D-05.
      3 vectors produced by pass  6 Test12= 5.75D-12 3.33D-08 XBig12= 5.94D-11 3.12D-06.
      3 vectors produced by pass  7 Test12= 5.75D-12 3.33D-08 XBig12= 4.59D-13 1.78D-07.
 InvSVY:  IOpt=1 It=  1 EMax= 3.55D-15
 Solved reduced A of dimension    24 with     3 vectors.
 Calculating GIAO nuclear magnetic shielding tensors.
 SCF GIAO Magnetic shielding tensor (ppm):
      1  P    Isotropic =   235.7933   Anisotropy =   111.4970
   XX=   242.4726   YX=    -6.7802   ZX=   -48.0351
   XY=    -6.9398   YY=   199.9087   ZY=    27.1383
   XZ=   -32.1338   YZ=    61.5015   ZZ=   264.9987
   Eigenvalues:   174.8190   222.4363   310.1246
      2  C    Isotropic =    47.5946   Anisotropy =   170.9157
   XX=   107.3555   YX=    78.1431   ZX=   -47.9776
   XY=    67.8201   YY=    -9.9063   ZY=   -21.1158
   XZ=   -39.9630   YZ=   -13.9187   ZZ=    45.3346
   Eigenvalues:   -45.0225    26.2679   161.5384
      3  C    Isotropic =    39.6304   Anisotropy =   209.3150
   XX=   130.7134   YX=    54.8265   ZX=   -49.7265
   XY=    56.7882   YY=    14.5329   ZY=   -59.7077
   XZ=   -54.1827   YZ=   -65.8940   ZZ=   -26.3552
   Eigenvalues:   -72.4907    12.2080   179.1737
      4  C    Isotropic =    49.2812   Anisotropy =   191.2901
   XX=   113.3402   YX=    59.8033   ZX=   -79.7431
   XY=    61.7870   YY=    52.7047   ZY=     1.1681
   XZ=   -82.1164   YZ=    -1.6567   ZZ=   -18.2013
   Eigenvalues:   -63.2983    34.3339   176.8080
      5  C    Isotropic =    48.1564   Anisotropy =   193.5884
   XX=   114.4788   YX=    86.1321   ZX=   -46.8026
   XY=    88.8030   YY=   -21.0335   ZY=   -20.0266
   XZ=   -46.0164   YZ=   -18.0042   ZZ=    51.0239
   Eigenvalues:   -64.0272    31.2810   177.2153
      6  C    Isotropic =    54.1006   Anisotropy =   183.3308
   XX=   136.8197   YX=    42.5156   ZX=   -42.7987
   XY=    44.2713   YY=    26.0283   ZY=   -66.4211
   XZ=   -43.7575   YZ=   -69.0134   ZZ=    -0.5462
   Eigenvalues:   -56.4730    42.4537   176.3211
      7  C    Isotropic =    49.6185   Anisotropy =   179.6705
   XX=   106.6157   YX=    61.7701   ZX=   -76.4278
   XY=    50.8859   YY=    59.1905   ZY=     1.7817
   XZ=   -78.1864   YZ=   -10.5717   ZZ=   -16.9507
   Eigenvalues:   -58.1667    37.6233   169.3988
      8  H    Isotropic =    22.9421   Anisotropy =     9.8615
   XX=    21.3253   YX=    -6.0230   ZX=     0.8690
   XY=    -5.6202   YY=    25.2831   ZY=     1.3725
   XZ=     1.4460   YZ=     1.9265   ZZ=    22.2180
   Eigenvalues:    16.5173    22.7927    29.5165
      9  H    Isotropic =    23.8420   Anisotropy =     7.0299
   XX=    22.8576   YX=    -3.4657   ZX=     1.5708
   XY=    -3.4844   YY=    25.9802   ZY=    -0.2670
   XZ=     1.6509   YZ=    -0.7621   ZZ=    22.6882
   Eigenvalues:    20.1207    22.8767    28.5286
     10  H    Isotropic =    23.6800   Anisotropy =     4.0627
   XX=    22.1039   YX=    -1.6796   ZX=     1.8373
   XY=    -1.3393   YY=    23.4016   ZY=     0.9921
   XZ=     1.9473   YZ=     0.7639   ZZ=    25.5345
   Eigenvalues:    20.2938    24.3577    26.3884
     11  H    Isotropic =    23.6670   Anisotropy =     6.8716
   XX=    21.8825   YX=    -3.2882   ZX=     0.7687
   XY=    -2.9929   YY=    26.5371   ZY=     1.4719
   XZ=     0.5762   YZ=     1.0934   ZZ=    22.5816
   Eigenvalues:    19.7888    22.9642    28.2481
     12  H    Isotropic =    21.7071   Anisotropy =    13.3907
   XX=    20.7162   YX=    -8.3115   ZX=     2.0601
   XY=    -7.3082   YY=    24.1017   ZY=    -0.5426
   XZ=     0.8608   YZ=    -1.0929   ZZ=    20.3034
   Eigenvalues:    14.3508    20.1363    30.6343
     13  C    Isotropic =    44.1012   Anisotropy =   181.8859
   XX=    26.7140   YX=   -54.4047   ZX=    64.1350
   XY=   -67.7228   YY=     7.4663   ZY=   -38.3149
   XZ=    70.7565   YZ=   -36.5815   ZZ=    98.1232
   Eigenvalues:   -47.0888    14.0339   165.3584
     14  C    Isotropic =    46.5830   Anisotropy =   192.5117
   XX=    64.1868   YX=   -17.7894   ZX=    66.1364
   XY=   -16.1725   YY=   -22.1943   ZY=   -79.4602
   XZ=    57.0913   YZ=   -84.3118   ZZ=    97.7566
   Eigenvalues:   -65.1882    30.0132   174.9242
     15  C    Isotropic =    53.0290   Anisotropy =   183.2337
   XX=    18.9012   YX=   -12.3900   ZX=    99.6754
   XY=   -11.4393   YY=    56.3448   ZY=   -48.3813
   XZ=   100.3070   YZ=   -49.9974   ZZ=    83.8409
   Eigenvalues:   -57.3521    41.2543   175.1848
     16  C    Isotropic =    48.6348   Anisotropy =   191.7268
   XX=    27.1041   YX=   -72.4655   ZX=    66.1957
   XY=   -74.6441   YY=     3.1336   ZY=   -33.1713
   XZ=    67.3735   YZ=   -31.2628   ZZ=   115.6668
   Eigenvalues:   -61.8464    31.2983   176.4527
     17  C    Isotropic =    50.9025   Anisotropy =   186.9387
   XX=    73.2149   YX=   -20.5661   ZX=    60.6238
   XY=   -20.5322   YY=   -16.2913   ZY=   -80.5401
   XZ=    57.2639   YZ=   -81.1874   ZZ=    95.7838
   Eigenvalues:   -59.3739    36.5530   175.5283
     18  C    Isotropic =    39.4551   Anisotropy =   196.4526
   XX=     9.1468   YX=   -23.2111   ZX=    98.3088
   XY=   -14.3788   YY=    39.8042   ZY=   -56.1384
   XZ=    98.1109   YZ=   -66.4605   ZZ=    69.4144
   Eigenvalues:   -68.4513    16.3931   170.4235
     19  H    Isotropic =    21.8883   Anisotropy =    12.3676
   XX=    19.9187   YX=     6.9324   ZX=     0.5779
   XY=     5.1436   YY=    26.5375   ZY=    -0.9623
   XZ=    -0.6948   YZ=    -0.0483   ZZ=    19.2086
   Eigenvalues:    16.3276    19.2038    30.1333
     20  H    Isotropic =    23.4976   Anisotropy =     7.1445
   XX=    25.4735   YX=     3.3335   ZX=    -2.0401
   XY=     2.7900   YY=    23.7289   ZY=     0.1170
   XZ=    -2.5648   YZ=     0.0750   ZZ=    21.2905
   Eigenvalues:    19.6723    22.5600    28.2606
     21  H    Isotropic =    23.7024   Anisotropy =     4.1197
   XX=    24.1425   YX=     0.6060   ZX=    -2.1978
   XY=     0.0107   YY=    24.3364   ZY=     2.1184
   XZ=    -2.4033   YZ=     2.0523   ZZ=    22.6283
   Eigenvalues:    20.1035    24.5548    26.4489
     22  H    Isotropic =    23.9334   Anisotropy =     6.6042
   XX=    24.6693   YX=     3.3423   ZX=    -1.4213
   XY=     2.5597   YY=    25.9607   ZY=     1.1345
   XZ=    -1.3124   YZ=     0.9403   ZZ=    21.1702
   Eigenvalues:    19.9270    23.5370    28.3362
     23  H    Isotropic =    24.1106   Anisotropy =    12.1298
   XX=    28.5724   YX=     5.4610   ZX=    -5.0219
   XY=     2.4058   YY=    22.7045   ZY=    -1.4968
   XZ=    -2.8183   YZ=    -2.0054   ZZ=    21.0548
   Eigenvalues:    19.3798    20.7548    32.1971
     24  C    Isotropic =   125.4293   Anisotropy =    46.9018
   XX=   135.5096   YX=    -0.5010   ZX=    -5.3239
   XY=     1.0801   YY=    84.3492   ZY=    -6.2820
   XZ=     9.3351   YZ=     1.4681   ZZ=   156.4290
   Eigenvalues:    84.2664   135.3242   156.6971
     25  C    Isotropic =   138.6028   Anisotropy =    13.1737
   XX=   136.0949   YX=     0.2316   ZX=    -0.2204
   XY=    -5.9785   YY=   141.3880   ZY=    -4.9540
   XZ=    15.8925   YZ=     0.2090   ZZ=   138.3257
   Eigenvalues:   129.2616   139.1615   147.3853
     26  C    Isotropic =    38.5451   Anisotropy =   172.1529
   XX=    29.0834   YX=    15.2755   ZX=    37.1814
   XY=    35.2984   YY=   -11.2302   ZY=   -77.3324
   XZ=    87.8961   YZ=   -71.9547   ZZ=    97.7823
   Eigenvalues:   -76.1225    38.4441   153.3138
     27  C    Isotropic =    34.3451   Anisotropy =   180.4606
   XX=    29.5594   YX=    18.6017   ZX=    30.5720
   XY=    -0.9984   YY=   -32.2748   ZY=   -72.2150
   XZ=    -9.8638   YZ=  -118.4620   ZZ=   105.7508
   Eigenvalues:   -82.3655    30.7487   154.6522
     28  H    Isotropic =    24.1607   Anisotropy =     2.2333
   XX=    24.4816   YX=     0.6072   ZX=     0.6880
   XY=    -0.4357   YY=    22.9004   ZY=     2.1072
   XZ=    -1.8992   YZ=    -0.4109   ZZ=    25.1000
   Eigenvalues:    22.5690    24.2635    25.6495
     29  C    Isotropic =   139.5352   Anisotropy =     9.9176
   XX=   139.2644   YX=    -3.6163   ZX=     3.2069
   XY=     1.4958   YY=   138.0939   ZY=    -2.1940
   XZ=   -12.9011   YZ=    -6.1474   ZZ=   141.2474
   Eigenvalues:   132.7989   139.6598   146.1470
     30  H    Isotropic =    28.6360   Anisotropy =     7.3185
   XX=    32.0656   YX=     0.8166   ZX=     2.1545
   XY=     2.3144   YY=    24.8478   ZY=     0.3680
   XZ=     1.4565   YZ=     3.6927   ZZ=    28.9946
   Eigenvalues:    23.9381    28.4549    33.5150
     31  C    Isotropic =   129.9787   Anisotropy =    40.3207
   XX=   145.0077   YX=   -21.0731   ZX=     9.5747
   XY=    -8.4589   YY=   138.1887   ZY=    13.0304
   XZ=    -1.0469   YZ=     4.8799   ZZ=   106.7396
   Eigenvalues:   102.7125   130.3644   156.8591
     32  H    Isotropic =    31.4049   Anisotropy =     9.5866
   XX=    29.4338   YX=    -6.2032   ZX=    -3.4993
   XY=    -4.3698   YY=    32.8925   ZY=     0.0311
   XZ=    -2.6274   YZ=     1.5627   ZZ=    31.8884
   Eigenvalues:    24.9694    31.4493    37.7960
     33  H    Isotropic =    30.0233   Anisotropy =    11.0630
   XX=    27.3014   YX=    -1.9003   ZX=     2.0684
   XY=    -1.0070   YY=    27.0842   ZY=    -2.8545
   XZ=     1.7555   YZ=    -3.9882   ZZ=    35.6844
   Eigenvalues:    25.4842    27.1871    37.3987
     34  C    Isotropic =   134.2571   Anisotropy =    42.7239
   XX=   141.6986   YX=    -2.8347   ZX=    12.3458
   XY=     2.0635   YY=   102.4751   ZY=    10.6281
   XZ=     4.3123   YZ=     3.9497   ZZ=   158.5975
   Eigenvalues:   101.4910   138.5406   162.7397
     35  P    Isotropic =   248.0488   Anisotropy =    83.7998
   XX=   256.1832   YX=    21.8964   ZX=    44.3019
   XY=    14.6507   YY=   234.7122   ZY=    -0.4924
   XZ=    52.3065   YZ=   -15.4396   ZZ=   253.2510
   Eigenvalues:   197.1935   243.0375   303.9153
     36  C    Isotropic =    46.0788   Anisotropy =   181.3848
   XX=    68.4052   YX=    14.8136   ZX=   -74.6459
   XY=    24.0634   YY=   -33.7469   ZY=    16.1202
   XZ=   -83.4174   YZ=    22.7272   ZZ=   103.5782
   Eigenvalues:   -47.8897    19.1241   167.0021
     37  C    Isotropic =    45.4439   Anisotropy =   194.4984
   XX=    57.8011   YX=   -37.5208   ZX=   -86.7556
   XY=   -40.5415   YY=   -37.5464   ZY=   -18.1678
   XZ=   -79.4877   YZ=   -26.7736   ZZ=   116.0769
   Eigenvalues:   -67.7858    29.0079   175.1095
     38  C    Isotropic =    52.2245   Anisotropy =   185.5359
   XX=    29.9094   YX=    -1.4540   ZX=  -113.2011
   XY=    -2.6506   YY=    39.7769   ZY=     5.4332
   XZ=  -114.4055   YZ=     2.4228   ZZ=    86.9873
   Eigenvalues:   -58.8853    39.6438   175.9151
     39  C    Isotropic =    48.0155   Anisotropy =   193.1759
   XX=    75.3835   YX=    23.9271   ZX=   -80.7565
   XY=    25.2268   YY=   -42.7013   ZY=    29.8256
   XZ=   -81.4454   YZ=    31.7363   ZZ=   111.3642
   Eigenvalues:   -63.1279    30.3749   176.7994
     40  C    Isotropic =    51.0028   Anisotropy =   186.9763
   XX=    73.2217   YX=   -36.6955   ZX=   -81.1517
   XY=   -37.9501   YY=   -33.7746   ZY=   -21.4422
   XZ=   -78.0579   YZ=   -23.2154   ZZ=   113.5613
   Eigenvalues:   -60.0293    37.3841   175.6537
     41  C    Isotropic =    37.1076   Anisotropy =   191.0259
   XX=    22.0067   YX=     4.5594   ZX=  -116.6492
   XY=    -5.4329   YY=    21.3312   ZY=     2.3866
   XZ=  -117.6702   YZ=   -11.2181   ZZ=    67.9849
   Eigenvalues:   -74.5012    21.3657   164.4582
     42  H    Isotropic =    21.6576   Anisotropy =    11.5932
   XX=    17.8886   YX=    -3.3884   ZX=    -0.0837
   XY=    -1.6999   YY=    28.6943   ZY=    -1.1295
   XZ=     1.4281   YZ=    -0.9527   ZZ=    18.3899
   Eigenvalues:    17.1558    18.4306    29.3864
     43  H    Isotropic =    23.5213   Anisotropy =     7.3124
   XX=    23.3533   YX=    -2.7337   ZX=     2.3905
   XY=    -2.3870   YY=    25.7038   ZY=    -1.1382
   XZ=     3.0373   YZ=    -1.6053   ZZ=    21.5069
   Eigenvalues:    19.5337    22.6340    28.3963
     44  H    Isotropic =    23.6848   Anisotropy =     4.0635
   XX=    24.2475   YX=     0.0606   ZX=     2.7393
   XY=     0.4398   YY=    24.7720   ZY=     0.7841
   XZ=     2.9835   YZ=     0.4108   ZZ=    22.0349
   Eigenvalues:    20.0470    24.6136    26.3938
     45  H    Isotropic =    23.9478   Anisotropy =     6.4411
   XX=    23.2167   YX=    -1.5558   ZX=     1.8506
   XY=    -1.0813   YY=    27.5699   ZY=    -0.7389
   XZ=     1.7733   YZ=    -1.2290   ZZ=    21.0569
   Eigenvalues:    20.0215    23.5802    28.2419
     46  H    Isotropic =    24.2284   Anisotropy =    11.5162
   XX=    25.7726   YX=    -4.9459   ZX=     4.3099
   XY=    -3.0782   YY=    24.3318   ZY=    -3.6959
   XZ=     1.9119   YZ=    -4.6190   ZZ=    22.5809
   Eigenvalues:    19.2042    21.5752    31.9059
     47  C    Isotropic =    45.8524   Anisotropy =   172.0505
   XX=    26.2172   YX=   -77.7591   ZX=    52.3509
   XY=   -68.8728   YY=    34.3885   ZY=   -43.6702
   XZ=    54.0032   YZ=   -45.1022   ZZ=    76.9516
   Eigenvalues:   -43.8721    20.8767   160.5527
     48  C    Isotropic =    49.3216   Anisotropy =   184.7406
   XX=    30.9277   YX=   -23.9950   ZX=    94.6680
   XY=   -19.8097   YY=    74.0629   ZY=   -64.6025
   XZ=    91.3206   YZ=   -67.8834   ZZ=    42.9742
   Eigenvalues:   -63.5890    39.0718   172.4820
     49  C    Isotropic =    53.2522   Anisotropy =   182.2440
   XX=    79.0398   YX=   -45.0953   ZX=    40.1119
   XY=   -45.7662   YY=    16.3622   ZY=   -93.9048
   XZ=    40.3262   YZ=   -94.1141   ZZ=    64.3546
   Eigenvalues:   -57.7244    42.7328   174.7482
     50  C    Isotropic =    48.1551   Anisotropy =   192.4806
   XX=    17.6813   YX=   -85.6488   ZX=    58.1467
   XY=   -89.5728   YY=    35.0782   ZY=   -44.1634
   XZ=    60.2209   YZ=   -43.3166   ZZ=    91.7059
   Eigenvalues:   -63.3352    31.3251   176.4755
     51  C    Isotropic =    50.0803   Anisotropy =   189.6625
   XX=    32.2958   YX=   -26.7987   ZX=    95.8841
   XY=   -29.4007   YY=    72.4639   ZY=   -62.4393
   XZ=    95.3790   YZ=   -63.6033   ZZ=    45.4812
   Eigenvalues:   -61.4653    35.1843   176.5220
     52  C    Isotropic =    38.8769   Anisotropy =   206.4141
   XX=    54.2894   YX=   -51.6889   ZX=    58.4261
   XY=   -40.9401   YY=    10.9859   ZY=   -99.5647
   XZ=    51.4954   YZ=  -102.5395   ZZ=    51.3553
   Eigenvalues:   -71.8869    12.0312   176.4863
     53  H    Isotropic =    21.8526   Anisotropy =    12.9726
   XX=    28.4110   YX=     5.6956   ZX=    -2.8005
   XY=     4.1667   YY=    16.6681   ZY=     1.3851
   XZ=    -1.1680   YZ=    -0.4818   ZZ=    20.4788
   Eigenvalues:    14.6560    20.4009    30.5010
     54  H    Isotropic =    23.6597   Anisotropy =     6.8198
   XX=    24.6216   YX=     3.6788   ZX=    -0.8346
   XY=     3.5381   YY=    24.5526   ZY=     1.5113
   XZ=    -0.9919   YZ=     1.0510   ZZ=    21.8050
   Eigenvalues:    19.7819    22.9910    28.2063
     55  H    Isotropic =    23.6484   Anisotropy =     4.1553
   XX=    23.7378   YX=     0.8874   ZX=    -2.0418
   XY=     0.5911   YY=    23.5050   ZY=     2.4454
   XZ=    -1.9996   YZ=     2.2649   ZZ=    23.7026
   Eigenvalues:    20.1570    24.3697    26.4186
     56  H    Isotropic =    23.7488   Anisotropy =     6.9312
   XX=    25.9417   YX=     2.8825   ZX=    -2.2004
   XY=     3.1049   YY=    23.3899   ZY=     0.6039
   XZ=    -2.4283   YZ=     0.4240   ZZ=    21.9148
   Eigenvalues:    19.7895    23.0874    28.3697
     57  H    Isotropic =    23.5772   Anisotropy =    12.5812
   XX=    24.2279   YX=     5.9172   ZX=     0.5827
   XY=     6.5964   YY=    26.6406   ZY=     1.4529
   XZ=    -0.4766   YZ=     2.0373   ZZ=    19.8631
   Eigenvalues:    18.2725    20.4944    31.9647
     58  Pd   Isotropic =  -169.6496   Anisotropy =   276.9324
   XX=   -13.3828   YX=   -14.1010   ZX=    -5.3408
   XY=   -24.3734   YY=  -486.3438   ZY=    97.9859
   XZ=     0.0983   YZ=   114.7424   ZZ=    -9.2221
   Eigenvalues:  -509.6541   -14.2666    14.9720
     59  Cl   Isotropic =   956.3112   Anisotropy =   530.6963
   XX=   727.7952   YX=   -26.6801   ZX=  -136.6714
   XY=    68.7195   YY=  1294.9457   ZY=   -74.2602
   XZ=  -168.3899   YZ=   -71.0214   ZZ=   846.1928
   Eigenvalues:   622.5238   936.3011  1310.1088
     60  Cl   Isotropic =   940.8729   Anisotropy =   532.9726
   XX=   713.2838   YX=    74.0818   ZX=   115.4026
   XY=    54.2850   YY=  1257.1376   ZY=  -129.8568
   XZ=   144.0206   YZ=  -129.1604   ZZ=   852.1973
   Eigenvalues:   611.9796   914.4511  1296.1880
     61  H    Isotropic =    28.2217   Anisotropy =     3.8602
   XX=    28.1433   YX=    -3.3831   ZX=     1.5914
   XY=     0.5989   YY=    29.3840   ZY=     1.0127
   XZ=     0.2645   YZ=     2.9733   ZZ=    27.1378
   Eigenvalues:    25.1828    28.6870    30.7952
     62  H    Isotropic =    24.6668   Anisotropy =     2.5786
   XX=    24.2427   YX=    -0.3522   ZX=    -1.5824
   XY=     0.7155   YY=    23.6342   ZY=     0.3770
   XZ=     2.2377   YZ=     1.0918   ZZ=    26.1234
   Eigenvalues:    23.4235    24.1910    26.3858
     63  H    Isotropic =    28.9775   Anisotropy =     7.4340
   XX=    30.9053   YX=     4.2812   ZX=    -0.7809
   XY=     3.7490   YY=    26.3989   ZY=    -2.3569
   XZ=    -1.8092   YZ=     0.0313   ZZ=    29.6283
   Eigenvalues:    24.0249    28.9741    33.9335
     64  H    Isotropic =    28.5119   Anisotropy =     5.9446
   XX=    28.7676   YX=    -2.8680   ZX=     0.3080
   XY=    -1.5858   YY=    25.7895   ZY=     1.7293
   XZ=    -0.5964   YZ=     3.7445   ZZ=    30.9787
   Eigenvalues:    23.7970    29.2639    32.4750
 End of Minotr F.D. properties file   721 does not exist.
 End of Minotr F.D. properties file   722 does not exist.
 End of Minotr F.D. properties file   788 does not exist.

 **********************************************************************

            Population analysis using the SCF density.

 **********************************************************************

 Orbital symmetries:
       Occupied  (A) (A) (A) (A) (A) (A) (A) (A) (A) (A) (A) (A)
                 (A) (A) (A) (A) (A) (A) (A) (A) (A) (A) (A) (A)
                 (A) (A) (A) (A) (A) (A) (A) (A) (A) (A) (A) (A)
                 (A) (A) (A) (A) (A) (A) (A) (A) (A) (A) (A) (A)
                 (A) (A) (A) (A) (A) (A) (A) (A) (A) (A) (A) (A)
                 (A) (A) (A) (A) (A) (A) (A) (A) (A) (A) (A) (A)
                 (A) (A) (A) (A) (A) (A) (A) (A) (A) (A) (A) (A)
                 (A) (A) (A) (A) (A) (A) (A) (A) (A) (A) (A) (A)
                 (A) (A) (A) (A) (A) (A) (A) (A) (A) (A) (A) (A)
                 (A) (A) (A) (A) (A) (A) (A) (A) (A) (A) (A) (A)
                 (A) (A) (A) (A) (A) (A) (A) (A) (A) (A) (A) (A)
                 (A) (A) (A) (A) (A) (A) (A) (A) (A) (A) (A) (A)
                 (A) (A) (A) (A)
       Virtual   (A) (A) (A) (A) (A) (A) (A) (A) (A) (A) (A) (A)
                 (A) (A) (A) (A) (A) (A) (A) (A) (A) (A) (A) (A)
                 (A) (A) (A) (A) (A) (A) (A) (A) (A) (A) (A) (A)
                 (A) (A) (A) (A) (A) (A) (A) (A) (A) (A) (A) (A)
                 (A) (A) (A) (A) (A) (A) (A) (A) (A) (A) (A) (A)
                 (A) (A) (A) (A) (A) (A) (A) (A) (A) (A) (A) (A)
                 (A) (A) (A) (A) (A) (A) (A) (A) (A) (A) (A) (A)
                 (A) (A) (A) (A) (A) (A) (A) (A) (A) (A) (A) (A)
                 (A) (A) (A) (A) (A) (A) (A) (A) (A) (A) (A) (A)
                 (A) (A) (A) (A) (A) (A) (A) (A) (A) (A) (A) (A)
                 (A) (A) (A) (A) (A) (A) (A) (A) (A) (A) (A) (A)
                 (A) (A) (A) (A) (A) (A) (A) (A) (A) (A) (A) (A)
                 (A) (A) (A) (A) (A) (A) (A) (A) (A) (A) (A) (A)
                 (A) (A) (A) (A) (A) (A) (A) (A) (A) (A) (A) (A)
                 (A) (A) (A) (A) (A) (A) (A) (A) (A) (A) (A) (A)
                 (A) (A) (A) (A) (A) (A) (A) (A) (A) (A) (A) (A)
                 (A) (A) (A) (A) (A) (A) (A) (A) (A) (A) (A) (A)
                 (A) (A) (A) (A) (A) (A) (A) (A) (A) (A) (A) (A)
                 (A) (A) (A) (A) (A) (A) (A) (A) (A) (A) (A) (A)
                 (A) (A) (A) (A) (A) (A) (A) (A) (A) (A) (A) (A)
                 (A) (A) (A) (A) (A) (A) (A) (A) (A) (A) (A) (A)
                 (A) (A) (A) (A) (A) (A) (A) (A) (A) (A) (A) (A)
                 (A) (A) (A) (A) (A) (A) (A) (A) (A) (A) (A) (A)
                 (A) (A) (A) (A) (A) (A) (A) (A) (A) (A) (A) (A)
                 (A) (A) (A) (A) (A) (A) (A) (A) (A) (A) (A) (A)
                 (A) (A) (A) (A) (A) (A) (A) (A) (A) (A) (A) (A)
                 (A) (A) (A) (A) (A) (A) (A) (A) (A) (A) (A) (A)
                 (A) (A) (A) (A) (A) (A) (A) (A) (A) (A) (A) (A)
                 (A) (A) (A) (A) (A) (A) (A) (A) (A) (A) (A) (A)
                 (A) (A) (A) (A) (A) (A) (A) (A) (A) (A) (A) (A)
                 (A) (A) (A) (A) (A) (A) (A) (A) (A) (A) (A) (A)
                 (A) (A) (A) (A) (A) (A) (A) (A) (A) (A) (A) (A)
                 (A) (A) (A) (A) (A) (A) (A) (A) (A) (A) (A) (A)
                 (A) (A) (A) (A) (A) (A) (A) (A) (A) (A) (A) (A)
                 (A) (A) (A) (A) (A) (A) (A) (A) (A) (A) (A) (A)
                 (A) (A) (A) (A) (A) (A) (A) (A) (A) (A) (A) (A)
                 (A) (A) (A) (A) (A) (A) (A) (A) (A) (A) (A) (A)
                 (A) (A) (A) (A) (A) (A) (A) (A) (A) (A) (A) (A)
                 (A) (A) (A) (A) (A) (A) (A) (A) (A) (A) (A) (A)
                 (A) (A) (A) (A) (A) (A) (A) (A) (A) (A) (A) (A)
                 (A) (A) (A) (A) (A) (A) (A) (A) (A) (A) (A) (A)
                 (A) (A) (A) (A) (A) (A) (A) (A) (A) (A) (A) (A)
                 (A) (A) (A) (A) (A) (A) (A) (A) (A) (A) (A) (A)
                 (A) (A) (A) (A) (A) (A) (A) (A) (A) (A) (A) (A)
                 (A) (A) (A) (A) (A) (A) (A) (A) (A) (A) (A) (A)
                 (A) (A) (A) (A) (A) (A) (A) (A) (A) (A) (A) (A)
                 (A) (A) (A) (A) (A) (A) (A) (A) (A) (A) (A) (A)
                 (A) (A) (A) (A) (A) (A) (A) (A) (A) (A) (A) (A)
                 (A) (A) (A) (A) (A) (A) (A) (A) (A) (A) (A) (A)
                 (A) (A) (A) (A) (A) (A) (A) (A) (A) (A) (A) (A)
                 (A) (A) (A) (A) (A) (A) (A) (A) (A) (A) (A) (A)
                 (A) (A) (A) (A) (A) (A) (A) (A) (A) (A) (A) (A)
                 (A) (A) (A) (A) (A) (A) (A) (A) (A) (A) (A) (A)
                 (A) (A) (A) (A) (A) (A) (A) (A) (A) (A) (A) (A)
                 (A) (A) (A) (A) (A) (A) (A) (A) (A) (A) (A) (A)
                 (A) (A) (A) (A) (A) (A) (A) (A) (A) (A) (A) (A)
                 (A) (A) (A) (A) (A) (A) (A) (A) (A) (A) (A) (A)
                 (A) (A) (A) (A) (A) (A) (A) (A) (A) (A) (A) (A)
                 (A) (A) (A) (A) (A) (A) (A) (A) (A) (A) (A) (A)
                 (A) (A) (A) (A) (A) (A) (A) (A) (A) (A) (A) (A)
                 (A) (A) (A) (A) (A) (A) (A) (A) (A) (A) (A) (A)
                 (A) (A) (A) (A) (A) (A) (A) (A) (A) (A) (A) (A)
                 (A) (A) (A) (A) (A) (A) (A) (A) (A) (A) (A) (A)
                 (A) (A) (A) (A) (A) (A) (A) (A) (A) (A) (A) (A)
                 (A) (A) (A) (A) (A) (A) (A) (A) (A) (A) (A) (A)
                 (A) (A) (A) (A) (A) (A) (A) (A) (A) (A) (A) (A)
                 (A) (A) (A) (A) (A) (A) (A) (A) (A) (A) (A) (A)
                 (A) (A) (A) (A) (A) (A) (A) (A) (A) (A) (A) (A)
                 (A) (A) (A) (A) (A) (A) (A) (A) (A) (A) (A) (A)
                 (A) (A) (A) (A) (A) (A) (A) (A) (A) (A) (A) (A)
                 (A) (A) (A) (A) (A) (A) (A) (A) (A) (A) (A) (A)
                 (A) (A) (A) (A) (A) (A) (A) (A) (A) (A) (A) (A)
                 (A) (A) (A) (A) (A) (A) (A) (A) (A) (A) (A) (A)
                 (A) (A) (A) (A) (A) (A) (A) (A) (A) (A) (A) (A)
                 (A) (A) (A) (A) (A) (A) (A) (A) (A) (A) (A) (A)
                 (A) (A) (A) (A) (A) (A) (A) (A) (A) (A) (A) (A)
                 (A) (A) (A) (A) (A) (A) (A) (A) (A) (A) (A) (A)
                 (A) (A) (A) (A) (A) (A) (A) (A) (A) (A) (A) (A)
                 (A) (A) (A) (A) (A) (A) (A) (A) (A) (A) (A) (A)
                 (A) (A) (A) (A) (A) (A) (A) (A) (A) (A) (A) (A)
                 (A) (A) (A) (A) (A) (A) (A) (A) (A) (A) (A) (A)
                 (A) (A) (A) (A) (A) (A) (A) (A) (A) (A) (A) (A)
                 (A) (A) (A) (A) (A) (A) (A) (A) (A) (A) (A) (A)
                 (A) (A) (A) (A) (A) (A) (A) (A) (A) (A) (A) (A)
                 (A) (A) (A) (A) (A) (A) (A) (A) (A) (A) (A) (A)
                 (A) (A) (A) (A) (A) (A) (A) (A) (A) (A) (A) (A)
                 (A) (A) (A) (A) (A) (A) (A) (A) (A) (A) (A) (A)
                 (A) (A) (A) (A) (A) (A) (A) (A) (A) (A) (A) (A)
                 (A) (A) (A) (A) (A) (A) (A) (A) (A) (A) (A) (A)
                 (A) (A) (A) (A) (A) (A) (A) (A) (A) (A) (A) (A)
                 (A) (A) (A) (A) (A) (A) (A) (A) (A) (A) (A) (A)
                 (A) (A) (A) (A) (A) (A) (A) (A) (A) (A) (A) (A)
                 (A) (A) (A) (A) (A) (A) (A) (A) (A) (A) (A) (A)
                 (A) (A) (A) (A) (A) (A) (A) (A) (A) (A) (A) (A)
                 (A) (A) (A) (A) (A) (A) (A) (A) (A) (A) (A) (A)
                 (A) (A) (A) (A) (A) (A) (A) (A) (A) (A) (A) (A)
                 (A) (A) (A) (A) (A) (A) (A) (A) (A) (A) (A) (A)
                 (A)
 The electronic state is 1-A.
 Alpha  occ. eigenvalues -- -101.61237-101.61131 -77.26601 -77.26583 -10.27370
 Alpha  occ. eigenvalues --  -10.27250 -10.26850 -10.26819 -10.26242 -10.26235
 Alpha  occ. eigenvalues --  -10.26116 -10.25800 -10.25584 -10.25561 -10.25275
 Alpha  occ. eigenvalues --  -10.25250 -10.25177 -10.25124 -10.25117 -10.25099
 Alpha  occ. eigenvalues --  -10.25096 -10.24881 -10.24841 -10.24784 -10.24776
 Alpha  occ. eigenvalues --  -10.24765 -10.24698 -10.24646 -10.24531 -10.24480
 Alpha  occ. eigenvalues --  -10.24416 -10.24330 -10.24329 -10.24265 -10.24230
 Alpha  occ. eigenvalues --   -9.43749  -9.43639  -7.16926  -7.16814  -7.16483
 Alpha  occ. eigenvalues --   -7.16436  -7.16362  -7.16339  -6.65842  -6.65825
 Alpha  occ. eigenvalues --   -4.79439  -4.79425  -4.79402  -4.79375  -4.79174
 Alpha  occ. eigenvalues --   -4.79167  -3.51777  -2.19472  -2.19366  -2.16125
 Alpha  occ. eigenvalues --   -0.94192  -0.90083  -0.89710  -0.89375  -0.89075
 Alpha  occ. eigenvalues --   -0.83130  -0.81056  -0.79193  -0.78696  -0.78460
 Alpha  occ. eigenvalues --   -0.78221  -0.78145  -0.78096  -0.77931  -0.76791
 Alpha  occ. eigenvalues --   -0.74866  -0.73982  -0.73361  -0.69773  -0.67889
 Alpha  occ. eigenvalues --   -0.64408  -0.64125  -0.63762  -0.63654  -0.63254
 Alpha  occ. eigenvalues --   -0.63018  -0.62531  -0.61629  -0.59027  -0.58887
 Alpha  occ. eigenvalues --   -0.56296  -0.55516  -0.54655  -0.54509  -0.53841
 Alpha  occ. eigenvalues --   -0.53031  -0.50424  -0.48928  -0.48775  -0.48449
 Alpha  occ. eigenvalues --   -0.48267  -0.48079  -0.47821  -0.47552  -0.46763
 Alpha  occ. eigenvalues --   -0.45913  -0.45420  -0.45223  -0.44615  -0.44551
 Alpha  occ. eigenvalues --   -0.44438  -0.43833  -0.43452  -0.42468  -0.41604
 Alpha  occ. eigenvalues --   -0.41276  -0.40637  -0.40172  -0.39805  -0.39680
 Alpha  occ. eigenvalues --   -0.39273  -0.38815  -0.38599  -0.37980  -0.37516
 Alpha  occ. eigenvalues --   -0.37250  -0.37097  -0.36854  -0.36656  -0.36309
 Alpha  occ. eigenvalues --   -0.35823  -0.35686  -0.35206  -0.34424  -0.32177
 Alpha  occ. eigenvalues --   -0.31196  -0.30860  -0.30641  -0.30091  -0.29101
 Alpha  occ. eigenvalues --   -0.28823  -0.28556  -0.28226  -0.28091  -0.27938
 Alpha  occ. eigenvalues --   -0.27791  -0.26878  -0.26541  -0.25602  -0.24805
 Alpha  occ. eigenvalues --   -0.23835  -0.23674  -0.23453
 Alpha virt. eigenvalues --   -0.07427  -0.04741  -0.04457  -0.03935  -0.03314
 Alpha virt. eigenvalues --   -0.03040  -0.02699  -0.02379  -0.01730  -0.01618
 Alpha virt. eigenvalues --    0.00466   0.00869   0.03404   0.03862   0.03992
 Alpha virt. eigenvalues --    0.04417   0.05097   0.05274   0.05565   0.06015
 Alpha virt. eigenvalues --    0.06281   0.06528   0.06798   0.06917   0.07535
 Alpha virt. eigenvalues --    0.08013   0.08159   0.08612   0.08763   0.09233
 Alpha virt. eigenvalues --    0.09620   0.09712   0.09977   0.10549   0.10615
 Alpha virt. eigenvalues --    0.10712   0.10839   0.11005   0.11404   0.11664
 Alpha virt. eigenvalues --    0.12158   0.12470   0.12524   0.12988   0.13408
 Alpha virt. eigenvalues --    0.13572   0.13951   0.14104   0.14664   0.14708
 Alpha virt. eigenvalues --    0.15113   0.15473   0.16289   0.16544   0.16773
 Alpha virt. eigenvalues --    0.17027   0.17112   0.17731   0.18248   0.18670
 Alpha virt. eigenvalues --    0.18767   0.18977   0.19230   0.19684   0.20002
 Alpha virt. eigenvalues --    0.20139   0.20732   0.20965   0.21308   0.21487
 Alpha virt. eigenvalues --    0.21777   0.22047   0.22133   0.22456   0.22661
 Alpha virt. eigenvalues --    0.22754   0.22862   0.23357   0.23402   0.23459
 Alpha virt. eigenvalues --    0.23886   0.24041   0.24131   0.24364   0.24573
 Alpha virt. eigenvalues --    0.24789   0.24973   0.25190   0.25450   0.25649
 Alpha virt. eigenvalues --    0.25877   0.26262   0.26701   0.26815   0.27187
 Alpha virt. eigenvalues --    0.27696   0.27880   0.27907   0.28003   0.28468
 Alpha virt. eigenvalues --    0.28783   0.29265   0.29785   0.30057   0.30362
 Alpha virt. eigenvalues --    0.30538   0.30659   0.30824   0.31347   0.31684
 Alpha virt. eigenvalues --    0.31943   0.32130   0.32566   0.33049   0.33233
 Alpha virt. eigenvalues --    0.33591   0.33892   0.34151   0.34443   0.34690
 Alpha virt. eigenvalues --    0.34964   0.35457   0.35521   0.35809   0.35932
 Alpha virt. eigenvalues --    0.36177   0.36472   0.36753   0.37165   0.37229
 Alpha virt. eigenvalues --    0.37619   0.38066   0.38192   0.38393   0.38659
 Alpha virt. eigenvalues --    0.38833   0.38937   0.39189   0.39558   0.39702
 Alpha virt. eigenvalues --    0.39795   0.40060   0.40227   0.40524   0.40604
 Alpha virt. eigenvalues --    0.40928   0.41168   0.41415   0.41721   0.41893
 Alpha virt. eigenvalues --    0.42070   0.42293   0.42413   0.42466   0.42863
 Alpha virt. eigenvalues --    0.43005   0.43381   0.43565   0.43832   0.43982
 Alpha virt. eigenvalues --    0.44335   0.44572   0.44752   0.44910   0.45048
 Alpha virt. eigenvalues --    0.45256   0.45691   0.45869   0.46236   0.46336
 Alpha virt. eigenvalues --    0.46666   0.46896   0.47092   0.47401   0.47524
 Alpha virt. eigenvalues --    0.47703   0.48048   0.48243   0.48391   0.48667
 Alpha virt. eigenvalues --    0.48877   0.49110   0.49270   0.49636   0.49888
 Alpha virt. eigenvalues --    0.50176   0.50324   0.50502   0.51129   0.51457
 Alpha virt. eigenvalues --    0.51498   0.51638   0.52329   0.52794   0.52940
 Alpha virt. eigenvalues --    0.53152   0.53549   0.53691   0.53948   0.54147
 Alpha virt. eigenvalues --    0.54358   0.54761   0.55499   0.55681   0.56112
 Alpha virt. eigenvalues --    0.56425   0.56776   0.57308   0.57466   0.58098
 Alpha virt. eigenvalues --    0.58366   0.58970   0.58996   0.59780   0.60028
 Alpha virt. eigenvalues --    0.60297   0.60772   0.61584   0.61659   0.61904
 Alpha virt. eigenvalues --    0.62275   0.62818   0.63622   0.63841   0.64279
 Alpha virt. eigenvalues --    0.64436   0.64612   0.65571   0.65848   0.66064
 Alpha virt. eigenvalues --    0.66347   0.66575   0.66905   0.66972   0.67176
 Alpha virt. eigenvalues --    0.67494   0.67764   0.68313   0.68472   0.68987
 Alpha virt. eigenvalues --    0.69253   0.69424   0.69941   0.70082   0.70262
 Alpha virt. eigenvalues --    0.70657   0.71385   0.71475   0.71615   0.71819
 Alpha virt. eigenvalues --    0.72135   0.72410   0.72782   0.73044   0.73096
 Alpha virt. eigenvalues --    0.73578   0.74477   0.74597   0.75003   0.75250
 Alpha virt. eigenvalues --    0.75442   0.75950   0.76092   0.76285   0.76491
 Alpha virt. eigenvalues --    0.77048   0.77566   0.77650   0.78117   0.78339
 Alpha virt. eigenvalues --    0.78600   0.78920   0.79228   0.79781   0.80089
 Alpha virt. eigenvalues --    0.80120   0.80399   0.80901   0.81502   0.81707
 Alpha virt. eigenvalues --    0.82036   0.82237   0.82645   0.82768   0.83360
 Alpha virt. eigenvalues --    0.83811   0.84264   0.84989   0.85238   0.85453
 Alpha virt. eigenvalues --    0.85790   0.86171   0.86509   0.86526   0.87553
 Alpha virt. eigenvalues --    0.88076   0.88642   0.89312   0.89636   0.89764
 Alpha virt. eigenvalues --    0.90283   0.90514   0.90642   0.91027   0.91399
 Alpha virt. eigenvalues --    0.92275   0.92489   0.93103   0.93551   0.93714
 Alpha virt. eigenvalues --    0.93880   0.94168   0.94532   0.95453   0.96136
 Alpha virt. eigenvalues --    0.96170   0.96713   0.97589   0.97985   0.98567
 Alpha virt. eigenvalues --    0.98822   0.99291   1.00151   1.00413   1.00656
 Alpha virt. eigenvalues --    1.01121   1.01843   1.02645   1.03424   1.03550
 Alpha virt. eigenvalues --    1.03782   1.04059   1.04214   1.04805   1.05314
 Alpha virt. eigenvalues --    1.05787   1.06392   1.06659   1.07358   1.07405
 Alpha virt. eigenvalues --    1.07937   1.08460   1.08787   1.09419   1.09856
 Alpha virt. eigenvalues --    1.10161   1.10453   1.10840   1.11120   1.11829
 Alpha virt. eigenvalues --    1.12653   1.12825   1.13929   1.14210   1.15176
 Alpha virt. eigenvalues --    1.15606   1.15846   1.16005   1.16481   1.16720
 Alpha virt. eigenvalues --    1.17367   1.18280   1.18564   1.19256   1.19682
 Alpha virt. eigenvalues --    1.20075   1.20130   1.20906   1.21225   1.21492
 Alpha virt. eigenvalues --    1.21916   1.22147   1.22451   1.22724   1.22902
 Alpha virt. eigenvalues --    1.23366   1.23827   1.23857   1.24225   1.24762
 Alpha virt. eigenvalues --    1.24999   1.25106   1.25404   1.25693   1.26213
 Alpha virt. eigenvalues --    1.26577   1.26808   1.27220   1.27648   1.27907
 Alpha virt. eigenvalues --    1.28370   1.28624   1.28970   1.29390   1.29667
 Alpha virt. eigenvalues --    1.29935   1.30293   1.30507   1.31080   1.31446
 Alpha virt. eigenvalues --    1.31681   1.32094   1.32308   1.32794   1.33457
 Alpha virt. eigenvalues --    1.33808   1.34119   1.34667   1.34882   1.36392
 Alpha virt. eigenvalues --    1.36621   1.36803   1.37208   1.37628   1.38351
 Alpha virt. eigenvalues --    1.38948   1.39422   1.40475   1.40775   1.41013
 Alpha virt. eigenvalues --    1.42410   1.42709   1.43062   1.43455   1.44146
 Alpha virt. eigenvalues --    1.44220   1.44902   1.45264   1.45823   1.46200
 Alpha virt. eigenvalues --    1.46876   1.47233   1.47344   1.47737   1.48220
 Alpha virt. eigenvalues --    1.48527   1.48888   1.49802   1.50703   1.50925
 Alpha virt. eigenvalues --    1.51275   1.51879   1.52148   1.52381   1.53001
 Alpha virt. eigenvalues --    1.53178   1.53669   1.54380   1.54420   1.54881
 Alpha virt. eigenvalues --    1.55349   1.55446   1.56435   1.57179   1.57320
 Alpha virt. eigenvalues --    1.57648   1.58031   1.58449   1.58999   1.59134
 Alpha virt. eigenvalues --    1.60033   1.60270   1.60740   1.61143   1.61967
 Alpha virt. eigenvalues --    1.62168   1.62565   1.62988   1.63521   1.63986
 Alpha virt. eigenvalues --    1.64544   1.65235   1.65561   1.65795   1.66700
 Alpha virt. eigenvalues --    1.67038   1.67224   1.67457   1.67797   1.68180
 Alpha virt. eigenvalues --    1.68928   1.69113   1.69516   1.70035   1.70100
 Alpha virt. eigenvalues --    1.70222   1.70495   1.70821   1.71489   1.71640
 Alpha virt. eigenvalues --    1.72064   1.72256   1.72415   1.72640   1.73522
 Alpha virt. eigenvalues --    1.73760   1.73860   1.74521   1.74662   1.75398
 Alpha virt. eigenvalues --    1.75668   1.76309   1.76735   1.77132   1.77553
 Alpha virt. eigenvalues --    1.77974   1.78524   1.78729   1.79635   1.80036
 Alpha virt. eigenvalues --    1.80513   1.81611   1.82018   1.82669   1.83180
 Alpha virt. eigenvalues --    1.83446   1.83630   1.84673   1.85206   1.85551
 Alpha virt. eigenvalues --    1.86105   1.86401   1.86637   1.87379   1.89044
 Alpha virt. eigenvalues --    1.89825   1.90516   1.90684   1.91413   1.91849
 Alpha virt. eigenvalues --    1.91964   1.92780   1.92814   1.93669   1.94223
 Alpha virt. eigenvalues --    1.94564   1.95010   1.95181   1.95205   1.95551
 Alpha virt. eigenvalues --    1.96349   1.97675   1.98057   1.98355   1.98635
 Alpha virt. eigenvalues --    1.99720   2.00198   2.00812   2.01330   2.01741
 Alpha virt. eigenvalues --    2.01918   2.02166   2.02926   2.03111   2.03501
 Alpha virt. eigenvalues --    2.03762   2.04426   2.05059   2.05242   2.05522
 Alpha virt. eigenvalues --    2.05823   2.06469   2.06908   2.07164   2.07342
 Alpha virt. eigenvalues --    2.07723   2.08411   2.08579   2.09096   2.09567
 Alpha virt. eigenvalues --    2.09865   2.10222   2.10484   2.10838   2.11621
 Alpha virt. eigenvalues --    2.11990   2.12253   2.12455   2.12622   2.13659
 Alpha virt. eigenvalues --    2.14123   2.14545   2.15218   2.15762   2.16032
 Alpha virt. eigenvalues --    2.16271   2.16801   2.17184   2.17464   2.17760
 Alpha virt. eigenvalues --    2.18249   2.18322   2.19020   2.19327   2.19808
 Alpha virt. eigenvalues --    2.20191   2.20588   2.21241   2.21513   2.21842
 Alpha virt. eigenvalues --    2.22334   2.22486   2.23002   2.23434   2.24358
 Alpha virt. eigenvalues --    2.24389   2.24900   2.25329   2.25911   2.26267
 Alpha virt. eigenvalues --    2.27225   2.27433   2.28032   2.28208   2.28827
 Alpha virt. eigenvalues --    2.29563   2.30066   2.30412   2.30843   2.31438
 Alpha virt. eigenvalues --    2.32054   2.32829   2.33759   2.33968   2.34957
 Alpha virt. eigenvalues --    2.35664   2.36581   2.36982   2.37566   2.38194
 Alpha virt. eigenvalues --    2.38581   2.38979   2.40012   2.40711   2.40952
 Alpha virt. eigenvalues --    2.41235   2.41863   2.42169   2.43040   2.43178
 Alpha virt. eigenvalues --    2.43959   2.44779   2.45046   2.45153   2.45657
 Alpha virt. eigenvalues --    2.46395   2.46755   2.47072   2.47437   2.48231
 Alpha virt. eigenvalues --    2.48970   2.50029   2.50353   2.50724   2.50983
 Alpha virt. eigenvalues --    2.51174   2.51622   2.52378   2.52947   2.53269
 Alpha virt. eigenvalues --    2.53796   2.54895   2.55221   2.55480   2.55962
 Alpha virt. eigenvalues --    2.56103   2.56308   2.56816   2.57731   2.58681
 Alpha virt. eigenvalues --    2.58917   2.59408   2.59591   2.60423   2.60681
 Alpha virt. eigenvalues --    2.61356   2.61530   2.62073   2.62490   2.63012
 Alpha virt. eigenvalues --    2.63252   2.63445   2.63686   2.64022   2.64492
 Alpha virt. eigenvalues --    2.64859   2.64874   2.65341   2.65882   2.66095
 Alpha virt. eigenvalues --    2.66342   2.66475   2.66646   2.66725   2.67038
 Alpha virt. eigenvalues --    2.67287   2.67592   2.68013   2.68336   2.68588
 Alpha virt. eigenvalues --    2.68829   2.69406   2.69719   2.70253   2.70574
 Alpha virt. eigenvalues --    2.70984   2.71260   2.71422   2.71958   2.72171
 Alpha virt. eigenvalues --    2.72746   2.72914   2.73153   2.73870   2.73984
 Alpha virt. eigenvalues --    2.74227   2.74756   2.75257   2.75609   2.76143
 Alpha virt. eigenvalues --    2.76521   2.76774   2.77175   2.77294   2.77665
 Alpha virt. eigenvalues --    2.77789   2.77936   2.78209   2.78551   2.79019
 Alpha virt. eigenvalues --    2.79170   2.79775   2.80111   2.80517   2.80597
 Alpha virt. eigenvalues --    2.81037   2.81713   2.82444   2.82704   2.83769
 Alpha virt. eigenvalues --    2.84153   2.84464   2.84981   2.85299   2.85607
 Alpha virt. eigenvalues --    2.85929   2.86272   2.86635   2.86890   2.87183
 Alpha virt. eigenvalues --    2.87300   2.87514   2.88522   2.88666   2.89033
 Alpha virt. eigenvalues --    2.89493   2.89707   2.89985   2.90295   2.90774
 Alpha virt. eigenvalues --    2.91734   2.92056   2.92270   2.92487   2.92954
 Alpha virt. eigenvalues --    2.93790   2.93916   2.94428   2.95217   2.95521
 Alpha virt. eigenvalues --    2.96045   2.96304   2.96928   2.97542   2.98428
 Alpha virt. eigenvalues --    2.99872   3.00204   3.00753   3.01393   3.02040
 Alpha virt. eigenvalues --    3.02905   3.04235   3.04452   3.04804   3.05387
 Alpha virt. eigenvalues --    3.05561   3.07221   3.07720   3.08274   3.08847
 Alpha virt. eigenvalues --    3.09520   3.10428   3.10659   3.10950   3.11143
 Alpha virt. eigenvalues --    3.11576   3.11796   3.12178   3.12413   3.12718
 Alpha virt. eigenvalues --    3.13026   3.13359   3.13404   3.13912   3.14443
 Alpha virt. eigenvalues --    3.14651   3.15364   3.15630   3.15742   3.16082
 Alpha virt. eigenvalues --    3.16222   3.16615   3.16745   3.17131   3.17910
 Alpha virt. eigenvalues --    3.18365   3.18897   3.19097   3.19392   3.19856
 Alpha virt. eigenvalues --    3.20308   3.20376   3.21169   3.21723   3.22033
 Alpha virt. eigenvalues --    3.22802   3.23390   3.23993   3.24329   3.24381
 Alpha virt. eigenvalues --    3.25279   3.25689   3.26047   3.26483   3.26813
 Alpha virt. eigenvalues --    3.26919   3.27684   3.28153   3.28437   3.28711
 Alpha virt. eigenvalues --    3.29572   3.29919   3.30300   3.30697   3.31129
 Alpha virt. eigenvalues --    3.31235   3.31608   3.32595   3.32871   3.33147
 Alpha virt. eigenvalues --    3.33342   3.33553   3.34323   3.34414   3.34734
 Alpha virt. eigenvalues --    3.35189   3.35644   3.35921   3.36295   3.36447
 Alpha virt. eigenvalues --    3.36939   3.37678   3.37997   3.38150   3.38343
 Alpha virt. eigenvalues --    3.38626   3.38943   3.39378   3.39803   3.39853
 Alpha virt. eigenvalues --    3.40020   3.40459   3.40710   3.41256   3.41332
 Alpha virt. eigenvalues --    3.41697   3.42034   3.42090   3.43434   3.43710
 Alpha virt. eigenvalues --    3.44200   3.44845   3.45178   3.45609   3.46033
 Alpha virt. eigenvalues --    3.46387   3.46648   3.46819   3.47132   3.47767
 Alpha virt. eigenvalues --    3.48264   3.48366   3.49461   3.49759   3.50412
 Alpha virt. eigenvalues --    3.50725   3.50757   3.51138   3.51537   3.51672
 Alpha virt. eigenvalues --    3.52031   3.52284   3.52573   3.52815   3.53341
 Alpha virt. eigenvalues --    3.53639   3.53758   3.54215   3.54664   3.55545
 Alpha virt. eigenvalues --    3.56207   3.56670   3.57278   3.58191   3.58380
 Alpha virt. eigenvalues --    3.58654   3.59258   3.59577   3.60434   3.61205
 Alpha virt. eigenvalues --    3.61565   3.62671   3.63651   3.64864   3.65910
 Alpha virt. eigenvalues --    3.66938   3.68275   3.68728   3.69007   3.69266
 Alpha virt. eigenvalues --    3.69540   3.70083   3.70601   3.70855   3.71275
 Alpha virt. eigenvalues --    3.71707   3.73431   3.73680   3.74293   3.74385
 Alpha virt. eigenvalues --    3.74736   3.75106   3.75673   3.77037   3.77565
 Alpha virt. eigenvalues --    3.77959   3.79084   3.81186   3.81911   3.83272
 Alpha virt. eigenvalues --    3.84891   3.85886   3.87693   3.88295   3.88893
 Alpha virt. eigenvalues --    3.89491   3.91627   3.92087   3.92166   3.92559
 Alpha virt. eigenvalues --    3.93318   3.94072   3.94536   3.94713   3.95419
 Alpha virt. eigenvalues --    3.97381   3.97957   4.01036   4.01351   4.01630
 Alpha virt. eigenvalues --    4.01920   4.02701   4.02903   4.03348   4.04058
 Alpha virt. eigenvalues --    4.04341   4.04796   4.05522   4.06587   4.07058
 Alpha virt. eigenvalues --    4.07752   4.08445   4.10511   4.11124   4.11287
 Alpha virt. eigenvalues --    4.11437   4.11763   4.13308   4.13833   4.14275
 Alpha virt. eigenvalues --    4.14814   4.15171   4.15746   4.17355   4.18092
 Alpha virt. eigenvalues --    4.18333   4.18412   4.18600   4.18684   4.18879
 Alpha virt. eigenvalues --    4.19098   4.19254   4.19747   4.20296   4.20537
 Alpha virt. eigenvalues --    4.20655   4.20760   4.20864   4.21475   4.21999
 Alpha virt. eigenvalues --    4.22165   4.23159   4.23840   4.24448   4.24966
 Alpha virt. eigenvalues --    4.25009   4.25242   4.25362   4.26058   4.26440
 Alpha virt. eigenvalues --    4.26579   4.27136   4.28283   4.28625   4.28799
 Alpha virt. eigenvalues --    4.30128   4.30843   4.32555   4.33358   4.34037
 Alpha virt. eigenvalues --    4.34110   4.34516   4.35259   4.36005   4.36808
 Alpha virt. eigenvalues --    4.38568   4.38801   4.39988   4.40624   4.42872
 Alpha virt. eigenvalues --    4.45683   4.47217   4.49774   4.51130   4.53690
 Alpha virt. eigenvalues --    4.58382   4.59264   4.59732   4.60088   4.60485
 Alpha virt. eigenvalues --    4.61579   4.61876   4.62010   4.62241   4.63835
 Alpha virt. eigenvalues --    4.64750   4.64877   4.65349   4.66333   4.68594
 Alpha virt. eigenvalues --    4.70925   4.71204   4.71616   4.72100   4.73649
 Alpha virt. eigenvalues --    4.73925   4.74815   4.75125   4.81529   4.83551
 Alpha virt. eigenvalues --    4.84195   4.84720   4.85852   4.90615   4.90967
 Alpha virt. eigenvalues --    4.91268   4.91882   4.92610   4.93094   4.93470
 Alpha virt. eigenvalues --    4.94062   4.95090   4.96617   4.99938   5.02993
 Alpha virt. eigenvalues --    5.03385   5.07927   5.11438   5.11683   5.12003
 Alpha virt. eigenvalues --    5.12504   5.12601   5.12877   5.13012   5.13625
 Alpha virt. eigenvalues --    5.14066   5.18651   5.19686   5.24997   5.25552
 Alpha virt. eigenvalues --    5.25757   5.26257   5.32823   5.33291   5.34507
 Alpha virt. eigenvalues --    5.34988   5.39659   5.40086   5.40947   5.42776
 Alpha virt. eigenvalues --    5.56686   5.57090   5.57568   5.57828   7.84400
 Alpha virt. eigenvalues --    7.87587   7.95981   8.02319   8.04786   8.06102
 Alpha virt. eigenvalues --   10.92742  10.93950  10.99157  11.03685  11.04293
 Alpha virt. eigenvalues --   11.08476  16.06891  16.14296  22.12822  22.14572
 Alpha virt. eigenvalues --   22.16927  22.20495  22.46514  22.58691  22.59918
 Alpha virt. eigenvalues --   22.60481  22.61077  22.61543  22.62070  22.62112
 Alpha virt. eigenvalues --   22.63186  22.64429  22.65750  22.70853  22.72892
 Alpha virt. eigenvalues --   22.75476  22.76850  22.78175  22.79303  22.80516
 Alpha virt. eigenvalues --   22.81983  22.84956  22.88306  22.93074  22.98475
 Alpha virt. eigenvalues --   23.11508  23.12143  23.15496  23.17655  25.46834
 Alpha virt. eigenvalues --   25.64028  40.31016  40.92699  40.97664  52.07342
          Condensed to atoms (all electrons):
 Mulliken charges:
               1
     1  P    0.075724
     2  C    0.031898
     3  C   -0.140626
     4  C   -0.154626
     5  C   -0.076680
     6  C   -0.191244
     7  C   -0.033961
     8  H    0.123622
     9  H    0.120810
    10  H    0.125062
    11  H    0.131460
    12  H    0.155846
    13  C    0.114401
    14  C   -0.207432
    15  C   -0.130785
    16  C   -0.095179
    17  C   -0.133085
    18  C   -0.147598
    19  H    0.195573
    20  H    0.127588
    21  H    0.124358
    22  H    0.122649
    23  H    0.141899
    24  C   -0.343110
    25  C    0.197799
    26  C   -0.284204
    27  C   -0.202121
    28  H    0.127079
    29  C    0.096765
    30  H    0.132924
    31  C   -0.265303
    32  H    0.147039
    33  H    0.115693
    34  C   -0.209989
    35  P    0.165644
    36  C   -0.018862
    37  C   -0.156758
    38  C   -0.140555
    39  C   -0.091172
    40  C   -0.132557
    41  C   -0.093848
    42  H    0.205984
    43  H    0.129608
    44  H    0.126569
    45  H    0.124915
    46  H    0.145781
    47  C    0.090843
    48  C   -0.140738
    49  C   -0.171907
    50  C   -0.089360
    51  C   -0.129331
    52  C   -0.177926
    53  H    0.155457
    54  H    0.129958
    55  H    0.125468
    56  H    0.121100
    57  H    0.130402
    58  Pd   0.162633
    59  Cl  -0.425700
    60  Cl  -0.424804
    61  H    0.156176
    62  H    0.140107
    63  H    0.130592
    64  H    0.160035
 Sum of Mulliken charges =  -0.00000
 Mulliken charges with hydrogens summed into heavy atoms:
               1
     1  P    0.075724
     2  C    0.031898
     3  C    0.015221
     4  C   -0.023166
     5  C    0.048382
     6  C   -0.070434
     7  C    0.089661
    13  C    0.114401
    14  C   -0.065532
    15  C   -0.008136
    16  C    0.029179
    17  C   -0.005498
    18  C    0.047975
    24  C   -0.183074
    25  C    0.328391
    26  C   -0.144096
    27  C   -0.075042
    29  C    0.229688
    31  C   -0.002571
    34  C   -0.053813
    35  P    0.165644
    36  C   -0.018862
    37  C   -0.010978
    38  C   -0.015639
    39  C    0.035398
    40  C   -0.002950
    41  C    0.112137
    47  C    0.090843
    48  C   -0.010336
    49  C   -0.050807
    50  C    0.036108
    51  C    0.000627
    52  C   -0.022469
    58  Pd   0.162633
    59  Cl  -0.425700
    60  Cl  -0.424804
 Electronic spatial extent (au):  <R**2>=          17584.9361
 Charge=             -0.0000 electrons
 Dipole moment (field-independent basis, Debye):
    X=              0.5632    Y=              1.5769    Z=             11.6370  Tot=             11.7568
 Quadrupole moment (field-independent basis, Debye-Ang):
   XX=           -224.2966   YY=           -222.3535   ZZ=           -277.2346
   XY=              1.8851   XZ=             -0.1560   YZ=             -2.9051
 Traceless Quadrupole moment (field-independent basis, Debye-Ang):
   XX=             16.9983   YY=             18.9414   ZZ=            -35.9397
   XY=              1.8851   XZ=             -0.1560   YZ=             -2.9051
 Octapole moment (field-independent basis, Debye-Ang**2):
  XXX=             32.7448  YYY=            -33.5122  ZZZ=              8.1297  XYY=            -16.8305
  XXY=             21.3663  XXZ=              1.6795  XZZ=              2.8058  YZZ=             32.7687
  YYZ=            -12.1924  XYZ=             -9.7670
 Hexadecapole moment (field-independent basis, Debye-Ang**3):
 XXXX=         -11665.5113 YYYY=          -6114.1790 ZZZZ=          -5735.3897 XXXY=            314.0671
 XXXZ=           -182.3003 YYYX=           -113.5304 YYYZ=            109.3882 ZZZX=             -7.7082
 ZZZY=            -14.5929 XXYY=          -2619.3065 XXZZ=          -2879.8194 YYZZ=          -1980.6696
 XXYZ=           -194.1981 YYXZ=            131.1129 ZZXY=            -53.6180
 N-N= 5.166435982655D+03 E-N=-1.719571144027D+04  KE= 2.837728881841D+03
 1\1\GINC-NC243\SP\RPBE1PBE\Gen\C31H28Cl2P2Pd1\MACKK4\30-Nov-2021\0\\# 
 PBE1PBE gen pseudo=read int=(grid=ultrafine) empiricaldispersion=GD3BJ
  nmr=giao\\RR_NorPhos_3 title\\0,1\P,0,-1.6432271553,0.1082204355,0.03
 08762914\C,0,-2.4220177104,1.7593761586,0.0589338533\C,0,-3.1054495621
 ,2.1546428292,-1.1123934896\C,0,-3.7283579676,3.4062763694,-1.16221490
 67\C,0,-3.6665214882,4.275553839,-0.0617394389\C,0,-2.9746467725,3.890
 478358,1.0941017469\C,0,-2.3533829969,2.6349287012,1.1589676384\H,0,-1
 .807675965,2.3448941039,2.0599885979\H,0,-2.915091434,4.5681063999,1.9
 524198765\H,0,-4.1509938273,5.2562499044,-0.1093462276\H,0,-4.25645743
 69,3.7079528373,-2.0723794069\H,0,-3.1215075107,1.484502007,-1.9801017
 998\C,0,-3.0068354294,-1.1006705694,0.1634584939\C,0,-4.0921282632,-0.
 8356128496,1.0219392461\C,0,-5.0811947696,-1.8085151675,1.2137800646\C
 ,0,-4.9913441167,-3.0416595139,0.5503810698\C,0,-3.9151763018,-3.30103
 73336,-0.3105157876\C,0,-2.922322883,-2.3328436854,-0.5101849663\H,0,-
 2.1014256353,-2.5040475589,-1.2133208778\H,0,-3.8549134074,-4.25502519
 04,-0.8439653525\H,0,-5.7693810577,-3.7979277038,0.6969878574\H,0,-5.9
 276275835,-1.6002066683,1.8763636544\H,0,-4.1674441252,0.1341243595,1.
 5262565924\C,0,-0.6093990097,-0.2656302008,1.5279039321\C,0,-0.8990381
 738,-0.4058523952,3.065828976\C,0,-0.9493791903,0.9569783279,3.7422849
 284\C,0,0.2947864054,1.4842152366,3.7039965774\H,0,0.6044515212,2.4838
 918646,4.0217242712\C,0,1.192949561,0.4844251054,2.973688036\H,0,2.277
 1259338,0.6025323936,3.1101482818\C,0,0.5488197156,-0.839694672,3.4618
 877443\H,0,0.9086841991,-1.737691554,2.9319121235\H,0,0.6630259436,-0.
 9735573931,4.5493452156\C,0,0.6846048048,0.5864607171,1.482811326\P,0,
 1.6025062684,0.0185217646,-0.0338514159\C,0,2.3505352391,-1.5824195368
 ,0.4337632083\C,0,3.46916978,-1.6343909994,1.2893774725\C,0,3.95048863
 53,-2.872496998,1.7320229539\C,0,3.3237070583,-4.0594384888,1.32077374
 59\C,0,2.2223259489,-4.010285044,0.4543621533\C,0,1.7370515091,-2.7747
 49355,0.0047460154\H,0,0.9001774299,-2.7166886381,-0.7008518529\H,0,1.
 7471257027,-4.9359374661,0.1144450736\H,0,3.704979058,-5.0256078725,1.
 6668524751\H,0,4.8210129331,-2.9122138641,2.3948570529\H,0,3.966371415
 5,-0.7079562092,1.5959641974\C,0,3.006537706,1.1707436979,-0.236368219
 6\C,0,3.1571123765,2.3028912363,0.5898895964\C,0,4.2582689648,3.153663
 5966,0.4230106099\C,0,5.212434681,2.8830106934,-0.5669257287\C,0,5.062
 5290807,1.7596526391,-1.393962074\C,0,3.9669876215,0.9037940062,-1.235
 3706283\H,0,3.8278451967,0.0449867042,-1.8986708711\H,0,5.7999249444,1
 .549831795,-2.1752313764\H,0,6.0706071421,3.5502648664,-0.696880615\H,
 0,4.3675070579,4.0305411665,1.0694765469\H,0,2.4218032365,2.5287999749
 ,1.3673558941\Pd,0,-0.0632404471,-0.2073221145,-1.6033799112\Cl,0,1.65
 28305944,-0.7567721915,-3.1697976318\Cl,0,-1.832408689,-0.4676443382,-
 3.1831950752\H,0,0.4307195916,1.6390347303,1.2537369901\H,0,-1.8575046
 222,1.4250177777,4.1312713095\H,0,-1.7161284924,-1.1053207688,3.292392
 1768\H,0,-0.3401852327,-1.3007482563,1.2288637866\\Version=ES64L-G09Re
 vE.01\State=1-A\HF=-2927.8283086\RMSD=5.905e-09\Dipole=0.2466591,0.619
 8549,4.5771316\Quadrupole=12.6822207,14.0336965,-26.7159172,1.4168824,
 -0.2815089,-2.190167\PG=C01 [X(C31H28Cl2P2Pd1)]\\@


 OLD AGE AND TREACHERY WILL ALWAYS PREVAIL OVER YOUTH AND SKILL.
 Job cpu time:       1 days  1 hours 51 minutes 13.5 seconds.
 File lengths (MBytes):  RWF=    964 Int=      0 D2E=      0 Chk=    128 Scr=      1
 Normal termination of Gaussian 09 at Tue Nov 30 22:40:14 2021.
 Initial command:
[...]
  1202. RY*(  20)Cl  60                  0.00001     2.64302   
  1203. RY*(  21)Cl  60                  0.00000     2.66627   
  1204. RY*(  22)Cl  60                  0.00000     2.18723   
  1205. RY*(  23)Cl  60                  0.00000     2.19347   
  1206. RY*(  24)Cl  60                  0.00000     2.16936   
  1207. RY*(  25)Cl  60                  0.00000     2.16820   
  1208. RY*(  26)Cl  60                  0.00000     2.16014   
  1209. RY*(  27)Cl  60                  0.00000     2.15139   
  1210. RY*(  28)Cl  60                  0.00000     2.13652   
  1211. RY*(   1) H  61                  0.00167     0.82062   
  1212. RY*(   2) H  61                  0.00031     2.34015   
  1213. RY*(   3) H  61                  0.00013     2.64042   
  1214. RY*(   4) H  61                  0.00011     2.67523   
  1215. RY*(   5) H  61                  0.00003     3.23876   
  1216. RY*(   1) H  62                  0.00041     1.77756   
  1217. RY*(   2) H  62                  0.00021     1.58639   
  1218. RY*(   3) H  62                  0.00015     2.17063   
  1219. RY*(   4) H  62                  0.00014     2.10366   
  1220. RY*(   5) H  62                  0.00001     2.97596   
  1221. RY*(   1) H  63                  0.00089     0.51692   
  1222. RY*(   2) H  63                  0.00021     2.34850   
  1223. RY*(   3) H  63                  0.00017     2.45647   
  1224. RY*(   4) H  63                  0.00013     2.60595   
  1225. RY*(   5) H  63                  0.00001     3.05873   
  1226. RY*(   1) H  64                  0.00157     0.98586   
  1227. RY*(   2) H  64                  0.00034     2.43518   
  1228. RY*(   3) H  64                  0.00015     2.66825   
  1229. RY*(   4) H  64                  0.00010     2.81841   
  1230. RY*(   5) H  64                  0.00002     3.27841   
  1231. BD*(   1) P   1 - C   2          0.07223     0.20348   
  1232. BD*(   1) P   1 - C  13          0.07140     0.20372   
  1233. BD*(   1) P   1 - C  24          0.07373     0.18285   
  1234. BD*(   1) P   1 -Pd  58          0.16917     0.60502  1283(g),1148(g),1147(g)
                                                    1149(g),1138(g),1141(g)
                                                    1146(g),150(g),1142(g)
                                                    742(v),1151(g),1144(g)
                                                    1140(g),1133(g),1145(g)
                                                    1150(g),1187(v),1158(v)
                                                    540(v),716(r),1143(g),161(g)
                                                    952(r),1226(r),1159(v)
                                                    158(g),1139(g),752(v),749(v)
                                                    360(v),772(r),179(v),543(v)
                                                    156(g),1313(g),1221(r)
                                                    159(g),152(g),719(r),751(v)
                                                    750(v),744(v),362(v),1132(g)
                                                    184(v),1189(v),1162(v)
                                                    951(r),544(v),1186(v)
                                                    1135(g),754(v),771(r),761(v)
                                                    1188(v),902(r),162(g),178(v)
                                                    389(r),183(v),1127(r),953(r)
                                                    798(r),946(r),956(r),1136(g)
                                                    1160(v),770(r),359(v),368(v)
                                                    181(v),748(v),955(r),164(g)
                                                    775(r),1107(r),800(r)
                                                    1190(v),904(r),535(r),491(r)
                                                    1211(r),493(r),232(r)
                                                    1083(r),718(r),717(r),167(g)
                                                    722(r),364(v),490(r),413(r)
                                                    151(g),168(g),903(r),182(v)
                                                    743(v),1192(v),1262(r)
                                                    724(r),797(r),309(r),777(r)
                                                    551(v),723(r),799(r),548(v)
                                                    205(r),160(g),545(v),1164(v)
                                                    901(r),747(v),958(r),386(r)
                                                    208(r),1260(r),1161(v)
                                                    387(r),926(r),1156(v),211(r)
                                                    1185(v),1153(g),311(r)
                                                    1250(v),774(r),957(r),911(r)
                                                    169(g),1265(v),497(r)
                                                    1297(r),553(v),962(r),355(r)
                                                    1197(v),781(r),1176(v)
                                                    779(r),212(r),542(v),1084(r)
                                                    721(r),1137(g),1179(v)
  1235. BD*(   1) C   2 - C   3          0.02203     0.50143   
  1236. BD*(   1) C   2 - C   7          0.02604     0.50991   
  1237. BD*(   2) C   2 - C   7          0.38731     0.00456  1244(v),1239(v),1232(v)
                                                    310(g),1251(r),1253(r)
  1238. BD*(   1) C   3 - C   4          0.01512     0.53682   
  1239. BD*(   2) C   3 - C   4          0.28370     0.02379  1244(v),1237(v),232(g)
  1240. BD*(   1) C   3 - H  12          0.01958     0.41609   
  1241. BD*(   1) C   4 - C   5          0.01446     0.52464   
  1242. BD*(   1) C   4 - H  11          0.01320     0.39879   
  1243. BD*(   1) C   5 - C   6          0.01424     0.52503   
  1244. BD*(   2) C   5 - C   6          0.32115     0.01402  1237(v),1239(v),258(g)
                                                    284(g)
  1245. BD*(   1) C   5 - H  10          0.01294     0.39423   
  1246. BD*(   1) C   6 - C   7          0.01578     0.52529   
  1247. BD*(   1) C   6 - H   9          0.01344     0.38908   
  1248. BD*(   1) C   7 - H   8          0.01990     0.40998   
  1249. BD*(   1) C  13 - C  14          0.02555     0.50612   
  1250. BD*(   1) C  13 - C  18          0.02338     0.51231   
  1251. BD*(   2) C  13 - C  18          0.36191     0.01488  1253(v),1258(v),1233(v)
                                                    491(g),1237(r),1231(v)
                                                    362(g)
  1252. BD*(   1) C  14 - C  15          0.01484     0.52854   
  1253. BD*(   2) C  14 - C  15          0.31681     0.01513  1251(v),1258(v),413(g)
  1254. BD*(   1) C  14 - H  23          0.01522     0.39014   
  1255. BD*(   1) C  15 - C  16          0.01447     0.52403   
  1256. BD*(   1) C  15 - H  22          0.01333     0.39173   
  1257. BD*(   1) C  16 - C  17          0.01435     0.52707   
  1258. BD*(   2) C  16 - C  17          0.31719     0.01783  1251(v),1253(v),439(g)
                                                    465(g)
  1259. BD*(   1) C  16 - H  21          0.01276     0.39528   
  1260. BD*(   1) C  17 - C  18          0.01566     0.53662   
  1261. BD*(   1) C  17 - H  20          0.01326     0.39695   
  1262. BD*(   1) C  18 - H  19          0.01496     0.42266   
  1263. BD*(   1) C  24 - C  25          0.05336     0.28245   
  1264. BD*(   1) C  24 - C  34          0.02669     0.29200   
  1265. BD*(   1) C  24 - H  64          0.02419     0.33952   
  1266. BD*(   1) C  25 - C  26          0.02112     0.34467   
  1267. BD*(   1) C  25 - C  31          0.01205     0.28216   
  1268. BD*(   1) C  25 - H  63          0.01927     0.36107   
  1269. BD*(   1) C  26 - C  27          0.00943     0.56022   
  1270. BD*(   2) C  26 - C  27          0.05744     0.02196   
  1271. BD*(   1) C  26 - H  62          0.01648     0.39993   
  1272. BD*(   1) C  27 - H  28          0.01623     0.39610   
  1273. BD*(   1) C  27 - C  29          0.01902     0.33561   
  1274. BD*(   1) C  29 - H  30          0.02053     0.36083   
  1275. BD*(   1) C  29 - C  31          0.01337     0.29506   
  1276. BD*(   1) C  29 - C  34          0.04500     0.27738   
  1277. BD*(   1) C  31 - H  32          0.01505     0.36721   
  1278. BD*(   1) C  31 - H  33          0.01207     0.36154   
  1279. BD*(   1) C  34 - P  35          0.07756     0.18078   
  1280. BD*(   1) C  34 - H  61          0.02480     0.35615   
  1281. BD*(   1) P  35 - C  36          0.07152     0.20098   
  1282. BD*(   1) P  35 - C  47          0.06892     0.20305   
  1283. BD*(   1) P  35 -Pd  58          0.17373     0.63339  1234(g),1148(g),1147(g)
                                                    1149(g),742(g),1146(g)
                                                    1138(g),1142(g),150(v)
                                                    1141(g),1144(g),1140(g)
                                                    1151(g),1133(g),1145(g)
                                                    1143(g),1150(g),1187(v)
                                                    716(v),1158(v),540(r)
                                                    1159(v),952(v),1226(r)
                                                    1139(g),752(g),161(v),158(v)
                                                    749(g),360(r),772(v),1135(g)
                                                    179(r),156(v),750(g),719(v)
                                                    1312(g),751(g),543(r),152(v)
                                                    159(v),1132(g),362(r)
                                                    1221(r),1189(v),744(g)
                                                    771(v),184(r),1127(r),178(r)
                                                    544(r),1186(v),953(v),162(v)
                                                    951(v),1190(v),754(g),946(r)
                                                    359(r),761(g),956(v),491(r)
                                                    183(r),955(v),1162(v),535(r)
                                                    389(r),800(r),798(r),181(r)
                                                    1211(r),717(v),151(v)
                                                    1134(g),368(r),1107(r)
                                                    493(r),775(v),770(v),748(g)
                                                    1136(g),167(v),902(r),164(v)
                                                    1192(v),904(r),413(r)
                                                    1297(r),1188(v),364(r)
                                                    722(v),903(r),1083(r),490(r)
                                                    901(r),154(v),958(v),797(r)
                                                    723(v),1161(v),168(v),169(v)
                                                    718(v),545(r),1160(v),208(r)
                                                    1137(g),774(v),387(r),724(v)
                                                    182(r),497(r),551(r),1084(r)
                                                    926(r),232(r),386(r),799(r)
                                                    777(v),361(r),1295(r),957(v)
                                                    1163(v),548(r),211(r),309(r)
                                                    205(r),1153(g),743(g),311(r)
                                                    553(r),1184(v),1197(v)
                                                    160(v),206(r),1164(v),349(r)
                                                    911(r),213(r),781(v),212(r)
                                                    981(r),962(v),757(g),399(r)
                                                    706(r),747(g),1176(v)
  1284. BD*(   1) C  36 - C  37          0.02717     0.50216   
  1285. BD*(   1) C  36 - C  41          0.02396     0.50575   
  1286. BD*(   2) C  36 - C  41          0.36561     0.00773  1288(v),1293(v),1299(r)
                                                    1279(v),902(g),1282(v)
                                                    773(g)
  1287. BD*(   1) C  37 - C  38          0.01520     0.52420   
  1288. BD*(   2) C  37 - C  38          0.31008     0.01113  1293(v),1286(v),824(g)
  1289. BD*(   1) C  37 - H  46          0.01541     0.38898   
  1290. BD*(   1) C  38 - C  39          0.01449     0.51735   
  1291. BD*(   1) C  38 - H  45          0.01338     0.38761   
  1292. BD*(   1) C  39 - C  40          0.01432     0.52113   
  1293. BD*(   2) C  39 - C  40          0.31363     0.01200  1288(v),1286(v),850(g)
                                                    876(g)
  1294. BD*(   1) C  39 - H  44          0.01275     0.39081   
  1295. BD*(   1) C  40 - C  41          0.01649     0.53093   
  1296. BD*(   1) C  40 - H  43          0.01336     0.39167   
  1297. BD*(   1) C  41 - H  42          0.01545     0.42121   
  1298. BD*(   1) C  47 - C  48          0.02459     0.50346   
  1299. BD*(   2) C  47 - C  48          0.39007     0.00246  1304(v),1309(v),1286(r)
                                                    979(g),1281(v)
  1300. BD*(   1) C  47 - C  52          0.02212     0.50520   
  1301. BD*(   1) C  48 - C  49          0.01507     0.52591   
  1302. BD*(   1) C  48 - H  57          0.01492     0.39020   
  1303. BD*(   1) C  49 - C  50          0.01444     0.52404   
  1304. BD*(   2) C  49 - C  50          0.32251     0.01332  1299(v),1309(v),1031(g)
                                                    1005(g)
  1305. BD*(   1) C  49 - H  56          0.01324     0.38848   
  1306. BD*(   1) C  50 - C  51          0.01445     0.52498   
  1307. BD*(   1) C  50 - H  55          0.01285     0.39379   
  1308. BD*(   1) C  51 - C  52          0.01517     0.53601   
  1309. BD*(   2) C  51 - C  52          0.28546     0.02361  1304(v),1299(v),1057(g)
  1310. BD*(   1) C  51 - H  54          0.01322     0.39756   
  1311. BD*(   1) C  52 - H  53          0.01763     0.41773   
  1312. BD*(   1)Pd  58 -Cl  59          0.18660     0.17136  1313(g),1283(g),1140(g)
                                                    742(v),1143(g),1142(g)
                                                    1279(v),1147(g),1148(g)
                                                    1149(g),1138(g),1151(g)
                                                    1141(g),1146(g),150(v)
                                                    1159(g),1136(g),716(r)
                                                    752(v),1144(g),1133(g)
                                                    1139(g),158(v),1157(g)
                                                    1150(g),952(r),1155(g)
                                                    1187(v),1282(v),161(v)
                                                    749(v),540(r),751(v),1297(r)
                                                    1145(g),1154(g)
  1313. BD*(   1)Pd  58 -Cl  60          0.18257     0.16884  1312(g),1234(g),1148(g)
                                                    1141(g),150(v),1142(g)
                                                    1140(g),1147(g),1138(g)
                                                    1149(g),1151(g),1146(g)
                                                    1136(g),1233(v),742(v)
                                                    540(r),1133(g),161(v)
                                                    1139(g),1282(v),1145(g)
                                                    1262(r),1184(g),1188(g)
                                                    1232(v),749(v),1183(g)
                                                    1187(g),772(r),1144(g)
                                                    752(v),158(v),1158(v)
       -------------------------------
              Total Lewis  317.13627  ( 97.8816%)
        Valence non-Lewis    6.34151  (  1.9573%)
        Rydberg non-Lewis    0.52222  (  0.1612%)
       -------------------------------
            Total unit  1  324.00000  (100.0000%)
           Charge unit  1    0.00000
 1\1\GINC-NC243\SP\RPBE1PBE\Gen\C31H28Cl2P2Pd1\MACKK4\30-Nov-2021\0\\# 
 PBE1PBE gen pseudo=read int=(grid=ultrafine) empiricaldispersion=GD3BJ
  pop=nbo guess=read geom=check\\RR_NorPhos_3 title\\0,1\P,0,-1.6432271
 553,0.1082204355,0.0308762914\C,0,-2.4220177104,1.7593761586,0.0589338
 533\C,0,-3.1054495621,2.1546428292,-1.1123934896\C,0,-3.7283579676,3.4
 062763694,-1.1622149067\C,0,-3.6665214882,4.275553839,-0.0617394389\C,
 0,-2.9746467725,3.890478358,1.0941017469\C,0,-2.3533829969,2.634928701
 2,1.1589676384\H,0,-1.807675965,2.3448941039,2.0599885979\H,0,-2.91509
 1434,4.5681063999,1.9524198765\H,0,-4.1509938273,5.2562499044,-0.10934
 62276\H,0,-4.2564574369,3.7079528373,-2.0723794069\H,0,-3.1215075107,1
 .484502007,-1.9801017998\C,0,-3.0068354294,-1.1006705694,0.1634584939\
 C,0,-4.0921282632,-0.8356128496,1.0219392461\C,0,-5.0811947696,-1.8085
 151675,1.2137800646\C,0,-4.9913441167,-3.0416595139,0.5503810698\C,0,-
 3.9151763018,-3.3010373336,-0.3105157876\C,0,-2.922322883,-2.332843685
 4,-0.5101849663\H,0,-2.1014256353,-2.5040475589,-1.2133208778\H,0,-3.8
 549134074,-4.2550251904,-0.8439653525\H,0,-5.7693810577,-3.7979277038,
 0.6969878574\H,0,-5.9276275835,-1.6002066683,1.8763636544\H,0,-4.16744
 41252,0.1341243595,1.5262565924\C,0,-0.6093990097,-0.2656302008,1.5279
 039321\C,0,-0.8990381738,-0.4058523952,3.065828976\C,0,-0.9493791903,0
 .9569783279,3.7422849284\C,0,0.2947864054,1.4842152366,3.7039965774\H,
 0,0.6044515212,2.4838918646,4.0217242712\C,0,1.192949561,0.4844251054,
 2.973688036\H,0,2.2771259338,0.6025323936,3.1101482818\C,0,0.548819715
 6,-0.839694672,3.4618877443\H,0,0.9086841991,-1.737691554,2.9319121235
 \H,0,0.6630259436,-0.9735573931,4.5493452156\C,0,0.6846048048,0.586460
 7171,1.482811326\P,0,1.6025062684,0.0185217646,-0.0338514159\C,0,2.350
 5352391,-1.5824195368,0.4337632083\C,0,3.46916978,-1.6343909994,1.2893
 774725\C,0,3.9504886353,-2.872496998,1.7320229539\C,0,3.3237070583,-4.
 0594384888,1.3207737459\C,0,2.2223259489,-4.010285044,0.4543621533\C,0
 ,1.7370515091,-2.774749355,0.0047460154\H,0,0.9001774299,-2.7166886381
 ,-0.7008518529\H,0,1.7471257027,-4.9359374661,0.1144450736\H,0,3.70497
 9058,-5.0256078725,1.6668524751\H,0,4.8210129331,-2.9122138641,2.39485
 70529\H,0,3.9663714155,-0.7079562092,1.5959641974\C,0,3.006537706,1.17
 07436979,-0.2363682196\C,0,3.1571123765,2.3028912363,0.5898895964\C,0,
 4.2582689648,3.1536635966,0.4230106099\C,0,5.212434681,2.8830106934,-0
 .5669257287\C,0,5.0625290807,1.7596526391,-1.393962074\C,0,3.966987621
 5,0.9037940062,-1.2353706283\H,0,3.8278451967,0.0449867042,-1.89867087
 11\H,0,5.7999249444,1.549831795,-2.1752313764\H,0,6.0706071421,3.55026
 48664,-0.696880615\H,0,4.3675070579,4.0305411665,1.0694765469\H,0,2.42
 18032365,2.5287999749,1.3673558941\Pd,0,-0.0632404471,-0.2073221145,-1
 .6033799112\Cl,0,1.6528305944,-0.7567721915,-3.1697976318\Cl,0,-1.8324
 08689,-0.4676443382,-3.1831950752\H,0,0.4307195916,1.6390347303,1.2537
 369901\H,0,-1.8575046222,1.4250177777,4.1312713095\H,0,-1.7161284924,-
 1.1053207688,3.2923921768\H,0,-0.3401852327,-1.3007482563,1.2288637866
 \\Version=ES64L-G09RevE.01\State=1-A\HF=-2927.8283086\RMSD=7.150e-09\D
 ipole=0.2466594,0.6198547,4.5771313\Quadrupole=12.6822223,14.0336941,-
 26.7159164,1.4168817,-0.2815092,-2.1901681\PG=C01 [X(C31H28Cl2P2Pd1)]\
 \@


 HONESTY IN A LAWYER IS LIKE A HEN'S HIND LEGS.
  -- MAGNUS OLESON, LAKE WOBEGON PATRIARCH, C.1875
 Job cpu time:       0 days  1 hours 23 minutes 34.5 seconds.
 File lengths (MBytes):  RWF=    885 Int=      0 D2E=      0 Chk=    128 Scr=      1
 Normal termination of Gaussian 09 at Tue Nov 30 22:46:17 2021.
