 Entering Gaussian System, Link 0=g09
 Input=RR_NorPhos_3.com
 Output=RR_NorPhos_3.log
 Initial command:
 /gstore/apps/gaussian/g09.e01-foss-2017a/g09/l1.exe "/local/21251380/Gau-12589.inp" -scrdir="/local/21251380/"
 Entering Link 1 = /gstore/apps/gaussian/g09.e01-foss-2017a/g09/l1.exe PID=     12590.
  
 Copyright (c) 1988,1990,1992,1993,1995,1998,2003,2009,2015,
            Gaussian, Inc.  All Rights Reserved.
  
 This is part of the Gaussian(R) 09 program.  It is based on
 the Gaussian(R) 03 system (copyright 2003, Gaussian, Inc.),
 the Gaussian(R) 98 system (copyright 1998, Gaussian, Inc.),
 the Gaussian(R) 94 system (copyright 1995, Gaussian, Inc.),
 the Gaussian 92(TM) system (copyright 1992, Gaussian, Inc.),
 the Gaussian 90(TM) system (copyright 1990, Gaussian, Inc.),
 the Gaussian 88(TM) system (copyright 1988, Gaussian, Inc.),
 the Gaussian 86(TM) system (copyright 1986, Carnegie Mellon
 University), and the Gaussian 82(TM) system (copyright 1983,
 Carnegie Mellon University). Gaussian is a federally registered
 trademark of Gaussian, Inc.
  
 This software contains proprietary and confidential information,
 including trade secrets, belonging to Gaussian, Inc.
  
 This software is provided under written license and may be
 used, copied, transmitted, or stored only in accord with that
 written license.
  
 The following legend is applicable only to US Government
 contracts under FAR:
  
                    RESTRICTED RIGHTS LEGEND
  
 Use, reproduction and disclosure by the US Government is
 subject to restrictions as set forth in subparagraphs (a)
 and (c) of the Commercial Computer Software - Restricted
 Rights clause in FAR 52.227-19.
  
 Gaussian, Inc.
 340 Quinnipiac St., Bldg. 40, Wallingford CT 06492
  
  
 ---------------------------------------------------------------
 Warning -- This program may not be used in any manner that
 competes with the business of Gaussian, Inc. or will provide
 assistance to any competitor of Gaussian, Inc.  The licensee
 of this program is prohibited from giving any competitor of
 Gaussian, Inc. access to this program.  By using this program,
 the user acknowledges that Gaussian, Inc. is engaged in the
 business of creating and licensing software in the field of
 computational chemistry and represents and warrants to the
 licensee that it is not a competitor of Gaussian, Inc. and that
 it will not use this program in any manner prohibited above.
 ---------------------------------------------------------------
  

 Cite this work as:
 Gaussian 09, Revision E.01,
 M. J. Frisch, G. W. Trucks, H. B. Schlegel, G. E. Scuseria, 
 M. A. Robb, J. R. Cheeseman, G. Scalmani, V. Barone, B. Mennucci, 
 G. A. Petersson, H. Nakatsuji, M. Caricato, X. Li, H. P. Hratchian, 
 A. F. Izmaylov, J. Bloino, G. Zheng, J. L. Sonnenberg, M. Hada, 
 M. Ehara, K. Toyota, R. Fukuda, J. Hasegawa, M. Ishida, T. Nakajima, 
 Y. Honda, O. Kitao, H. Nakai, T. Vreven, J. A. Montgomery, Jr., 
 J. E. Peralta, F. Ogliaro, M. Bearpark, J. J. Heyd, E. Brothers, 
 K. N. Kudin, V. N. Staroverov, T. Keith, R. Kobayashi, J. Normand, 
 K. Raghavachari, A. Rendell, J. C. Burant, S. S. Iyengar, J. Tomasi, 
 M. Cossi, N. Rega, J. M. Millam, M. Klene, J. E. Knox, J. B. Cross, 
 V. Bakken, C. Adamo, J. Jaramillo, R. Gomperts, R. E. Stratmann, 
 O. Yazyev, A. J. Austin, R. Cammi, C. Pomelli, J. W. Ochterski, 
 R. L. Martin, K. Morokuma, V. G. Zakrzewski, G. A. Voth, 
 P. Salvador, J. J. Dannenberg, S. Dapprich, A. D. Daniels, 
 O. Farkas, J. B. Foresman, J. V. Ortiz, J. Cioslowski, 
 and D. J. Fox, Gaussian, Inc., Wallingford CT, 2013.
 
 ******************************************
 Gaussian 09:  ES64L-G09RevE.01 30-Nov-2015
                16-Nov-2021 
 ******************************************
 %nprocs=14
 Will use up to   14 processors via shared memory.
 %mem=128GB
 %chk=RR_NorPhos_3.chk
 ----------------------------------------------------------------------
 # PBEPBE gen 6D pseudo=read scf=maxcycles=500 denfit int=(grid=ultrafi
 ne) empiricaldispersion=GD3BJ opt freq=noraman
 ----------------------------------------------------------------------
 1/14=-1,18=20,19=15,26=4,38=1/1,3;
 2/9=110,12=2,17=6,18=5,40=1/2;
 3/5=7,8=2,11=2,16=1,17=8,25=1,30=1,71=1,74=1009,75=-5,82=47,124=41/1,2,3;
 4//1;
 5/5=2,7=500,38=5/2;
 6/7=2,8=2,9=2,10=2,28=1/1;
 7//1,2,3,16;
 1/14=-1,18=20,19=15,26=4/3(2);
 2/9=110/2;
 99//99;
 2/9=110/2;
 3/5=7,6=1,8=2,11=2,16=1,17=8,25=1,30=1,71=1,74=1009,75=-5,82=7,124=41/1,2,3;
 4/5=5,16=3,69=1/1;
 5/5=2,7=500,38=5/2;
 7//1,2,3,16;
 1/14=-1,18=20,19=15,26=4/3(-5);
 2/9=110/2;
 6/7=2,8=2,9=2,10=2,19=2,28=1/1;
 99/9=1/99;
 ----------
 RR_NorPhos
 ----------
 Symbolic Z-matrix:
 Charge =  0 Multiplicity = 1
 P                    -1.5919    0.2705    0.013 
 C                    -2.5915    1.8493    0.1486 
 C                    -3.8249    1.9218   -0.5332 
 C                    -4.6172    3.0842   -0.4749 
 C                    -4.1789    4.1965    0.2662 
 C                    -2.9468    4.1416    0.9432 
 C                    -2.1582    2.9761    0.8808 
 H                    -1.2187    2.9674    1.4051 
 H                    -2.6049    4.9963    1.5086 
 H                    -4.7844    5.0903    0.3109 
 H                    -5.5596    3.121    -1.0022 
 H                    -4.1696    1.0746   -1.11 
 C                    -2.8226   -1.1255    0.0912 
 C                    -3.8357   -1.1318    1.0721 
 C                    -4.7601   -2.192     1.1387 
 C                    -4.6765   -3.2561    0.221 
 C                    -3.6695   -3.2557   -0.7628 
 C                    -2.7466   -2.1938   -0.826 
 H                    -1.983    -2.2014   -1.5897 
 H                    -3.6073   -4.0683   -1.4722 
 H                    -5.3866   -4.0692    0.2685 
 H                    -5.5349   -2.1866    1.8917 
 H                    -3.9077   -0.3136    1.7747 
 C                    -0.5666   -0.1171    1.4743 
 C                    -0.9571   -0.1127    2.9705 
 C                    -0.9822    1.2897    3.549 
 C                     0.2734    1.7554    3.5549 
 H                     0.6147    2.7264    3.885 
 C                     1.1574    0.7026    2.9117 
 H                     2.2228    0.7927    3.1265 
 C                     0.4423   -0.5396    3.4784 
 H                     0.8149   -1.4864    3.0812 
 H                     0.4977   -0.5987    4.5679 
 C                     0.73      0.7113    1.4173 
 P                     1.6717    0.0228    0.0086 
 C                     2.2484   -1.6662    0.5415 
 C                     3.3068   -1.8045    1.4629 
 C                     3.7326   -3.0818    1.8751 
 C                     3.1017   -4.2321    1.3649 
 C                     2.0481   -4.1021    0.4403 
 C                     1.6254   -2.8231    0.0294 
 H                     0.8174   -2.7358   -0.682 
 H                     1.5655   -4.984     0.0444 
 H                     3.4285   -5.213     1.679 
 H                     4.5453   -3.1782    2.5806 
 H                     3.7974   -0.9248    1.8545 
 C                     3.2074    1.068    -0.1919 
 C                     3.3527    2.3209    0.4437 
 C                     4.5272    3.0794    0.2715 
 C                     5.5688    2.5921   -0.5398 
 C                     5.4331    1.3452   -1.1775 
 C                     4.2579    0.5899   -1.0022 
 H                     4.1609   -0.3672   -1.4956 
 H                     6.2285    0.9667   -1.8031 
 H                     6.4695    3.1734   -0.6744 
 H                     4.6293    4.0371    0.761 
 H                     2.5692    2.7162    1.0709 
 Pd                    0.032     0.1036   -1.76 
 Cl                    1.6813   -0.0955   -3.3898 
 Cl                   -1.6427    0.1912   -3.3749 
 H                     0.5135    1.7372    1.1248 
 H                    -1.8766    1.7958    3.8848 
 H                    -1.7732   -0.7715    3.2693 
 H                    -0.3352   -1.1643    1.2725 
 

 GradGradGradGradGradGradGradGradGradGradGradGradGradGradGradGradGradGrad
 Berny optimization.
 Initialization pass.
                           ----------------------------
                           !    Initial Parameters    !
                           ! (Angstroms and Degrees)  !
 --------------------------                            --------------------------
 ! Name  Definition              Value          Derivative Info.                !
 --------------------------------------------------------------------------------
 ! R1    R(1,2)                  1.8736         estimate D2E/DX2                !
 ! R2    R(1,13)                 1.8627         estimate D2E/DX2                !
 ! R3    R(1,24)                 1.8267         estimate D2E/DX2                !
 ! R4    R(1,58)                 2.4101         estimate D2E/DX2                !
 ! R5    R(2,3)                  1.4112         estimate D2E/DX2                !
 ! R6    R(2,7)                  1.4119         estimate D2E/DX2                !
 ! R7    R(3,4)                  1.4079         estimate D2E/DX2                !
 ! R8    R(3,12)                 1.0813         estimate D2E/DX2                !
 ! R9    R(4,5)                  1.4066         estimate D2E/DX2                !
 ! R10   R(4,11)                 1.0805         estimate D2E/DX2                !
 ! R11   R(5,6)                  1.4069         estimate D2E/DX2                !
 ! R12   R(5,10)                 1.0805         estimate D2E/DX2                !
 ! R13   R(6,7)                  1.4086         estimate D2E/DX2                !
 ! R14   R(6,9)                  1.0803         estimate D2E/DX2                !
 ! R15   R(7,8)                  1.0759         estimate D2E/DX2                !
 ! R16   R(13,14)                1.4102         estimate D2E/DX2                !
 ! R17   R(13,18)                1.4101         estimate D2E/DX2                !
 ! R18   R(14,15)                1.4082         estimate D2E/DX2                !
 ! R19   R(14,23)                1.0809         estimate D2E/DX2                !
 ! R20   R(15,16)                1.4076         estimate D2E/DX2                !
 ! R21   R(15,22)                1.0804         estimate D2E/DX2                !
 ! R22   R(16,17)                1.4078         estimate D2E/DX2                !
 ! R23   R(16,21)                1.0806         estimate D2E/DX2                !
 ! R24   R(17,18)                1.4083         estimate D2E/DX2                !
 ! R25   R(17,20)                1.0805         estimate D2E/DX2                !
 ! R26   R(18,19)                1.08           estimate D2E/DX2                !
 ! R27   R(24,25)                1.5463         estimate D2E/DX2                !
 ! R28   R(24,34)                1.5397         estimate D2E/DX2                !
 ! R29   R(24,64)                1.0913         estimate D2E/DX2                !
 ! R30   R(25,26)                1.5172         estimate D2E/DX2                !
 ! R31   R(25,31)                1.5487         estimate D2E/DX2                !
 ! R32   R(25,63)                1.0906         estimate D2E/DX2                !
 ! R33   R(26,27)                1.3392         estimate D2E/DX2                !
 ! R34   R(26,62)                1.0811         estimate D2E/DX2                !
 ! R35   R(27,28)                1.0809         estimate D2E/DX2                !
 ! R36   R(27,29)                1.5177         estimate D2E/DX2                !
 ! R37   R(29,30)                1.0906         estimate D2E/DX2                !
 ! R38   R(29,31)                1.5413         estimate D2E/DX2                !
 ! R39   R(29,34)                1.5543         estimate D2E/DX2                !
 ! R40   R(31,32)                1.0923         estimate D2E/DX2                !
 ! R41   R(31,33)                1.0925         estimate D2E/DX2                !
 ! R42   R(34,35)                1.829          estimate D2E/DX2                !
 ! R43   R(34,61)                1.0885         estimate D2E/DX2                !
 ! R44   R(35,36)                1.8626         estimate D2E/DX2                !
 ! R45   R(35,47)                1.8684         estimate D2E/DX2                !
 ! R46   R(35,58)                2.4131         estimate D2E/DX2                !
 ! R47   R(36,37)                1.4101         estimate D2E/DX2                !
 ! R48   R(36,41)                1.4102         estimate D2E/DX2                !
 ! R49   R(37,38)                1.4081         estimate D2E/DX2                !
 ! R50   R(37,46)                1.0807         estimate D2E/DX2                !
 ! R51   R(38,39)                1.4077         estimate D2E/DX2                !
 ! R52   R(38,45)                1.0805         estimate D2E/DX2                !
 ! R53   R(39,40)                1.4078         estimate D2E/DX2                !
 ! R54   R(39,44)                1.0806         estimate D2E/DX2                !
 ! R55   R(40,41)                1.4083         estimate D2E/DX2                !
 ! R56   R(40,43)                1.0805         estimate D2E/DX2                !
 ! R57   R(41,42)                1.0801         estimate D2E/DX2                !
 ! R58   R(47,48)                1.4124         estimate D2E/DX2                !
 ! R59   R(47,52)                1.4102         estimate D2E/DX2                !
 ! R60   R(48,49)                1.4087         estimate D2E/DX2                !
 ! R61   R(48,57)                1.0787         estimate D2E/DX2                !
 ! R62   R(49,50)                1.4073         estimate D2E/DX2                !
 ! R63   R(49,56)                1.0804         estimate D2E/DX2                !
 ! R64   R(50,51)                1.4071         estimate D2E/DX2                !
 ! R65   R(50,55)                1.0804         estimate D2E/DX2                !
 ! R66   R(51,52)                1.4079         estimate D2E/DX2                !
 ! R67   R(51,54)                1.0804         estimate D2E/DX2                !
 ! R68   R(52,53)                1.0812         estimate D2E/DX2                !
 ! R69   R(58,59)                2.3272         estimate D2E/DX2                !
 ! R70   R(58,60)                2.3281         estimate D2E/DX2                !
 ! A1    A(2,1,13)             106.0217         estimate D2E/DX2                !
 ! A2    A(2,1,24)             114.8578         estimate D2E/DX2                !
 ! A3    A(2,1,58)             118.1053         estimate D2E/DX2                !
 ! A4    A(13,1,24)            100.2673         estimate D2E/DX2                !
 ! A5    A(13,1,58)            115.0984         estimate D2E/DX2                !
 ! A6    A(24,1,58)            101.2808         estimate D2E/DX2                !
 ! A7    A(1,2,3)              118.3365         estimate D2E/DX2                !
 ! A8    A(1,2,7)              123.1138         estimate D2E/DX2                !
 ! A9    A(3,2,7)              118.5403         estimate D2E/DX2                !
 ! A10   A(2,3,4)              120.9478         estimate D2E/DX2                !
 ! A11   A(2,3,12)             119.7415         estimate D2E/DX2                !
 ! A12   A(4,3,12)             119.3107         estimate D2E/DX2                !
 ! A13   A(3,4,5)              119.9554         estimate D2E/DX2                !
 ! A14   A(3,4,11)             119.9149         estimate D2E/DX2                !
 ! A15   A(5,4,11)             120.1294         estimate D2E/DX2                !
 ! A16   A(4,5,6)              119.7062         estimate D2E/DX2                !
 ! A17   A(4,5,10)             120.0863         estimate D2E/DX2                !
 ! A18   A(6,5,10)             120.2069         estimate D2E/DX2                !
 ! A19   A(5,6,7)              120.0828         estimate D2E/DX2                !
 ! A20   A(5,6,9)              119.876          estimate D2E/DX2                !
 ! A21   A(7,6,9)              120.0409         estimate D2E/DX2                !
 ! A22   A(2,7,6)              120.763          estimate D2E/DX2                !
 ! A23   A(2,7,8)              120.9455         estimate D2E/DX2                !
 ! A24   A(6,7,8)              118.2915         estimate D2E/DX2                !
 ! A25   A(1,13,14)            120.4792         estimate D2E/DX2                !
 ! A26   A(1,13,18)            120.3239         estimate D2E/DX2                !
 ! A27   A(14,13,18)           119.1957         estimate D2E/DX2                !
 ! A28   A(13,14,15)           120.5221         estimate D2E/DX2                !
 ! A29   A(13,14,23)           119.7773         estimate D2E/DX2                !
 ! A30   A(15,14,23)           119.6994         estimate D2E/DX2                !
 ! A31   A(14,15,16)           119.9549         estimate D2E/DX2                !
 ! A32   A(14,15,22)           119.9966         estimate D2E/DX2                !
 ! A33   A(16,15,22)           120.0482         estimate D2E/DX2                !
 ! A34   A(15,16,17)           119.8581         estimate D2E/DX2                !
 ! A35   A(15,16,21)           120.0755         estimate D2E/DX2                !
 ! A36   A(17,16,21)           120.0658         estimate D2E/DX2                !
 ! A37   A(16,17,18)           120.0214         estimate D2E/DX2                !
 ! A38   A(16,17,20)           119.9855         estimate D2E/DX2                !
 ! A39   A(18,17,20)           119.9926         estimate D2E/DX2                !
 ! A40   A(13,18,17)           120.4476         estimate D2E/DX2                !
 ! A41   A(13,18,19)           120.2256         estimate D2E/DX2                !
 ! A42   A(17,18,19)           119.3252         estimate D2E/DX2                !
 ! A43   A(1,24,25)            129.1745         estimate D2E/DX2                !
 ! A44   A(1,24,34)            109.2013         estimate D2E/DX2                !
 ! A45   A(1,24,64)            100.0613         estimate D2E/DX2                !
 ! A46   A(25,24,34)           104.2972         estimate D2E/DX2                !
 ! A47   A(25,24,64)           103.6037         estimate D2E/DX2                !
 ! A48   A(34,24,64)           109.3224         estimate D2E/DX2                !
 ! A49   A(24,25,26)           112.0696         estimate D2E/DX2                !
 ! A50   A(24,25,31)            95.0685         estimate D2E/DX2                !
 ! A51   A(24,25,63)           116.8956         estimate D2E/DX2                !
 ! A52   A(26,25,31)            98.3193         estimate D2E/DX2                !
 ! A53   A(26,25,63)           116.2011         estimate D2E/DX2                !
 ! A54   A(31,25,63)           114.8227         estimate D2E/DX2                !
 ! A55   A(25,26,27)           107.9143         estimate D2E/DX2                !
 ! A56   A(25,26,62)           124.3884         estimate D2E/DX2                !
 ! A57   A(27,26,62)           127.6969         estimate D2E/DX2                !
 ! A58   A(26,27,28)           127.5746         estimate D2E/DX2                !
 ! A59   A(26,27,29)           107.6379         estimate D2E/DX2                !
 ! A60   A(28,27,29)           124.6567         estimate D2E/DX2                !
 ! A61   A(27,29,30)           115.3549         estimate D2E/DX2                !
 ! A62   A(27,29,31)            97.6433         estimate D2E/DX2                !
 ! A63   A(27,29,34)           104.0876         estimate D2E/DX2                !
 ! A64   A(30,29,31)           116.5784         estimate D2E/DX2                !
 ! A65   A(30,29,34)           117.2279         estimate D2E/DX2                !
 ! A66   A(31,29,34)           103.3226         estimate D2E/DX2                !
 ! A67   A(25,31,29)            94.387          estimate D2E/DX2                !
 ! A68   A(25,31,32)           115.3356         estimate D2E/DX2                !
 ! A69   A(25,31,33)           112.8163         estimate D2E/DX2                !
 ! A70   A(29,31,32)           113.994          estimate D2E/DX2                !
 ! A71   A(29,31,33)           112.7517         estimate D2E/DX2                !
 ! A72   A(32,31,33)           107.3651         estimate D2E/DX2                !
 ! A73   A(24,34,29)           101.1252         estimate D2E/DX2                !
 ! A74   A(24,34,35)           105.0439         estimate D2E/DX2                !
 ! A75   A(24,34,61)           110.4585         estimate D2E/DX2                !
 ! A76   A(29,34,35)           126.6422         estimate D2E/DX2                !
 ! A77   A(29,34,61)           108.5609         estimate D2E/DX2                !
 ! A78   A(35,34,61)           104.4904         estimate D2E/DX2                !
 ! A79   A(34,35,36)           106.2844         estimate D2E/DX2                !
 ! A80   A(34,35,47)           107.1728         estimate D2E/DX2                !
 ! A81   A(34,35,58)           101.6559         estimate D2E/DX2                !
 ! A82   A(36,35,47)           106.4681         estimate D2E/DX2                !
 ! A83   A(36,35,58)           116.7719         estimate D2E/DX2                !
 ! A84   A(47,35,58)           117.459          estimate D2E/DX2                !
 ! A85   A(35,36,37)           120.5501         estimate D2E/DX2                !
 ! A86   A(35,36,41)           120.2133         estimate D2E/DX2                !
 ! A87   A(37,36,41)           119.2362         estimate D2E/DX2                !
 ! A88   A(36,37,38)           120.4798         estimate D2E/DX2                !
 ! A89   A(36,37,46)           119.8471         estimate D2E/DX2                !
 ! A90   A(38,37,46)           119.673          estimate D2E/DX2                !
 ! A91   A(37,38,39)           119.9759         estimate D2E/DX2                !
 ! A92   A(37,38,45)           119.9678         estimate D2E/DX2                !
 ! A93   A(39,38,45)           120.0561         estimate D2E/DX2                !
 ! A94   A(38,39,40)           119.8686         estimate D2E/DX2                !
 ! A95   A(38,39,44)           120.0591         estimate D2E/DX2                !
 ! A96   A(40,39,44)           120.0717         estimate D2E/DX2                !
 ! A97   A(39,40,41)           120.0081         estimate D2E/DX2                !
 ! A98   A(39,40,43)           119.9715         estimate D2E/DX2                !
 ! A99   A(41,40,43)           120.0203         estimate D2E/DX2                !
 ! A100  A(36,41,40)           120.4298         estimate D2E/DX2                !
 ! A101  A(36,41,42)           120.222          estimate D2E/DX2                !
 ! A102  A(40,41,42)           119.3482         estimate D2E/DX2                !
 ! A103  A(35,47,48)           122.1742         estimate D2E/DX2                !
 ! A104  A(35,47,52)           118.9649         estimate D2E/DX2                !
 ! A105  A(48,47,52)           118.8608         estimate D2E/DX2                !
 ! A106  A(47,48,49)           120.5573         estimate D2E/DX2                !
 ! A107  A(47,48,57)           120.7992         estimate D2E/DX2                !
 ! A108  A(49,48,57)           118.6435         estimate D2E/DX2                !
 ! A109  A(48,49,50)           120.0732         estimate D2E/DX2                !
 ! A110  A(48,49,56)           120.0468         estimate D2E/DX2                !
 ! A111  A(50,49,56)           119.88           estimate D2E/DX2                !
 ! A112  A(49,50,51)           119.784          estimate D2E/DX2                !
 ! A113  A(49,50,55)           120.1677         estimate D2E/DX2                !
 ! A114  A(51,50,55)           120.0483         estimate D2E/DX2                !
 ! A115  A(50,51,52)           119.9644         estimate D2E/DX2                !
 ! A116  A(50,51,54)           120.1242         estimate D2E/DX2                !
 ! A117  A(52,51,54)           119.9113         estimate D2E/DX2                !
 ! A118  A(47,52,51)           120.7604         estimate D2E/DX2                !
 ! A119  A(47,52,53)           119.7037         estimate D2E/DX2                !
 ! A120  A(51,52,53)           119.5359         estimate D2E/DX2                !
 ! A121  A(1,58,35)             85.468          estimate D2E/DX2                !
 ! A122  A(1,58,60)             91.3179         estimate D2E/DX2                !
 ! A123  A(35,58,59)            91.6532         estimate D2E/DX2                !
 ! A124  A(59,58,60)            91.5606         estimate D2E/DX2                !
 ! A125  L(1,58,59,60,-1)      182.8785         estimate D2E/DX2                !
 ! A126  L(35,58,60,59,-1)     183.2138         estimate D2E/DX2                !
 ! A127  L(1,58,59,60,-2)      180.8295         estimate D2E/DX2                !
 ! A128  L(35,58,60,59,-2)     179.9622         estimate D2E/DX2                !
 ! D1    D(13,1,2,3)           -39.8271         estimate D2E/DX2                !
 ! D2    D(13,1,2,7)           141.3042         estimate D2E/DX2                !
 ! D3    D(24,1,2,3)          -149.5465         estimate D2E/DX2                !
 ! D4    D(24,1,2,7)            31.5848         estimate D2E/DX2                !
 ! D5    D(58,1,2,3)            90.9919         estimate D2E/DX2                !
 ! D6    D(58,1,2,7)           -87.8769         estimate D2E/DX2                !
 ! D7    D(2,1,13,14)          -46.5299         estimate D2E/DX2                !
 ! D8    D(2,1,13,18)          133.8646         estimate D2E/DX2                !
 ! D9    D(24,1,13,14)          73.2381         estimate D2E/DX2                !
 ! D10   D(24,1,13,18)        -106.3675         estimate D2E/DX2                !
 ! D11   D(58,1,13,14)        -179.0413         estimate D2E/DX2                !
 ! D12   D(58,1,13,18)           1.3531         estimate D2E/DX2                !
 ! D13   D(2,1,24,25)           47.7768         estimate D2E/DX2                !
 ! D14   D(2,1,24,34)          -80.6194         estimate D2E/DX2                !
 ! D15   D(2,1,24,64)          164.6949         estimate D2E/DX2                !
 ! D16   D(13,1,24,25)         -65.3678         estimate D2E/DX2                !
 ! D17   D(13,1,24,34)         166.236          estimate D2E/DX2                !
 ! D18   D(13,1,24,64)          51.5503         estimate D2E/DX2                !
 ! D19   D(58,1,24,25)         176.2272         estimate D2E/DX2                !
 ! D20   D(58,1,24,34)          47.8309         estimate D2E/DX2                !
 ! D21   D(58,1,24,64)         -66.8547         estimate D2E/DX2                !
 ! D22   D(2,1,58,35)          115.2381         estimate D2E/DX2                !
 ! D23   D(2,1,58,60)          -64.7531         estimate D2E/DX2                !
 ! D24   D(13,1,58,35)        -118.2009         estimate D2E/DX2                !
 ! D25   D(13,1,58,60)          61.8079         estimate D2E/DX2                !
 ! D26   D(24,1,58,35)         -11.0952         estimate D2E/DX2                !
 ! D27   D(24,1,58,60)         168.9135         estimate D2E/DX2                !
 ! D28   D(1,2,3,4)           -179.66           estimate D2E/DX2                !
 ! D29   D(1,2,3,12)             0.3178         estimate D2E/DX2                !
 ! D30   D(7,2,3,4)             -0.7386         estimate D2E/DX2                !
 ! D31   D(7,2,3,12)           179.2392         estimate D2E/DX2                !
 ! D32   D(1,2,7,6)            179.6278         estimate D2E/DX2                !
 ! D33   D(1,2,7,8)             -0.3807         estimate D2E/DX2                !
 ! D34   D(3,2,7,6)              0.7613         estimate D2E/DX2                !
 ! D35   D(3,2,7,8)           -179.2473         estimate D2E/DX2                !
 ! D36   D(2,3,4,5)              0.2788         estimate D2E/DX2                !
 ! D37   D(2,3,4,11)          -179.9056         estimate D2E/DX2                !
 ! D38   D(12,3,4,5)          -179.6992         estimate D2E/DX2                !
 ! D39   D(12,3,4,11)            0.1165         estimate D2E/DX2                !
 ! D40   D(3,4,5,6)              0.1727         estimate D2E/DX2                !
 ! D41   D(3,4,5,10)           179.8878         estimate D2E/DX2                !
 ! D42   D(11,4,5,6)          -179.6425         estimate D2E/DX2                !
 ! D43   D(11,4,5,10)            0.0725         estimate D2E/DX2                !
 ! D44   D(4,5,6,7)             -0.149          estimate D2E/DX2                !
 ! D45   D(4,5,6,9)            179.6539         estimate D2E/DX2                !
 ! D46   D(10,5,6,7)          -179.8638         estimate D2E/DX2                !
 ! D47   D(10,5,6,9)            -0.0608         estimate D2E/DX2                !
 ! D48   D(5,6,7,2)             -0.326          estimate D2E/DX2                !
 ! D49   D(5,6,7,8)            179.6823         estimate D2E/DX2                !
 ! D50   D(9,6,7,2)            179.8713         estimate D2E/DX2                !
 ! D51   D(9,6,7,8)             -0.1204         estimate D2E/DX2                !
 ! D52   D(1,13,14,15)        -179.4953         estimate D2E/DX2                !
 ! D53   D(1,13,14,23)           0.8966         estimate D2E/DX2                !
 ! D54   D(18,13,14,15)          0.1147         estimate D2E/DX2                !
 ! D55   D(18,13,14,23)       -179.4935         estimate D2E/DX2                !
 ! D56   D(1,13,18,17)         179.5136         estimate D2E/DX2                !
 ! D57   D(1,13,18,19)          -0.9495         estimate D2E/DX2                !
 ! D58   D(14,13,18,17)         -0.097          estimate D2E/DX2                !
 ! D59   D(14,13,18,19)        179.4399         estimate D2E/DX2                !
 ! D60   D(13,14,15,16)         -0.0102         estimate D2E/DX2                !
 ! D61   D(13,14,15,22)       -179.8011         estimate D2E/DX2                !
 ! D62   D(23,14,15,16)        179.5982         estimate D2E/DX2                !
 ! D63   D(23,14,15,22)         -0.1926         estimate D2E/DX2                !
 ! D64   D(14,15,16,17)         -0.1129         estimate D2E/DX2                !
 ! D65   D(14,15,16,21)       -179.8203         estimate D2E/DX2                !
 ! D66   D(22,15,16,17)        179.6778         estimate D2E/DX2                !
 ! D67   D(22,15,16,21)         -0.0296         estimate D2E/DX2                !
 ! D68   D(15,16,17,18)          0.1305         estimate D2E/DX2                !
 ! D69   D(15,16,17,20)       -179.6106         estimate D2E/DX2                !
 ! D70   D(21,16,17,18)        179.838          estimate D2E/DX2                !
 ! D71   D(21,16,17,20)          0.0969         estimate D2E/DX2                !
 ! D72   D(16,17,18,13)         -0.0251         estimate D2E/DX2                !
 ! D73   D(16,17,18,19)       -179.5661         estimate D2E/DX2                !
 ! D74   D(20,17,18,13)        179.7159         estimate D2E/DX2                !
 ! D75   D(20,17,18,19)          0.1749         estimate D2E/DX2                !
 ! D76   D(1,24,25,26)         -78.9464         estimate D2E/DX2                !
 ! D77   D(1,24,25,31)         179.943          estimate D2E/DX2                !
 ! D78   D(1,24,25,63)          58.7739         estimate D2E/DX2                !
 ! D79   D(34,24,25,26)         51.254          estimate D2E/DX2                !
 ! D80   D(34,24,25,31)        -49.8565         estimate D2E/DX2                !
 ! D81   D(34,24,25,63)       -171.0256         estimate D2E/DX2                !
 ! D82   D(64,24,25,26)        165.6466         estimate D2E/DX2                !
 ! D83   D(64,24,25,31)         64.536          estimate D2E/DX2                !
 ! D84   D(64,24,25,63)        -56.6331         estimate D2E/DX2                !
 ! D85   D(1,24,34,29)         158.3372         estimate D2E/DX2                !
 ! D86   D(1,24,34,35)         -68.609          estimate D2E/DX2                !
 ! D87   D(1,24,34,61)          43.5271         estimate D2E/DX2                !
 ! D88   D(25,24,34,29)         17.1656         estimate D2E/DX2                !
 ! D89   D(25,24,34,35)        150.2194         estimate D2E/DX2                !
 ! D90   D(25,24,34,61)        -97.6445         estimate D2E/DX2                !
 ! D91   D(64,24,34,29)        -93.112          estimate D2E/DX2                !
 ! D92   D(64,24,34,35)         39.9419         estimate D2E/DX2                !
 ! D93   D(64,24,34,61)        152.078          estimate D2E/DX2                !
 ! D94   D(24,25,26,27)        -66.8202         estimate D2E/DX2                !
 ! D95   D(24,25,26,62)        112.9796         estimate D2E/DX2                !
 ! D96   D(31,25,26,27)         32.1333         estimate D2E/DX2                !
 ! D97   D(31,25,26,62)       -148.0668         estimate D2E/DX2                !
 ! D98   D(63,25,26,27)        155.1457         estimate D2E/DX2                !
 ! D99   D(63,25,26,62)        -25.0545         estimate D2E/DX2                !
 ! D100  D(24,25,31,29)         61.2706         estimate D2E/DX2                !
 ! D101  D(24,25,31,32)        -57.9097         estimate D2E/DX2                !
 ! D102  D(24,25,31,33)        178.2118         estimate D2E/DX2                !
 ! D103  D(26,25,31,29)        -51.9447         estimate D2E/DX2                !
 ! D104  D(26,25,31,32)       -171.125          estimate D2E/DX2                !
 ! D105  D(26,25,31,33)         64.9964         estimate D2E/DX2                !
 ! D106  D(63,25,31,29)       -175.9506         estimate D2E/DX2                !
 ! D107  D(63,25,31,32)         64.8691         estimate D2E/DX2                !
 ! D108  D(63,25,31,33)        -59.0095         estimate D2E/DX2                !
 ! D109  D(25,26,27,28)        178.9205         estimate D2E/DX2                !
 ! D110  D(25,26,27,29)          2.9596         estimate D2E/DX2                !
 ! D111  D(62,26,27,28)         -0.8707         estimate D2E/DX2                !
 ! D112  D(62,26,27,29)       -176.8316         estimate D2E/DX2                !
 ! D113  D(26,27,29,30)       -161.3122         estimate D2E/DX2                !
 ! D114  D(26,27,29,31)        -37.0386         estimate D2E/DX2                !
 ! D115  D(26,27,29,34)         68.8273         estimate D2E/DX2                !
 ! D116  D(28,27,29,30)         22.5793         estimate D2E/DX2                !
 ! D117  D(28,27,29,31)        146.8529         estimate D2E/DX2                !
 ! D118  D(28,27,29,34)       -107.2812         estimate D2E/DX2                !
 ! D119  D(27,29,31,25)         53.4368         estimate D2E/DX2                !
 ! D120  D(27,29,31,32)        173.6963         estimate D2E/DX2                !
 ! D121  D(27,29,31,33)        -63.5577         estimate D2E/DX2                !
 ! D122  D(30,29,31,25)        176.8213         estimate D2E/DX2                !
 ! D123  D(30,29,31,32)        -62.9192         estimate D2E/DX2                !
 ! D124  D(30,29,31,33)         59.8268         estimate D2E/DX2                !
 ! D125  D(34,29,31,25)        -53.0718         estimate D2E/DX2                !
 ! D126  D(34,29,31,32)         67.1877         estimate D2E/DX2                !
 ! D127  D(34,29,31,33)       -170.0663         estimate D2E/DX2                !
 ! D128  D(27,29,34,24)        -79.102          estimate D2E/DX2                !
 ! D129  D(27,29,34,35)        162.4766         estimate D2E/DX2                !
 ! D130  D(27,29,34,61)         37.1168         estimate D2E/DX2                !
 ! D131  D(30,29,34,24)        152.1683         estimate D2E/DX2                !
 ! D132  D(30,29,34,35)         33.747          estimate D2E/DX2                !
 ! D133  D(30,29,34,61)        -91.6129         estimate D2E/DX2                !
 ! D134  D(31,29,34,24)         22.4554         estimate D2E/DX2                !
 ! D135  D(31,29,34,35)        -95.966          estimate D2E/DX2                !
 ! D136  D(31,29,34,61)        138.6742         estimate D2E/DX2                !
 ! D137  D(24,34,35,36)        -70.4288         estimate D2E/DX2                !
 ! D138  D(24,34,35,47)        176.0315         estimate D2E/DX2                !
 ! D139  D(24,34,35,58)         52.2145         estimate D2E/DX2                !
 ! D140  D(29,34,35,36)         46.246          estimate D2E/DX2                !
 ! D141  D(29,34,35,47)        -67.2938         estimate D2E/DX2                !
 ! D142  D(29,34,35,58)        168.8893         estimate D2E/DX2                !
 ! D143  D(61,34,35,36)        173.2574         estimate D2E/DX2                !
 ! D144  D(61,34,35,47)         59.7177         estimate D2E/DX2                !
 ! D145  D(61,34,35,58)        -64.0992         estimate D2E/DX2                !
 ! D146  D(34,35,36,37)        -74.3909         estimate D2E/DX2                !
 ! D147  D(34,35,36,41)        105.3754         estimate D2E/DX2                !
 ! D148  D(47,35,36,37)         39.6324         estimate D2E/DX2                !
 ! D149  D(47,35,36,41)       -140.6014         estimate D2E/DX2                !
 ! D150  D(58,35,36,37)        173.0814         estimate D2E/DX2                !
 ! D151  D(58,35,36,41)         -7.1523         estimate D2E/DX2                !
 ! D152  D(34,35,47,48)        -13.9691         estimate D2E/DX2                !
 ! D153  D(34,35,47,52)        165.899          estimate D2E/DX2                !
 ! D154  D(36,35,47,48)       -127.3846         estimate D2E/DX2                !
 ! D155  D(36,35,47,52)         52.4835         estimate D2E/DX2                !
 ! D156  D(58,35,47,48)         99.5402         estimate D2E/DX2                !
 ! D157  D(58,35,47,52)        -80.5917         estimate D2E/DX2                !
 ! D158  D(34,35,58,1)         -18.9088         estimate D2E/DX2                !
 ! D159  D(34,35,58,59)        161.9211         estimate D2E/DX2                !
 ! D160  D(36,35,58,1)          96.2267         estimate D2E/DX2                !
 ! D161  D(36,35,58,59)        -82.9434         estimate D2E/DX2                !
 ! D162  D(47,35,58,1)        -135.4567         estimate D2E/DX2                !
 ! D163  D(47,35,58,59)         45.3733         estimate D2E/DX2                !
 ! D164  D(35,36,37,38)        179.3525         estimate D2E/DX2                !
 ! D165  D(35,36,37,46)         -0.8056         estimate D2E/DX2                !
 ! D166  D(41,36,37,38)         -0.416          estimate D2E/DX2                !
 ! D167  D(41,36,37,46)        179.4259         estimate D2E/DX2                !
 ! D168  D(35,36,41,40)       -179.3056         estimate D2E/DX2                !
 ! D169  D(35,36,41,42)          0.6218         estimate D2E/DX2                !
 ! D170  D(37,36,41,40)          0.4637         estimate D2E/DX2                !
 ! D171  D(37,36,41,42)       -179.6089         estimate D2E/DX2                !
 ! D172  D(36,37,38,39)          0.1014         estimate D2E/DX2                !
 ! D173  D(36,37,38,45)        179.9227         estimate D2E/DX2                !
 ! D174  D(46,37,38,39)       -179.7408         estimate D2E/DX2                !
 ! D175  D(46,37,38,45)          0.0806         estimate D2E/DX2                !
 ! D176  D(37,38,39,40)          0.1698         estimate D2E/DX2                !
 ! D177  D(37,38,39,44)        179.8945         estimate D2E/DX2                !
 ! D178  D(45,38,39,40)       -179.6513         estimate D2E/DX2                !
 ! D179  D(45,38,39,44)          0.0734         estimate D2E/DX2                !
 ! D180  D(38,39,40,41)         -0.1222         estimate D2E/DX2                !
 ! D181  D(38,39,40,43)        179.7373         estimate D2E/DX2                !
 ! D182  D(44,39,40,41)       -179.8469         estimate D2E/DX2                !
 ! D183  D(44,39,40,43)          0.0126         estimate D2E/DX2                !
 ! D184  D(39,40,41,36)         -0.1972         estimate D2E/DX2                !
 ! D185  D(39,40,41,42)        179.8748         estimate D2E/DX2                !
 ! D186  D(43,40,41,36)        179.9434         estimate D2E/DX2                !
 ! D187  D(43,40,41,42)          0.0153         estimate D2E/DX2                !
 ! D188  D(35,47,48,49)        179.838          estimate D2E/DX2                !
 ! D189  D(35,47,48,57)         -0.0874         estimate D2E/DX2                !
 ! D190  D(52,47,48,49)         -0.0302         estimate D2E/DX2                !
 ! D191  D(52,47,48,57)       -179.9556         estimate D2E/DX2                !
 ! D192  D(35,47,52,51)       -179.8771         estimate D2E/DX2                !
 ! D193  D(35,47,52,53)          0.1602         estimate D2E/DX2                !
 ! D194  D(48,47,52,51)         -0.0046         estimate D2E/DX2                !
 ! D195  D(48,47,52,53)       -179.9673         estimate D2E/DX2                !
 ! D196  D(47,48,49,50)          0.0436         estimate D2E/DX2                !
 ! D197  D(47,48,49,56)        179.9542         estimate D2E/DX2                !
 ! D198  D(57,48,49,50)        179.9706         estimate D2E/DX2                !
 ! D199  D(57,48,49,56)         -0.1188         estimate D2E/DX2                !
 ! D200  D(48,49,50,51)         -0.0219         estimate D2E/DX2                !
 ! D201  D(48,49,50,55)        179.8866         estimate D2E/DX2                !
 ! D202  D(56,49,50,51)       -179.9326         estimate D2E/DX2                !
 ! D203  D(56,49,50,55)         -0.0242         estimate D2E/DX2                !
 ! D204  D(49,50,51,52)         -0.0126         estimate D2E/DX2                !
 ! D205  D(49,50,51,54)        179.881          estimate D2E/DX2                !
 ! D206  D(55,50,51,52)       -179.9212         estimate D2E/DX2                !
 ! D207  D(55,50,51,54)         -0.0276         estimate D2E/DX2                !
 ! D208  D(50,51,52,47)          0.026          estimate D2E/DX2                !
 ! D209  D(50,51,52,53)        179.9888         estimate D2E/DX2                !
 ! D210  D(54,51,52,47)       -179.8678         estimate D2E/DX2                !
 ! D211  D(54,51,52,53)          0.0949         estimate D2E/DX2                !
 --------------------------------------------------------------------------------
 Trust Radius=3.00D-01 FncErr=1.00D-07 GrdErr=1.00D-06
 Number of steps in this run=    384 maximum allowed number of steps=    384.
 GradGradGradGradGradGradGradGradGradGradGradGradGradGradGradGradGradGrad

 Stoichiometry    C31H28Cl2P2Pd
 Framework group  C1[X(C31H28Cl2P2Pd)]
 Deg. of freedom   186
 Full point group                 C1      NOp   1
 Largest Abelian subgroup         C1      NOp   1
 Largest concise Abelian subgroup C1      NOp   1
                         Standard orientation:                         
 ---------------------------------------------------------------------
 Center     Atomic      Atomic             Coordinates (Angstroms)
 Number     Number       Type             X           Y           Z
 ---------------------------------------------------------------------
      1         15           0        1.605731   -0.100821    0.059277
      2          6           0        2.695513   -1.604707    0.306058
      3          6           0        3.926436   -1.660049   -0.381800
      4          6           0        4.784760   -2.767338   -0.242145
      5          6           0        4.416253   -3.841342    0.588076
      6          6           0        3.187609   -3.803819    1.272502
      7          6           0        2.332773   -2.693555    1.128477
      8          1           0        1.397873   -2.697317    1.660994
      9          1           0        2.899319   -4.629701    1.906453
     10          1           0        5.072525   -4.692988    0.695374
     11          1           0        5.724154   -2.791614   -0.775500
     12          1           0        4.217877   -0.842365   -1.026563
     13          6           0        2.754460    1.364786    0.014892
     14          6           0        3.772077    1.505502    0.980931
     15          6           0        4.634290    2.618546    0.954525
     16          6           0        4.483367    3.601050   -0.042160
     17          6           0        3.471481    3.466325   -1.011617
     18          6           0        2.610886    2.351941   -0.981706
     19          1           0        1.843007    2.256262   -1.735090
     20          1           0        3.357809    4.216034   -1.781325
     21          1           0        5.145748    4.454463   -0.065990
     22          1           0        5.413152    2.716215    1.696946
     23          1           0        3.895809    0.750245    1.744186
     24          6           0        0.569637    0.341009    1.497390
     25          6           0        0.969778    0.475984    2.984936
     26          6           0        1.079511   -0.873115    3.670434
     27          6           0       -0.147106   -1.407622    3.726587
     28          1           0       -0.429676   -2.367645    4.135003
     29          6           0       -1.094588   -0.460427    3.013391
     30          1           0       -2.151562   -0.593920    3.246457
     31          6           0       -0.448451    0.861002    3.473726
     32          1           0       -0.877635    1.751057    3.008290
     33          1           0       -0.499848    1.001965    4.555882
     34          6           0       -0.677439   -0.561754    1.519504
     35         15           0       -1.666675   -0.040360    0.072152
     36          6           0       -2.336130    1.649610    0.478502
     37          6           0       -3.394530    1.799160    1.398142
     38          6           0       -3.890431    3.078501    1.714495
     39          6           0       -3.330287    4.219363    1.109350
     40          6           0       -2.277179    4.077550    0.185927
     41          6           0       -1.784266    2.796443   -0.128962
     42          1           0       -0.977372    2.699843   -0.840416
     43          1           0       -1.848855    4.951781   -0.282737
     44          1           0       -3.710938    5.201650    1.349849
     45          1           0       -4.702581    3.183428    2.419412
     46          1           0       -3.830996    0.926327    1.862439
     47          6           0       -3.140922   -1.183746   -0.029253
     48          6           0       -3.209530   -2.389274    0.703449
     49          6           0       -4.339512   -3.224534    0.603916
     50          6           0       -5.412878   -2.862313   -0.231116
     51          6           0       -5.353522   -1.663467   -0.965338
     52          6           0       -4.222636   -0.831109   -0.862474
     53          1           0       -4.184250    0.088391   -1.429870
     54          1           0       -6.173588   -1.380986   -1.609539
     55          1           0       -6.279477   -3.502680   -0.310011
     56          1           0       -4.382981   -4.145228    1.167528
     57          1           0       -2.400366   -2.689028    1.350685
     58         46           0       -0.036953   -0.165922   -1.703047
     59         17           0       -1.705888   -0.189209   -3.324834
     60         17           0        1.629133   -0.284228   -3.324884
     61          1           0       -0.404165   -1.593415    1.305272
     62          1           0        2.003816   -1.299650    4.034547
     63          1           0        1.748556    1.201528    3.222442
     64          1           0        0.276943    1.354325    1.217360
 ---------------------------------------------------------------------
 Rotational constants (GHZ):      0.1104660      0.0735657      0.0705867
 General basis read from cards:  (6D, 7F)
 ======================================================================================================
                                       Pseudopotential Parameters
 ======================================================================================================
  Center     Atomic      Valence      Angular      Power
  Number     Number     Electrons     Momentum     of R      Exponent        Coefficient   SO-Coeffient
 ======================================================================================================
    1         15
                                   No pseudopotential on this center.
    2          6
                                   No pseudopotential on this center.
    3          6
                                   No pseudopotential on this center.
    4          6
                                   No pseudopotential on this center.
    5          6
                                   No pseudopotential on this center.
    6          6
                                   No pseudopotential on this center.
    7          6
                                   No pseudopotential on this center.
    8          1
                                   No pseudopotential on this center.
    9          1
                                   No pseudopotential on this center.
   10          1
                                   No pseudopotential on this center.
   11          1
                                   No pseudopotential on this center.
   12          1
                                   No pseudopotential on this center.
   13          6
                                   No pseudopotential on this center.
   14          6
                                   No pseudopotential on this center.
   15          6
                                   No pseudopotential on this center.
   16          6
                                   No pseudopotential on this center.
   17          6
                                   No pseudopotential on this center.
   18          6
                                   No pseudopotential on this center.
   19          1
                                   No pseudopotential on this center.
   20          1
                                   No pseudopotential on this center.
   21          1
                                   No pseudopotential on this center.
   22          1
                                   No pseudopotential on this center.
   23          1
                                   No pseudopotential on this center.
   24          6
                                   No pseudopotential on this center.
   25          6
                                   No pseudopotential on this center.
   26          6
                                   No pseudopotential on this center.
   27          6
                                   No pseudopotential on this center.
   28          1
                                   No pseudopotential on this center.
   29          6
                                   No pseudopotential on this center.
   30          1
                                   No pseudopotential on this center.
   31          6
                                   No pseudopotential on this center.
   32          1
                                   No pseudopotential on this center.
   33          1
                                   No pseudopotential on this center.
   34          6
                                   No pseudopotential on this center.
   35         15
                                   No pseudopotential on this center.
   36          6
                                   No pseudopotential on this center.
   37          6
                                   No pseudopotential on this center.
   38          6
                                   No pseudopotential on this center.
   39          6
                                   No pseudopotential on this center.
   40          6
                                   No pseudopotential on this center.
   41          6
                                   No pseudopotential on this center.
   42          1
                                   No pseudopotential on this center.
   43          1
                                   No pseudopotential on this center.
   44          1
                                   No pseudopotential on this center.
   45          1
                                   No pseudopotential on this center.
   46          1
                                   No pseudopotential on this center.
   47          6
                                   No pseudopotential on this center.
   48          6
                                   No pseudopotential on this center.
   49          6
                                   No pseudopotential on this center.
   50          6
                                   No pseudopotential on this center.
   51          6
                                   No pseudopotential on this center.
   52          6
                                   No pseudopotential on this center.
   53          1
                                   No pseudopotential on this center.
   54          1
                                   No pseudopotential on this center.
   55          1
                                   No pseudopotential on this center.
   56          1
                                   No pseudopotential on this center.
   57          1
                                   No pseudopotential on this center.
   58         46           18
                                      F and up 
                                                     0      598.3336444       -0.05631770    0.00000000
                                                     1      162.4298290      -20.12880360    0.00000000
                                                     2       51.5714771     -105.81979230    0.00000000
                                                     2       16.4888260      -42.57333450    0.00000000
                                                     2        5.8287656       -3.61650860    0.00000000
                                      S - F
                                                     0       73.3806304        3.00036510    0.00000000
                                                     1       14.7550438       32.43500930    0.00000000
                                                     2       17.8350204      459.08303830    0.00000000
                                                     2       12.7111477     -868.06290290    0.00000000
                                                     2        9.3292063      514.47260980    0.00000000
                                      P - F
                                                     0       55.6689877        4.95930990    0.00000000
                                                     1       64.2337771       21.17110290    0.00000000
                                                     2       17.6254952      605.05600920    0.00000000
                                                     2       11.9058155     -726.96418460    0.00000000
                                                     2        8.5100832      396.32748830    0.00000000
                                      D - F
                                                     0       49.9994728        3.05087450    0.00000000
                                                     1       39.7477547       22.25065800    0.00000000
                                                     2       11.4321366      674.83576980    0.00000000
                                                     2        9.1790080    -1040.85540480    0.00000000
                                                     2        7.5624429      505.93751470    0.00000000
   59         17
                                   No pseudopotential on this center.
   60         17
                                   No pseudopotential on this center.
   61          1
                                   No pseudopotential on this center.
   62          1
                                   No pseudopotential on this center.
   63          1
                                   No pseudopotential on this center.
   64          1
                                   No pseudopotential on this center.
 ======================================================================================================
 There are   621 symmetry adapted cartesian basis functions of A   symmetry.
 There are   621 symmetry adapted basis functions of A   symmetry.
   621 basis functions,  1237 primitive gaussians,   621 cartesian basis functions
   148 alpha electrons      148 beta electrons
       nuclear repulsion energy      5116.9550950017 Hartrees.
 NAtoms=   64 NActive=   64 NUniq=   64 SFac= 1.00D+00 NAtFMM=   60 NAOKFM=T Big=T
 Integral buffers will be    131072 words long.
 Raffenetti 2 integral format.
 Two-electron integral symmetry is turned on.
 Nuclear repulsion after empirical dispersion term =     5116.8331365525 Hartrees.
 Standard density basis: Auto (5D, 7F)
  2757 Density fitting functions
 There are  2757 symmetry adapted density basis functions of A   symmetry.
 One-electron integrals computed using PRISM.
   1 Symmetry operations used in ECPInt.
 ECPInt:  NShTT=   21736 NPrTT=  145778 LenC2=   17494 LenP2D=   60777.
 LDataN:  DoStor=T MaxTD1= 5 Len=  102
 NBasis=   621 RedAO= T EigKep=  5.19D-04  NBF=   621
 NBsUse=   621 1.00D-06 EigRej= -1.00D+00 NBFU=   621
 NBasis=      621 NBas6D=      621 NTT=      193131   NTT6D=   193131
 NDBShl=      545 NDBF=       2757 NDBF6D=     3258  NNucDB=        0
 IDenFi=        2 ISolve=        0 FullAP=F BlkAPC=T NucTyp=        0
 TolInv= 1.00D-06 TolIt=  1.00D-10 IR12=0.
 FoFCou: FMM=F IPFlag=           0 FMFlag=           0 FMFlg1=           0
         NFxFlg=           0 DoJE=F BraDBF=T KetDBF=T FulRan=T
         wScrn=  0.000000 ICntrl=     600 IOpCl=  3 I1Cent=           6 NGrid=           0
         NMat0=    1 NMatS0=   3258 NMatT0=    0 NMatD0=    1 NMtDS0=    0 NMtDT0=    0
 Petite list used in FoFCou.
 DBF EigKep=  1.27D-06 EigRej= -1.00D+00
 NDBF=   2757  NBFD=  2757
 NRank=  2757 NBFDU=  2757
 S*AI*S=  12.0717233939    
 Defaulting to unpruned grid for atomic number  46.
 ExpMin= 2.62D-02 ExpMax= 2.52D+04 ExpMxC= 3.78D+03 IAcc=3 IRadAn=         5 AccDes= 0.00D+00
 Harris functional with IExCor= 1009 and IRadAn=       5 diagonalized for initial guess.
 HarFok:  IExCor= 1009 AccDes= 0.00D+00 IRadAn=         5 IDoV= 1 UseB2=F ITyADJ=14
 ICtDFT=  3500011 ScaDFX=  1.000000  1.000000  1.000000  1.000000
 Defaulting to unpruned grid for atomic number  46.
 Defaulting to unpruned grid for atomic number  46.
 Defaulting to unpruned grid for atomic number  46.
 Defaulting to unpruned grid for atomic number  46.
 Defaulting to unpruned grid for atomic number  46.
 Defaulting to unpruned grid for atomic number  46.
 Defaulting to unpruned grid for atomic number  46.
 Defaulting to unpruned grid for atomic number  46.
 Defaulting to unpruned grid for atomic number  46.
 Defaulting to unpruned grid for atomic number  46.
 Defaulting to unpruned grid for atomic number  46.
 Defaulting to unpruned grid for atomic number  46.
 Defaulting to unpruned grid for atomic number  46.
 Defaulting to unpruned grid for atomic number  46.
 FoFCou: FMM=F IPFlag=           0 FMFlag=      100000 FMFlg1=        2001
         NFxFlg=           0 DoJE=T BraDBF=F KetDBF=T FulRan=T
         wScrn=  0.000000 ICntrl=     500 IOpCl=  0 I1Cent=   200000004 NGrid=           0
         NMat0=    1 NMatS0=      1 NMatT0=    0 NMatD0=    1 NMtDS0=    0 NMtDT0=    0
 Petite list used in FoFCou.
 Requested convergence on RMS density matrix=1.00D-08 within 500 cycles.
 Requested convergence on MAX density matrix=1.00D-06.
 Requested convergence on             energy=1.00D-06.
 No special actions if energy rises.
 FoFCou: FMM=F IPFlag=           0 FMFlag=      100000 FMFlg1=        2001
         NFxFlg=           0 DoJE=T BraDBF=T KetDBF=F FulRan=T
         wScrn=  0.000000 ICntrl=     500 IOpCl=  0 I1Cent=           5 NGrid=           0
         NMat0=    1 NMatS0=      1 NMatT0=    0 NMatD0=    1 NMtDS0=    0 NMtDT0=    0
 Symmetry not used in FoFCou.
 Defaulting to unpruned grid for atomic number  46.
 Defaulting to unpruned grid for atomic number  46.
 Defaulting to unpruned grid for atomic number  46.
 Defaulting to unpruned grid for atomic number  46.
 Defaulting to unpruned grid for atomic number  46.
 Defaulting to unpruned grid for atomic number  46.
 Defaulting to unpruned grid for atomic number  46.
 Defaulting to unpruned grid for atomic number  46.
 Defaulting to unpruned grid for atomic number  46.
 Defaulting to unpruned grid for atomic number  46.
 Defaulting to unpruned grid for atomic number  46.
 Defaulting to unpruned grid for atomic number  46.
 Defaulting to unpruned grid for atomic number  46.
 Defaulting to unpruned grid for atomic number  46.
 EnCoef did    10 forward-backward iterations
 EnCoef did   100 forward-backward iterations
 Problem detected with inexpensive integrals.
 Switching to full accuracy and repeating last cycle.
 EnCoef did     3 forward-backward iterations
 EnCoef did   100 forward-backward iterations
 EnCoef did   100 forward-backward iterations
 EnCoef did     4 forward-backward iterations
 EnCoef did     2 forward-backward iterations
 EnCoef did     3 forward-backward iterations
 Restarting incremental Fock formation.
 SCF Done:  E(RPBE-PBE) =  -2925.89981582     A.U. after   29 cycles
            NFock= 29  Conv=0.10D-07     -V/T= 2.0348

 **********************************************************************

            Population analysis using the SCF density.

 **********************************************************************

 Orbital symmetries:
       Occupied  (A) (A) (A) (A) (A) (A) (A) (A) (A) (A) (A) (A)
                 (A) (A) (A) (A) (A) (A) (A) (A) (A) (A) (A) (A)
                 (A) (A) (A) (A) (A) (A) (A) (A) (A) (A) (A) (A)
                 (A) (A) (A) (A) (A) (A) (A) (A) (A) (A) (A) (A)
                 (A) (A) (A) (A) (A) (A) (A) (A) (A) (A) (A) (A)
                 (A) (A) (A) (A) (A) (A) (A) (A) (A) (A) (A) (A)
                 (A) (A) (A) (A) (A) (A) (A) (A) (A) (A) (A) (A)
                 (A) (A) (A) (A) (A) (A) (A) (A) (A) (A) (A) (A)
                 (A) (A) (A) (A) (A) (A) (A) (A) (A) (A) (A) (A)
                 (A) (A) (A) (A) (A) (A) (A) (A) (A) (A) (A) (A)
                 (A) (A) (A) (A) (A) (A) (A) (A) (A) (A) (A) (A)
                 (A) (A) (A) (A) (A) (A) (A) (A) (A) (A) (A) (A)
                 (A) (A) (A) (A)
       Virtual   (A) (A) (A) (A) (A) (A) (A) (A) (A) (A) (A) (A)
                 (A) (A) (A) (A) (A) (A) (A) (A) (A) (A) (A) (A)
                 (A) (A) (A) (A) (A) (A) (A) (A) (A) (A) (A) (A)
                 (A) (A) (A) (A) (A) (A) (A) (A) (A) (A) (A) (A)
                 (A) (A) (A) (A) (A) (A) (A) (A) (A) (A) (A) (A)
                 (A) (A) (A) (A) (A) (A) (A) (A) (A) (A) (A) (A)
                 (A) (A) (A) (A) (A) (A) (A) (A) (A) (A) (A) (A)
                 (A) (A) (A) (A) (A) (A) (A) (A) (A) (A) (A) (A)
                 (A) (A) (A) (A) (A) (A) (A) (A) (A) (A) (A) (A)
                 (A) (A) (A) (A) (A) (A) (A) (A) (A) (A) (A) (A)
                 (A) (A) (A) (A) (A) (A) (A) (A) (A) (A) (A) (A)
                 (A) (A) (A) (A) (A) (A) (A) (A) (A) (A) (A) (A)
                 (A) (A) (A) (A) (A) (A) (A) (A) (A) (A) (A) (A)
                 (A) (A) (A) (A) (A) (A) (A) (A) (A) (A) (A) (A)
                 (A) (A) (A) (A) (A) (A) (A) (A) (A) (A) (A) (A)
                 (A) (A) (A) (A) (A) (A) (A) (A) (A) (A) (A) (A)
                 (A) (A) (A) (A) (A) (A) (A) (A) (A) (A) (A) (A)
                 (A) (A) (A) (A) (A) (A) (A) (A) (A) (A) (A) (A)
                 (A) (A) (A) (A) (A) (A) (A) (A) (A) (A) (A) (A)
                 (A) (A) (A) (A) (A) (A) (A) (A) (A) (A) (A) (A)
                 (A) (A) (A) (A) (A) (A) (A) (A) (A) (A) (A) (A)
                 (A) (A) (A) (A) (A) (A) (A) (A) (A) (A) (A) (A)
                 (A) (A) (A) (A) (A) (A) (A) (A) (A) (A) (A) (A)
                 (A) (A) (A) (A) (A) (A) (A) (A) (A) (A) (A) (A)
                 (A) (A) (A) (A) (A) (A) (A) (A) (A) (A) (A) (A)
                 (A) (A) (A) (A) (A) (A) (A) (A) (A) (A) (A) (A)
                 (A) (A) (A) (A) (A) (A) (A) (A) (A) (A) (A) (A)
                 (A) (A) (A) (A) (A) (A) (A) (A) (A) (A) (A) (A)
                 (A) (A) (A) (A) (A) (A) (A) (A) (A) (A) (A) (A)
                 (A) (A) (A) (A) (A) (A) (A) (A) (A) (A) (A) (A)
                 (A) (A) (A) (A) (A) (A) (A) (A) (A) (A) (A) (A)
                 (A) (A) (A) (A) (A) (A) (A) (A) (A) (A) (A) (A)
                 (A) (A) (A) (A) (A) (A) (A) (A) (A) (A) (A) (A)
                 (A) (A) (A) (A) (A) (A) (A) (A) (A) (A) (A) (A)
                 (A) (A) (A) (A) (A) (A) (A) (A) (A) (A) (A) (A)
                 (A) (A) (A) (A) (A) (A) (A) (A) (A) (A) (A) (A)
                 (A) (A) (A) (A) (A) (A) (A) (A) (A) (A) (A) (A)
                 (A) (A) (A) (A) (A) (A) (A) (A) (A) (A) (A) (A)
                 (A) (A) (A) (A) (A) (A) (A) (A) (A) (A) (A) (A)
                 (A) (A) (A) (A) (A)
 The electronic state is 1-A.
 Alpha  occ. eigenvalues -- -100.58637-100.58477 -76.37682 -76.37518  -9.93989
 Alpha  occ. eigenvalues --   -9.93938  -9.93541  -9.93243  -9.93129  -9.93064
 Alpha  occ. eigenvalues --   -9.92881  -9.92682  -9.92543  -9.92214  -9.92198
 Alpha  occ. eigenvalues --   -9.92161  -9.91954  -9.91863  -9.91859  -9.91781
 Alpha  occ. eigenvalues --   -9.91457  -9.91438  -9.91393  -9.91390  -9.91371
 Alpha  occ. eigenvalues --   -9.91362  -9.91277  -9.91213  -9.91202  -9.91120
 Alpha  occ. eigenvalues --   -9.91118  -9.91092  -9.91074  -9.91050  -9.90858
 Alpha  occ. eigenvalues --   -9.08162  -9.08010  -6.90501  -6.90347  -6.89758
 Alpha  occ. eigenvalues --   -6.89701  -6.89606  -6.89549  -6.35581  -6.35424
 Alpha  occ. eigenvalues --   -4.57399  -4.57374  -4.57232  -4.57218  -4.57064
 Alpha  occ. eigenvalues --   -4.56914  -3.19546  -1.96481  -1.96141  -1.92521
 Alpha  occ. eigenvalues --   -0.84005  -0.78900  -0.78304  -0.77766  -0.77734
 Alpha  occ. eigenvalues --   -0.73291  -0.70688  -0.69082  -0.68705  -0.68290
 Alpha  occ. eigenvalues --   -0.67992  -0.67855  -0.67731  -0.67665  -0.67361
 Alpha  occ. eigenvalues --   -0.65350  -0.63818  -0.63054  -0.60831  -0.58853
 Alpha  occ. eigenvalues --   -0.55959  -0.55562  -0.55215  -0.55013  -0.54713
 Alpha  occ. eigenvalues --   -0.54534  -0.54069  -0.53515  -0.51302  -0.51063
 Alpha  occ. eigenvalues --   -0.48841  -0.48377  -0.47217  -0.46945  -0.46537
 Alpha  occ. eigenvalues --   -0.45893  -0.43476  -0.41959  -0.41812  -0.41581
 Alpha  occ. eigenvalues --   -0.41081  -0.40500  -0.40423  -0.40329  -0.39970
 Alpha  occ. eigenvalues --   -0.39252  -0.39099  -0.38609  -0.37788  -0.37748
 Alpha  occ. eigenvalues --   -0.37616  -0.37272  -0.36636  -0.35981  -0.35091
 Alpha  occ. eigenvalues --   -0.34685  -0.34194  -0.33829  -0.33326  -0.33128
 Alpha  occ. eigenvalues --   -0.33027  -0.32563  -0.32403  -0.31674  -0.31295
 Alpha  occ. eigenvalues --   -0.31049  -0.30822  -0.30650  -0.30517  -0.30182
 Alpha  occ. eigenvalues --   -0.29875  -0.29411  -0.28828  -0.28261  -0.26112
 Alpha  occ. eigenvalues --   -0.25200  -0.24711  -0.24378  -0.23935  -0.23724
 Alpha  occ. eigenvalues --   -0.23612  -0.23300  -0.23271  -0.22947  -0.22761
 Alpha  occ. eigenvalues --   -0.22540  -0.21665  -0.21218  -0.18650  -0.18035
 Alpha  occ. eigenvalues --   -0.17276  -0.16981  -0.16625
 Alpha virt. eigenvalues --   -0.09303  -0.06582  -0.05605  -0.05427  -0.05167
 Alpha virt. eigenvalues --   -0.04806  -0.04332  -0.04042  -0.03685  -0.03226
 Alpha virt. eigenvalues --   -0.01407   0.01546   0.02163   0.03334   0.03749
 Alpha virt. eigenvalues --    0.04158   0.05084   0.05760   0.06389   0.06686
 Alpha virt. eigenvalues --    0.07307   0.07861   0.07929   0.08210   0.08653
 Alpha virt. eigenvalues --    0.08846   0.09169   0.09499   0.09835   0.10315
 Alpha virt. eigenvalues --    0.10620   0.10852   0.11347   0.11697   0.11852
 Alpha virt. eigenvalues --    0.12256   0.12626   0.13137   0.13181   0.13343
 Alpha virt. eigenvalues --    0.13627   0.13920   0.14271   0.14387   0.14831
 Alpha virt. eigenvalues --    0.15521   0.15796   0.16107   0.16347   0.16631
 Alpha virt. eigenvalues --    0.17124   0.17525   0.17713   0.18179   0.19052
 Alpha virt. eigenvalues --    0.19410   0.20343   0.21428   0.21847   0.22641
 Alpha virt. eigenvalues --    0.23147   0.24296   0.24679   0.25070   0.25599
 Alpha virt. eigenvalues --    0.25771   0.25844   0.26249   0.26346   0.26441
 Alpha virt. eigenvalues --    0.26627   0.26916   0.27115   0.27940   0.28595
 Alpha virt. eigenvalues --    0.29288   0.30905   0.31020   0.31612   0.32581
 Alpha virt. eigenvalues --    0.34777   0.35782   0.35993   0.37528   0.38253
 Alpha virt. eigenvalues --    0.39207   0.40255   0.41782   0.43962   0.44636
 Alpha virt. eigenvalues --    0.45379   0.46041   0.46609   0.46852   0.46967
 Alpha virt. eigenvalues --    0.47284   0.47639   0.48116   0.48172   0.48635
 Alpha virt. eigenvalues --    0.48877   0.49201   0.49305   0.49407   0.49506
 Alpha virt. eigenvalues --    0.49749   0.50004   0.50217   0.50322   0.51041
 Alpha virt. eigenvalues --    0.51119   0.51635   0.51653   0.51745   0.52090
 Alpha virt. eigenvalues --    0.52178   0.52446   0.53049   0.53186   0.53896
 Alpha virt. eigenvalues --    0.54265   0.54520   0.54726   0.55086   0.55246
 Alpha virt. eigenvalues --    0.55584   0.55714   0.55874   0.56255   0.56353
 Alpha virt. eigenvalues --    0.56575   0.56667   0.56751   0.56986   0.57362
 Alpha virt. eigenvalues --    0.57865   0.57898   0.58295   0.58412   0.58938
 Alpha virt. eigenvalues --    0.59624   0.59749   0.60272   0.61406   0.61469
 Alpha virt. eigenvalues --    0.61855   0.62489   0.62933   0.63301   0.64192
 Alpha virt. eigenvalues --    0.64703   0.65484   0.65606   0.65956   0.66749
 Alpha virt. eigenvalues --    0.67755   0.69001   0.69181   0.70206   0.70945
 Alpha virt. eigenvalues --    0.72015   0.72463   0.73224   0.74048   0.74407
 Alpha virt. eigenvalues --    0.74915   0.75833   0.76126   0.76647   0.76944
 Alpha virt. eigenvalues --    0.77662   0.77861   0.78169   0.78184   0.78367
 Alpha virt. eigenvalues --    0.78830   0.78933   0.79188   0.79573   0.79904
 Alpha virt. eigenvalues --    0.79922   0.79980   0.80515   0.80879   0.81483
 Alpha virt. eigenvalues --    0.81839   0.82294   0.82694   0.83269   0.83744
 Alpha virt. eigenvalues --    0.83891   0.84807   0.85124   0.85825   0.85929
 Alpha virt. eigenvalues --    0.86286   0.86339   0.87162   0.87392   0.87700
 Alpha virt. eigenvalues --    0.88246   0.88410   0.88619   0.89142   0.89453
 Alpha virt. eigenvalues --    0.89533   0.89704   0.90151   0.90277   0.90386
 Alpha virt. eigenvalues --    0.91017   0.91580   0.91995   0.92189   0.92529
 Alpha virt. eigenvalues --    0.93520   0.93768   0.94268   0.95271   0.95808
 Alpha virt. eigenvalues --    0.96777   0.97633   0.98169   0.98845   0.99177
 Alpha virt. eigenvalues --    0.99680   1.00467   1.01004   1.01731   1.01838
 Alpha virt. eigenvalues --    1.02698   1.03549   1.03852   1.04905   1.05567
 Alpha virt. eigenvalues --    1.05978   1.06571   1.07214   1.07358   1.08137
 Alpha virt. eigenvalues --    1.08283   1.09328   1.09717   1.10441   1.11406
 Alpha virt. eigenvalues --    1.11645   1.12095   1.12809   1.13094   1.15771
 Alpha virt. eigenvalues --    1.16430   1.17489   1.17965   1.18506   1.18823
 Alpha virt. eigenvalues --    1.19308   1.19931   1.22367   1.22789   1.24025
 Alpha virt. eigenvalues --    1.24421   1.25406   1.26917   1.29134   1.30478
 Alpha virt. eigenvalues --    1.30723   1.33775   1.34570   1.35507   1.36569
 Alpha virt. eigenvalues --    1.36739   1.37576   1.38296   1.38430   1.38762
 Alpha virt. eigenvalues --    1.39285   1.39660   1.39842   1.40066   1.40322
 Alpha virt. eigenvalues --    1.40636   1.41069   1.41184   1.41329   1.41431
 Alpha virt. eigenvalues --    1.41807   1.42461   1.43200   1.43374   1.43496
 Alpha virt. eigenvalues --    1.43612   1.43909   1.45665   1.46142   1.48921
 Alpha virt. eigenvalues --    1.49759   1.51924   1.52551   1.54252   1.55425
 Alpha virt. eigenvalues --    1.57663   1.58329   1.60949   1.63376   1.64435
 Alpha virt. eigenvalues --    1.67385   1.68718   1.69857   1.70228   1.71016
 Alpha virt. eigenvalues --    1.72024   1.72608   1.72886   1.73596   1.74886
 Alpha virt. eigenvalues --    1.75076   1.76052   1.76634   1.77323   1.77863
 Alpha virt. eigenvalues --    1.78854   1.80264   1.82206   1.82781   1.83116
 Alpha virt. eigenvalues --    1.83283   1.85187   1.88611   1.89824   1.90143
 Alpha virt. eigenvalues --    1.90285   1.90554   1.90847   1.91868   1.92329
 Alpha virt. eigenvalues --    1.92999   1.93898   1.96382   1.96964   1.97277
 Alpha virt. eigenvalues --    1.99172   1.99533   2.00247   2.01229   2.01389
 Alpha virt. eigenvalues --    2.02420   2.03672   2.03887   2.03974   2.04892
 Alpha virt. eigenvalues --    2.04922   2.05070   2.05327   2.05582   2.05622
 Alpha virt. eigenvalues --    2.05777   2.05967   2.06128   2.06280   2.06632
 Alpha virt. eigenvalues --    2.06674   2.06804   2.07099   2.07581   2.07965
 Alpha virt. eigenvalues --    2.09053   2.10415   2.14361   2.17168   2.19081
 Alpha virt. eigenvalues --    2.19356   2.19799   2.20008   2.20057   2.20145
 Alpha virt. eigenvalues --    2.20778   2.21002   2.21328   2.22071   2.22517
 Alpha virt. eigenvalues --    2.22573   2.23287   2.23679   2.30555   2.32625
 Alpha virt. eigenvalues --    2.35402   2.38617   2.41666   2.45015   2.45998
 Alpha virt. eigenvalues --    2.46185   2.46617   2.47026   2.48596   2.49180
 Alpha virt. eigenvalues --    2.49754   2.50159   2.52518   2.53195   2.53342
 Alpha virt. eigenvalues --    2.53464   2.54449   2.55167   2.55948   2.56712
 Alpha virt. eigenvalues --    2.57040   2.58405   2.58734   2.59427   2.59946
 Alpha virt. eigenvalues --    2.60498   2.61942   2.62903   2.63125   2.64380
 Alpha virt. eigenvalues --    2.64914   2.65283   2.65312   2.66371   2.66908
 Alpha virt. eigenvalues --    2.68093   2.69202   2.69731   2.70389   2.70666
 Alpha virt. eigenvalues --    2.71873   2.78931   2.79411   2.83282   2.92915
 Alpha virt. eigenvalues --    2.93382   2.93912   2.94187   3.23125   3.23608
 Alpha virt. eigenvalues --    3.26297   3.26478   3.49172   3.51700   3.98797
 Alpha virt. eigenvalues --    3.99264   3.99587   3.99943   4.02237   4.02548
 Alpha virt. eigenvalues --    4.03441   4.03683   4.09577   4.10893   4.11338
 Alpha virt. eigenvalues --    4.12049   4.17827   4.22894   4.23096   4.23419
 Alpha virt. eigenvalues --    4.25426   4.25902   4.26270   4.26635   4.27656
 Alpha virt. eigenvalues --    4.28527   4.29617   4.30961   4.31444   4.34532
 Alpha virt. eigenvalues --    4.47700   4.53465   4.56602   4.56941   4.57062
 Alpha virt. eigenvalues --    4.58486   4.70824  30.92256
          Condensed to atoms (all electrons):
 Mulliken charges:
               1
     1  P    0.589516
     2  C   -0.061829
     3  C   -0.168034
     4  C   -0.127478
     5  C   -0.137858
     6  C   -0.129181
     7  C   -0.179399
     8  H    0.143157
     9  H    0.146102
    10  H    0.149121
    11  H    0.155275
    12  H    0.184331
    13  C   -0.099201
    14  C   -0.171881
    15  C   -0.133583
    16  C   -0.138338
    17  C   -0.129271
    18  C   -0.167469
    19  H    0.217014
    20  H    0.156079
    21  H    0.149004
    22  H    0.146931
    23  H    0.152579
    24  C   -0.328142
    25  C   -0.181508
    26  C   -0.084586
    27  C   -0.131054
    28  H    0.147527
    29  C   -0.178693
    30  H    0.154952
    31  C   -0.304775
    32  H    0.170975
    33  H    0.170153
    34  C   -0.329542
    35  P    0.581661
    36  C   -0.079005
    37  C   -0.166071
    38  C   -0.133280
    39  C   -0.137271
    40  C   -0.127344
    41  C   -0.173980
    42  H    0.206680
    43  H    0.157585
    44  H    0.153264
    45  H    0.152068
    46  H    0.159857
    47  C   -0.072687
    48  C   -0.181455
    49  C   -0.126338
    50  C   -0.137303
    51  C   -0.128302
    52  C   -0.156626
    53  H    0.185444
    54  H    0.154996
    55  H    0.148854
    56  H    0.146065
    57  H    0.138816
    58  Pd  -0.481694
    59  Cl  -0.256761
    60  Cl  -0.254648
    61  H    0.228102
    62  H    0.153714
    63  H    0.160431
    64  H    0.234335
 Sum of Mulliken charges =  -0.00000
 Mulliken charges with hydrogens summed into heavy atoms:
               1
     1  P    0.589516
     2  C   -0.061829
     3  C    0.016296
     4  C    0.027797
     5  C    0.011262
     6  C    0.016922
     7  C   -0.036242
    13  C   -0.099201
    14  C   -0.019302
    15  C    0.013348
    16  C    0.010666
    17  C    0.026808
    18  C    0.049545
    24  C   -0.093807
    25  C   -0.021077
    26  C    0.069128
    27  C    0.016473
    29  C   -0.023741
    31  C    0.036353
    34  C   -0.101440
    35  P    0.581661
    36  C   -0.079005
    37  C   -0.006214
    38  C    0.018788
    39  C    0.015993
    40  C    0.030241
    41  C    0.032700
    47  C   -0.072687
    48  C   -0.042639
    49  C    0.019727
    50  C    0.011551
    51  C    0.026694
    52  C    0.028818
    58  Pd  -0.481694
    59  Cl  -0.256761
    60  Cl  -0.254648
 Electronic spatial extent (au):  <R**2>=          18007.1329
 Charge=             -0.0000 electrons
 Dipole moment (field-independent basis, Debye):
    X=             -0.0967    Y=              1.7871    Z=             13.0530  Tot=             13.1752
 Quadrupole moment (field-independent basis, Debye-Ang):
   XX=           -213.1940   YY=           -218.4336   ZZ=           -278.1806
   XY=              1.0411   XZ=             -1.7058   YZ=            -10.5174
 Traceless Quadrupole moment (field-independent basis, Debye-Ang):
   XX=             23.4087   YY=             18.1691   ZZ=            -41.5779
   XY=              1.0411   XZ=             -1.7058   YZ=            -10.5174
 Octapole moment (field-independent basis, Debye-Ang**2):
  XXX=            -12.9444  YYY=             25.8053  ZZZ=             39.7367  XYY=              7.9697
  XXY=            -23.6437  XXZ=             -4.9099  XZZ=             -2.4121  YZZ=              7.4011
  YYZ=             -5.3109  XYZ=            -16.3832
 Hexadecapole moment (field-independent basis, Debye-Ang**3):
 XXXX=         -11496.1848 YYYY=          -6074.0402 ZZZZ=          -5724.3591 XXXY=            144.8978
 XXXZ=             88.7605 YYYX=            -82.4643 YYYZ=           -169.3768 ZZZX=             -4.6425
 ZZZY=            -43.8432 XXYY=          -2613.8802 XXZZ=          -2989.6571 YYZZ=          -1965.4425
 XXYZ=            105.9983 YYXZ=            -83.8431 ZZXY=              0.5223
 N-N= 5.116833136552D+03 E-N=-1.708416720733D+04  KE= 2.827454359646D+03
   1 Symmetry operations used in ECPInt.
 ECPInt:  NShTT=   21736 NPrTT=  145778 LenC2=   17494 LenP2D=   60777.
 LDataN:  DoStor=T MaxTD1= 6 Len=  172
 Calling FoFJK, ICntrl=      2527 FMM=T ISym2X=0 I1Cent= 4 IOpClX= 0 NMat=1 NMatS=1 NMatT=0.
 Defaulting to unpruned grid for atomic number  46.
 Defaulting to unpruned grid for atomic number  46.
 Defaulting to unpruned grid for atomic number  46.
 Defaulting to unpruned grid for atomic number  46.
 Defaulting to unpruned grid for atomic number  46.
 Defaulting to unpruned grid for atomic number  46.
 Defaulting to unpruned grid for atomic number  46.
 Defaulting to unpruned grid for atomic number  46.
 Defaulting to unpruned grid for atomic number  46.
 Defaulting to unpruned grid for atomic number  46.
 Defaulting to unpruned grid for atomic number  46.
 Defaulting to unpruned grid for atomic number  46.
 Defaulting to unpruned grid for atomic number  46.
 Defaulting to unpruned grid for atomic number  46.
 ***** Axes restored to original set *****
 -------------------------------------------------------------------
 Center     Atomic                   Forces (Hartrees/Bohr)
 Number     Number              X              Y              Z
 -------------------------------------------------------------------
[...]
 00001282,0.00000799,0.00001377,-0.00004393,0.00002871,0.00002056,0.000
 00421,0.00001777,0.00001387,-0.00000304,-0.00000152,0.00000529,-0.0000
 0489,0.00000415,-0.00000002,-0.00003392,-0.00001117,-0.00000289,-0.000
 04192,0.00008320,-0.00006883,0.00009964,-0.00159128,0.00048509,0.01827
 482,-0.00249458,-0.00426115,0.10028262,-0.09965745,-0.05397850,-0.0111
 2784,0.00980467,0.00532883,0.00123803,-0.00045439,0.00194588,-0.003677
 89,-0.00031942,-0.00319650,-0.00046869,0.00110266,0.00044654,0.0002218
 3,-0.00347998,-0.00251229,0.00142595,-0.00032202,0.00028466,-0.0000212
 7,0.00004230,0.00014146,-0.00001126,-0.00020505,-0.00064641,-0.0000421
 1,-0.00003866,-0.00010615,0.00005045,0.00003421,-0.00005684,-0.0000501
 5,-0.00002734,-0.00002634,-0.00000160,-0.00000517,-0.00000508,0.000008
 18,0.00001877,0.00000188,0.00000716,0.00003226,-0.00000242,0.00002180,
 0.00001744,-0.00000199,0.00000196,0.00000313,0.00001755,-0.00000191,-0
 .00000297,0.00000080,0.00000278,-0.00000183,0.00000201,0.00000326,-0.0
 0000358,0.00000536,0.00002074,0.00001043,-0.00000425,0.00002342,-0.000
 03775,-0.00004736,0.00002492,-0.00001115,-0.00001171,0.00000506,0.0000
 0755,0.00000300,0.00000268,0.00000392,0.00000166,-0.00000102,-0.000001
 24,-0.00000463,0.00002580,0.00002830,0.00001573,-0.00000709,-0.0000018
 7,0.00000164,0.00000425,0.00000265,-0.00000255,0.00000187,0.00000211,0
 .00000104,0.00000312,0.00000692,0.00000013,-0.00000851,0.00001036,-0.0
 0000656,-0.00001962,0.00002413,-0.00008344,0.00003256,-0.00000910,-0.0
 0002207,-0.00004365,-0.00000972,-0.00002813,0.00011741,-0.00001867,-0.
 00006193,-0.10631544,0.09699850,0.00042094,-0.00038612,0.00002060,-0.0
 0001584,-0.00024468,0.00003981,0.00004691,0.00011433,0.00013347,0.0000
 0169,0.00002420,0.00003601,-0.00000353,-0.00001200,-0.00001353,0.00002
 783,0.00014848,0.00021849,-0.00009987,-0.00009314,0.00018628,0.0001417
 3,0.00108587,-0.00215657,-0.00001202,0.00004358,-0.00003470,0.00002795
 ,-0.00002866,0.00003012,0.00000198,0.00000607,0.00001328,0.00003092,-0
 .00004242,0.00001844,-0.00006201,0.00012564,-0.00002558,0.00005923,-0.
 00015903,-0.00005828,-0.00003468,0.00004230,0.00004841,0.00000822,0.00
 001261,-0.00001262,0.00000124,0.00001469,0.00001431,0.00000545,0.00002
 321,-0.00001836,-0.00000307,0.00000218,0.00000743,0.00000534,0.0000051
 4,0.00000758,0.00000539,0.00001372,0.00000492,0.00000453,-0.00000886,0
 .00000119,-0.00008310,0.00003517,-0.00002060,0.00016572,-0.00002389,-0
 .00054225,0.00854154,-0.00147572,-0.00002567,0.08676590,-0.05230088,-0
 .06999708,-0.00140097,-0.00096709,0.00319905,-0.00089608,0.00197362,-0
 .00408496,0.00233062,-0.00298605,0.00783163,0.00021634,-0.00066617,-0.
 00017042,-0.00084778,-0.00095832,-0.00110511,0.00006217,0.00051057,0.0
 0020815,0.00018732,-0.00001854,-0.00003689,-0.00112771,0.00066254,0.00
 126094,0.00016359,0.00001204,0.00049859,0.00006487,-0.00015892,0.00003
 599,0.00004233,-0.00000397,-0.00009468,-0.00001118,0.00004307,-0.00003
 062,-0.00002559,0.00000057,-0.00001049,0.00000928,-0.00000146,-0.00000
 673,0.00003848,0.00004872,-0.00003337,-0.00000857,-0.00001577,0.000011
 82,-0.00000194,0.00000330,0.00000324,-0.00000725,0.00000196,0.00000429
 ,-0.00001072,0.00000785,-0.00000081,-0.00002655,-0.00001602,0.00003130
 ,0.00001874,0.00006156,-0.00000395,-0.00001167,0.00000895,-0.00001207,
 -0.00000872,-0.00000256,-0.00000292,-0.00000239,-0.00000468,-0.0000033
 3,-0.00000058,0.00000466,0.00000111,-0.00002549,-0.00001479,-0.0000133
 1,0.00001452,0.00000003,0.00000584,-0.00000126,-0.00000331,0.00000314,
 -0.00000069,-0.00000286,0.00000084,-0.00000042,-0.00000709,0.00000257,
 0.00002337,-0.00000745,-0.00000262,-0.00010220,0.00012324,-0.00006261,
 -0.00003889,0.00000393,0.00005217,0.00001324,0.00002602,0.00000997,-0.
 00010291,0.00021928,-0.00002847,-0.09402754,0.05515090,0.06489500,0.00
 003092,-0.00008337,0.00029061,0.00001915,0.00000539,-0.00001070,-0.000
 00141,-0.00000735,0.00000237,-0.00000119,-0.00000165,-0.00000452,0.000
 00165,-0.00000218,0.00000305,-0.00000320,0.00000331,-0.00000143,0.0000
 2281,0.00000684,0.00000991,-0.00000623,-0.00000825,-0.00000090,0.00000
 088,-0.00000331,-0.00000127,0.00000012,-0.00000082,0.00000027,0.000001
 75,-0.00000061,0.00000117,-0.00000113,0.00000293,-0.00000121,0.0001553
 1,0.00001403,-0.00014853,-0.00000159,0.00007780,0.00011845,-0.00010890
 ,-0.00011030,0.00003395,0.00000289,-0.00000320,0.00000099,-0.00000633,
 0.00004247,-0.00000563,-0.00000837,0.00005766,0.00003041,-0.00000383,-
 0.00000608,0.00002420,-0.00000289,0.00000821,0.00000482,0.00000713,0.0
 0000860,0.00000519,0.00000262,-0.00000488,0.00000192,-0.00005921,0.000
 01729,-0.00006910,-0.00074075,0.00041333,-0.00120201,-0.19232768,-0.12
 693735,0.04302550,0.00486852,0.00420924,-0.00273651,-0.00011077,0.0015
 2905,0.00154405,0.00056196,-0.00010709,0.00035611,-0.00548486,0.001138
 00,-0.00096838,-0.00021055,-0.00135927,0.00059197,-0.01203745,-0.01617
 282,0.00661339,0.00052079,0.00023820,0.00029253,0.00077137,0.00003710,
 -0.00030079,-0.00042599,-0.00025285,-0.00086161,-0.00005410,-0.0001697
 1,-0.00017288,-0.00001530,-0.00000908,0.00000936,-0.00000676,-0.000016
 65,0.00001518,0.00001592,0.00000248,0.00002319,-0.00000434,-0.00000056
 ,-0.00001820,0.00002014,0.00001013,-0.00001802,0.00001156,-0.00001268,
 -0.00004342,-0.00000290,-0.00000501,0.00003179,-0.00000635,0.00001667,
 0.00001599,-0.00000729,0.00001050,0.00000322,0.00000138,-0.00000276,-0
 .00000081,0.00004519,0.00001338,-0.00001486,0.00001701,0.00000172,0.00
 005701,0.00004355,-0.00005244,0.00000424,0.00000583,0.00002652,0.00003
 142,-0.00000633,0.00000459,0.00000175,-0.00000992,0.00000003,-0.000000
 59,-0.00000204,-0.00001790,-0.00000252,-0.00000081,-0.00000531,0.00000
 003,-0.00000513,0.00000015,0.00000077,-0.00000597,-0.00000091,0.000002
 70,0.00000235,-0.00000091,-0.00000237,-0.00005339,0.00005984,0.0000115
 5,-0.00001528,0.00001365,0.00007469,0.00000289,0.00001195,0.00000734,0
 .00002896,0.00001027,0.00002242,-0.00001620,-0.00003754,0.00015860,0.0
 0007104,-0.00049217,-0.00040051,0.20473585,-0.00068174,-0.00021173,-0.
 00002205,0.00010375,0.00002260,0.00001900,0.00002832,0.00001303,0.0000
 2842,-0.00000150,0.00001072,0.00001228,-0.00000118,-0.00001051,-0.0000
 1099,0.00003201,-0.00000905,0.00003023,0.00002445,0.00005041,-0.000075
 38,-0.00017054,0.00003095,-0.00011415,-0.00001664,0.00000717,0.,0.0000
 0212,-0.00000349,0.00000567,-0.00000293,-0.00000050,0.00000340,-0.0000
 0067,-0.00000273,0.00000893,-0.00003107,0.00004107,-0.00003810,-0.0000
 4343,0.00016979,-0.00004232,0.00004742,0.00006918,-0.00012868,0.000037
 49,-0.00001160,0.00000138,-0.00000039,-0.00005773,-0.00001190,0.000064
 10,0.00000063,0.00003080,-0.00000535,-0.00002705,-0.00000842,-0.000000
 46,-0.00000287,-0.00001156,-0.00000664,-0.00001812,-0.00000355,0.00002
 555,0.00001338,0.00000789,0.00012360,-0.00023591,0.00007369,-0.0013796
 7,-0.00215493,0.00143103,-0.12660733,-0.15608396,0.03392950,-0.0193046
 6,-0.01168657,0.00721850,0.00026756,-0.00504245,-0.00214020,-0.0015152
 1,0.00010261,-0.00066715,0.00294054,-0.00096815,0.00021447,0.00022082,
 0.00091124,-0.00013185,0.00766553,0.00822483,-0.00406038,-0.00058060,0
 .00029348,-0.00021675,-0.00069018,0.00006860,-0.00002322,0.00071846,0.
 00113638,0.00061508,0.00008592,-0.00007446,-0.00020838,-0.00001492,0.0
 0003138,0.00004928,0.00001236,0.00000538,0.00001275,0.00000075,0.00000
 859,-0.00000640,-0.00000212,0.00000211,-0.00000160,0.00000206,-0.00000
 667,0.00000189,-0.00003087,0.00001215,-0.00000244,-0.00000324,0.000000
 53,-0.00000807,0.00000033,0.00000052,-0.00000522,0.00000072,0.00000018
 ,-0.00000108,-0.00000102,0.00000014,-0.00000101,-0.00000906,-0.0000012
 2,0.00000646,0.00001092,0.00005133,0.00001623,0.00003356,0.00002771,-0
 .00003216,-0.00000792,-0.00000165,-0.00000380,0.00000452,-0.00000240,-
 0.00000274,0.00000366,0.00001146,0.00000941,-0.00001386,-0.00001533,-0
 .00000341,-0.00000446,0.00000056,-0.00000273,-0.00000343,-0.00000152,0
 .00000088,-0.00000015,-0.00000131,0.00000107,0.00000305,0.00000360,-0.
 00000270,0.00001688,-0.00001897,-0.00000613,-0.00004342,0.00002653,0.0
 0011639,0.00002800,-0.00000719,-0.00001354,0.00007000,0.00002353,0.000
 01436,0.00002269,0.00003730,-0.00012614,0.00051645,0.00086591,0.000090
 69,0.13791470,0.16403657,0.00134138,0.00075489,0.00079967,-0.00018477,
 -0.00011493,-0.00013405,-0.00004262,0.00005497,0.00003821,-0.00000638,
 0.00000863,-0.00002103,-0.00000103,0.00000023,-0.00000816,0.00000821,0
 .00000190,0.00002058,-0.00000574,-0.00003467,0.00002889,0.00001357,0.0
 0001206,-0.00007133,-0.00000034,0.00000768,-0.00000244,0.00000261,-0.0
 0000156,0.00000295,0.00000098,0.00000805,-0.00000038,0.00001068,-0.000
 00535,-0.00000631,0.00017735,0.00003580,-0.00006824,-0.00008738,-0.000
 03900,0.00025655,-0.00021313,-0.00020032,0.00015040,-0.00007830,0.0000
 0928,0.00001496,0.00002237,0.00001178,-0.00004362,-0.00002888,-0.00022
 264,-0.00003400,0.00001332,0.00005234,-0.00001252,-0.00000447,0.000004
 26,0.00000598,0.00001259,0.00002327,0.00000916,0.00001758,-0.00001412,
 -0.00000066,-0.00007397,0.00011425,-0.00004141,0.02037591,0.01756754,-
 0.00596160,0.04254346,0.03524036,-0.05357416,-0.01160398,-0.00730849,0
 .00265379,0.00010393,-0.00256535,-0.00038077,-0.00086376,-0.00032057,-
 0.00012015,-0.00205196,0.00000348,-0.00088267,-0.00029770,-0.00051064,
 0.00051593,-0.00522589,-0.00715216,0.00110390,0.00039867,0.00022977,0.
 00014296,0.00038945,-0.00022533,0.00015309,0.00110146,-0.00037350,-0.0
 0494279,0.00034764,0.00129768,0.00097144,0.00000846,-0.00001945,-0.000
 11374,-0.00004795,-0.00003809,-0.00002438,-0.00000439,-0.00001457,0.00
 001643,0.00000951,-0.00002268,0.00001318,-0.00000909,-0.00000572,0.000
 01434,0.00005020,-0.00001496,0.00006099,0.00001112,0.00001745,-0.00000
 980,0.00000733,-0.00001801,-0.00000084,0.00000313,-0.00000186,-0.00000
 005,0.00000535,-0.00000782,0.00000272,0.00000931,0.00001415,-0.0000192
 4,0.00035876,-0.00037093,-0.00054493,0.00003098,-0.00010441,-0.0000630
 4,0.00001435,-0.00000797,0.00001351,0.00000723,0.00000629,-0.00000120,
 0.00003555,-0.00004010,-0.00007014,0.00016221,0.00024561,0.00006415,0.
 00000417,0.00000053,0.00000895,0.00003177,0.00001779,-0.00000306,0.000
 00270,0.00000735,-0.00000231,0.00001132,0.00001605,0.00000128,-0.00006
 814,-0.00002195,-0.00002795,0.00004585,-0.00014663,-0.00013803,-0.0000
 5205,0.00001067,0.00001821,-0.00013349,-0.00004645,-0.00003567,0.00013
 510,0.00004999,-0.00012575,0.00026508,0.00060572,0.00013139,-0.0466658
 5,-0.03611628,0.05943833,-0.00772109,0.01884251,-0.00022307,-0.0016732
 4,-0.00072338,-0.00421521,-0.00038019,0.00148005,0.00044819,-0.0001737
 2,0.00005633,-0.00043008,-0.00001582,-0.00003155,-0.00006047,0.0000012
 4,0.00000226,0.00002008,0.00020957,-0.00048654,-0.00016974,-0.00004593
 ,-0.00016783,0.00004404,-0.00000138,0.00003250,0.00001872,-0.00000818,
 0.00002528,0.00000971,-0.00009715,0.00013942,0.00000157,-0.00002529,0.
 00005534,0.00007248,0.00096144,-0.00003262,0.00054221,-0.00039139,0.00
 001375,0.00043412,0.00009651,0.00032088,-0.00004697,0.00013981,-0.0001
 5432,-0.00019289,-0.00023992,-0.00031050,0.00004470,0.00017785,-0.0002
 0495,0.00002059,0.00002124,0.00002629,-0.00020509,-0.00001005,0.000005
 95,0.00000894,0.00002437,-0.00000400,-0.00000693,0.00001305,0.00000624
 ,-0.00001468,0.00015607,-0.00003218,-0.00005822,-0.05459564,0.06364769
 ,0.01802469,-0.00196312,0.00978480,0.00553070,0.00049155,-0.00060047,0
 .00157087,-0.00063093,0.00027464,0.00081833,-0.00003043,0.00010510,-0.
 00010791,0.00071877,0.00015634,0.00068278,-0.00007003,-0.00014283,-0.0
 0005430,0.00043232,-0.00047675,-0.00359875,0.00011760,0.00056296,-0.00
 150846,-0.00052344,-0.00032940,0.00007025,0.00388719,-0.02684018,-0.00
 342581,-0.00077580,-0.00341548,0.00153945,-0.00024474,-0.00042183,-0.0
 0008856,-0.00029524,0.00014232,-0.00042516,-0.00007304,-0.00037414,0.0
 0006841,0.00028139,0.00016081,0.00021912,-0.00018766,0.00046332,-0.000
 22944,0.00011835,0.00043012,0.00031541,-0.00002832,-0.00003194,0.00019
 241,0.00001370,-0.00005175,-0.00002884,0.00001953,-0.00001482,0.000006
 48,0.00000190,-0.00000085,0.00002205,0.00006694,0.,0.00001513,0.000141
 68,0.00027371,-0.00003576,-0.00003233,-0.00030539,-0.00037043,-0.00004
 454,0.00011252,0.00012910,-0.00002368,-0.00004288,0.00000290,0.0000049
 3,0.00001107,0.00001330,-0.00003323,0.00000389,0.00000734,0.00001580,-
 0.00000619,0.00002351,-0.00000219,0.00000315,0.00000211,-0.00001619,0.
 00000499,0.00001366,0.00000902,0.00000058,-0.00000421,-0.00004316,0.00
 013186,0.00018436,0.00005405,-0.00051932,0.00078996,-0.00011530,0.0001
 8156,-0.00003426,-0.00005063,-0.00018147,0.00006117,-0.00447805,-0.002
 83781,-0.00091627,-0.00000455,0.00013712,-0.00004565,-0.00021509,0.000
 14638,-0.00033938,0.06708481,0.00512898,-0.00965270,0.00062835,-0.0000
 3618,0.00046049,0.00125637,0.00007038,-0.00026362,-0.00017142,0.000078
 05,-0.00003132,0.00008347,0.00000218,0.00003004,0.00005312,0.00003788,
 0.00007169,0.00004292,-0.00018106,0.00027509,-0.00007141,-0.00006381,0
 .00009167,0.00005048,-0.00000650,0.00001981,-0.00000535,0.00000290,-0.
 00001130,0.00000653,0.00001265,-0.00003114,-0.00000344,0.00001634,-0.0
 0002630,-0.00003409,-0.00072397,0.00055936,0.00004571,0.00023456,0.000
 09249,-0.00034379,-0.00011947,-0.00021985,0.00003852,-0.00008031,0.000
 12906,0.00011405,0.00015261,0.00007525,-0.00001543,-0.00000712,0.00009
 866,0.00006188,0.00002476,0.00001874,-0.00002859,0.00000414,-0.0000059
 4,-0.00000344,-0.00001207,0.00000426,-0.00000846,0.00000595,-0.0000197
 9,0.00002476,-0.00003030,0.00001437,-0.00000791,0.05603260,-0.24951075
 ,-0.06141203,0.00032368,0.00027238,-0.00008129,0.00054592,0.00067090,0
 .00063570,-0.00007380,0.00056934,0.00048870,-0.00003012,0.00009751,-0.
 00002583,0.00032219,0.00030200,0.00051480,-0.00003452,-0.00008855,-0.0
 0004773,0.00068885,0.00065180,0.00172614,-0.00019789,0.00052758,0.0008
 2244,0.00004242,0.00051679,0.00020783,0.00064628,-0.01719327,-0.000619
 91,-0.00156194,-0.00165689,-0.00053106,0.00068718,0.00071015,0.0001478
 6,-0.00022347,0.00007498,-0.00023656,0.00005061,-0.00008792,0.00004731
 ,-0.00000561,-0.00001187,-0.00002917,0.00013971,-0.00018734,0.00003859
 ,-0.00027639,-0.00020845,0.00002901,0.00023144,0.00004141,-0.00026927,
 -0.00001552,0.00000795,0.00001949,0.00000010,-0.00000051,-0.00000015,0
 .00000552,-0.00001383,-0.00000132,-0.00001986,0.00000208,-0.00000164,0
 .00007171,-0.00029175,0.00014100,0.00014232,-0.00010334,-0.00019890,-0
 .00004455,0.00012232,0.00003382,-0.00001230,-0.00000357,0.00001781,-0.
 00003540,0.00000640,-0.00003862,0.00012941,0.00012693,0.00000426,-0.00
 001200,-0.00000516,0.00001201,0.00001224,0.00000934,-0.00000083,0.0000
 0046,-0.00000311,0.00001939,0.00001328,0.00001622,-0.00000754,0.000008
 60,0.00005877,0.00014670,-0.00005512,0.00089678,-0.00055750,0.00005039
 ,-0.00009603,-0.00001177,-0.00005689,-0.00000876,-0.00002926,-0.002931
 78,-0.00121934,-0.00076175,-0.00004700,-0.00002316,-0.00004019,-0.0000
 2099,0.00034649,-0.00034334,-0.05900033,0.27300643,-0.00711583,0.01742
 934,0.00127770,-0.00219228,-0.00103058,-0.00386434,-0.00054818,0.00159
 190,0.00055154,-0.00007108,0.00007004,-0.00051866,-0.00001179,-0.00003
 185,-0.00000938,-0.00000375,0.00005262,0.00008434,0.00012619,-0.000312
 74,-0.00036928,-0.00004324,-0.00008674,-0.00004813,-0.00001373,0.00006
 932,0.00001481,-0.00001403,0.00002183,0.00001868,-0.00009397,0.0001633
 7,-0.00000536,-0.00008545,0.00004934,0.00010270,0.00088361,-0.00016455
 ,0.00016079,-0.00007925,0.00005161,0.00012498,0.00008310,0.00016508,-0
 .00005299,0.00010449,-0.00005426,-0.00011043,-0.00008778,-0.00012755,-
 0.00003995,-0.00004975,-0.00000353,0.00013656,0.00003663,0.,-0.0001089
 1,-0.00000816,-0.00000434,0.00001455,0.00001033,-0.00000586,-0.0000029
 8,0.00000768,0.00000755,-0.00000563,0.00006713,0.00000141,-0.00003612,
 0.01340469,-0.05528662,-0.04800668,0.00634459,-0.02511677,-0.01763714,
 0.00043043,0.00148135,-0.00463340,0.00058543,-0.00082383,-0.00015816,-
 0.00012738,-0.00013509,0.00058826,-0.00005643,0.00032013,-0.00007048,-
 0.00002870,0.00011198,-0.00000959,0.00080227,-0.00225379,-0.00228387,-
 0.00113588,0.00099014,-0.00117734,-0.00003041,0.00026190,0.00047418,0.
 00027806,0.00365524,-0.00055493,0.00139649,0.00138466,-0.00031819,0.00
 022172,0.00020683,-0.00007899,0.00001837,-0.00003753,0.00000928,-0.000
 00532,0.00014692,-0.00003100,-0.00013467,-0.00000473,-0.00014094,0.000
 00096,-0.00017020,0.00006135,0.00031151,-0.00017134,0.00007230,0.00022
 348,-0.00021862,-0.00048171,-0.00000741,0.00002426,0.00002860,-0.00000
 977,0.00000400,-0.00001886,-0.00001019,0.00000532,-0.00000763,-0.00001
 803,-0.00000546,-0.00000758,-0.00014038,-0.00016893,-0.00008782,0.0000
 0988,0.00011694,0.00010356,0.00000956,-0.00003007,-0.00002309,-0.00000
 390,0.00000768,0.00000420,-0.00000735,-0.00001360,-0.00001795,0.000066
 58,0.00000672,-0.00000775,-0.00000291,0.00000751,0.00000039,-0.0000047
 5,0.00000123,0.00000348,0.00000171,-0.00000302,-0.00000040,-0.00000485
 ,-0.00000271,-0.00000442,0.00003043,-0.00002357,-0.00006155,0.00003355
 ,-0.00040467,-0.00050053,-0.00000479,0.00002031,0.00001091,0.00020025,
 -0.00003083,0.00012352,0.00145700,0.00015003,0.00035989,-0.00009297,-0
 .00063396,-0.00035877,0.00023052,0.00030080,0.00083445,-0.01513229,0.0
 5847994,0.07668990\\0.00000957,0.00001695,0.00002900,-0.00000454,0.000
 00912,-0.00000435,0.00000960,-0.00000741,0.00000614,-0.00000319,0.0000
 0154,-0.00000423,0.00000085,-0.00000183,0.00000178,0.00000148,0.000001
 25,0.00000279,0.00000244,-0.00000971,0.00000092,-0.00000137,0.00000289
 ,-0.00000022,-0.00000060,-0.00000077,0.00000071,0.00000016,0.00000068,
 0.00000027,0.00000014,0.00000138,0.00000206,-0.00000147,0.00000027,-0.
 00000187,0.00000573,-0.00002980,-0.00001304,0.00000253,0.00000814,-0.0
 0000026,-0.00000251,-0.00000129,0.00000159,-0.00000173,0.00000042,0.00
 000104,0.00000053,0.00000060,0.00000026,-0.00000268,0.00001490,0.00000
 352,-0.00000072,-0.00000225,-0.00000095,-0.00000044,0.00000051,-0.0000
 0095,0.00000059,-0.00000073,-0.00000228,0.00000024,0.00000034,-0.00000
 032,-0.00000134,-0.00000022,0.00000125,-0.00002039,-0.00001068,-0.0000
 2462,0.00000283,0.00000015,-0.00000103,-0.00000381,-0.00000485,0.00000
 740,0.00000279,-0.00000008,-0.00001083,-0.00000181,0.00000093,0.000002
 05,0.00000748,0.00000821,-0.00001035,-0.00000039,-0.00000596,0.0000050
 2,-0.00001679,0.00001177,-0.00000521,0.00000342,-0.00000633,0.00000679
 ,0.00000399,-0.00000706,0.00000259,0.00001054,-0.00000442,-0.00001648,
 -0.00000276,0.00002344,0.00001310,-0.00000459,-0.00002199,-0.00000449,
 0.00000010,0.00000964,-0.00000214,-0.00000081,-0.00000437,-0.00000001,
 0.00000235,-0.00000014,0.00000120,-0.00000255,-0.00000105,0.00000007,0
 .00000574,0.00001673,-0.00000067,-0.00000149,-0.00000329,-0.00000253,0
 .00000073,-0.00000048,-0.00000134,-0.00000170,-0.00000088,-0.00000193,
 -0.00000008,-0.00000041,-0.00000110,-0.00000037,-0.00000193,-0.0000003
 4,0.00000885,0.00001197,0.00001365,-0.00000361,-0.00000782,0.00000034,
 0.00000200,-0.00000019,-0.00000131,-0.00000109,-0.00000077,0.00000104,
 0.00000571,0.00000099,-0.00000306,-0.00001057,-0.00000490,0.00000266,-
 0.00000034,-0.00000081,-0.00000328,-0.00000057,0.00000127,0.00000040,0
 .00000075,-0.00000041,0.00000182,0.00000015,0.00000014,0.00000077,0.00
 000113,0.00000308,-0.00000014,0.00000017,-0.00001382,-0.00001669,0.000
 00218,0.00000033,0.00000460,-0.00000127,0.00000850,0.00000525,-0.00000
 301,-0.00000228,0.00000507,0.00000218,-0.00000203,0.00000514,0.0000017
 3,-0.00000222,0.00000253,-0.00000009,0.00000709,0.00000319\\\@


 THE ONLY EXISTING THINGS ARE ATOMS AND EMPTY SPACE;
 ALL ELSE IS MERE OPINION. -- DEMOCRITUS OF ABDERA D. 370 B.C.
 EXPERIMENTS ARE THE ONLY MEANS OF KNOWLEDGE AT OUR DISPOSAL
 THE REST IS POETRY, IMAGINATION. -- MAX PLANCK
 Job cpu time:       0 days  5 hours 50 minutes 31.2 seconds.
 File lengths (MBytes):  RWF=   3015 Int=      0 D2E=      0 Chk=    104 Scr=      1
 Normal termination of Gaussian 09 at Tue Nov 16 15:21:41 2021.
