 Entering Gaussian System, Link 0=g09
 Input=RR_NorPhos_2.com
 Output=RR_NorPhos_2.log
 Initial command:
 /gstore/apps/gaussian/g09.e01-foss-2017a/g09/l1.exe "/local/21251379/Gau-3471.inp" -scrdir="/local/21251379/"
 Entering Link 1 = /gstore/apps/gaussian/g09.e01-foss-2017a/g09/l1.exe PID=      3472.
  
 Copyright (c) 1988,1990,1992,1993,1995,1998,2003,2009,2015,
            Gaussian, Inc.  All Rights Reserved.
  
 This is part of the Gaussian(R) 09 program.  It is based on
 the Gaussian(R) 03 system (copyright 2003, Gaussian, Inc.),
 the Gaussian(R) 98 system (copyright 1998, Gaussian, Inc.),
 the Gaussian(R) 94 system (copyright 1995, Gaussian, Inc.),
 the Gaussian 92(TM) system (copyright 1992, Gaussian, Inc.),
 the Gaussian 90(TM) system (copyright 1990, Gaussian, Inc.),
 the Gaussian 88(TM) system (copyright 1988, Gaussian, Inc.),
 the Gaussian 86(TM) system (copyright 1986, Carnegie Mellon
 University), and the Gaussian 82(TM) system (copyright 1983,
 Carnegie Mellon University). Gaussian is a federally registered
 trademark of Gaussian, Inc.
  
 This software contains proprietary and confidential information,
 including trade secrets, belonging to Gaussian, Inc.
  
 This software is provided under written license and may be
 used, copied, transmitted, or stored only in accord with that
 written license.
  
 The following legend is applicable only to US Government
 contracts under FAR:
  
                    RESTRICTED RIGHTS LEGEND
  
 Use, reproduction and disclosure by the US Government is
 subject to restrictions as set forth in subparagraphs (a)
 and (c) of the Commercial Computer Software - Restricted
 Rights clause in FAR 52.227-19.
  
 Gaussian, Inc.
 340 Quinnipiac St., Bldg. 40, Wallingford CT 06492
  
  
 ---------------------------------------------------------------
 Warning -- This program may not be used in any manner that
 competes with the business of Gaussian, Inc. or will provide
 assistance to any competitor of Gaussian, Inc.  The licensee
 of this program is prohibited from giving any competitor of
 Gaussian, Inc. access to this program.  By using this program,
 the user acknowledges that Gaussian, Inc. is engaged in the
 business of creating and licensing software in the field of
 computational chemistry and represents and warrants to the
 licensee that it is not a competitor of Gaussian, Inc. and that
 it will not use this program in any manner prohibited above.
 ---------------------------------------------------------------
  

 Cite this work as:
 Gaussian 09, Revision E.01,
 M. J. Frisch, G. W. Trucks, H. B. Schlegel, G. E. Scuseria, 
 M. A. Robb, J. R. Cheeseman, G. Scalmani, V. Barone, B. Mennucci, 
 G. A. Petersson, H. Nakatsuji, M. Caricato, X. Li, H. P. Hratchian, 
 A. F. Izmaylov, J. Bloino, G. Zheng, J. L. Sonnenberg, M. Hada, 
 M. Ehara, K. Toyota, R. Fukuda, J. Hasegawa, M. Ishida, T. Nakajima, 
 Y. Honda, O. Kitao, H. Nakai, T. Vreven, J. A. Montgomery, Jr., 
 J. E. Peralta, F. Ogliaro, M. Bearpark, J. J. Heyd, E. Brothers, 
 K. N. Kudin, V. N. Staroverov, T. Keith, R. Kobayashi, J. Normand, 
 K. Raghavachari, A. Rendell, J. C. Burant, S. S. Iyengar, J. Tomasi, 
 M. Cossi, N. Rega, J. M. Millam, M. Klene, J. E. Knox, J. B. Cross, 
 V. Bakken, C. Adamo, J. Jaramillo, R. Gomperts, R. E. Stratmann, 
 O. Yazyev, A. J. Austin, R. Cammi, C. Pomelli, J. W. Ochterski, 
 R. L. Martin, K. Morokuma, V. G. Zakrzewski, G. A. Voth, 
 P. Salvador, J. J. Dannenberg, S. Dapprich, A. D. Daniels, 
 O. Farkas, J. B. Foresman, J. V. Ortiz, J. Cioslowski, 
 and D. J. Fox, Gaussian, Inc., Wallingford CT, 2013.
 
 ******************************************
 Gaussian 09:  ES64L-G09RevE.01 30-Nov-2015
                16-Nov-2021 
 ******************************************
 %nprocs=14
 Will use up to   14 processors via shared memory.
 %mem=128GB
 %chk=RR_NorPhos_2.chk
 ----------------------------------------------------------------------
 # PBEPBE gen 6D pseudo=read scf=maxcycles=500 denfit int=(grid=ultrafi
 ne) empiricaldispersion=GD3BJ opt freq=noraman
 ----------------------------------------------------------------------
 1/14=-1,18=20,19=15,26=4,38=1/1,3;
 2/9=110,12=2,17=6,18=5,40=1/2;
 3/5=7,8=2,11=2,16=1,17=8,25=1,30=1,71=1,74=1009,75=-5,82=47,124=41/1,2,3;
 4//1;
 5/5=2,7=500,38=5/2;
 6/7=2,8=2,9=2,10=2,28=1/1;
 7//1,2,3,16;
 1/14=-1,18=20,19=15,26=4/3(2);
 2/9=110/2;
 99//99;
 2/9=110/2;
 3/5=7,6=1,8=2,11=2,16=1,17=8,25=1,30=1,71=1,74=1009,75=-5,82=7,124=41/1,2,3;
 4/5=5,16=3,69=1/1;
 5/5=2,7=500,38=5/2;
 7//1,2,3,16;
 1/14=-1,18=20,19=15,26=4/3(-5);
 2/9=110/2;
 6/7=2,8=2,9=2,10=2,19=2,28=1/1;
 99/9=1/99;
 ----------
 RR_NorPhos
 ----------
 Symbolic Z-matrix:
 Charge =  0 Multiplicity = 1
 P                    -1.6639    0.123    -0.0501 
 C                    -2.4468    1.804     0.2 
 C                    -1.7716    2.9485   -0.2759 
 C                    -2.318     4.2341   -0.0987 
 C                    -3.5552    4.3883    0.553 
 C                    -4.2449    3.254     1.0189 
 C                    -3.6941    1.9702    0.8395 
 H                    -4.249     1.1163    1.1911 
 H                    -5.2017    3.3668    1.5078 
 H                    -3.9793    5.3732    0.6858 
 H                    -1.7908    5.1017   -0.4685 
 H                    -0.8253    2.8468   -0.7863 
 C                    -2.9247   -1.2634   -0.0038 
 C                    -3.7355   -1.4889    1.13 
 C                    -4.6637   -2.5476    1.1564 
 C                    -4.7889   -3.401     0.0452 
 C                    -3.9818   -3.1926   -1.0879 
 C                    -3.055    -2.1323   -1.1079 
 H                    -2.4432   -1.9949   -1.9854 
 H                    -4.0731   -3.8452   -1.9442 
 H                    -5.5014   -4.2131    0.0615 
 H                    -5.2805   -2.7046    2.0295 
 H                    -3.6544   -0.8467    1.9925 
 C                    -0.6394   -0.2313    1.4269 
 C                    -1.0451   -0.1523    2.9196 
 C                    -1.1719    1.2824    3.4005 
 C                     0.053     1.8222    3.4067 
 H                     0.3245    2.8345    3.6708 
 C                     1.0122    0.7871    2.8479 
 H                     2.0666    0.9567    3.0687 
 C                     0.3664   -0.4607    3.473 
 H                     0.8013   -1.4032    3.1331 
 H                     0.4049   -0.454     4.5648 
 C                     0.6061    0.6745    1.3546 
 P                     1.6145   -0.0064   -0.0043 
 C                     2.2417   -1.6625    0.5724 
 C                     1.6986   -2.8515    0.0433 
 C                     2.1612   -4.1057    0.4865 
 C                     3.1748   -4.1783    1.4608 
 C                     3.7261   -2.9954    1.9884 
 C                     3.2608   -1.743     1.5436 
 H                     3.69     -0.8376    1.9486 
 H                     4.5081   -3.0475    2.7322 
 H                     3.5321   -5.1401    1.7997 
 H                     1.7401   -5.0126    0.077 
 H                     0.9224   -2.8079   -0.7066 
 C                     3.1026    1.1075   -0.1881 
 C                     3.1424    2.4046    0.3693 
 C                     4.2822    3.2171    0.2111 
 C                     5.3937    2.7404   -0.5086 
 C                     5.3624    1.4502   -1.0695 
 C                     4.2215    0.6409   -0.9085 
 H                     4.204    -0.3487   -1.3434 
 H                     6.2116    1.0799   -1.6253 
 H                     6.268     3.363    -0.6324 
 H                     4.3039    4.208     0.6411 
 H                     2.3031    2.7928    0.9249 
 Pd                    0.0025   -0.0009   -1.7954 
 Cl                    1.6964   -0.1546   -3.3848 
 Cl                   -1.6186    0.097    -3.4636 
 H                     0.322     1.6703    1.0137 
 H                    -2.1037    1.7583    3.6722 
 H                    -1.8135   -0.8427    3.2657 
 H                    -0.3586   -1.2741    1.2703 
 

 GradGradGradGradGradGradGradGradGradGradGradGradGradGradGradGradGradGrad
 Berny optimization.
 Initialization pass.
                           ----------------------------
                           !    Initial Parameters    !
                           ! (Angstroms and Degrees)  !
 --------------------------                            --------------------------
 ! Name  Definition              Value          Derivative Info.                !
 --------------------------------------------------------------------------------
 ! R1    R(1,2)                  1.8712         estimate D2E/DX2                !
 ! R2    R(1,13)                 1.8745         estimate D2E/DX2                !
 ! R3    R(1,24)                 1.8321         estimate D2E/DX2                !
 ! R4    R(1,58)                 2.4163         estimate D2E/DX2                !
 ! R5    R(2,3)                  1.4115         estimate D2E/DX2                !
 ! R6    R(2,7)                  1.4115         estimate D2E/DX2                !
 ! R7    R(3,4)                  1.4081         estimate D2E/DX2                !
 ! R8    R(3,12)                 1.08           estimate D2E/DX2                !
 ! R9    R(4,5)                  1.4068         estimate D2E/DX2                !
 ! R10   R(4,11)                 1.0805         estimate D2E/DX2                !
 ! R11   R(5,6)                  1.4069         estimate D2E/DX2                !
 ! R12   R(5,10)                 1.0805         estimate D2E/DX2                !
 ! R13   R(6,7)                  1.4084         estimate D2E/DX2                !
 ! R14   R(6,9)                  1.0804         estimate D2E/DX2                !
 ! R15   R(7,8)                  1.0773         estimate D2E/DX2                !
 ! R16   R(13,14)                1.412          estimate D2E/DX2                !
 ! R17   R(13,18)                1.411          estimate D2E/DX2                !
 ! R18   R(14,15)                1.4082         estimate D2E/DX2                !
 ! R19   R(14,23)                1.0784         estimate D2E/DX2                !
 ! R20   R(15,16)                1.4067         estimate D2E/DX2                !
 ! R21   R(15,22)                1.0805         estimate D2E/DX2                !
 ! R22   R(16,17)                1.4067         estimate D2E/DX2                !
 ! R23   R(16,21)                1.0805         estimate D2E/DX2                !
 ! R24   R(17,18)                1.4084         estimate D2E/DX2                !
 ! R25   R(17,20)                1.0805         estimate D2E/DX2                !
 ! R26   R(18,19)                1.0785         estimate D2E/DX2                !
 ! R27   R(24,25)                1.5489         estimate D2E/DX2                !
 ! R28   R(24,34)                1.5417         estimate D2E/DX2                !
 ! R29   R(24,64)                1.0912         estimate D2E/DX2                !
 ! R30   R(25,26)                1.5185         estimate D2E/DX2                !
 ! R31   R(25,31)                1.5472         estimate D2E/DX2                !
 ! R32   R(25,63)                1.0894         estimate D2E/DX2                !
 ! R33   R(26,27)                1.3386         estimate D2E/DX2                !
 ! R34   R(26,62)                1.081          estimate D2E/DX2                !
 ! R35   R(27,28)                1.0808         estimate D2E/DX2                !
 ! R36   R(27,29)                1.5178         estimate D2E/DX2                !
 ! R37   R(29,30)                1.0905         estimate D2E/DX2                !
 ! R38   R(29,31)                1.5378         estimate D2E/DX2                !
 ! R39   R(29,34)                1.5516         estimate D2E/DX2                !
 ! R40   R(31,32)                1.0922         estimate D2E/DX2                !
 ! R41   R(31,33)                1.0925         estimate D2E/DX2                !
 ! R42   R(34,35)                1.824          estimate D2E/DX2                !
 ! R43   R(34,61)                1.0902         estimate D2E/DX2                !
 ! R44   R(35,36)                1.8624         estimate D2E/DX2                !
 ! R45   R(35,47)                1.8679         estimate D2E/DX2                !
 ! R46   R(35,58)                2.4097         estimate D2E/DX2                !
 ! R47   R(36,37)                1.4102         estimate D2E/DX2                !
 ! R48   R(36,41)                1.4101         estimate D2E/DX2                !
 ! R49   R(37,38)                1.4083         estimate D2E/DX2                !
 ! R50   R(37,46)                1.0802         estimate D2E/DX2                !
 ! R51   R(38,39)                1.4078         estimate D2E/DX2                !
 ! R52   R(38,45)                1.0805         estimate D2E/DX2                !
 ! R53   R(39,40)                1.4077         estimate D2E/DX2                !
 ! R54   R(39,44)                1.0805         estimate D2E/DX2                !
 ! R55   R(40,41)                1.4081         estimate D2E/DX2                !
 ! R56   R(40,43)                1.0805         estimate D2E/DX2                !
 ! R57   R(41,42)                1.0807         estimate D2E/DX2                !
 ! R58   R(47,48)                1.4124         estimate D2E/DX2                !
 ! R59   R(47,52)                1.4102         estimate D2E/DX2                !
 ! R60   R(48,49)                1.4087         estimate D2E/DX2                !
 ! R61   R(48,57)                1.0788         estimate D2E/DX2                !
 ! R62   R(49,50)                1.4074         estimate D2E/DX2                !
 ! R63   R(49,56)                1.0804         estimate D2E/DX2                !
 ! R64   R(50,51)                1.4072         estimate D2E/DX2                !
 ! R65   R(50,55)                1.0804         estimate D2E/DX2                !
 ! R66   R(51,52)                1.408          estimate D2E/DX2                !
 ! R67   R(51,54)                1.0804         estimate D2E/DX2                !
 ! R68   R(52,53)                1.0811         estimate D2E/DX2                !
 ! R69   R(58,59)                2.3279         estimate D2E/DX2                !
 ! R70   R(58,60)                2.3282         estimate D2E/DX2                !
 ! A1    A(2,1,13)             112.3162         estimate D2E/DX2                !
 ! A2    A(2,1,24)             107.4542         estimate D2E/DX2                !
 ! A3    A(2,1,58)             115.5417         estimate D2E/DX2                !
 ! A4    A(13,1,24)            102.3082         estimate D2E/DX2                !
 ! A5    A(13,1,58)            116.3452         estimate D2E/DX2                !
 ! A6    A(24,1,58)            100.7627         estimate D2E/DX2                !
 ! A7    A(1,2,3)              118.8969         estimate D2E/DX2                !
 ! A8    A(1,2,7)              122.4163         estimate D2E/DX2                !
 ! A9    A(3,2,7)              118.6853         estimate D2E/DX2                !
 ! A10   A(2,3,4)              120.8146         estimate D2E/DX2                !
 ! A11   A(2,3,12)             120.1421         estimate D2E/DX2                !
 ! A12   A(4,3,12)             119.043          estimate D2E/DX2                !
 ! A13   A(3,4,5)              119.9752         estimate D2E/DX2                !
 ! A14   A(3,4,11)             120.0476         estimate D2E/DX2                !
 ! A15   A(5,4,11)             119.976          estimate D2E/DX2                !
 ! A16   A(4,5,6)              119.7456         estimate D2E/DX2                !
 ! A17   A(4,5,10)             120.1334         estimate D2E/DX2                !
 ! A18   A(6,5,10)             120.1177         estimate D2E/DX2                !
 ! A19   A(5,6,7)              120.0659         estimate D2E/DX2                !
 ! A20   A(5,6,9)              119.9887         estimate D2E/DX2                !
 ! A21   A(7,6,9)              119.9436         estimate D2E/DX2                !
 ! A22   A(2,7,6)              120.7046         estimate D2E/DX2                !
 ! A23   A(2,7,8)              120.6423         estimate D2E/DX2                !
 ! A24   A(6,7,8)              118.65           estimate D2E/DX2                !
 ! A25   A(1,13,14)            121.6121         estimate D2E/DX2                !
 ! A26   A(1,13,18)            119.8824         estimate D2E/DX2                !
 ! A27   A(14,13,18)           118.4858         estimate D2E/DX2                !
 ! A28   A(13,14,15)           120.904          estimate D2E/DX2                !
 ! A29   A(13,14,23)           120.2607         estimate D2E/DX2                !
 ! A30   A(15,14,23)           118.835          estimate D2E/DX2                !
 ! A31   A(14,15,16)           119.9971         estimate D2E/DX2                !
 ! A32   A(14,15,22)           120.0441         estimate D2E/DX2                !
 ! A33   A(16,15,22)           119.9588         estimate D2E/DX2                !
 ! A34   A(15,16,17)           119.6939         estimate D2E/DX2                !
 ! A35   A(15,16,21)           120.183          estimate D2E/DX2                !
 ! A36   A(17,16,21)           120.1231         estimate D2E/DX2                !
 ! A37   A(16,17,18)           120.0355         estimate D2E/DX2                !
 ! A38   A(16,17,20)           120.0272         estimate D2E/DX2                !
 ! A39   A(18,17,20)           119.9373         estimate D2E/DX2                !
 ! A40   A(13,18,17)           120.8804         estimate D2E/DX2                !
 ! A41   A(13,18,19)           120.385          estimate D2E/DX2                !
 ! A42   A(17,18,19)           118.7346         estimate D2E/DX2                !
 ! A43   A(1,24,25)            128.3602         estimate D2E/DX2                !
 ! A44   A(1,24,34)            107.4769         estimate D2E/DX2                !
 ! A45   A(1,24,64)            102.2982         estimate D2E/DX2                !
 ! A46   A(25,24,34)           103.1106         estimate D2E/DX2                !
 ! A47   A(25,24,64)           104.7407         estimate D2E/DX2                !
 ! A48   A(34,24,64)           110.2935         estimate D2E/DX2                !
 ! A49   A(24,25,26)           112.0418         estimate D2E/DX2                !
 ! A50   A(24,25,31)            95.4849         estimate D2E/DX2                !
 ! A51   A(24,25,63)           117.2961         estimate D2E/DX2                !
 ! A52   A(26,25,31)            98.6989         estimate D2E/DX2                !
 ! A53   A(26,25,63)           116.0564         estimate D2E/DX2                !
 ! A54   A(31,25,63)           113.7984         estimate D2E/DX2                !
 ! A55   A(25,26,27)           107.8227         estimate D2E/DX2                !
 ! A56   A(25,26,62)           124.5789         estimate D2E/DX2                !
 ! A57   A(27,26,62)           127.5952         estimate D2E/DX2                !
 ! A58   A(26,27,28)           127.4943         estimate D2E/DX2                !
 ! A59   A(26,27,29)           107.5522         estimate D2E/DX2                !
 ! A60   A(28,27,29)           124.7459         estimate D2E/DX2                !
 ! A61   A(27,29,30)           115.4942         estimate D2E/DX2                !
 ! A62   A(27,29,31)            97.9504         estimate D2E/DX2                !
 ! A63   A(27,29,34)           103.7928         estimate D2E/DX2                !
 ! A64   A(30,29,31)           116.7389         estimate D2E/DX2                !
 ! A65   A(30,29,34)           117.3352         estimate D2E/DX2                !
 ! A66   A(31,29,34)           102.8509         estimate D2E/DX2                !
 ! A67   A(25,31,29)            94.3581         estimate D2E/DX2                !
 ! A68   A(25,31,32)           115.0847         estimate D2E/DX2                !
 ! A69   A(25,31,33)           112.8542         estimate D2E/DX2                !
 ! A70   A(29,31,32)           113.9833         estimate D2E/DX2                !
 ! A71   A(29,31,33)           112.7341         estimate D2E/DX2                !
 ! A72   A(32,31,33)           107.5933         estimate D2E/DX2                !
 ! A73   A(24,34,29)           102.0602         estimate D2E/DX2                !
 ! A74   A(24,34,35)           105.2026         estimate D2E/DX2                !
 ! A75   A(24,34,61)           109.9247         estimate D2E/DX2                !
 ! A76   A(29,34,35)           126.8262         estimate D2E/DX2                !
 ! A77   A(29,34,61)           107.6294         estimate D2E/DX2                !
 ! A78   A(35,34,61)           104.6006         estimate D2E/DX2                !
 ! A79   A(34,35,36)           106.704          estimate D2E/DX2                !
 ! A80   A(34,35,47)           106.9257         estimate D2E/DX2                !
 ! A81   A(34,35,58)           100.5484         estimate D2E/DX2                !
 ! A82   A(36,35,47)           107.005          estimate D2E/DX2                !
 ! A83   A(36,35,58)           117.2242         estimate D2E/DX2                !
 ! A84   A(47,35,58)           117.287          estimate D2E/DX2                !
 ! A85   A(35,36,37)           120.2561         estimate D2E/DX2                !
 ! A86   A(35,36,41)           120.493          estimate D2E/DX2                !
 ! A87   A(37,36,41)           119.2507         estimate D2E/DX2                !
 ! A88   A(36,37,38)           120.417          estimate D2E/DX2                !
 ! A89   A(36,37,46)           120.212          estimate D2E/DX2                !
 ! A90   A(38,37,46)           119.371          estimate D2E/DX2                !
 ! A91   A(37,38,39)           120.0139         estimate D2E/DX2                !
 ! A92   A(37,38,45)           120.0123         estimate D2E/DX2                !
 ! A93   A(39,38,45)           119.9736         estimate D2E/DX2                !
 ! A94   A(38,39,40)           119.8697         estimate D2E/DX2                !
 ! A95   A(38,39,44)           120.0687         estimate D2E/DX2                !
 ! A96   A(40,39,44)           120.0611         estimate D2E/DX2                !
 ! A97   A(39,40,41)           119.9722         estimate D2E/DX2                !
 ! A98   A(39,40,43)           120.0619         estimate D2E/DX2                !
 ! A99   A(41,40,43)           119.9657         estimate D2E/DX2                !
 ! A100  A(36,41,40)           120.4747         estimate D2E/DX2                !
 ! A101  A(36,41,42)           119.8221         estimate D2E/DX2                !
 ! A102  A(40,41,42)           119.7031         estimate D2E/DX2                !
 ! A103  A(35,47,48)           122.0929         estimate D2E/DX2                !
 ! A104  A(35,47,52)           119.0168         estimate D2E/DX2                !
 ! A105  A(48,47,52)           118.8901         estimate D2E/DX2                !
 ! A106  A(47,48,49)           120.5439         estimate D2E/DX2                !
 ! A107  A(47,48,57)           120.7845         estimate D2E/DX2                !
 ! A108  A(49,48,57)           118.6715         estimate D2E/DX2                !
 ! A109  A(48,49,50)           120.0729         estimate D2E/DX2                !
 ! A110  A(48,49,56)           120.0373         estimate D2E/DX2                !
 ! A111  A(50,49,56)           119.8897         estimate D2E/DX2                !
 ! A112  A(49,50,51)           119.7903         estimate D2E/DX2                !
 ! A113  A(49,50,55)           120.1658         estimate D2E/DX2                !
 ! A114  A(51,50,55)           120.0438         estimate D2E/DX2                !
 ! A115  A(50,51,52)           119.9625         estimate D2E/DX2                !
 ! A116  A(50,51,54)           120.1215         estimate D2E/DX2                !
 ! A117  A(52,51,54)           119.9159         estimate D2E/DX2                !
 ! A118  A(47,52,51)           120.74           estimate D2E/DX2                !
 ! A119  A(47,52,53)           119.7053         estimate D2E/DX2                !
 ! A120  A(51,52,53)           119.5546         estimate D2E/DX2                !
 ! A121  A(1,58,35)             85.675          estimate D2E/DX2                !
 ! A122  A(1,58,60)             92.0168         estimate D2E/DX2                !
 ! A123  A(35,58,59)            91.1784         estimate D2E/DX2                !
 ! A124  A(59,58,60)            91.1586         estimate D2E/DX2                !
 ! A125  L(1,58,59,60,-1)      183.1755         estimate D2E/DX2                !
 ! A126  L(35,58,60,59,-1)     182.337          estimate D2E/DX2                !
 ! A127  L(1,58,59,60,-2)      180.7122         estimate D2E/DX2                !
 ! A128  L(35,58,60,59,-2)     182.1299         estimate D2E/DX2                !
 ! D1    D(13,1,2,3)          -157.137          estimate D2E/DX2                !
 ! D2    D(13,1,2,7)            22.4025         estimate D2E/DX2                !
 ! D3    D(24,1,2,3)            91.11           estimate D2E/DX2                !
 ! D4    D(24,1,2,7)           -89.3505         estimate D2E/DX2                !
 ! D5    D(58,1,2,3)           -20.4337         estimate D2E/DX2                !
 ! D6    D(58,1,2,7)           159.1058         estimate D2E/DX2                !
 ! D7    D(2,1,13,14)          -59.222          estimate D2E/DX2                !
 ! D8    D(2,1,13,18)          122.4156         estimate D2E/DX2                !
 ! D9    D(24,1,13,14)          55.7017         estimate D2E/DX2                !
 ! D10   D(24,1,13,18)        -122.6607         estimate D2E/DX2                !
 ! D11   D(58,1,13,14)         164.4455         estimate D2E/DX2                !
 ! D12   D(58,1,13,18)         -13.917          estimate D2E/DX2                !
 ! D13   D(2,1,24,25)           51.0365         estimate D2E/DX2                !
 ! D14   D(2,1,24,34)          -72.5004         estimate D2E/DX2                !
 ! D15   D(2,1,24,64)          171.3451         estimate D2E/DX2                !
 ! D16   D(13,1,24,25)         -67.3886         estimate D2E/DX2                !
 ! D17   D(13,1,24,34)         169.0744         estimate D2E/DX2                !
 ! D18   D(13,1,24,64)          52.9199         estimate D2E/DX2                !
 ! D19   D(58,1,24,25)         172.3579         estimate D2E/DX2                !
 ! D20   D(58,1,24,34)          48.821          estimate D2E/DX2                !
 ! D21   D(58,1,24,64)         -67.3335         estimate D2E/DX2                !
 ! D22   D(2,1,58,35)          103.8332         estimate D2E/DX2                !
 ! D23   D(2,1,58,60)          -74.0023         estimate D2E/DX2                !
 ! D24   D(13,1,58,35)        -121.2346         estimate D2E/DX2                !
 ! D25   D(13,1,58,60)          60.93           estimate D2E/DX2                !
 ! D26   D(24,1,58,35)         -11.5849         estimate D2E/DX2                !
 ! D27   D(24,1,58,60)         170.5797         estimate D2E/DX2                !
 ! D28   D(1,2,3,4)           -179.4205         estimate D2E/DX2                !
 ! D29   D(1,2,3,12)             0.7818         estimate D2E/DX2                !
 ! D30   D(7,2,3,4)              1.0226         estimate D2E/DX2                !
 ! D31   D(7,2,3,12)          -178.7751         estimate D2E/DX2                !
 ! D32   D(1,2,7,6)            179.4511         estimate D2E/DX2                !
 ! D33   D(1,2,7,8)             -1.1961         estimate D2E/DX2                !
 ! D34   D(3,2,7,6)             -1.0084         estimate D2E/DX2                !
 ! D35   D(3,2,7,8)            178.3443         estimate D2E/DX2                !
 ! D36   D(2,3,4,5)             -0.357          estimate D2E/DX2                !
 ! D37   D(2,3,4,11)          -179.9645         estimate D2E/DX2                !
 ! D38   D(12,3,4,5)           179.443          estimate D2E/DX2                !
 ! D39   D(12,3,4,11)           -0.1646         estimate D2E/DX2                !
 ! D40   D(3,4,5,6)             -0.3406         estimate D2E/DX2                !
 ! D41   D(3,4,5,10)          -179.6817         estimate D2E/DX2                !
 ! D42   D(11,4,5,6)           179.2673         estimate D2E/DX2                !
 ! D43   D(11,4,5,10)           -0.0739         estimate D2E/DX2                !
 ! D44   D(4,5,6,7)              0.3538         estimate D2E/DX2                !
 ! D45   D(4,5,6,9)           -179.1586         estimate D2E/DX2                !
 ! D46   D(10,5,6,7)           179.6951         estimate D2E/DX2                !
 ! D47   D(10,5,6,9)             0.1826         estimate D2E/DX2                !
 ! D48   D(5,6,7,2)              0.3301         estimate D2E/DX2                !
 ! D49   D(5,6,7,8)           -179.0353         estimate D2E/DX2                !
 ! D50   D(9,6,7,2)            179.8428         estimate D2E/DX2                !
 ! D51   D(9,6,7,8)              0.4774         estimate D2E/DX2                !
 ! D52   D(1,13,14,15)        -179.022          estimate D2E/DX2                !
 ! D53   D(1,13,14,23)           1.1726         estimate D2E/DX2                !
 ! D54   D(18,13,14,15)         -0.6374         estimate D2E/DX2                !
 ! D55   D(18,13,14,23)        179.5572         estimate D2E/DX2                !
 ! D56   D(1,13,18,17)         179.0756         estimate D2E/DX2                !
 ! D57   D(1,13,18,19)          -0.9071         estimate D2E/DX2                !
 ! D58   D(14,13,18,17)          0.6622         estimate D2E/DX2                !
 ! D59   D(14,13,18,19)       -179.3204         estimate D2E/DX2                !
 ! D60   D(13,14,15,16)          0.2493         estimate D2E/DX2                !
 ! D61   D(13,14,15,22)       -179.7083         estimate D2E/DX2                !
 ! D62   D(23,14,15,16)       -179.9426         estimate D2E/DX2                !
 ! D63   D(23,14,15,22)          0.0998         estimate D2E/DX2                !
 ! D64   D(14,15,16,17)          0.1278         estimate D2E/DX2                !
 ! D65   D(14,15,16,21)       -179.8853         estimate D2E/DX2                !
 ! D66   D(22,15,16,17)       -179.9146         estimate D2E/DX2                !
 ! D67   D(22,15,16,21)          0.0723         estimate D2E/DX2                !
 ! D68   D(15,16,17,18)         -0.1032         estimate D2E/DX2                !
 ! D69   D(15,16,17,20)        179.9652         estimate D2E/DX2                !
 ! D70   D(21,16,17,18)        179.9099         estimate D2E/DX2                !
 ! D71   D(21,16,17,20)         -0.0217         estimate D2E/DX2                !
 ! D72   D(16,17,18,13)         -0.2993         estimate D2E/DX2                !
 ! D73   D(16,17,18,19)        179.6836         estimate D2E/DX2                !
 ! D74   D(20,17,18,13)        179.6323         estimate D2E/DX2                !
 ! D75   D(20,17,18,19)         -0.3847         estimate D2E/DX2                !
 ! D76   D(1,24,25,26)         -73.4531         estimate D2E/DX2                !
 ! D77   D(1,24,25,31)        -175.1536         estimate D2E/DX2                !
 ! D78   D(1,24,25,63)          64.467          estimate D2E/DX2                !
 ! D79   D(34,24,25,26)         51.8277         estimate D2E/DX2                !
 ! D80   D(34,24,25,31)        -49.8727         estimate D2E/DX2                !
 ! D81   D(34,24,25,63)       -170.2522         estimate D2E/DX2                !
 ! D82   D(64,24,25,26)        167.2641         estimate D2E/DX2                !
 ! D83   D(64,24,25,31)         65.5637         estimate D2E/DX2                !
 ! D84   D(64,24,25,63)        -54.8158         estimate D2E/DX2                !
 ! D85   D(1,24,34,29)         155.0069         estimate D2E/DX2                !
 ! D86   D(1,24,34,35)         -71.1088         estimate D2E/DX2                !
 ! D87   D(1,24,34,61)          40.9993         estimate D2E/DX2                !
 ! D88   D(25,24,34,29)         17.1577         estimate D2E/DX2                !
 ! D89   D(25,24,34,35)        151.0419         estimate D2E/DX2                !
 ! D90   D(25,24,34,61)        -96.8499         estimate D2E/DX2                !
 ! D91   D(64,24,34,29)        -94.2294         estimate D2E/DX2                !
 ! D92   D(64,24,34,35)         39.6548         estimate D2E/DX2                !
 ! D93   D(64,24,34,61)        151.7629         estimate D2E/DX2                !
 ! D94   D(24,25,26,27)        -68.073          estimate D2E/DX2                !
 ! D95   D(24,25,26,62)        111.3205         estimate D2E/DX2                !
 ! D96   D(31,25,26,27)         31.4979         estimate D2E/DX2                !
 ! D97   D(31,25,26,62)       -149.1086         estimate D2E/DX2                !
 ! D98   D(63,25,26,27)        153.4499         estimate D2E/DX2                !
 ! D99   D(63,25,26,62)        -27.1565         estimate D2E/DX2                !
 ! D100  D(24,25,31,29)         61.8917         estimate D2E/DX2                !
 ! D101  D(24,25,31,32)        -57.1717         estimate D2E/DX2                !
 ! D102  D(24,25,31,33)        178.8097         estimate D2E/DX2                !
 ! D103  D(26,25,31,29)        -51.4422         estimate D2E/DX2                !
 ! D104  D(26,25,31,32)       -170.5056         estimate D2E/DX2                !
 ! D105  D(26,25,31,33)         65.4758         estimate D2E/DX2                !
 ! D106  D(63,25,31,29)       -175.0248         estimate D2E/DX2                !
 ! D107  D(63,25,31,32)         65.9118         estimate D2E/DX2                !
 ! D108  D(63,25,31,33)        -58.1068         estimate D2E/DX2                !
 ! D109  D(25,26,27,28)        178.3826         estimate D2E/DX2                !
 ! D110  D(25,26,27,29)          3.4652         estimate D2E/DX2                !
 ! D111  D(62,26,27,28)         -0.9871         estimate D2E/DX2                !
 ! D112  D(62,26,27,29)       -175.9046         estimate D2E/DX2                !
 ! D113  D(26,27,29,30)       -162.0245         estimate D2E/DX2                !
 ! D114  D(26,27,29,31)        -37.2816         estimate D2E/DX2                !
 ! D115  D(26,27,29,34)         68.1166         estimate D2E/DX2                !
 ! D116  D(28,27,29,30)         22.8827         estimate D2E/DX2                !
 ! D117  D(28,27,29,31)        147.6256         estimate D2E/DX2                !
 ! D118  D(28,27,29,34)       -106.9762         estimate D2E/DX2                !
 ! D119  D(27,29,31,25)         53.2172         estimate D2E/DX2                !
 ! D120  D(27,29,31,32)        173.1688         estimate D2E/DX2                !
 ! D121  D(27,29,31,33)        -63.8            estimate D2E/DX2                !
 ! D122  D(30,29,31,25)        177.0653         estimate D2E/DX2                !
 ! D123  D(30,29,31,32)        -62.983          estimate D2E/DX2                !
 ! D124  D(30,29,31,33)         60.0482         estimate D2E/DX2                !
 ! D125  D(34,29,31,25)        -52.9696         estimate D2E/DX2                !
 ! D126  D(34,29,31,32)         66.982          estimate D2E/DX2                !
 ! D127  D(34,29,31,33)       -169.9868         estimate D2E/DX2                !
 ! D128  D(27,29,34,24)        -79.2626         estimate D2E/DX2                !
 ! D129  D(27,29,34,35)        161.0687         estimate D2E/DX2                !
 ! D130  D(27,29,34,61)         36.4301         estimate D2E/DX2                !
 ! D131  D(30,29,34,24)        151.9959         estimate D2E/DX2                !
 ! D132  D(30,29,34,35)         32.3271         estimate D2E/DX2                !
 ! D133  D(30,29,34,61)        -92.3114         estimate D2E/DX2                !
 ! D134  D(31,29,34,24)         22.3963         estimate D2E/DX2                !
 ! D135  D(31,29,34,35)        -97.2724         estimate D2E/DX2                !
 ! D136  D(31,29,34,61)        138.0891         estimate D2E/DX2                !
 ! D137  D(24,34,35,36)        -68.3989         estimate D2E/DX2                !
 ! D138  D(24,34,35,47)        177.3657         estimate D2E/DX2                !
 ! D139  D(24,34,35,58)         54.4018         estimate D2E/DX2                !
 ! D140  D(29,34,35,36)         49.8936         estimate D2E/DX2                !
 ! D141  D(29,34,35,47)        -64.3417         estimate D2E/DX2                !
 ! D142  D(29,34,35,58)        172.6944         estimate D2E/DX2                !
 ! D143  D(61,34,35,36)        175.7703         estimate D2E/DX2                !
 ! D144  D(61,34,35,47)         61.5349         estimate D2E/DX2                !
 ! D145  D(61,34,35,58)        -61.429          estimate D2E/DX2                !
 ! D146  D(34,35,36,37)        106.612          estimate D2E/DX2                !
 ! D147  D(34,35,36,41)        -73.2317         estimate D2E/DX2                !
 ! D148  D(47,35,36,37)       -139.2064         estimate D2E/DX2                !
 ! D149  D(47,35,36,41)         40.9499         estimate D2E/DX2                !
 ! D150  D(58,35,36,37)         -5.0621         estimate D2E/DX2                !
 ! D151  D(58,35,36,41)        175.0941         estimate D2E/DX2                !
 ! D152  D(34,35,47,48)        -16.7876         estimate D2E/DX2                !
 ! D153  D(34,35,47,52)        163.3513         estimate D2E/DX2                !
 ! D154  D(36,35,47,48)       -130.8195         estimate D2E/DX2                !
 ! D155  D(36,35,47,52)         49.3194         estimate D2E/DX2                !
 ! D156  D(58,35,47,48)         95.0696         estimate D2E/DX2                !
 ! D157  D(58,35,47,52)        -84.7915         estimate D2E/DX2                !
 ! D158  D(34,35,58,1)         -19.3845         estimate D2E/DX2                !
 ! D159  D(34,35,58,59)        161.4471         estimate D2E/DX2                !
 ! D160  D(36,35,58,1)          95.7402         estimate D2E/DX2                !
 ! D161  D(36,35,58,59)        -83.4281         estimate D2E/DX2                !
 ! D162  D(47,35,58,1)        -134.806          estimate D2E/DX2                !
 ! D163  D(47,35,58,59)         46.0256         estimate D2E/DX2                !
 ! D164  D(35,36,37,38)       -179.3767         estimate D2E/DX2                !
 ! D165  D(35,36,37,46)          0.5993         estimate D2E/DX2                !
 ! D166  D(41,36,37,38)          0.469          estimate D2E/DX2                !
 ! D167  D(41,36,37,46)       -179.555          estimate D2E/DX2                !
 ! D168  D(35,36,41,40)        179.4099         estimate D2E/DX2                !
 ! D169  D(35,36,41,42)         -0.7214         estimate D2E/DX2                !
 ! D170  D(37,36,41,40)         -0.4354         estimate D2E/DX2                !
 ! D171  D(37,36,41,42)        179.4333         estimate D2E/DX2                !
 ! D172  D(36,37,38,39)         -0.1897         estimate D2E/DX2                !
 ! D173  D(36,37,38,45)        179.9694         estimate D2E/DX2                !
 ! D174  D(46,37,38,39)        179.8341         estimate D2E/DX2                !
 ! D175  D(46,37,38,45)         -0.0068         estimate D2E/DX2                !
 ! D176  D(37,38,39,40)         -0.1282         estimate D2E/DX2                !
 ! D177  D(37,38,39,44)       -179.8487         estimate D2E/DX2                !
 ! D178  D(45,38,39,40)        179.7127         estimate D2E/DX2                !
 ! D179  D(45,38,39,44)         -0.0078         estimate D2E/DX2                !
 ! D180  D(38,39,40,41)          0.1618         estimate D2E/DX2                !
 ! D181  D(38,39,40,43)       -179.6522         estimate D2E/DX2                !
 ! D182  D(44,39,40,41)        179.8823         estimate D2E/DX2                !
 ! D183  D(44,39,40,43)          0.0683         estimate D2E/DX2                !
 ! D184  D(39,40,41,36)          0.1223         estimate D2E/DX2                !
 ! D185  D(39,40,41,42)       -179.7466         estimate D2E/DX2                !
 ! D186  D(43,40,41,36)        179.9365         estimate D2E/DX2                !
 ! D187  D(43,40,41,42)          0.0676         estimate D2E/DX2                !
 ! D188  D(35,47,48,49)        179.9748         estimate D2E/DX2                !
 ! D189  D(35,47,48,57)          0.0484         estimate D2E/DX2                !
 ! D190  D(52,47,48,49)         -0.1639         estimate D2E/DX2                !
 ! D191  D(52,47,48,57)        179.9097         estimate D2E/DX2                !
 ! D192  D(35,47,52,51)        179.995          estimate D2E/DX2                !
 ! D193  D(35,47,52,53)          0.0579         estimate D2E/DX2                !
 ! D194  D(48,47,52,51)          0.1294         estimate D2E/DX2                !
 ! D195  D(48,47,52,53)       -179.8077         estimate D2E/DX2                !
 ! D196  D(47,48,49,50)          0.0942         estimate D2E/DX2                !
 ! D197  D(47,48,49,56)       -179.9886         estimate D2E/DX2                !
 ! D198  D(57,48,49,50)       -179.9779         estimate D2E/DX2                !
 ! D199  D(57,48,49,56)         -0.0606         estimate D2E/DX2                !
 ! D200  D(48,49,50,51)          0.0128         estimate D2E/DX2                !
 ! D201  D(48,49,50,55)        179.888          estimate D2E/DX2                !
 ! D202  D(56,49,50,51)       -179.9046         estimate D2E/DX2                !
 ! D203  D(56,49,50,55)         -0.0294         estimate D2E/DX2                !
 ! D204  D(49,50,51,52)         -0.0473         estimate D2E/DX2                !
 ! D205  D(49,50,51,54)        179.8334         estimate D2E/DX2                !
 ! D206  D(55,50,51,52)       -179.9227         estimate D2E/DX2                !
 ! D207  D(55,50,51,54)         -0.042          estimate D2E/DX2                !
 ! D208  D(50,51,52,47)         -0.0248         estimate D2E/DX2                !
 ! D209  D(50,51,52,53)        179.9124         estimate D2E/DX2                !
 ! D210  D(54,51,52,47)       -179.9057         estimate D2E/DX2                !
 ! D211  D(54,51,52,53)          0.0314         estimate D2E/DX2                !
 --------------------------------------------------------------------------------
 Trust Radius=3.00D-01 FncErr=1.00D-07 GrdErr=1.00D-06
 Number of steps in this run=    384 maximum allowed number of steps=    384.
 GradGradGradGradGradGradGradGradGradGradGradGradGradGradGradGradGradGrad

 Stoichiometry    C31H28Cl2P2Pd
 Framework group  C1[X(C31H28Cl2P2Pd)]
 Deg. of freedom   186
 Full point group                 C1      NOp   1
 Largest Abelian subgroup         C1      NOp   1
 Largest concise Abelian subgroup C1      NOp   1
                         Standard orientation:                         
 ---------------------------------------------------------------------
 Center     Atomic      Atomic             Coordinates (Angstroms)
 Number     Number       Type             X           Y           Z
 ---------------------------------------------------------------------
      1         15           0        1.660538   -0.101451   -0.050146
      2          6           0        2.421746   -1.798292    0.156096
      3          6           0        1.710420   -2.925874   -0.307403
      4          6           0        2.239785   -4.222535   -0.161922
      5          6           0        3.495784   -4.404966    0.444988
      6          6           0        4.221074   -3.287728    0.897890
      7          6           0        3.687205   -1.992768    0.750346
      8          1           0        4.268900   -1.152341    1.090924
      9          1           0        5.192006   -3.422205    1.352225
     10          1           0        3.906728   -5.398404    0.553299
     11          1           0        1.684900   -5.076949   -0.521783
     12          1           0        0.749043   -2.802453   -0.783696
     13          6           0        2.946500    1.262331   -0.033863
     14          6           0        3.799742    1.461864    1.073347
     15          6           0        4.746874    2.503985    1.078028
     16          6           0        4.848784    3.366675   -0.028368
     17          6           0        3.999565    3.184167   -1.134838
     18          6           0        3.054025    2.140355   -1.133188
     19          1           0        2.410021    2.022772   -1.990287
     20          1           0        4.072833    3.844016   -1.987307
     21          1           0        5.575669    4.166090   -0.028743
     22          1           0        5.396068    2.641123    1.930750
     23          1           0        3.737064    0.812171    1.931761
     24          6           0        0.693958    0.255067    1.464871
     25          6           0        1.149386    0.153424    2.941773
     26          6           0        1.267293   -1.288214    3.403817
     27          6           0        0.033981   -1.806741    3.447108
     28          1           0       -0.246114   -2.816894    3.710454
     29          6           0       -0.925451   -0.749381    2.932100
     30          1           0       -1.974451   -0.902986    3.187600
     31          6           0       -0.236536    0.480428    3.546739
     32          1           0       -0.666157    1.433830    3.231418
     33          1           0       -0.237510    0.462965    4.639098
     34          6           0       -0.569114   -0.628207    1.426816
     35         15           0       -1.611537    0.084256    0.110436
     36          6           0       -2.189117    1.744847    0.724820
     37          6           0       -1.643631    2.929731    0.188984
     38          6           0       -2.068439    4.187051    0.660290
     39          6           0       -3.046427    4.267000    1.669776
     40          6           0       -3.600050    3.088373    2.204458
     41          6           0       -3.172568    1.832823    1.731477
     42          1           0       -3.603500    0.930806    2.142147
     43          1           0       -4.354916    3.146226    2.975371
     44          1           0       -3.374777    5.231247    2.030318
     45          1           0       -1.645729    5.090755    0.245418
     46          1           0       -0.894621    2.880540   -0.587741
     47          6           0       -3.124548   -1.001704   -0.032698
     48          6           0       -3.168048   -2.303684    0.512924
     49          6           0       -4.326809   -3.094609    0.386284
     50          6           0       -5.453843   -2.591210   -0.289754
     51          6           0       -5.419080   -1.295945   -0.838646
     52          6           0       -4.259179   -0.508267   -0.709278
     53          1           0       -4.239180    0.485380   -1.134740
     54          1           0       -6.280245   -0.905186   -1.361024
     55          1           0       -6.342760   -3.197236   -0.389337
     56          1           0       -4.351197   -4.089432    0.806982
     57          1           0       -2.317099   -2.712166    1.035268
     58         46           0       -0.062553    0.069574   -1.735382
     59         17           0       -1.807226    0.269237   -3.263573
     60         17           0        1.498124   -0.038933   -3.459607
     61          1           0       -0.314579   -1.625157    1.066475
     62          1           0        2.199341   -1.783008    3.638377
     63          1           0        1.941340    0.826743    3.267849
     64          1           0        0.426411    1.304159    1.328384
 ---------------------------------------------------------------------
 Rotational constants (GHZ):      0.1074749      0.0758700      0.0717479
 General basis read from cards:  (6D, 7F)
 ======================================================================================================
                                       Pseudopotential Parameters
 ======================================================================================================
  Center     Atomic      Valence      Angular      Power
  Number     Number     Electrons     Momentum     of R      Exponent        Coefficient   SO-Coeffient
 ======================================================================================================
    1         15
                                   No pseudopotential on this center.
    2          6
                                   No pseudopotential on this center.
    3          6
                                   No pseudopotential on this center.
    4          6
                                   No pseudopotential on this center.
    5          6
                                   No pseudopotential on this center.
    6          6
                                   No pseudopotential on this center.
    7          6
                                   No pseudopotential on this center.
    8          1
                                   No pseudopotential on this center.
    9          1
                                   No pseudopotential on this center.
   10          1
                                   No pseudopotential on this center.
   11          1
                                   No pseudopotential on this center.
   12          1
                                   No pseudopotential on this center.
   13          6
                                   No pseudopotential on this center.
   14          6
                                   No pseudopotential on this center.
   15          6
                                   No pseudopotential on this center.
   16          6
                                   No pseudopotential on this center.
   17          6
                                   No pseudopotential on this center.
   18          6
                                   No pseudopotential on this center.
   19          1
                                   No pseudopotential on this center.
   20          1
                                   No pseudopotential on this center.
   21          1
                                   No pseudopotential on this center.
   22          1
                                   No pseudopotential on this center.
   23          1
                                   No pseudopotential on this center.
   24          6
                                   No pseudopotential on this center.
   25          6
                                   No pseudopotential on this center.
   26          6
                                   No pseudopotential on this center.
   27          6
                                   No pseudopotential on this center.
   28          1
                                   No pseudopotential on this center.
   29          6
                                   No pseudopotential on this center.
   30          1
                                   No pseudopotential on this center.
   31          6
                                   No pseudopotential on this center.
   32          1
                                   No pseudopotential on this center.
   33          1
                                   No pseudopotential on this center.
   34          6
                                   No pseudopotential on this center.
   35         15
                                   No pseudopotential on this center.
   36          6
                                   No pseudopotential on this center.
   37          6
                                   No pseudopotential on this center.
   38          6
                                   No pseudopotential on this center.
   39          6
                                   No pseudopotential on this center.
   40          6
                                   No pseudopotential on this center.
   41          6
                                   No pseudopotential on this center.
   42          1
                                   No pseudopotential on this center.
   43          1
                                   No pseudopotential on this center.
   44          1
                                   No pseudopotential on this center.
   45          1
                                   No pseudopotential on this center.
   46          1
                                   No pseudopotential on this center.
   47          6
                                   No pseudopotential on this center.
   48          6
                                   No pseudopotential on this center.
   49          6
                                   No pseudopotential on this center.
   50          6
                                   No pseudopotential on this center.
   51          6
                                   No pseudopotential on this center.
   52          6
                                   No pseudopotential on this center.
   53          1
                                   No pseudopotential on this center.
   54          1
                                   No pseudopotential on this center.
   55          1
                                   No pseudopotential on this center.
   56          1
                                   No pseudopotential on this center.
   57          1
                                   No pseudopotential on this center.
   58         46           18
                                      F and up 
                                                     0      598.3336444       -0.05631770    0.00000000
                                                     1      162.4298290      -20.12880360    0.00000000
                                                     2       51.5714771     -105.81979230    0.00000000
                                                     2       16.4888260      -42.57333450    0.00000000
                                                     2        5.8287656       -3.61650860    0.00000000
                                      S - F
                                                     0       73.3806304        3.00036510    0.00000000
                                                     1       14.7550438       32.43500930    0.00000000
                                                     2       17.8350204      459.08303830    0.00000000
                                                     2       12.7111477     -868.06290290    0.00000000
                                                     2        9.3292063      514.47260980    0.00000000
                                      P - F
                                                     0       55.6689877        4.95930990    0.00000000
                                                     1       64.2337771       21.17110290    0.00000000
                                                     2       17.6254952      605.05600920    0.00000000
                                                     2       11.9058155     -726.96418460    0.00000000
                                                     2        8.5100832      396.32748830    0.00000000
                                      D - F
                                                     0       49.9994728        3.05087450    0.00000000
                                                     1       39.7477547       22.25065800    0.00000000
                                                     2       11.4321366      674.83576980    0.00000000
                                                     2        9.1790080    -1040.85540480    0.00000000
                                                     2        7.5624429      505.93751470    0.00000000
   59         17
                                   No pseudopotential on this center.
   60         17
                                   No pseudopotential on this center.
   61          1
                                   No pseudopotential on this center.
   62          1
                                   No pseudopotential on this center.
   63          1
                                   No pseudopotential on this center.
   64          1
                                   No pseudopotential on this center.
 ======================================================================================================
 There are   621 symmetry adapted cartesian basis functions of A   symmetry.
 There are   621 symmetry adapted basis functions of A   symmetry.
   621 basis functions,  1237 primitive gaussians,   621 cartesian basis functions
   148 alpha electrons      148 beta electrons
       nuclear repulsion energy      5128.7421834042 Hartrees.
 NAtoms=   64 NActive=   64 NUniq=   64 SFac= 1.00D+00 NAtFMM=   60 NAOKFM=T Big=T
 Integral buffers will be    131072 words long.
 Raffenetti 2 integral format.
 Two-electron integral symmetry is turned on.
 Nuclear repulsion after empirical dispersion term =     5128.6199833858 Hartrees.
 Standard density basis: Auto (5D, 7F)
  2757 Density fitting functions
 There are  2757 symmetry adapted density basis functions of A   symmetry.
 One-electron integrals computed using PRISM.
   1 Symmetry operations used in ECPInt.
 ECPInt:  NShTT=   21736 NPrTT=  145778 LenC2=   17578 LenP2D=   61095.
 LDataN:  DoStor=T MaxTD1= 5 Len=  102
 NBasis=   621 RedAO= T EigKep=  5.20D-04  NBF=   621
 NBsUse=   621 1.00D-06 EigRej= -1.00D+00 NBFU=   621
 NBasis=      621 NBas6D=      621 NTT=      193131   NTT6D=   193131
 NDBShl=      545 NDBF=       2757 NDBF6D=     3258  NNucDB=        0
 IDenFi=        2 ISolve=        0 FullAP=F BlkAPC=T NucTyp=        0
 TolInv= 1.00D-06 TolIt=  1.00D-10 IR12=0.
 FoFCou: FMM=F IPFlag=           0 FMFlag=           0 FMFlg1=           0
         NFxFlg=           0 DoJE=F BraDBF=T KetDBF=T FulRan=T
         wScrn=  0.000000 ICntrl=     600 IOpCl=  3 I1Cent=           6 NGrid=           0
         NMat0=    1 NMatS0=   3258 NMatT0=    0 NMatD0=    1 NMtDS0=    0 NMtDT0=    0
 Petite list used in FoFCou.
 DBF EigKep=  1.12D-06 EigRej= -1.00D+00
 NDBF=   2757  NBFD=  2757
 NRank=  2757 NBFDU=  2757
 S*AI*S=  12.0667892537    
 Defaulting to unpruned grid for atomic number  46.
 ExpMin= 2.62D-02 ExpMax= 2.52D+04 ExpMxC= 3.78D+03 IAcc=3 IRadAn=         5 AccDes= 0.00D+00
 Harris functional with IExCor= 1009 and IRadAn=       5 diagonalized for initial guess.
 HarFok:  IExCor= 1009 AccDes= 0.00D+00 IRadAn=         5 IDoV= 1 UseB2=F ITyADJ=14
 ICtDFT=  3500011 ScaDFX=  1.000000  1.000000  1.000000  1.000000
 Defaulting to unpruned grid for atomic number  46.
 Defaulting to unpruned grid for atomic number  46.
 Defaulting to unpruned grid for atomic number  46.
 Defaulting to unpruned grid for atomic number  46.
 Defaulting to unpruned grid for atomic number  46.
 Defaulting to unpruned grid for atomic number  46.
 Defaulting to unpruned grid for atomic number  46.
 Defaulting to unpruned grid for atomic number  46.
 Defaulting to unpruned grid for atomic number  46.
 Defaulting to unpruned grid for atomic number  46.
 Defaulting to unpruned grid for atomic number  46.
 Defaulting to unpruned grid for atomic number  46.
 Defaulting to unpruned grid for atomic number  46.
 Defaulting to unpruned grid for atomic number  46.
 FoFCou: FMM=F IPFlag=           0 FMFlag=      100000 FMFlg1=        2001
         NFxFlg=           0 DoJE=T BraDBF=F KetDBF=T FulRan=T
         wScrn=  0.000000 ICntrl=     500 IOpCl=  0 I1Cent=   200000004 NGrid=           0
         NMat0=    1 NMatS0=      1 NMatT0=    0 NMatD0=    1 NMtDS0=    0 NMtDT0=    0
 Petite list used in FoFCou.
 Requested convergence on RMS density matrix=1.00D-08 within 500 cycles.
 Requested convergence on MAX density matrix=1.00D-06.
 Requested convergence on             energy=1.00D-06.
 No special actions if energy rises.
 FoFCou: FMM=F IPFlag=           0 FMFlag=      100000 FMFlg1=        2001
         NFxFlg=           0 DoJE=T BraDBF=T KetDBF=F FulRan=T
         wScrn=  0.000000 ICntrl=     500 IOpCl=  0 I1Cent=           5 NGrid=           0
         NMat0=    1 NMatS0=      1 NMatT0=    0 NMatD0=    1 NMtDS0=    0 NMtDT0=    0
 Symmetry not used in FoFCou.
 Defaulting to unpruned grid for atomic number  46.
 Defaulting to unpruned grid for atomic number  46.
 Defaulting to unpruned grid for atomic number  46.
 Defaulting to unpruned grid for atomic number  46.
 Defaulting to unpruned grid for atomic number  46.
 Defaulting to unpruned grid for atomic number  46.
 Defaulting to unpruned grid for atomic number  46.
 Defaulting to unpruned grid for atomic number  46.
 Defaulting to unpruned grid for atomic number  46.
 Defaulting to unpruned grid for atomic number  46.
 Defaulting to unpruned grid for atomic number  46.
 Defaulting to unpruned grid for atomic number  46.
 Defaulting to unpruned grid for atomic number  46.
 Defaulting to unpruned grid for atomic number  46.
 EnCoef did     1 forward-backward iterations
 EnCoef did    14 forward-backward iterations
 EnCoef did     8 forward-backward iterations
 EnCoef did     2 forward-backward iterations
 Initial convergence to 1.0D-05 achieved.  Increase integral accuracy.
 SCF Done:  E(RPBE-PBE) =  -2925.90155134     A.U. after   25 cycles
            NFock= 25  Conv=0.39D-08     -V/T= 2.0348

 **********************************************************************

            Population analysis using the SCF density.

 **********************************************************************

 Orbital symmetries:
       Occupied  (A) (A) (A) (A) (A) (A) (A) (A) (A) (A) (A) (A)
                 (A) (A) (A) (A) (A) (A) (A) (A) (A) (A) (A) (A)
                 (A) (A) (A) (A) (A) (A) (A) (A) (A) (A) (A) (A)
                 (A) (A) (A) (A) (A) (A) (A) (A) (A) (A) (A) (A)
                 (A) (A) (A) (A) (A) (A) (A) (A) (A) (A) (A) (A)
                 (A) (A) (A) (A) (A) (A) (A) (A) (A) (A) (A) (A)
                 (A) (A) (A) (A) (A) (A) (A) (A) (A) (A) (A) (A)
                 (A) (A) (A) (A) (A) (A) (A) (A) (A) (A) (A) (A)
                 (A) (A) (A) (A) (A) (A) (A) (A) (A) (A) (A) (A)
                 (A) (A) (A) (A) (A) (A) (A) (A) (A) (A) (A) (A)
                 (A) (A) (A) (A) (A) (A) (A) (A) (A) (A) (A) (A)
                 (A) (A) (A) (A) (A) (A) (A) (A) (A) (A) (A) (A)
                 (A) (A) (A) (A)
       Virtual   (A) (A) (A) (A) (A) (A) (A) (A) (A) (A) (A) (A)
                 (A) (A) (A) (A) (A) (A) (A) (A) (A) (A) (A) (A)
                 (A) (A) (A) (A) (A) (A) (A) (A) (A) (A) (A) (A)
                 (A) (A) (A) (A) (A) (A) (A) (A) (A) (A) (A) (A)
                 (A) (A) (A) (A) (A) (A) (A) (A) (A) (A) (A) (A)
                 (A) (A) (A) (A) (A) (A) (A) (A) (A) (A) (A) (A)
                 (A) (A) (A) (A) (A) (A) (A) (A) (A) (A) (A) (A)
                 (A) (A) (A) (A) (A) (A) (A) (A) (A) (A) (A) (A)
                 (A) (A) (A) (A) (A) (A) (A) (A) (A) (A) (A) (A)
                 (A) (A) (A) (A) (A) (A) (A) (A) (A) (A) (A) (A)
                 (A) (A) (A) (A) (A) (A) (A) (A) (A) (A) (A) (A)
                 (A) (A) (A) (A) (A) (A) (A) (A) (A) (A) (A) (A)
                 (A) (A) (A) (A) (A) (A) (A) (A) (A) (A) (A) (A)
                 (A) (A) (A) (A) (A) (A) (A) (A) (A) (A) (A) (A)
                 (A) (A) (A) (A) (A) (A) (A) (A) (A) (A) (A) (A)
                 (A) (A) (A) (A) (A) (A) (A) (A) (A) (A) (A) (A)
                 (A) (A) (A) (A) (A) (A) (A) (A) (A) (A) (A) (A)
                 (A) (A) (A) (A) (A) (A) (A) (A) (A) (A) (A) (A)
                 (A) (A) (A) (A) (A) (A) (A) (A) (A) (A) (A) (A)
                 (A) (A) (A) (A) (A) (A) (A) (A) (A) (A) (A) (A)
                 (A) (A) (A) (A) (A) (A) (A) (A) (A) (A) (A) (A)
                 (A) (A) (A) (A) (A) (A) (A) (A) (A) (A) (A) (A)
                 (A) (A) (A) (A) (A) (A) (A) (A) (A) (A) (A) (A)
                 (A) (A) (A) (A) (A) (A) (A) (A) (A) (A) (A) (A)
                 (A) (A) (A) (A) (A) (A) (A) (A) (A) (A) (A) (A)
                 (A) (A) (A) (A) (A) (A) (A) (A) (A) (A) (A) (A)
                 (A) (A) (A) (A) (A) (A) (A) (A) (A) (A) (A) (A)
                 (A) (A) (A) (A) (A) (A) (A) (A) (A) (A) (A) (A)
                 (A) (A) (A) (A) (A) (A) (A) (A) (A) (A) (A) (A)
                 (A) (A) (A) (A) (A) (A) (A) (A) (A) (A) (A) (A)
                 (A) (A) (A) (A) (A) (A) (A) (A) (A) (A) (A) (A)
                 (A) (A) (A) (A) (A) (A) (A) (A) (A) (A) (A) (A)
                 (A) (A) (A) (A) (A) (A) (A) (A) (A) (A) (A) (A)
                 (A) (A) (A) (A) (A) (A) (A) (A) (A) (A) (A) (A)
                 (A) (A) (A) (A) (A) (A) (A) (A) (A) (A) (A) (A)
                 (A) (A) (A) (A) (A) (A) (A) (A) (A) (A) (A) (A)
                 (A) (A) (A) (A) (A) (A) (A) (A) (A) (A) (A) (A)
                 (A) (A) (A) (A) (A) (A) (A) (A) (A) (A) (A) (A)
                 (A) (A) (A) (A) (A) (A) (A) (A) (A) (A) (A) (A)
                 (A) (A) (A) (A) (A)
 The electronic state is 1-A.
 Alpha  occ. eigenvalues -- -100.58712-100.58601 -76.37622 -76.37470  -9.93597
 Alpha  occ. eigenvalues --   -9.93556  -9.93509  -9.93348  -9.93062  -9.92937
 Alpha  occ. eigenvalues --   -9.92852  -9.92694  -9.92520  -9.92175  -9.92136
 Alpha  occ. eigenvalues --   -9.92127  -9.92108  -9.92014  -9.91907  -9.91899
 Alpha  occ. eigenvalues --   -9.91803  -9.91678  -9.91642  -9.91571  -9.91502
 Alpha  occ. eigenvalues --   -9.91453  -9.91293  -9.91187  -9.91172  -9.91020
 Alpha  occ. eigenvalues --   -9.90974  -9.90953  -9.90910  -9.90894  -9.90889
 Alpha  occ. eigenvalues --   -9.08247  -9.08128  -6.90582  -6.90470  -6.89857
 Alpha  occ. eigenvalues --   -6.89774  -6.89725  -6.89665  -6.35530  -6.35358
 Alpha  occ. eigenvalues --   -4.57340  -4.57323  -4.57163  -4.57146  -4.57018
 Alpha  occ. eigenvalues --   -4.56859  -3.19640  -1.96564  -1.96228  -1.92625
 Alpha  occ. eigenvalues --   -0.83663  -0.78860  -0.78452  -0.77929  -0.77829
 Alpha  occ. eigenvalues --   -0.73011  -0.70625  -0.68959  -0.68654  -0.68354
 Alpha  occ. eigenvalues --   -0.68220  -0.67980  -0.67897  -0.67749  -0.67190
 Alpha  occ. eigenvalues --   -0.65088  -0.63945  -0.63160  -0.60735  -0.58714
 Alpha  occ. eigenvalues --   -0.55892  -0.55708  -0.55447  -0.55004  -0.54755
 Alpha  occ. eigenvalues --   -0.54640  -0.54052  -0.53333  -0.51416  -0.50907
 Alpha  occ. eigenvalues --   -0.48541  -0.48135  -0.47173  -0.47002  -0.46459
 Alpha  occ. eigenvalues --   -0.45921  -0.43590  -0.41927  -0.41758  -0.41412
 Alpha  occ. eigenvalues --   -0.41049  -0.40922  -0.40467  -0.40417  -0.40194
 Alpha  occ. eigenvalues --   -0.39463  -0.38895  -0.38548  -0.38227  -0.37708
 Alpha  occ. eigenvalues --   -0.37639  -0.37265  -0.36599  -0.35738  -0.34824
 Alpha  occ. eigenvalues --   -0.34614  -0.34043  -0.33754  -0.33333  -0.33115
 Alpha  occ. eigenvalues --   -0.32999  -0.32546  -0.32225  -0.31587  -0.31425
 Alpha  occ. eigenvalues --   -0.31068  -0.30857  -0.30646  -0.30512  -0.30213
 Alpha  occ. eigenvalues --   -0.29791  -0.29428  -0.28791  -0.28154  -0.26174
 Alpha  occ. eigenvalues --   -0.25026  -0.24376  -0.24239  -0.23927  -0.23763
 Alpha  occ. eigenvalues --   -0.23490  -0.23424  -0.23321  -0.23198  -0.23012
 Alpha  occ. eigenvalues --   -0.22821  -0.22073  -0.21189  -0.18775  -0.18214
 Alpha  occ. eigenvalues --   -0.17274  -0.17097  -0.16760
 Alpha virt. eigenvalues --   -0.09223  -0.06643  -0.06376  -0.05200  -0.05110
 Alpha virt. eigenvalues --   -0.04820  -0.04612  -0.04270  -0.03915  -0.03143
 Alpha virt. eigenvalues --   -0.00864   0.01578   0.02812   0.03438   0.03761
 Alpha virt. eigenvalues --    0.04125   0.05023   0.05363   0.06419   0.06854
 Alpha virt. eigenvalues --    0.07362   0.07809   0.07956   0.08036   0.08506
 Alpha virt. eigenvalues --    0.08834   0.08986   0.09047   0.09741   0.10371
 Alpha virt. eigenvalues --    0.10645   0.10787   0.11693   0.11840   0.12144
 Alpha virt. eigenvalues --    0.12555   0.12604   0.13016   0.13279   0.13435
 Alpha virt. eigenvalues --    0.13503   0.13864   0.14245   0.14564   0.15326
 Alpha virt. eigenvalues --    0.15515   0.15692   0.15946   0.16313   0.17009
 Alpha virt. eigenvalues --    0.17218   0.18175   0.18292   0.19063   0.19090
 Alpha virt. eigenvalues --    0.19967   0.20521   0.21448   0.22216   0.22639
 Alpha virt. eigenvalues --    0.23322   0.24298   0.24655   0.25043   0.25223
 Alpha virt. eigenvalues --    0.25426   0.25703   0.25976   0.26399   0.26501
 Alpha virt. eigenvalues --    0.26696   0.26953   0.27949   0.28332   0.28589
 Alpha virt. eigenvalues --    0.28916   0.30832   0.31119   0.32681   0.33264
 Alpha virt. eigenvalues --    0.34185   0.35231   0.36095   0.36604   0.37892
 Alpha virt. eigenvalues --    0.39650   0.40106   0.42146   0.43573   0.44489
 Alpha virt. eigenvalues --    0.45317   0.45747   0.46189   0.46572   0.47047
 Alpha virt. eigenvalues --    0.47473   0.47598   0.47897   0.48124   0.48365
 Alpha virt. eigenvalues --    0.48938   0.49019   0.49190   0.49332   0.49748
 Alpha virt. eigenvalues --    0.49811   0.50022   0.50437   0.50608   0.50816
 Alpha virt. eigenvalues --    0.51224   0.51383   0.51779   0.51873   0.52164
 Alpha virt. eigenvalues --    0.52364   0.52927   0.53381   0.53787   0.54253
 Alpha virt. eigenvalues --    0.54452   0.54918   0.55109   0.55245   0.55532
 Alpha virt. eigenvalues --    0.55663   0.55872   0.56002   0.56242   0.56443
 Alpha virt. eigenvalues --    0.56546   0.56767   0.56824   0.57103   0.57308
 Alpha virt. eigenvalues --    0.57526   0.58247   0.58421   0.58505   0.59147
 Alpha virt. eigenvalues --    0.59739   0.59923   0.60863   0.61028   0.61867
 Alpha virt. eigenvalues --    0.62070   0.62598   0.62818   0.63505   0.64115
 Alpha virt. eigenvalues --    0.64741   0.64961   0.65997   0.66346   0.66926
 Alpha virt. eigenvalues --    0.67353   0.68190   0.69063   0.70243   0.70765
 Alpha virt. eigenvalues --    0.71189   0.71946   0.72635   0.73904   0.74462
 Alpha virt. eigenvalues --    0.74957   0.75782   0.76406   0.77140   0.77172
 Alpha virt. eigenvalues --    0.77542   0.77858   0.78064   0.78299   0.78394
 Alpha virt. eigenvalues --    0.78626   0.78943   0.79113   0.79458   0.79594
 Alpha virt. eigenvalues --    0.79818   0.80046   0.80607   0.80757   0.81572
 Alpha virt. eigenvalues --    0.81747   0.82142   0.82795   0.83423   0.83641
 Alpha virt. eigenvalues --    0.84464   0.84618   0.84832   0.85537   0.86074
 Alpha virt. eigenvalues --    0.86363   0.86976   0.87110   0.87461   0.87738
 Alpha virt. eigenvalues --    0.88120   0.88221   0.88930   0.88963   0.89283
 Alpha virt. eigenvalues --    0.89550   0.89889   0.90069   0.90562   0.90754
 Alpha virt. eigenvalues --    0.91687   0.91888   0.92243   0.92827   0.93302
 Alpha virt. eigenvalues --    0.94076   0.94192   0.94503   0.95397   0.95685
 Alpha virt. eigenvalues --    0.96340   0.96960   0.97973   0.98843   0.99463
 Alpha virt. eigenvalues --    1.00188   1.00557   1.00997   1.01437   1.02161
 Alpha virt. eigenvalues --    1.02771   1.04217   1.04504   1.05312   1.06202
 Alpha virt. eigenvalues --    1.06789   1.07165   1.07618   1.08019   1.08598
 Alpha virt. eigenvalues --    1.08934   1.09540   1.09883   1.10502   1.11358
 Alpha virt. eigenvalues --    1.11639   1.11960   1.13521   1.14601   1.15481
 Alpha virt. eigenvalues --    1.16894   1.17648   1.17999   1.18150   1.19135
 Alpha virt. eigenvalues --    1.19881   1.20237   1.21896   1.22947   1.23882
 Alpha virt. eigenvalues --    1.24717   1.26535   1.28119   1.28872   1.29803
 Alpha virt. eigenvalues --    1.32090   1.33482   1.34574   1.36158   1.36504
 Alpha virt. eigenvalues --    1.37059   1.37335   1.38074   1.38436   1.38669
 Alpha virt. eigenvalues --    1.39297   1.39558   1.39761   1.40081   1.40240
 Alpha virt. eigenvalues --    1.40719   1.40747   1.41176   1.41360   1.41910
 Alpha virt. eigenvalues --    1.42307   1.42466   1.42998   1.43139   1.43485
 Alpha virt. eigenvalues --    1.43695   1.44338   1.44559   1.45784   1.48240
 Alpha virt. eigenvalues --    1.49263   1.50789   1.54401   1.54713   1.55536
 Alpha virt. eigenvalues --    1.57878   1.59012   1.61167   1.63148   1.63601
 Alpha virt. eigenvalues --    1.67427   1.69269   1.69962   1.70294   1.71315
 Alpha virt. eigenvalues --    1.71789   1.72780   1.73543   1.74277   1.74721
 Alpha virt. eigenvalues --    1.75182   1.75333   1.76718   1.77123   1.78387
 Alpha virt. eigenvalues --    1.78629   1.79858   1.82240   1.82675   1.82857
 Alpha virt. eigenvalues --    1.83527   1.85147   1.88392   1.89753   1.90124
 Alpha virt. eigenvalues --    1.90213   1.90522   1.91261   1.91932   1.92212
 Alpha virt. eigenvalues --    1.93350   1.94679   1.96232   1.96895   1.97972
 Alpha virt. eigenvalues --    1.99281   1.99883   2.00957   2.01014   2.01497
 Alpha virt. eigenvalues --    2.02321   2.02497   2.03894   2.04028   2.04728
 Alpha virt. eigenvalues --    2.04879   2.05082   2.05177   2.05491   2.05630
 Alpha virt. eigenvalues --    2.05897   2.06001   2.06135   2.06229   2.06546
 Alpha virt. eigenvalues --    2.06617   2.06772   2.07197   2.08077   2.08337
 Alpha virt. eigenvalues --    2.09774   2.10219   2.14916   2.17010   2.19111
 Alpha virt. eigenvalues --    2.19282   2.19598   2.19840   2.20003   2.20174
 Alpha virt. eigenvalues --    2.20543   2.20818   2.21279   2.22158   2.22515
 Alpha virt. eigenvalues --    2.22663   2.22886   2.24037   2.30221   2.32763
 Alpha virt. eigenvalues --    2.35847   2.39121   2.41413   2.44848   2.45237
 Alpha virt. eigenvalues --    2.46113   2.46592   2.48463   2.48742   2.49297
 Alpha virt. eigenvalues --    2.49690   2.49836   2.52552   2.52898   2.53250
 Alpha virt. eigenvalues --    2.53379   2.54662   2.55070   2.55400   2.56692
 Alpha virt. eigenvalues --    2.56797   2.58319   2.58707   2.59500   2.59993
 Alpha virt. eigenvalues --    2.60192   2.62228   2.63023   2.64030   2.64440
 Alpha virt. eigenvalues --    2.64592   2.65265   2.65650   2.66780   2.67461
 Alpha virt. eigenvalues --    2.68004   2.68510   2.69681   2.70389   2.71159
 Alpha virt. eigenvalues --    2.72534   2.78733   2.79488   2.83553   2.92886
 Alpha virt. eigenvalues --    2.93055   2.93710   2.95060   3.23194   3.23298
 Alpha virt. eigenvalues --    3.26151   3.26251   3.49212   3.51582   3.98759
 Alpha virt. eigenvalues --    3.99190   3.99355   3.99829   4.02409   4.02748
 Alpha virt. eigenvalues --    4.03454   4.03493   4.09992   4.11111   4.11392
 Alpha virt. eigenvalues --    4.12570   4.16325   4.23048   4.23121   4.24895
 Alpha virt. eigenvalues --    4.25153   4.25933   4.26268   4.26976   4.27924
 Alpha virt. eigenvalues --    4.28466   4.29474   4.31218   4.31788   4.34947
 Alpha virt. eigenvalues --    4.47592   4.53793   4.56061   4.56570   4.56931
 Alpha virt. eigenvalues --    4.59664   4.72663  30.94376
          Condensed to atoms (all electrons):
 Mulliken charges:
               1
     1  P    0.592073
     2  C   -0.040745
     3  C   -0.177113
     4  C   -0.127807
     5  C   -0.137896
     6  C   -0.129507
     7  C   -0.177332
     8  H    0.149151
     9  H    0.149232
    10  H    0.150735
    11  H    0.155875
    12  H    0.197127
    13  C   -0.095353
    14  C   -0.181275
    15  C   -0.134412
    16  C   -0.137286
    17  C   -0.128331
    18  C   -0.165636
    19  H    0.219625
    20  H    0.159173
    21  H    0.149636
    22  H    0.146108
    23  H    0.144063
    24  C   -0.317733
    25  C   -0.187851
    26  C   -0.081811
    27  C   -0.125869
    28  H    0.146388
    29  C   -0.177970
    30  H    0.153280
    31  C   -0.303332
    32  H    0.168215
    33  H    0.167893
    34  C   -0.325324
    35  P    0.585284
    36  C   -0.080859
    37  C   -0.178059
    38  C   -0.127298
    39  C   -0.137410
    40  C   -0.133357
    41  C   -0.166528
    42  H    0.159868
    43  H    0.151834
    44  H    0.153063
    45  H    0.158199
    46  H    0.213967
    47  C   -0.068969
    48  C   -0.183650
    49  C   -0.126948
    50  C   -0.137048
    51  C   -0.128474
    52  C   -0.157255
    53  H    0.182218
    54  H    0.154584
    55  H    0.148968
    56  H    0.146498
    57  H    0.142042
    58  Pd  -0.520287
    59  Cl  -0.253410
    60  Cl  -0.248592
    61  H    0.221691
    62  H    0.149712
    63  H    0.155677
    64  H    0.228550
 Sum of Mulliken charges =  -0.00000
 Mulliken charges with hydrogens summed into heavy atoms:
               1
     1  P    0.592073
     2  C   -0.040745
     3  C    0.020014
     4  C    0.028068
     5  C    0.012839
     6  C    0.019725
     7  C   -0.028181
    13  C   -0.095353
    14  C   -0.037212
    15  C    0.011696
    16  C    0.012350
    17  C    0.030843
    18  C    0.053989
    24  C   -0.089183
    25  C   -0.032173
    26  C    0.067901
    27  C    0.020519
    29  C   -0.024690
    31  C    0.032775
    34  C   -0.103634
    35  P    0.585284
    36  C   -0.080859
    37  C    0.035908
    38  C    0.030901
    39  C    0.015653
    40  C    0.018476
    41  C   -0.006660
    47  C   -0.068969
    48  C   -0.041608
    49  C    0.019550
    50  C    0.011919
    51  C    0.026110
    52  C    0.024963
    58  Pd  -0.520287
    59  Cl  -0.253410
    60  Cl  -0.248592
 Electronic spatial extent (au):  <R**2>=          17803.2031
 Charge=              0.0000 electrons
 Dipole moment (field-independent basis, Debye):
    X=              0.2153    Y=              0.1186    Z=             13.0491  Tot=             13.0514
 Quadrupole moment (field-independent basis, Debye-Ang):
   XX=           -216.6144   YY=           -213.7850   ZZ=           -280.6666
   XY=              3.6707   XZ=              1.0767   YZ=             -1.9975
 Traceless Quadrupole moment (field-independent basis, Debye-Ang):
   XX=             20.4076   YY=             23.2370   ZZ=            -43.6446
   XY=              3.6707   XZ=              1.0767   YZ=             -1.9975
 Octapole moment (field-independent basis, Debye-Ang**2):
  XXX=            -30.5711  YYY=             -1.4462  ZZZ=             36.6450  XYY=             14.9116
  XXY=              2.6501  XXZ=             27.8237  XZZ=              2.8052  YZZ=             17.6232
  YYZ=            -18.4867  XYZ=            -30.8593
 Hexadecapole moment (field-independent basis, Debye-Ang**3):
 XXXX=         -11023.4263 YYYY=          -6183.5780 ZZZZ=          -5770.9622 XXXY=            290.2846
 XXXZ=            281.3638 YYYX=           -113.3354 YYYZ=            -27.5520 ZZZX=            -32.1494
 ZZZY=              2.2003 XXYY=          -2634.7466 XXZZ=          -2868.1275 YYZZ=          -2038.8033
 XXYZ=             11.4226 YYXZ=           -108.4797 ZZXY=              2.5510
 N-N= 5.128619983386D+03 E-N=-1.710776563135D+04  KE= 2.827452393070D+03
   1 Symmetry operations used in ECPInt.
 ECPInt:  NShTT=   21736 NPrTT=  145778 LenC2=   17578 LenP2D=   61095.
 LDataN:  DoStor=T MaxTD1= 6 Len=  172
 Calling FoFJK, ICntrl=      2527 FMM=T ISym2X=0 I1Cent= 4 IOpClX= 0 NMat=1 NMatS=1 NMatT=0.
 Defaulting to unpruned grid for atomic number  46.
 Defaulting to unpruned grid for atomic number  46.
 Defaulting to unpruned grid for atomic number  46.
 Defaulting to unpruned grid for atomic number  46.
 Defaulting to unpruned grid for atomic number  46.
 Defaulting to unpruned grid for atomic number  46.
 Defaulting to unpruned grid for atomic number  46.
 Defaulting to unpruned grid for atomic number  46.
 Defaulting to unpruned grid for atomic number  46.
 Defaulting to unpruned grid for atomic number  46.
 Defaulting to unpruned grid for atomic number  46.
 Defaulting to unpruned grid for atomic number  46.
 Defaulting to unpruned grid for atomic number  46.
 Defaulting to unpruned grid for atomic number  46.
 ***** Axes restored to original set *****
 -------------------------------------------------------------------
 Center     Atomic                   Forces (Hartrees/Bohr)
 Number     Number              X              Y              Z
 -------------------------------------------------------------------
      1       15          -0.003609608   -0.004880886   -0.019578526
      2        6          -0.003354133   -0.006438831   -0.000304544
      3        6          -0.007071169    0.003494967    0.004893350
      4        6          -0.007967166   -0.013270172    0.007059663
[...]
 0000473,-0.00000920,0.00010093,0.00000310,-0.00009460,-0.00005856,-0.0
 0019727,-0.00000781,0.00002736,0.00005862,0.00000616,-0.00000473,-0.00
 000487,-0.00000129,-0.00000669,0.00000975,-0.00003447,-0.00001340,0.00
 005323,0.00001281,0.00001867,0.00000342,-0.00000312,-0.00000193,0.0000
 0312,0.00000272,0.00000370,0.00000808,-0.00001517,-0.00002135,-0.00000
 029,0.00006580,-0.00012253,0.00000059,0.00016605,-0.00120595,0.0005677
 6,0.02021846,-0.00254466,-0.00098314,0.11278343,-0.10612672,-0.0264832
 7,-0.01368095,0.01091594,0.00306669,0.00092547,0.00028719,0.00098191,-
 0.00324842,-0.00174347,-0.00126468,-0.00057584,0.00104281,0.00024282,0
 .00050642,-0.00427295,-0.00203531,0.00147034,-0.00002861,0.00045119,-0
 .00001985,0.00005876,0.00009920,-0.00022765,-0.00012800,-0.00032451,0.
 00000431,-0.00005209,0.00001057,0.00006082,0.00000081,-0.00002451,0.00
 001317,0.00002549,0.00000567,0.00000448,0.00001450,0.00000042,0.000000
 17,0.00001852,-0.00000076,0.00000866,0.00001563,-0.00002125,-0.0000238
 4,-0.00002602,-0.00005227,0.00000809,-0.00001203,0.00000407,-0.0000043
 1,-0.00000034,0.00000435,-0.00000011,-0.00000118,0.00000276,-0.0000019
 6,-0.00000152,-0.00000001,-0.00000305,0.00000044,0.00001329,0.00001944
 ,-0.00002045,-0.00003240,0.00002279,-0.00001176,-0.00000241,0.00000365
 ,0.00000968,0.00000481,0.00000150,0.00000305,0.00000059,-0.00000122,-0
 .00000165,-0.00000295,0.00001770,0.00001734,0.00000552,-0.00000449,-0.
 00000058,0.00000515,0.00000249,0.00000130,-0.00000112,0.00000055,0.000
 00141,0.00000089,0.00000229,0.00000451,-0.00000062,-0.00000714,0.00001
 215,-0.00001226,-0.00004967,0.00003617,-0.00006770,0.00002419,-0.00000
 032,-0.00000980,-0.00002540,-0.00000647,-0.00002099,0.00006862,0.00004
 161,-0.00007305,-0.11816665,0.10305422,0.00038583,-0.00059467,-0.00006
 415,0.00022094,0.00010647,-0.00021772,-0.00008759,-0.00016359,0.000073
 95,-0.00017724,0.00011731,0.00004383,0.00019320,0.00025610,-0.00011692
 ,-0.00027088,0.00011509,0.00028143,-0.00023605,0.00000107,-0.00035449,
 -0.00017606,-0.00016075,-0.00007598,-0.00001311,0.00000458,-0.00003071
 ,-0.00000018,-0.00004088,0.00000933,-0.00000660,-0.00000352,0.00002542
 ,-0.00000514,-0.00003376,0.00000724,-0.00007283,0.00007966,-0.00004938
 ,-0.00003498,0.00005410,-0.00001160,-0.00001993,0.00000706,0.00002183,
 0.00001575,0.00000956,-0.00000343,0.00000956,-0.00000955,-0.00000801,0
 .00001726,0.00000453,-0.00002273,-0.00001019,-0.00000927,0.00000098,0.
 00000350,0.00000382,0.00000229,0.00000437,0.00000425,0.00000239,0.0000
 1781,0.00000980,-0.00000389,0.00003478,-0.00008245,0.00005467,0.000017
 50,0.00037351,-0.00039407,0.00531663,-0.00074756,0.00117759,0.03819426
 ,-0.02408152,-0.03665684,0.00061912,-0.00107325,0.00316632,-0.00079406
 ,0.00093440,-0.00484952,0.00234385,-0.00125492,0.00892436,0.00042391,-
 0.00080597,-0.00003993,-0.00081366,-0.00063095,-0.00044952,-0.00025568
 ,0.00055556,0.00008477,0.00024489,-0.00003772,-0.00004351,-0.00118838,
 0.00088054,0.00117062,0.00016061,0.00010898,0.00046921,0.00002784,-0.0
 0015021,0.00007292,0.00002716,0.00006000,-0.00003458,0.00001661,-0.000
 01166,-0.00000239,-0.00002506,-0.00000666,-0.00001842,-0.00000302,0.00
 004488,-0.00002602,0.00005961,0.00000559,-0.00006604,-0.00003901,-0.00
 000981,0.00003297,-0.00000997,0.00000941,-0.00000326,-0.00000875,0.000
 00277,0.00000278,-0.00000266,0.00000489,0.00000259,-0.00001092,-0.0000
 1597,0.00000380,0.00003634,0.00006473,-0.00001276,-0.00000549,0.000006
 45,-0.00002530,-0.00001524,-0.00000052,-0.00000284,-0.00000179,-0.0000
 0976,-0.00000444,-0.00000020,0.00001032,-0.00000171,-0.00002922,-0.000
 01815,-0.00000894,0.00001138,-0.00000549,0.00000591,-0.00000301,-0.000
 00284,0.00000470,-0.00000218,-0.00000353,0.00000239,-0.00000024,-0.000
 00823,0.00000464,0.00002128,-0.00000253,0.00000553,-0.00009972,0.00011
 361,-0.00001695,-0.00003902,0.00000417,0.00005804,0.00002422,0.0000276
 8,0.00002051,-0.00010512,0.00021063,-0.00003409,-0.04355486,0.02596877
 ,0.02817771,-0.00026865,-0.00003071,0.00009605,0.00003969,0.00000096,-
 0.00000546,0.00001552,-0.00000882,0.00001758,-0.00000210,0.00001188,-0
 .00000547,0.00000213,-0.00000041,-0.00000539,-0.00000030,0.00000360,-0
 .00000161,-0.00000240,-0.00001477,0.00003289,0.00000050,-0.00002020,-0
 .00002440,0.00000457,-0.00000215,-0.00000173,0.00000125,-0.00000208,0.
 ,-0.00000284,-0.00000031,0.00000065,-0.00000127,0.00000978,-0.00001334
 ,0.00027828,0.00011513,-0.00003999,-0.00117007,-0.00011594,-0.00052508
 ,0.00001946,-0.00003786,-0.00013984,0.00000987,-0.00002802,0.00006161,
 0.00003417,0.00001138,-0.00002088,-0.00000157,-0.00005501,-0.00000936,
 0.00000936,-0.00001864,0.00001470,-0.00000658,0.00001613,-0.00000681,-
 0.00000602,0.00000050,-0.00001023,0.00001936,-0.00000249,0.00000303,-0
 .00114369,-0.00029976,-0.00142563,-0.00194883,-0.00098306,-0.00128837,
 -0.17470142,-0.11990626,0.05816855,0.00669548,0.00499404,-0.00398685,-
 0.00039900,0.00220527,0.00129800,0.00064057,0.00002934,0.00045551,-0.0
 0569919,0.00061815,-0.00152163,-0.00016625,-0.00130674,0.00080115,-0.0
 1256823,-0.01615125,0.00928786,0.00052114,0.00030782,0.00029029,0.0008
 5802,0.00006273,-0.00027489,-0.00047386,-0.00057449,-0.00034964,-0.000
 04395,-0.00032219,-0.00024893,-0.00002160,0.00000407,0.00001884,0.0000
 0263,-0.00000330,-0.00003372,0.00002196,0.00001751,-0.00000994,-0.0000
 0210,0.00000930,-0.00001961,0.00001661,0.00000774,0.00001738,-0.000021
 51,-0.00003082,0.00000068,0.00005501,0.00000675,-0.00000633,-0.0000047
 7,-0.00000304,-0.00000146,-0.00000813,0.00001198,0.00000361,-0.0000057
 3,0.00001424,0.00001154,-0.00000346,-0.00000697,0.00001943,-0.00001339
 ,0.00003533,0.00012152,0.00003573,-0.00004624,0.00003186,0.00000864,0.
 00003576,0.00002904,-0.00000899,0.00000790,0.00000046,-0.00001702,0.00
 000337,-0.00000199,-0.00000705,-0.00004673,-0.00000962,-0.00000047,-0.
 00000336,0.00000634,-0.00000870,-0.00000055,0.00000013,-0.00000742,-0.
 00000161,0.00000203,0.00000168,-0.00000270,-0.00000217,-0.00005716,0.0
 0006361,-0.00000549,-0.00000199,0.00004300,0.00007288,0.00000242,0.000
 00908,0.00000884,0.00005212,0.00000505,0.00003990,-0.00009701,-0.00002
 746,0.00018832,0.00005214,-0.00070003,-0.00029632,0.18968412,-0.000583
 80,-0.00010434,0.00007476,0.00010628,0.00004690,0.00000959,0.00003532,
 0.00002899,-0.00000269,0.00001537,0.00002960,-0.00001189,-0.00000289,0
 .00002420,0.00000683,0.00003049,0.00002629,-0.00001928,-0.00012273,-0.
 00013647,0.00005519,0.00008325,0.00000818,0.00003261,0.00000246,-0.000
 01472,-0.00000337,0.00000058,0.00000969,-0.00000532,-0.00000142,0.0000
 0611,-0.00001016,0.00000222,0.00000632,-0.00001346,0.00014218,-0.00010
 071,-0.00021879,-0.00057017,0.00047540,0.00041112,0.00000343,-0.000212
 04,-0.00034896,-0.00003113,-0.00008320,0.00010583,0.00002954,0.0000245
 6,-0.00003879,0.00012137,-0.00005083,-0.00011143,-0.00002673,-0.000042
 84,-0.00001157,-0.00001246,0.00000992,-0.00001352,-0.00001719,-0.00002
 142,-0.00003687,-0.00001655,0.00004448,0.00001256,0.00003970,0.0001652
 4,-0.00029339,0.00232597,0.00130524,-0.00025314,-0.12063055,-0.1584611
 8,0.05178197,-0.02053424,-0.01223616,0.00854042,0.00086302,-0.00561221
 ,-0.00080980,-0.00156971,-0.00023476,-0.00083750,0.00201144,-0.0007237
 8,0.00025219,0.00006435,0.00064427,-0.00006435,0.00538750,0.00491227,-
 0.00350439,-0.00048071,0.00030619,-0.00024267,-0.00054063,-0.00002997,
 -0.00009001,0.00089807,0.00101868,-0.00051238,0.00015291,0.00017188,-0
 .00013069,-0.00002603,0.00002291,0.00005603,-0.00002009,0.00001334,-0.
 00000418,0.00000491,-0.00001103,0.00000100,-0.00000526,-0.00000060,-0.
 00000494,0.00000721,0.00000670,0.00000783,0.00000103,-0.00000505,0.000
 01158,0.00000337,0.00000321,0.00000034,0.00000041,-0.00000135,-0.00000
 180,-0.00000003,0.00000117,-0.00000015,0.00000031,0.00000318,-0.000001
 34,-0.00000280,0.00000072,-0.00000376,0.00007748,-0.00002152,-0.000062
 08,0.00005556,-0.00001024,-0.00002623,-0.00000813,0.00000377,0.0000029
 6,0.00000616,-0.00000228,-0.00000235,0.00000904,0.00000544,0.00000020,
 0.00001319,0.00002194,0.00000455,-0.00000292,0.00000202,-0.00000151,0.
 00000085,0.00000238,0.00000042,-0.00000184,-0.00000033,0.00000118,0.00
 000542,0.00000593,-0.00000433,-0.00000349,-0.00000900,-0.00001584,-0.0
 0002799,0.00002549,0.00011297,0.00002634,-0.00000659,-0.00001312,0.000
 06287,0.00001934,0.00002935,0.00002950,0.00000106,-0.00014576,0.000551
 21,0.00092085,-0.00009550,0.13208182,0.16746471,0.00145048,0.00058698,
 0.00086359,-0.00026695,-0.00007116,-0.00014537,-0.00000482,-0.00003003
 ,-0.00001432,0.00000008,-0.00002123,0.00003367,-0.00000942,-0.00000639
 ,0.00000254,-0.00005309,0.00001951,0.00006273,0.00012392,0.00010444,-0
 .00006171,-0.00011272,0.00002094,-0.00001224,0.00000164,0.00000771,0.0
 0000373,-0.00000720,-0.00000704,0.00000113,0.00000362,-0.00000483,0.00
 000318,-0.00000667,-0.00002151,0.00001707,0.00014678,0.00036734,-0.000
 16204,0.00004178,-0.00080526,-0.00088467,-0.00019111,-0.00015360,0.000
 48518,-0.00003139,0.00009810,0.00002406,0.00004007,-0.00000876,0.00003
 689,-0.00015373,-0.00004390,0.00015507,0.00005000,0.00009566,0.0000024
 1,-0.00000603,-0.00000465,0.00001460,0.00002099,0.00004604,0.00005055,
 0.00002892,-0.00003657,-0.00001610,-0.00177538,0.00035188,-0.00030721,
 0.01892851,0.01771273,-0.00786456,0.05750352,0.05264074,-0.06529604,-0
 .00706975,-0.00491689,0.00157742,0.00021888,-0.00140457,0.00043323,-0.
 00051510,-0.00036452,-0.00001078,-0.00278332,-0.00011068,-0.00100841,-
 0.00033767,-0.00063350,0.00065198,-0.00705210,-0.00920179,0.00357788,0
 .00050498,0.00024942,0.00016618,0.00056702,-0.00014778,0.00024803,0.00
 122503,-0.00126381,-0.00505235,0.00018700,0.00144713,0.00098267,0.0000
 0748,-0.00002231,-0.00011589,0.00005481,-0.00001726,0.00005867,-0.0000
 0771,-0.00000318,0.00001405,0.00000646,-0.00002299,0.00001121,-0.00000
 387,-0.00001307,0.00001471,-0.00004711,-0.00003935,-0.00004308,0.00001
 302,0.00001016,-0.00001744,0.00000492,-0.00000809,0.00000442,0.0000045
 6,-0.00000233,0.00000099,0.00000640,-0.00001791,-0.00000130,0.00001273
 ,0.00001561,-0.00000414,0.00038062,-0.00045105,-0.00049723,0.00003831,
 -0.00010952,-0.00001899,0.00001196,-0.00000070,0.00001580,0.00000793,0
 .00000854,-0.00000221,0.00005300,-0.00006258,-0.00004260,0.00015881,0.
 00027174,0.00004221,-0.00000650,-0.00000245,-0.00000218,0.00003346,0.0
 0001811,-0.00000191,0.00000377,0.00000715,-0.00000292,0.00001076,0.000
 01675,0.00000036,-0.00006388,-0.00002787,-0.00002279,-0.00002048,-0.00
 014865,-0.00020048,-0.00002072,0.00000996,0.00001123,-0.00014993,-0.00
 004439,-0.00007149,0.00010545,0.00003298,-0.00010254,0.00015880,0.0004
 2922,-0.00000286,-0.06097937,-0.05398754,0.07153449,-0.00774673,0.0163
 9026,-0.00180173,-0.00137869,0.00038329,-0.00355650,-0.00049851,0.0000
 0172,0.00033572,0.00009273,0.00030296,0.00033257,0.00005559,0.00014820
 ,-0.00013177,0.00021494,-0.00005771,0.00021428,0.00026137,0.00018322,-
 0.00029781,-0.00008577,-0.00002033,-0.00002221,-0.00003090,0.00003140,
 0.00002706,-0.00003325,0.00000338,-0.00004160,0.00000675,0.00008443,0.
 00002578,-0.00010121,0.00001282,-0.00018768,0.00087718,-0.00016249,0.0
 0065355,-0.00001750,-0.00026447,0.00028639,-0.00008519,-0.00016193,0.0
 0006331,-0.00001728,0.00003720,0.00010344,-0.00000698,0.00016445,-0.00
 011525,0.00005666,-0.00029866,-0.00022505,0.00009545,0.00004518,-0.000
 04212,0.00000318,0.00002364,0.00000983,0.00001886,0.00000678,0.0000052
 0,-0.00001352,0.00000686,-0.00001519,-0.00007366,0.00018838,0.00000049
 ,-0.06074135,0.07562039,0.01088892,-0.00309385,0.01114517,0.00350661,0
 .00031532,-0.00027354,0.00194015,-0.00079207,0.00040530,0.00067731,-0.
 00001157,0.00007082,-0.00015247,0.00033496,0.00011956,0.00050951,-0.00
 004770,-0.00017332,-0.00009966,0.00058362,-0.00079469,-0.00257955,0.00
 030550,0.00019157,-0.00125940,-0.00040445,-0.00030822,0.00009686,0.005
 63610,-0.02530118,-0.00002622,-0.00050466,-0.00305819,0.00156516,-0.00
 035531,-0.00022423,-0.00003687,-0.00003483,0.00060721,0.00041138,-0.00
 010871,0.00027029,-0.00002993,0.00012844,0.00006221,0.00015840,-0.0000
 9828,-0.00025540,0.00001745,-0.00028818,0.00015346,-0.00047853,0.00005
 951,-0.00000131,0.00001627,0.00000390,-0.00000187,0.00001523,0.0000254
 6,-0.00001697,-0.00000461,0.00002053,-0.00004573,-0.00002773,0.0001541
 6,-0.00008951,-0.00006262,0.00016572,0.00021754,-0.00006823,0.00003838
 ,-0.00034340,-0.00021176,-0.00005759,0.00013241,0.00008656,-0.00002629
 ,-0.00003906,0.00000367,-0.00000014,0.00001462,0.00000731,-0.00002760,
 0.00000459,-0.00000724,0.00000218,-0.00001396,0.00003893,-0.00000309,0
 .00000277,-0.00000020,-0.00001596,0.00000666,0.00001174,0.00000552,-0.
 00000013,-0.00000556,-0.00005693,0.00016854,0.00010748,0.00000430,-0.0
 0046342,0.00048369,-0.00007464,0.00012514,-0.00001337,-0.00003150,-0.0
 0015595,-0.00002123,-0.00420154,-0.00301772,-0.00060599,0.00004795,0.0
 0014379,-0.00003387,-0.00018970,-0.00001265,-0.00044045,0.07174090,0.0
 0300246,-0.00578286,0.00090686,-0.00017547,0.00000550,0.00027426,0.000
 00078,0.00018123,0.00008680,0.00010040,-0.00006876,-0.00010485,-0.0000
 5826,0.00000156,0.00004282,-0.00005599,-0.00001009,0.00003339,-0.00014
 589,0.00019258,0.00016895,0.00000720,-0.00000262,-0.00001295,-0.000002
 78,0.00001165,-0.00000596,0.00000633,0.00000176,0.00000617,-0.00001463
 ,0.00000753,-0.00001273,0.00007036,-0.00004215,-0.00005045,-0.00045321
 ,0.00036689,-0.00015552,0.00002035,0.00008059,-0.00018522,0.00009467,-
 0.00001084,0.00002628,0.00001020,-0.00002112,-0.00007737,-0.00005277,-
 0.00011362,0.00006390,0.00006902,0.00030892,0.00015559,-0.00002067,0.0
 0000936,-0.00000497,0.00000549,-0.00000931,0.00000344,-0.00001825,0.00
 000877,-0.00000523,0.00000076,-0.00000855,0.00000623,0.00002691,0.0000
 0241,0.00000484,0.06803942,-0.26077437,-0.03196973,0.00110794,-0.00252
 255,-0.00098072,0.00051260,0.00075865,-0.00021458,-0.00006571,0.000571
 40,0.00046727,-0.00004529,0.00008723,0.00004973,0.00015082,0.00037068,
 0.00026220,-0.00001493,-0.00009397,-0.00006920,0.00048959,0.00033468,0
 .00093421,-0.00045422,0.00065665,0.00014112,-0.00004712,0.00048369,0.0
 0012220,0.00236766,-0.01645895,0.00121745,-0.00091960,-0.00172136,-0.0
 0015236,0.00092158,0.00040193,0.00009395,0.00002753,-0.00017822,-0.000
 07422,0.00006289,-0.00004125,-0.00005454,0.00006863,0.00001538,0.00007
 344,-0.00001260,-0.00015805,0.00002056,-0.00019883,0.00016626,-0.00038
 539,-0.00000805,-0.00000429,-0.00000538,0.00000467,-0.00001142,0.00000
 380,-0.00000139,-0.00000141,0.00000365,-0.00001949,0.00000057,0.000011
 70,0.00000636,0.00010806,0.00000294,-0.00004347,-0.00019806,-0.0000104
 3,0.00016536,-0.00013406,-0.00011822,-0.00005711,0.00010246,0.00002732
 ,-0.00001059,-0.00001948,0.00000126,-0.00000138,0.00000839,-0.00002486
 ,0.00012686,0.00010429,0.00000606,-0.00001611,0.00001794,0.00001066,0.
 00000874,0.00000833,0.00000088,-0.00000509,0.00000392,0.00001320,0.000
 01183,0.00001003,-0.00000666,-0.00002832,0.00009138,0.00008878,0.00003
 678,0.00065634,-0.00013037,0.00000651,-0.00002098,0.00001005,-0.000045
 93,-0.00002355,-0.00002864,-0.00257095,-0.00172116,-0.00057217,-0.0000
 5708,-0.00010469,-0.00008910,0.00001072,0.00034406,-0.00032919,-0.0719
 2018,0.28377663,-0.00804832,0.01730279,-0.00016839,-0.00188060,-0.0003
 8285,-0.00374108,-0.00031831,0.00011740,0.00039522,0.00017315,0.000247
 85,0.00032229,-0.00000510,0.00015677,-0.00008532,0.00020674,0.00002502
 ,0.00036690,0.00014341,0.00044713,-0.00025077,-0.00015957,-0.00006300,
 -0.00010930,-0.00005757,0.00006236,0.00002692,-0.00004968,0.00001160,-
 0.00005694,0.00000117,0.00009970,0.00001688,-0.00011511,0.00001795,-0.
 00018163,0.00080303,-0.00013477,0.00049002,-0.00007106,-0.00006379,0.0
 0010597,-0.00000640,0.00008479,0.00002438,0.00002574,0.00001629,-0.000
 00157,-0.00004852,0.00006642,-0.00007609,0.00009961,-0.00019551,-0.000
 08413,0.00002001,-0.00000497,-0.00000017,-0.00001341,0.00001633,-0.000
 00422,0.00001150,-0.00001339,0.00000154,-0.00000170,0.00000349,-0.0000
 1095,0.00001371,-0.00005221,-0.00005376,0.00694014,-0.02596928,-0.0395
 6020,0.00782349,-0.02669628,-0.01105977,0.00026093,0.00064608,-0.00480
 598,0.00051215,-0.00103082,-0.00006675,-0.00016900,-0.00006441,0.00066
 005,-0.00014021,0.00021263,-0.00034420,-0.00004012,0.00008091,-0.00003
 200,0.00108439,-0.00203329,-0.00090804,-0.00093283,0.00052323,-0.00111
 283,-0.00000041,0.00027941,0.00038618,0.00019228,0.00471467,-0.0014651
 6,0.00133691,0.00145529,-0.00033021,0.00033940,0.00012925,-0.00000046,
 0.00009883,-0.00015088,0.00003964,0.00004714,-0.00022053,0.00008904,-0
 .00012357,-0.00003981,-0.00015957,-0.00002265,0.00020512,-0.00005904,0
 .00007970,-0.00006091,0.00005547,-0.00002849,-0.00001208,-0.00001725,-
 0.00001163,0.00000222,-0.00000622,-0.00001290,0.00000906,-0.00001362,-
 0.00000618,0.00001204,0.00001997,0.00006838,0.00004965,-0.00028997,-0.
 00011801,-0.00013035,-0.00011980,-0.00002125,0.00012328,0.00007972,0.0
 0001708,-0.00004928,0.00000118,-0.00000033,0.00000472,-0.00000410,0.00
 000806,-0.00001632,0.00000345,0.00003512,-0.00000474,-0.00000644,-0.00
 000415,0.00001330,-0.00001081,-0.00000550,0.00000015,0.00000247,-0.000
 00086,-0.00000133,-0.00000475,-0.00000586,-0.00000439,-0.00000424,0.00
 002259,-0.00002763,-0.00007638,0.00001494,-0.00063774,0.00035745,0.000
 05835,0.00004272,-0.00005090,0.00019602,-0.00008012,0.00008532,0.00163
 658,0.00061756,0.00033816,-0.00002424,-0.00058888,-0.00025771,0.000170
 88,0.00044335,0.00088391,-0.00999786,0.03048903,0.06083862\\-0.0000057
 6,-0.00001346,0.00000434,0.00000639,0.00000835,-0.00000879,-0.00000420
 ,-0.00000823,0.00000190,-0.00000300,0.00000353,-0.00000549,-0.00000104
 ,0.00000140,-0.00000031,0.00000104,-0.00000673,-0.00000126,-0.00000747
 ,0.00000456,0.00000275,0.00000218,-0.00000011,0.00000107,-0.00000100,0
 .00000038,-0.00000142,-0.00000099,-0.00000120,-0.00000103,0.00000192,-
 0.00000153,0.00000078,0.00000176,0.00000187,0.00000184,-0.00000484,0.0
 0000410,0.00000524,-0.00000741,-0.00000807,0.00000383,0.00000430,0.000
 00427,0.00000242,0.00000169,-0.00000068,-0.00000185,-0.00000142,0.0000
 0107,0.00000123,-0.00000184,-0.00000444,-0.00000161,0.00000175,0.00000
 029,0.00000026,0.00000122,-0.00000107,0.00000090,0.00000096,-0.0000009
 5,0.00000089,0.00000052,0.00000021,0.00000010,0.00000007,0.00000141,-0
 .00000259,0.00000085,-0.00000787,0.00000023,-0.00000191,0.00000073,-0.
 00000589,0.00000779,0.00000369,0.00000562,-0.00000689,0.00001253,0.000
 00189,0.00000014,-0.00000112,0.00000152,-0.00000026,-0.00000867,-0.000
 01293,0.00000010,0.00000340,-0.00000223,0.00000169,-0.00000423,0.00000
 536,-0.00000043,0.00000162,-0.00000266,-0.00000246,0.00000108,-0.00000
 327,0.00000149,0.00000799,0.00000326,0.00001581,0.00000333,0.00000276,
 0.00000137,0.00000767,0.00000473,0.00000235,-0.00000364,0.00000356,-0.
 00000041,-0.00000032,-0.00000127,0.00000028,-0.00000076,0.00000238,-0.
 00000041,0.00000288,0.00000014,0.00000241,-0.00000686,0.00000052,-0.00
 000138,0.00000070,0.00000121,0.00000016,0.00000131,0.00000051,0.000001
 42,0.00000116,0.00000086,-0.00000096,0.00000132,0.00000192,-0.00000035
 ,-0.00000041,-0.00000051,-0.00000118,-0.00000481,0.00000154,0.00000156
 ,0.00000190,-0.00000219,-0.00000375,0.00000074,0.00000099,0.00000137,-
 0.00000058,-0.00000080,-0.00000281,-0.00000257,-0.00000036,0.00000456,
 0.00000493,-0.00000223,0.00000138,-0.00000087,0.00000251,-0.00000017,0
 .00000008,-0.00000003,-0.00000082,0.00000010,-0.00000128,-0.00000094,-
 0.00000084,-0.00000115,-0.00000140,-0.00000151,0.00000076,0.00000104,0
 .00000380,-0.00001418,-0.00000012,0.00000009,0.00000457,-0.00000222,-0
 .00000165,-0.00000200,-0.00000181,-0.00000010,-0.00000056,-0.00000071,
 -0.00000194,-0.00000117,-0.00000132,0.00000169,0.00000234,0.00000210,0
 .00000104,0.00000232\\\@


 SUPPORT THE RIGHT TO ARM BEARS!
 (ADD A CLAWS TO THE BILL OF RIGHTS)
 Job cpu time:       0 days  5 hours 57 minutes 53.2 seconds.
 File lengths (MBytes):  RWF=   3015 Int=      0 D2E=      0 Chk=    104 Scr=      1
 Normal termination of Gaussian 09 at Tue Nov 16 15:12:39 2021.
