 Entering Gaussian System, Link 0=g09
 Input=RR_NorPhos_2_SPE_NoPd.com
 Output=RR_NorPhos_2_SPE_NoPd.log
 Initial command:
 /gstore/apps/gaussian/g09.e01-foss-2017a/g09/l1.exe "/local/22791352/Gau-12190.inp" -scrdir="/local/22791352/"
 Entering Link 1 = /gstore/apps/gaussian/g09.e01-foss-2017a/g09/l1.exe PID=     12191.
  
 Copyright (c) 1988,1990,1992,1993,1995,1998,2003,2009,2015,
            Gaussian, Inc.  All Rights Reserved.
  
 This is part of the Gaussian(R) 09 program.  It is based on
 the Gaussian(R) 03 system (copyright 2003, Gaussian, Inc.),
 the Gaussian(R) 98 system (copyright 1998, Gaussian, Inc.),
 the Gaussian(R) 94 system (copyright 1995, Gaussian, Inc.),
 the Gaussian 92(TM) system (copyright 1992, Gaussian, Inc.),
 the Gaussian 90(TM) system (copyright 1990, Gaussian, Inc.),
 the Gaussian 88(TM) system (copyright 1988, Gaussian, Inc.),
 the Gaussian 86(TM) system (copyright 1986, Carnegie Mellon
 University), and the Gaussian 82(TM) system (copyright 1983,
 Carnegie Mellon University). Gaussian is a federally registered
 trademark of Gaussian, Inc.
  
 This software contains proprietary and confidential information,
 including trade secrets, belonging to Gaussian, Inc.
  
 This software is provided under written license and may be
 used, copied, transmitted, or stored only in accord with that
 written license.
  
 The following legend is applicable only to US Government
 contracts under FAR:
  
                    RESTRICTED RIGHTS LEGEND
  
 Use, reproduction and disclosure by the US Government is
 subject to restrictions as set forth in subparagraphs (a)
 and (c) of the Commercial Computer Software - Restricted
 Rights clause in FAR 52.227-19.
  
 Gaussian, Inc.
 340 Quinnipiac St., Bldg. 40, Wallingford CT 06492
  
  
 ---------------------------------------------------------------
 Warning -- This program may not be used in any manner that
 competes with the business of Gaussian, Inc. or will provide
 assistance to any competitor of Gaussian, Inc.  The licensee
 of this program is prohibited from giving any competitor of
 Gaussian, Inc. access to this program.  By using this program,
 the user acknowledges that Gaussian, Inc. is engaged in the
 business of creating and licensing software in the field of
 computational chemistry and represents and warrants to the
 licensee that it is not a competitor of Gaussian, Inc. and that
 it will not use this program in any manner prohibited above.
 ---------------------------------------------------------------
  

 Cite this work as:
 Gaussian 09, Revision E.01,
 M. J. Frisch, G. W. Trucks, H. B. Schlegel, G. E. Scuseria, 
 M. A. Robb, J. R. Cheeseman, G. Scalmani, V. Barone, B. Mennucci, 
 G. A. Petersson, H. Nakatsuji, M. Caricato, X. Li, H. P. Hratchian, 
 A. F. Izmaylov, J. Bloino, G. Zheng, J. L. Sonnenberg, M. Hada, 
 M. Ehara, K. Toyota, R. Fukuda, J. Hasegawa, M. Ishida, T. Nakajima, 
 Y. Honda, O. Kitao, H. Nakai, T. Vreven, J. A. Montgomery, Jr., 
 J. E. Peralta, F. Ogliaro, M. Bearpark, J. J. Heyd, E. Brothers, 
 K. N. Kudin, V. N. Staroverov, T. Keith, R. Kobayashi, J. Normand, 
 K. Raghavachari, A. Rendell, J. C. Burant, S. S. Iyengar, J. Tomasi, 
 M. Cossi, N. Rega, J. M. Millam, M. Klene, J. E. Knox, J. B. Cross, 
 V. Bakken, C. Adamo, J. Jaramillo, R. Gomperts, R. E. Stratmann, 
 O. Yazyev, A. J. Austin, R. Cammi, C. Pomelli, J. W. Ochterski, 
 R. L. Martin, K. Morokuma, V. G. Zakrzewski, G. A. Voth, 
 P. Salvador, J. J. Dannenberg, S. Dapprich, A. D. Daniels, 
 O. Farkas, J. B. Foresman, J. V. Ortiz, J. Cioslowski, 
 and D. J. Fox, Gaussian, Inc., Wallingford CT, 2013.
 
 ******************************************
 Gaussian 09:  ES64L-G09RevE.01 30-Nov-2015
                 5-Dec-2021 
 ******************************************
 %nprocs=14
 Will use up to   14 processors via shared memory.
 %mem=128GB
 %chk=RR_NorPhos_2_SPE_NoPd.chk
 ----------------------------------------------------------------------
 # PBE1PBE/def2TZVP int=(grid=ultrafine) empiricaldispersion=GD3BJ nmr=
 giao
 ----------------------------------------------------------------------
 1/38=1/1;
 2/12=2,17=6,18=5,40=1/2;
 3/5=44,7=101,11=2,16=1,25=1,30=1,74=-13,75=-5,124=41/1,2,8,3;
 4//1;
 5/5=2,38=5/2;
 8/6=1,10=90,11=11/1;
 10/13=100,45=16/2;
 6/7=2,8=2,9=2,10=2,28=1/1;
 99/9=1/99;
 ------------------
 RR_NorPhos_2 title
 ------------------
 Symbolic Z-matrix:
 Charge =  0 Multiplicity = 1
 P                    -1.62376   0.02057  -0.0167 
 C                    -2.4173    1.66278   0.1384 
 C                    -1.79763   2.74634  -0.51488 
 C                    -2.3043    4.04309  -0.35657 
 C                    -3.43848   4.26193   0.43741 
 C                    -4.07536   3.18043   1.06557 
 C                    -3.56973   1.88311   0.91728 
 H                    -4.08429   1.04165   1.39088 
 H                    -4.97558   3.3466    1.66642 
 H                    -3.83943   5.27405   0.55372 
 H                    -1.82103   4.87984  -0.87089 
 H                    -0.93834   2.55272  -1.168 
 C                    -2.92305  -1.27061  -0.00544 
 C                    -3.63232  -1.57349   1.17747 
 C                    -4.60825  -2.57794   1.17745 
 C                    -4.87933  -3.2931    0.002 
 C                    -4.17307  -2.99946  -1.17247 
 C                    -3.19718  -1.99374  -1.18287 
 H                    -2.6558   -1.74431  -2.10173 
 H                    -4.38077  -3.55435  -2.09297 
 H                    -5.6403   -4.08036   0.00424 
 H                    -5.15352  -2.80443   2.09955 
 H                    -3.42614  -1.02936   2.10331 
 C                    -0.6269   -0.26593   1.53201 
 C                    -0.99242  -0.15455   3.05602 
 C                    -1.19093   1.30761   3.43275 
 C                     0.01804   1.90856   3.39119 
 H                     0.23165   2.97563   3.49909 
 C                     1.03472   0.86092   2.93398 
 H                     2.097     1.08716   3.10316 
 C                     0.44362  -0.39706   3.61129 
 H                     0.89631  -1.34315   3.26784 
 H                     0.48287  -0.33563   4.71084 
 C                     0.61705   0.66206   1.42711 
 P                     1.62254   0.00342   0.01643 
 C                     2.28124  -1.62226   0.52175 
 C                     1.75041  -2.78277  -0.07239 
 C                     2.17888  -4.04564   0.35944 
 C                     3.1364   -4.15186   1.37797 
 C                     3.6767   -2.99522   1.96304 
 C                     3.25528  -1.7304    1.53545 
 H                     3.68758  -0.82665   1.97817 
 H                     4.43265  -3.07981   2.75054 
 H                     3.47198  -5.13884   1.7125 
 H                     1.76965  -4.94666  -0.10831 
 H                     1.02007  -2.67651  -0.88297 
 C                     3.07137   1.09956  -0.13729 
 C                     3.08557   2.37815   0.45491 
 C                     4.20643   3.20642   0.31072 
 C                     5.31501   2.76706  -0.42584 
 C                     5.30073   1.4976   -1.02286 
 C                     4.18523   0.66428  -0.88526 
 H                     4.16106  -0.31338  -1.37346 
 H                     6.15981   1.15616  -1.60886 
 H                     6.18867   3.41681  -0.53973 
 H                     4.2107    4.19787   0.77508 
 H                     2.22509   2.73574   1.02832 
 H                     0.2945    1.64528   1.031 
 H                    -2.15922   1.78492   3.59767 
 H                    -1.76287  -0.86536   3.38542 
 H                    -0.30618  -1.3163    1.37868 
 
 Stoichiometry    C31H28P2
 Framework group  C1[X(C31H28P2)]
 Deg. of freedom   177
 Full point group                 C1      NOp   1
 Largest Abelian subgroup         C1      NOp   1
 Largest concise Abelian subgroup C1      NOp   1
                         Standard orientation:                         
 ---------------------------------------------------------------------
 Center     Atomic      Atomic             Coordinates (Angstroms)
 Number     Number       Type             X           Y           Z
 ---------------------------------------------------------------------
      1         15           0        1.610696   -0.047929   -0.767597
      2          6           0        2.317943   -1.728127   -0.602298
      3          6           0        1.635767   -2.783955   -1.238487
      4          6           0        2.074817   -4.104011   -1.071039
      5          6           0        3.203394   -4.374470   -0.285021
      6          6           0        3.902409   -3.321865    0.325916
      7          6           0        3.464527   -2.001199    0.168469
      8          1           0        4.027251   -1.183376    0.628505
      9          1           0        4.798297   -3.529313    0.920360
     10          1           0        3.551491   -5.405146   -0.161632
     11          1           0        1.543190   -4.919191   -1.572122
     12          1           0        0.781703   -2.551789   -1.885858
     13          6           0        2.976339    1.172832   -0.781672
     14          6           0        3.711850    1.449712    0.391537
     15          6           0        4.739372    2.401134    0.372126
     16          6           0        5.036576    3.089085   -0.813217
     17          6           0        4.304625    2.821356   -1.978113
     18          6           0        3.276992    1.868557   -1.969102
     19          1           0        2.714462    1.638834   -2.880370
     20          1           0        4.532521    3.355181   -2.906256
     21          1           0        5.838001    3.835010   -0.826144
     22          1           0        5.304605    2.607768    1.286833
     23          1           0        3.486103    0.926601    1.324891
     24          6           0        0.645166    0.306452    0.786899
     25          6           0        1.018818    0.191278    2.308656
     26          6           0        1.143505   -1.275457    2.699015
     27          6           0       -0.095828   -1.812060    2.674687
     28          1           0       -0.364391   -2.865211    2.795776
     29          6           0       -1.060133   -0.716814    2.215591
     30          1           0       -2.131208   -0.884883    2.396704
     31          6           0       -0.397058    0.514931    2.874223
     32          1           0       -0.802471    1.480116    2.524883
     33          1           0       -0.429007    0.466753    3.974669
     34          6           0       -0.646960   -0.555511    0.703008
     35         15           0       -1.629713    0.141095   -0.705455
     36          6           0       -2.196890    1.804326   -0.211433
     37          6           0       -1.611264    2.929111   -0.822566
     38          6           0       -1.968380    4.217155   -0.400269
     39          6           0       -2.909202    4.384091    0.625652
     40          6           0       -3.504162    3.263581    1.227754
     41          6           0       -3.154153    1.974007    0.809788
     42          1           0       -3.629275    1.098878    1.265905
     43          1           0       -4.247046    3.395932    2.021079
     44          1           0       -3.189037    5.390744    0.952740
     45          1           0       -1.516675    5.090521   -0.881184
     46          1           0       -0.895318    2.776238   -1.638514
     47          6           0       -3.135751   -0.878440   -0.834541
     48          6           0       -3.211730   -2.148449   -0.228753
     49          6           0       -4.376044   -2.917745   -0.354088
     50          6           0       -5.466888   -2.427858   -1.085247
     51          6           0       -5.391350   -1.167007   -1.695759
     52          6           0       -4.232182   -0.392458   -1.577017
     53          1           0       -4.161135    0.577587   -2.075717
     54          1           0       -6.236780   -0.786563   -2.277588
     55          1           0       -6.374655   -3.031645   -1.184399
     56          1           0       -4.428188   -3.902853    0.120742
     57          1           0       -2.365883   -2.545220    0.340639
     58          1           0       -0.380512   -1.558338    0.314430
     59          1           0        2.086794   -1.801587    2.860261
     60          1           0        1.828801    0.863662    2.623573
     61          1           0        0.378848    1.370707    0.625369
 ---------------------------------------------------------------------
 Rotational constants (GHZ):      0.1551038      0.0996051      0.0756294
 Standard basis: def2TZVP (5D, 7F)
 There are  1368 symmetry adapted cartesian basis functions of A   symmetry.
 There are  1203 symmetry adapted basis functions of A   symmetry.
  1203 basis functions,  1943 primitive gaussians,  1368 cartesian basis functions
   122 alpha electrons      122 beta electrons
       nuclear repulsion energy      3617.9715569773 Hartrees.
 NAtoms=   61 NActive=   61 NUniq=   61 SFac= 1.00D+00 NAtFMM=   60 NAOKFM=T Big=T
 Integral buffers will be    131072 words long.
 Raffenetti 2 integral format.
 Two-electron integral symmetry is turned on.
 Nuclear repulsion after empirical dispersion term =     3617.8790498344 Hartrees.
 One-electron integrals computed using PRISM.
   1 Symmetry operations used in ECPInt.
 ECPInt:  NShTT=  114960 NPrTT=  355741 LenC2=   93650 LenP2D=  195025.
 LDataN:  DoStor=T MaxTD1= 6 Len=  172
 NBasis=  1203 RedAO= T EigKep=  7.56D-06  NBF=  1203
 NBsUse=  1203 1.00D-06 EigRej= -1.00D+00 NBFU=  1203
 ExpMin= 9.04D-02 ExpMax= 5.24D+04 ExpMxC= 1.79D+03 IAcc=3 IRadAn=         5 AccDes= 0.00D+00
 Harris functional with IExCor= 1009 and IRadAn=       5 diagonalized for initial guess.
 HarFok:  IExCor= 1009 AccDes= 0.00D+00 IRadAn=         5 IDoV= 1 UseB2=F ITyADJ=14
 ICtDFT=  3500011 ScaDFX=  1.000000  1.000000  1.000000  1.000000
 FoFCou: FMM=F IPFlag=           0 FMFlag=      100000 FMFlg1=        2001
         NFxFlg=           0 DoJE=T BraDBF=F KetDBF=T FulRan=T
         wScrn=  0.000000 ICntrl=     500 IOpCl=  0 I1Cent=   200000004 NGrid=           0
         NMat0=    1 NMatS0=      1 NMatT0=    0 NMatD0=    1 NMtDS0=    0 NMtDT0=    0
 Petite list used in FoFCou.
 Requested convergence on RMS density matrix=1.00D-08 within 128 cycles.
 Requested convergence on MAX density matrix=1.00D-06.
 Requested convergence on             energy=1.00D-06.
 No special actions if energy rises.
 Integral accuracy reduced to 1.0D-05 until final iterations.
 Problem detected with inexpensive integrals.
 Switching to full accuracy and repeating last cycle.
 SCF Done:  E(RPBE1PBE) =  -1879.63287879     A.U. after   14 cycles
            NFock= 14  Conv=0.62D-08     -V/T= 2.0046
 DoSCS=F DFT=T ScalE2(SS,OS)=  1.000000  1.000000
 Range of M.O.s used for correlation:     1  1203
 NBasis=  1203 NAE=   122 NBE=   122 NFC=     0 NFV=     0
 NROrb=   1203 NOA=   122 NOB=   122 NVA=  1081 NVB=  1081

 **** Warning!!: The largest alpha MO coefficient is  0.49045587D+02

          Differentiating once with respect to magnetic field using GIAOs.
          Electric field/nuclear overlap derivatives assumed to be zero.
 FoFCou: FMM=F IPFlag=           0 FMFlag=      100000 FMFlg1=        2001
         NFxFlg=           0 DoJE=F BraDBF=F KetDBF=T FulRan=T
         wScrn=  0.000000 ICntrl=    6100 IOpCl=  0 I1Cent=           7 NGrid=          61
         NMat0=    1 NMatS0=      1 NMatT0=    0 NMatD0=    1 NMtDS0=    0 NMtDT0=    0
 Symmetry not used in FoFCou.
   1 Symmetry operations used in ECPInt.
 ECPInt:  NShTT=  114960 NPrTT=  355741 LenC2=  114961 LenP2D=  355741.
 LDataN:  DoStor=T MaxTD1= 7 Len=  274
 FoFJK:  IHMeth= 1 ICntrl=    6127 DoSepK=F KAlg= 0 I1Cent=   0 FoldK=F
 IRaf=         1 NMat=   1 IRICut=       1 DoRegI=T DoRafI=F ISym2E= 0.
          There are     3 degrees of freedom in the 1st order CPHF.  IDoFFX=0 NUNeed=     3.
      3 vectors produced by pass  0 Test12= 4.40D-12 3.33D-08 XBig12= 1.28D+02 1.81D+00.
 AX will form     3 AO Fock derivatives at one time.
      3 vectors produced by pass  1 Test12= 4.40D-12 3.33D-08 XBig12= 5.57D-01 1.64D-01.
      3 vectors produced by pass  2 Test12= 4.40D-12 3.33D-08 XBig12= 2.05D-03 6.59D-03.
      3 vectors produced by pass  3 Test12= 4.40D-12 3.33D-08 XBig12= 6.51D-06 6.42D-04.
      3 vectors produced by pass  4 Test12= 4.40D-12 3.33D-08 XBig12= 4.00D-08 7.20D-05.
      3 vectors produced by pass  5 Test12= 4.40D-12 3.33D-08 XBig12= 2.38D-10 6.01D-06.
      3 vectors produced by pass  6 Test12= 4.40D-12 3.33D-08 XBig12= 1.34D-12 4.62D-07.
 InvSVY:  IOpt=1 It=  1 EMax= 3.55D-15
 Solved reduced A of dimension    21 with     3 vectors.
 Calculating GIAO nuclear magnetic shielding tensors.
 SCF GIAO Magnetic shielding tensor (ppm):
      1  P    Isotropic =   312.7918   Anisotropy =    27.8057
   XX=   319.5518   YX=     4.9926   ZX=    24.6019
   XY=    19.9918   YY=   293.3093   ZY=   -24.1188
   XZ=    -8.2657   YZ=     2.9416   ZZ=   325.5144
   Eigenvalues:   284.2688   322.7778   331.3290
      2  C    Isotropic =    43.6956   Anisotropy =   202.4973
   XX=    58.5408   YX=    19.6970   ZX=   -81.8376
   XY=    27.1861   YY=   -46.7532   ZY=   -20.6829
   XZ=   -81.8226   YZ=    -4.2853   ZZ=   119.2991
   Eigenvalues:   -51.9420     4.3349   178.6938
      3  C    Isotropic =    42.1840   Anisotropy =   181.6811
   XX=    15.4722   YX=    32.5950   ZX=  -109.3386
   XY=    18.0242   YY=    35.6148   ZY=     2.8696
   XZ=  -113.1735   YZ=    -9.8102   ZZ=    75.4651
   Eigenvalues:   -72.7823    36.0296   163.3048
      4  C    Isotropic =    52.4695   Anisotropy =   184.2597
   XX=    64.6453   YX=   -27.5277   ZX=   -85.2277
   XY=   -28.6663   YY=   -14.0349   ZY=   -43.0230
   XZ=   -85.4675   YZ=   -44.5806   ZZ=   106.7982
   Eigenvalues:   -58.3101    40.4094   175.3094
      5  C    Isotropic =    50.8004   Anisotropy =   188.6675
   XX=    74.2073   YX=    33.5586   ZX=   -69.1643
   XY=    35.0986   YY=   -49.3040   ZY=    -0.8924
   XZ=   -69.0610   YZ=     1.6742   ZZ=   127.4978
   Eigenvalues:   -60.2101    36.0325   176.5787
      6  C    Isotropic =    52.4842   Anisotropy =   184.3836
   XX=    19.9517   YX=    22.9695   ZX=  -106.6448
   XY=    22.4730   YY=    39.8439   ZY=     2.1981
   XZ=  -110.4890   YZ=    -2.3996   ZZ=    97.6571
   Eigenvalues:   -59.9669    42.0130   175.4066
      7  C    Isotropic =    44.4466   Anisotropy =   196.6117
   XX=    48.6650   YX=   -24.8839   ZX=   -89.8748
   XY=   -29.7921   YY=   -20.4615   ZY=   -37.8563
   XZ=   -93.8557   YZ=   -55.9052   ZZ=   105.1364
   Eigenvalues:   -70.6492    28.4681   175.5211
      8  H    Isotropic =    23.2181   Anisotropy =    11.4132
   XX=    23.7994   YX=    -4.8034   ZX=     3.1124
   XY=    -3.8350   YY=    26.9535   ZY=    -3.5683
   XZ=     0.9667   YZ=    -1.3576   ZZ=    18.9013
   Eigenvalues:    18.0266    20.8007    30.8268
      9  H    Isotropic =    23.9314   Anisotropy =     6.3721
   XX=    23.2715   YX=    -1.1496   ZX=     1.5006
   XY=    -0.6317   YY=    27.9579   ZY=     0.5122
   XZ=     0.5547   YZ=     1.1936   ZZ=    20.5649
   Eigenvalues:    20.0660    23.5488    28.1795
     10  H    Isotropic =    23.8525   Anisotropy =     4.1041
   XX=    24.6877   YX=    -0.2086   ZX=     2.6913
   XY=     0.2306   YY=    24.4845   ZY=     0.9583
   XZ=     2.5356   YZ=     1.2775   ZZ=    22.3853
   Eigenvalues:    20.4621    24.5069    26.5886
     11  H    Isotropic =    23.8694   Anisotropy =     5.9075
   XX=    23.7703   YX=    -2.7455   ZX=     1.7493
   XY=    -2.2954   YY=    26.0380   ZY=    -0.1788
   XZ=     1.5894   YZ=     0.2193   ZZ=    21.8000
   Eigenvalues:    20.4844    23.3161    27.8078
     12  H    Isotropic =    23.2798   Anisotropy =     8.9680
   XX=    20.1476   YX=    -1.3495   ZX=    -1.0498
   XY=    -0.4401   YY=    27.5350   ZY=     3.0601
   XZ=    -0.2008   YZ=     3.6128   ZZ=    22.1568
   Eigenvalues:    19.9676    20.6133    29.2585
     13  C    Isotropic =    39.8806   Anisotropy =   203.4828
   XX=    51.7667   YX=  -108.1756   ZX=   -27.8378
   XY=  -108.4235   YY=    61.9397   ZY=    29.8934
   XZ=   -27.4267   YZ=    32.7058   ZZ=     5.9353
   Eigenvalues:   -51.6183    -4.2757   175.5358
     14  C    Isotropic =    40.3783   Anisotropy =   183.0279
   XX=    91.4002   YX=   -64.5597   ZX=    -8.0571
   XY=   -71.1152   YY=    72.3864   ZY=    67.4785
   XZ=    -7.2859   YZ=    61.3131   ZZ=   -42.6518
   Eigenvalues:   -74.5019    33.2398   162.3968
     15  C    Isotropic =    52.0258   Anisotropy =   184.3621
   XX=    72.0095   YX=   -71.1148   ZX=   -68.4821
   XY=   -72.5609   YY=   105.1418   ZY=     9.2063
   XZ=   -65.0543   YZ=     7.1471   ZZ=   -21.0738
   Eigenvalues:   -60.7880    41.9316   174.9339
     16  C    Isotropic =    50.6055   Anisotropy =   189.7468
   XX=    43.1971   YX=  -116.8031   ZX=   -20.6994
   XY=  -112.4102   YY=    64.4597   ZY=    24.7155
   XZ=   -21.0357   YZ=    26.4590   ZZ=    44.1597
   Eigenvalues:   -61.3030    36.0161   177.1034
     17  C    Isotropic =    51.5305   Anisotropy =   185.8941
   XX=    94.4156   YX=   -74.9322   ZX=    -2.2784
   XY=   -73.8205   YY=    84.9126   ZY=    62.2645
   XZ=    -5.0576   YZ=    64.5506   ZZ=   -24.7367
   Eigenvalues:   -59.7498    38.8814   175.4599
     18  C    Isotropic =    42.6161   Anisotropy =   179.9936
   XX=    69.0236   YX=   -64.9375   ZX=   -69.5189
   XY=   -73.4599   YY=    88.6388   ZY=    11.1203
   XZ=   -66.5983   YZ=     2.4281   ZZ=   -29.8139
   Eigenvalues:   -69.3227    34.5593   162.6119
     19  H    Isotropic =    23.1218   Anisotropy =     9.5312
   XX=    22.9724   YX=     3.5967   ZX=    -2.5058
   XY=     3.2367   YY=    23.7741   ZY=    -3.6555
   XZ=    -1.7667   YZ=    -3.9077   ZZ=    22.6188
   Eigenvalues:    19.1658    20.7236    29.4759
     20  H    Isotropic =    23.7000   Anisotropy =     5.5252
   XX=    24.6465   YX=     3.4675   ZX=     1.1917
   XY=     3.0529   YY=    22.9885   ZY=    -0.0365
   XZ=     1.3297   YZ=    -0.3535   ZZ=    23.4650
   Eigenvalues:    20.1823    23.5342    27.3835
     21  H    Isotropic =    23.7025   Anisotropy =     4.3499
   XX=    22.7617   YX=     1.5636   ZX=     0.9143
   XY=     1.5453   YY=    22.2582   ZY=    -1.2949
   XZ=     1.0861   YZ=    -1.4587   ZZ=    26.0877
   Eigenvalues:    20.4263    24.0788    26.6025
     22  H    Isotropic =    23.6812   Anisotropy =     6.5833
   XX=    24.3358   YX=     3.4551   ZX=    -0.5092
   XY=     3.5471   YY=    23.9167   ZY=    -1.5506
   XZ=    -0.3235   YZ=    -1.9384   ZZ=    22.7912
   Eigenvalues:    20.1962    22.7774    28.0701
     23  H    Isotropic =    22.5854   Anisotropy =    10.8739
   XX=    26.9095   YX=     4.0961   ZX=     1.9111
   XY=     4.4971   YY=    20.8312   ZY=     1.9197
   XZ=     2.2990   YZ=     1.3531   ZZ=    20.0154
   Eigenvalues:    18.3726    19.5490    29.8347
     24  C    Isotropic =   137.6233   Anisotropy =    23.0686
   XX=   143.6116   YX=    -6.1513   ZX=     4.3497
   XY=    -1.0807   YY=   117.8567   ZY=     3.0229
   XZ=    -8.6389   YZ=     7.5729   ZZ=   151.4015
   Eigenvalues:   116.6459   143.2215   153.0023
     25  C    Isotropic =   135.1177   Anisotropy =    18.5028
   XX=   133.1457   YX=    -0.0468   ZX=    -0.1730
   XY=    -7.8697   YY=   133.9290   ZY=     4.8001
   XZ=   -20.5005   YZ=    -1.3096   ZZ=   138.2784
   Eigenvalues:   124.5807   133.3195   147.4529
     26  C    Isotropic =    45.3797   Anisotropy =   167.8690
   XX=    26.9893   YX=    27.9960   ZX=   -20.7601
   XY=    55.3303   YY=   -28.7465   ZY=    41.0454
   XZ=   -66.9372   YZ=    43.6157   ZZ=   137.8963
   Eigenvalues:   -67.6133    46.4600   157.2924
     27  C    Isotropic =    38.8317   Anisotropy =   178.0415
   XX=    30.0173   YX=    29.5735   ZX=   -14.5010
   XY=     8.1764   YY=   -54.2599   ZY=    35.5011
   XZ=    21.7048   YZ=    81.5402   ZZ=   140.7377
   Eigenvalues:   -73.3542    32.3234   157.5260
     28  H    Isotropic =    25.1906   Anisotropy =     1.5466
   XX=    25.6323   YX=     0.7285   ZX=    -0.8258
   XY=    -0.0078   YY=    23.9333   ZY=    -2.3772
   XZ=     0.6708   YZ=     1.1690   ZZ=    26.0062
   Eigenvalues:    23.7138    25.6364    26.2216
     29  C    Isotropic =   142.3241   Anisotropy =    11.8913
   XX=   143.1885   YX=    -7.4164   ZX=    -4.3393
   XY=     2.2448   YY=   139.4949   ZY=     1.6414
   XZ=    15.3473   YZ=    10.4927   ZZ=   144.2890
   Eigenvalues:   132.6192   144.1015   150.2516
     30  H    Isotropic =    28.5533   Anisotropy =     7.3923
   XX=    32.5647   YX=     1.4445   ZX=    -1.5629
   XY=     2.5198   YY=    24.8837   ZY=    -0.3230
   XZ=    -0.8578   YZ=    -2.4013   ZZ=    28.2113
   Eigenvalues:    24.1216    28.0567    33.4815
     31  C    Isotropic =   132.1590   Anisotropy =    38.1513
   XX=   144.5993   YX=   -16.3540   ZX=   -17.0470
   XY=    -8.8557   YY=   141.5652   ZY=    -2.8384
   XZ=    -4.7208   YZ=     5.8090   ZZ=   110.3124
   Eigenvalues:   107.0069   131.8769   157.5932
     32  H    Isotropic =    30.9160   Anisotropy =     9.8214
   XX=    29.0296   YX=    -6.8456   ZX=     2.6812
   XY=    -4.5827   YY=    33.5835   ZY=     1.5748
   XZ=     0.8784   YZ=     0.3464   ZZ=    30.1348
   Eigenvalues:    24.4436    30.8408    37.4636
     33  H    Isotropic =    30.1444   Anisotropy =    11.5359
   XX=    27.2711   YX=    -1.2648   ZX=    -1.9754
   XY=    -0.4207   YY=    26.5322   ZY=     2.2131
   XZ=    -1.5718   YZ=     3.8898   ZZ=    36.6298
   Eigenvalues:    25.5987    26.9994    37.8349
     34  C    Isotropic =   139.8464   Anisotropy =    37.5131
   XX=   142.4237   YX=    -2.1981   ZX=   -17.9743
   XY=    -1.3529   YY=   118.4052   ZY=    -5.9314
   XZ=    -5.0385   YZ=    -2.5932   ZZ=   158.7102
   Eigenvalues:   117.5571   137.1269   164.8551
     35  P    Isotropic =   292.8606   Anisotropy =    34.7141
   XX=   308.0322   YX=    20.8580   ZX=     0.6185
   XY=     8.3509   YY=   288.2733   ZY=    11.5505
   XZ=     6.7309   YZ=   -36.1776   ZZ=   282.2762
   Eigenvalues:   268.7055   293.8729   316.0033
     36  C    Isotropic =    40.9004   Anisotropy =   205.8239
   XX=    97.7581   YX=     7.7575   ZX=    87.6020
   XY=    12.0140   YY=   -46.7071   ZY=   -10.1843
   XZ=    97.3890   YZ=   -13.0413   ZZ=    71.6502
   Eigenvalues:   -52.0704    -3.3447   178.1164
     37  C    Isotropic =    40.3844   Anisotropy =   185.1773
   XX=    58.2896   YX=    14.4328   ZX=   118.7280
   XY=     2.8428   YY=    33.1301   ZY=   -11.1605
   XZ=   119.1975   YZ=    -5.2670   ZZ=    29.7335
   Eigenvalues:   -77.0849    34.4021   163.8359
     38  C    Isotropic =    52.3115   Anisotropy =   185.0869
   XX=    97.9135   YX=   -33.9502   ZX=    85.2188
   XY=   -35.2988   YY=   -23.9151   ZY=    31.9621
   XZ=    84.5396   YZ=    33.0355   ZZ=    82.9359
   Eigenvalues:   -58.9261    40.1577   175.7027
     39  C    Isotropic =    50.0153   Anisotropy =   190.4864
   XX=   106.1270   YX=    17.8772   ZX=    77.5108
   XY=    18.9279   YY=   -47.7034   ZY=   -27.8633
   XZ=    77.7852   YZ=   -29.2549   ZZ=    91.6222
   Eigenvalues:   -61.4673    34.5070   177.0062
     40  C    Isotropic =    51.3011   Anisotropy =   186.1679
   XX=    68.3157   YX=     6.0094   ZX=   115.6757
   XY=     4.0847   YY=    39.4938   ZY=   -11.1233
   XZ=   119.6323   YZ=    -6.0432   ZZ=    46.0938
   Eigenvalues:   -61.9094    40.3997   175.4130
     41  C    Isotropic =    40.8087   Anisotropy =   190.9979
   XX=    80.2250   YX=   -30.2306   ZX=    89.3914
   XY=   -38.0479   YY=   -32.6597   ZY=    27.6930
   XZ=    91.7241   YZ=    43.3723   ZZ=    74.8606
   Eigenvalues:   -73.0975    27.3829   168.1406
     42  H    Isotropic =    23.7160   Anisotropy =    10.8709
   XX=    24.1280   YX=    -4.1918   ZX=    -2.6894
   XY=    -3.9101   YY=    24.6300   ZY=     3.9034
   XZ=    -0.8390   YZ=     5.3056   ZZ=    22.3900
   Eigenvalues:    18.4450    21.7397    30.9632
     43  H    Isotropic =    23.9806   Anisotropy =     6.2688
   XX=    22.6792   YX=    -0.8892   ZX=    -1.5054
   XY=    -0.7871   YY=    27.9341   ZY=     0.3230
   XZ=    -1.0935   YZ=     0.8744   ZZ=    21.3285
   Eigenvalues:    20.5385    23.2435    28.1598
     44  H    Isotropic =    23.8677   Anisotropy =     3.9883
   XX=    23.7079   YX=     0.1625   ZX=    -2.7858
   XY=     0.2129   YY=    24.6168   ZY=    -0.9742
   XZ=    -2.8053   YZ=    -0.5532   ZZ=    23.2784
   Eigenvalues:    20.6414    24.4352    26.5265
     45  H    Isotropic =    23.9048   Anisotropy =     5.9499
   XX=    23.2538   YX=    -2.1137   ZX=    -2.0148
   XY=    -2.2338   YY=    25.8593   ZY=     0.8209
   XZ=    -2.3548   YZ=     1.2155   ZZ=    22.6013
   Eigenvalues:    20.6152    23.2278    27.8714
     46  H    Isotropic =    23.1165   Anisotropy =     8.4273
   XX=    21.3227   YX=    -0.5803   ZX=     1.1318
   XY=    -1.1469   YY=    27.6541   ZY=    -2.7685
   XZ=    -0.2685   YZ=    -2.8476   ZZ=    20.3728
   Eigenvalues:    19.4064    21.2085    28.7347
     47  C    Isotropic =    33.7447   Anisotropy =   203.6369
   XX=    -7.4898   YX=   -49.3156   ZX=   -67.6137
   XY=   -41.1311   YY=     1.3743   ZY=    61.3364
   XZ=   -60.6184   YZ=    62.0387   ZZ=   107.3496
   Eigenvalues:   -49.0209   -19.2476   169.5027
     48  C    Isotropic =    51.1702   Anisotropy =   179.7696
   XX=     5.3832   YX=     4.6611   ZX=   -74.0584
   XY=    13.3646   YY=    52.9312   ZY=    64.1961
   XZ=   -86.4349   YZ=    76.3584   ZZ=    95.1963
   Eigenvalues:   -60.7741    43.2682   171.0166
     49  C    Isotropic =    52.1688   Anisotropy =   183.7064
   XX=    60.3020   YX=   -25.9776   ZX=   -35.8602
   XY=   -27.1659   YY=   -15.7645   ZY=    86.1269
   XZ=   -39.8149   YZ=    88.5254   ZZ=   111.9689
   Eigenvalues:   -60.4750    42.3417   174.6398
     50  C    Isotropic =    55.4562   Anisotropy =   180.0769
   XX=    -3.3335   YX=   -63.6592   ZX=   -47.1069
   XY=   -63.9394   YY=    35.2106   ZY=    42.8008
   XZ=   -46.8857   YZ=    39.7603   ZZ=   134.4916
   Eigenvalues:   -51.7946    42.6558   175.5074
     51  C    Isotropic =    51.8337   Anisotropy =   185.7452
   XX=     0.2694   YX=     6.9733   ZX=   -80.9138
   XY=     5.1685   YY=    52.0077   ZY=    66.7665
   XZ=   -83.2940   YZ=    68.5000   ZZ=   103.2240
   Eigenvalues:   -60.0981    39.9353   175.6639
     52  C    Isotropic =    48.3732   Anisotropy =   186.4089
   XX=    56.3111   YX=   -14.5023   ZX=   -40.8419
   XY=   -34.7547   YY=   -18.4835   ZY=    86.1055
   XZ=   -43.2499   YZ=    89.2245   ZZ=   107.2920
   Eigenvalues:   -63.5521    36.0259   172.6458
     53  H    Isotropic =    23.9919   Anisotropy =    12.1206
   XX=    28.2973   YX=     3.6934   ZX=     5.1430
   XY=     1.9991   YY=    20.6595   ZY=     0.8167
   XZ=     4.5741   YZ=     2.0451   ZZ=    23.0189
   Eigenvalues:    19.6717    20.2317    32.0723
     54  H    Isotropic =    23.9696   Anisotropy =     5.6793
   XX=    24.9658   YX=     2.9554   ZX=     1.1227
   XY=     2.3860   YY=    25.1970   ZY=    -1.1642
   XZ=     1.0531   YZ=    -0.6997   ZZ=    21.7459
   Eigenvalues:    20.6084    23.5446    27.7557
     55  H    Isotropic =    24.0590   Anisotropy =     3.9399
   XX=    24.7448   YX=     0.1784   ZX=     1.9548
   XY=    -0.2732   YY=    24.8060   ZY=    -2.0859
   XZ=     1.6527   YZ=    -2.0575   ZZ=    22.6262
   Eigenvalues:    20.7673    24.7241    26.6856
     56  H    Isotropic =    23.8435   Anisotropy =     6.6505
   XX=    26.9879   YX=     1.8468   ZX=     2.2341
   XY=     1.8466   YY=    23.3156   ZY=    -0.4190
   XZ=     1.9788   YZ=     0.1667   ZZ=    21.2270
   Eigenvalues:    20.3513    22.9020    28.2771
     57  H    Isotropic =    23.6510   Anisotropy =    12.1169
   XX=    25.1363   YX=     5.7859   ZX=     0.9048
   XY=     6.1135   YY=    26.3369   ZY=     0.1138
   XZ=     0.2316   YZ=    -0.0856   ZZ=    19.4800
   Eigenvalues:    19.1756    20.0485    31.7290
     58  H    Isotropic =    29.3946   Anisotropy =     7.3835
   XX=    29.2165   YX=    -4.4509   ZX=    -0.3433
   XY=     0.3911   YY=    31.5013   ZY=     2.4393
   XZ=    -2.6072   YZ=     3.5693   ZZ=    27.4661
   Eigenvalues:    25.8176    28.0494    34.3170
     59  H    Isotropic =    25.6077   Anisotropy =     4.9352
   XX=    25.2120   YX=    -2.0684   ZX=    -1.2710
   XY=     0.9967   YY=    23.5288   ZY=    -1.8057
   XZ=    -2.1950   YZ=     1.4219   ZZ=    28.0823
   Eigenvalues:    23.2488    24.6766    28.8979
     60  H    Isotropic =    28.0677   Anisotropy =     8.9459
   XX=    31.3623   YX=     3.2483   ZX=     0.5711
   XY=     4.2838   YY=    25.1380   ZY=     1.9718
   XZ=     3.1361   YZ=     1.2949   ZZ=    27.7027
   Eigenvalues:    23.2429    26.9285    34.0316
     61  H    Isotropic =    29.6193   Anisotropy =     8.1628
   XX=    31.8209   YX=    -4.1844   ZX=    -0.4345
   XY=    -2.1326   YY=    30.5115   ZY=    -1.7460
   XZ=     1.9132   YZ=    -3.8291   ZZ=    26.5257
   Eigenvalues:    24.9776    28.8192    35.0612
 End of Minotr F.D. properties file   721 does not exist.
 End of Minotr F.D. properties file   722 does not exist.
 End of Minotr F.D. properties file   788 does not exist.

 **********************************************************************

            Population analysis using the SCF density.

 **********************************************************************

 Orbital symmetries:
       Occupied  (A) (A) (A) (A) (A) (A) (A) (A) (A) (A) (A) (A)
                 (A) (A) (A) (A) (A) (A) (A) (A) (A) (A) (A) (A)
                 (A) (A) (A) (A) (A) (A) (A) (A) (A) (A) (A) (A)
                 (A) (A) (A) (A) (A) (A) (A) (A) (A) (A) (A) (A)
                 (A) (A) (A) (A) (A) (A) (A) (A) (A) (A) (A) (A)
                 (A) (A) (A) (A) (A) (A) (A) (A) (A) (A) (A) (A)
                 (A) (A) (A) (A) (A) (A) (A) (A) (A) (A) (A) (A)
                 (A) (A) (A) (A) (A) (A) (A) (A) (A) (A) (A) (A)
                 (A) (A) (A) (A) (A) (A) (A) (A) (A) (A) (A) (A)
                 (A) (A) (A) (A) (A) (A) (A) (A) (A) (A) (A) (A)
                 (A) (A)
       Virtual   (A) (A) (A) (A) (A) (A) (A) (A) (A) (A) (A) (A)
                 (A) (A) (A) (A) (A) (A) (A) (A) (A) (A) (A) (A)
                 (A) (A) (A) (A) (A) (A) (A) (A) (A) (A) (A) (A)
                 (A) (A) (A) (A) (A) (A) (A) (A) (A) (A) (A) (A)
                 (A) (A) (A) (A) (A) (A) (A) (A) (A) (A) (A) (A)
                 (A) (A) (A) (A) (A) (A) (A) (A) (A) (A) (A) (A)
                 (A) (A) (A) (A) (A) (A) (A) (A) (A) (A) (A) (A)
                 (A) (A) (A) (A) (A) (A) (A) (A) (A) (A) (A) (A)
                 (A) (A) (A) (A) (A) (A) (A) (A) (A) (A) (A) (A)
                 (A) (A) (A) (A) (A) (A) (A) (A) (A) (A) (A) (A)
                 (A) (A) (A) (A) (A) (A) (A) (A) (A) (A) (A) (A)
                 (A) (A) (A) (A) (A) (A) (A) (A) (A) (A) (A) (A)
                 (A) (A) (A) (A) (A) (A) (A) (A) (A) (A) (A) (A)
                 (A) (A) (A) (A) (A) (A) (A) (A) (A) (A) (A) (A)
                 (A) (A) (A) (A) (A) (A) (A) (A) (A) (A) (A) (A)
                 (A) (A) (A) (A) (A) (A) (A) (A) (A) (A) (A) (A)
                 (A) (A) (A) (A) (A) (A) (A) (A) (A) (A) (A) (A)
                 (A) (A) (A) (A) (A) (A) (A) (A) (A) (A) (A) (A)
                 (A) (A) (A) (A) (A) (A) (A) (A) (A) (A) (A) (A)
                 (A) (A) (A) (A) (A) (A) (A) (A) (A) (A) (A) (A)
                 (A) (A) (A) (A) (A) (A) (A) (A) (A) (A) (A) (A)
                 (A) (A) (A) (A) (A) (A) (A) (A) (A) (A) (A) (A)
                 (A) (A) (A) (A) (A) (A) (A) (A) (A) (A) (A) (A)
                 (A) (A) (A) (A) (A) (A) (A) (A) (A) (A) (A) (A)
                 (A) (A) (A) (A) (A) (A) (A) (A) (A) (A) (A) (A)
                 (A) (A) (A) (A) (A) (A) (A) (A) (A) (A) (A) (A)
                 (A) (A) (A) (A) (A) (A) (A) (A) (A) (A) (A) (A)
                 (A) (A) (A) (A) (A) (A) (A) (A) (A) (A) (A) (A)
                 (A) (A) (A) (A) (A) (A) (A) (A) (A) (A) (A) (A)
                 (A) (A) (A) (A) (A) (A) (A) (A) (A) (A) (A) (A)
                 (A) (A) (A) (A) (A) (A) (A) (A) (A) (A) (A) (A)
                 (A) (A) (A) (A) (A) (A) (A) (A) (A) (A) (A) (A)
                 (A) (A) (A) (A) (A) (A) (A) (A) (A) (A) (A) (A)
                 (A) (A) (A) (A) (A) (A) (A) (A) (A) (A) (A) (A)
                 (A) (A) (A) (A) (A) (A) (A) (A) (A) (A) (A) (A)
                 (A) (A) (A) (A) (A) (A) (A) (A) (A) (A) (A) (A)
                 (A) (A) (A) (A) (A) (A) (A) (A) (A) (A) (A) (A)
                 (A) (A) (A) (A) (A) (A) (A) (A) (A) (A) (A) (A)
                 (A) (A) (A) (A) (A) (A) (A) (A) (A) (A) (A) (A)
                 (A) (A) (A) (A) (A) (A) (A) (A) (A) (A) (A) (A)
                 (A) (A) (A) (A) (A) (A) (A) (A) (A) (A) (A) (A)
                 (A) (A) (A) (A) (A) (A) (A) (A) (A) (A) (A) (A)
                 (A) (A) (A) (A) (A) (A) (A) (A) (A) (A) (A) (A)
                 (A) (A) (A) (A) (A) (A) (A) (A) (A) (A) (A) (A)
                 (A) (A) (A) (A) (A) (A) (A) (A) (A) (A) (A) (A)
                 (A) (A) (A) (A) (A) (A) (A) (A) (A) (A) (A) (A)
                 (A) (A) (A) (A) (A) (A) (A) (A) (A) (A) (A) (A)
                 (A) (A) (A) (A) (A) (A) (A) (A) (A) (A) (A) (A)
                 (A) (A) (A) (A) (A) (A) (A) (A) (A) (A) (A) (A)
                 (A) (A) (A) (A) (A) (A) (A) (A) (A) (A) (A) (A)
                 (A) (A) (A) (A) (A) (A) (A) (A) (A) (A) (A) (A)
                 (A) (A) (A) (A) (A) (A) (A) (A) (A) (A) (A) (A)
                 (A) (A) (A) (A) (A) (A) (A) (A) (A) (A) (A) (A)
                 (A) (A) (A) (A) (A) (A) (A) (A) (A) (A) (A) (A)
                 (A) (A) (A) (A) (A) (A) (A) (A) (A) (A) (A) (A)
                 (A) (A) (A) (A) (A) (A) (A) (A) (A) (A) (A) (A)
                 (A) (A) (A) (A) (A) (A) (A) (A) (A) (A) (A) (A)
                 (A) (A) (A) (A) (A) (A) (A) (A) (A) (A) (A) (A)
                 (A) (A) (A) (A) (A) (A) (A) (A) (A) (A) (A) (A)
                 (A) (A) (A) (A) (A) (A) (A) (A) (A) (A) (A) (A)
                 (A) (A) (A) (A) (A) (A) (A) (A) (A) (A) (A) (A)
                 (A) (A) (A) (A) (A) (A) (A) (A) (A) (A) (A) (A)
                 (A) (A) (A) (A) (A) (A) (A) (A) (A) (A) (A) (A)
                 (A) (A) (A) (A) (A) (A) (A) (A) (A) (A) (A) (A)
                 (A) (A) (A) (A) (A) (A) (A) (A) (A) (A) (A) (A)
                 (A) (A) (A) (A) (A) (A) (A) (A) (A) (A) (A) (A)
                 (A) (A) (A) (A) (A) (A) (A) (A) (A) (A) (A) (A)
                 (A) (A) (A) (A) (A) (A) (A) (A) (A) (A) (A) (A)
                 (A) (A) (A) (A) (A) (A) (A) (A) (A) (A) (A) (A)
                 (A) (A) (A) (A) (A) (A) (A) (A) (A) (A) (A) (A)
                 (A) (A) (A) (A) (A) (A) (A) (A) (A) (A) (A) (A)
                 (A) (A) (A) (A) (A) (A) (A) (A) (A) (A) (A) (A)
                 (A) (A) (A) (A) (A) (A) (A) (A) (A) (A) (A) (A)
                 (A) (A) (A) (A) (A) (A) (A) (A) (A) (A) (A) (A)
                 (A) (A) (A) (A) (A) (A) (A) (A) (A) (A) (A) (A)
                 (A) (A) (A) (A) (A) (A) (A) (A) (A) (A) (A) (A)
                 (A) (A) (A) (A) (A) (A) (A) (A) (A) (A) (A) (A)
                 (A) (A) (A) (A) (A) (A) (A) (A) (A) (A) (A) (A)
                 (A) (A) (A) (A) (A) (A) (A) (A) (A) (A) (A) (A)
                 (A) (A) (A) (A) (A) (A) (A) (A) (A) (A) (A) (A)
                 (A) (A) (A) (A) (A) (A) (A) (A) (A) (A) (A) (A)
                 (A) (A) (A) (A) (A) (A) (A) (A) (A) (A) (A) (A)
                 (A) (A) (A) (A) (A) (A) (A) (A) (A) (A) (A) (A)
                 (A) (A) (A) (A) (A) (A) (A) (A) (A) (A) (A) (A)
                 (A) (A) (A) (A) (A) (A) (A) (A) (A) (A) (A) (A)
                 (A) (A) (A) (A) (A) (A) (A) (A) (A) (A) (A) (A)
                 (A) (A) (A) (A) (A) (A) (A) (A) (A) (A) (A) (A)
                 (A) (A) (A) (A) (A) (A) (A) (A) (A) (A) (A) (A)
                 (A) (A) (A) (A) (A) (A) (A) (A) (A) (A) (A) (A)
                 (A) (A) (A) (A) (A) (A) (A) (A) (A) (A) (A) (A)
                 (A)
 The electronic state is 1-A.
 Alpha  occ. eigenvalues --  -77.18979 -77.18958 -10.24196 -10.24063 -10.24016
 Alpha  occ. eigenvalues --  -10.23971 -10.23930 -10.23875 -10.23850 -10.23810
 Alpha  occ. eigenvalues --  -10.23739 -10.23681 -10.23676 -10.23674 -10.23627
 Alpha  occ. eigenvalues --  -10.23624 -10.23566 -10.23541 -10.23539 -10.23529
 Alpha  occ. eigenvalues --  -10.23519 -10.23433 -10.23379 -10.23337 -10.23320
 Alpha  occ. eigenvalues --  -10.22946 -10.22890 -10.22876 -10.22787 -10.22645
 Alpha  occ. eigenvalues --  -10.22369 -10.22280 -10.22183  -6.58671  -6.58614
 Alpha  occ. eigenvalues --   -4.72266  -4.72250  -4.72209  -4.72191  -4.71790
 Alpha  occ. eigenvalues --   -4.71729  -0.91278  -0.88258  -0.88240  -0.87808
 Alpha  occ. eigenvalues --   -0.87411  -0.79853  -0.78639  -0.77184  -0.77163
 Alpha  occ. eigenvalues --   -0.76993  -0.76710  -0.76532  -0.76425  -0.76244
 Alpha  occ. eigenvalues --   -0.74057  -0.72239  -0.66532  -0.64967  -0.62805
 Alpha  occ. eigenvalues --   -0.62605  -0.62215  -0.62172  -0.61624  -0.61376
 Alpha  occ. eigenvalues --   -0.60193  -0.58933  -0.56909  -0.56186  -0.53797
 Alpha  occ. eigenvalues --   -0.53305  -0.52884  -0.52583  -0.51606  -0.50852
 Alpha  occ. eigenvalues --   -0.48188  -0.47058  -0.46988  -0.46912  -0.46653
 Alpha  occ. eigenvalues --   -0.46360  -0.46196  -0.45862  -0.45321  -0.43833
 Alpha  occ. eigenvalues --   -0.43709  -0.43631  -0.43353  -0.43150  -0.42465
 Alpha  occ. eigenvalues --   -0.41500  -0.40860  -0.39625  -0.39204  -0.38836
 Alpha  occ. eigenvalues --   -0.38447  -0.38271  -0.38151  -0.37421  -0.36787
 Alpha  occ. eigenvalues --   -0.36309  -0.36148  -0.35903  -0.35800  -0.35619
 Alpha  occ. eigenvalues --   -0.35439  -0.34217  -0.33286  -0.32932  -0.32418
 Alpha  occ. eigenvalues --   -0.30173  -0.28310  -0.27263  -0.27227  -0.27053
 Alpha  occ. eigenvalues --   -0.26868  -0.26780  -0.26682  -0.26299  -0.25947
 Alpha  occ. eigenvalues --   -0.22399  -0.19093
 Alpha virt. eigenvalues --   -0.03372  -0.02928  -0.01958  -0.01840  -0.01422
 Alpha virt. eigenvalues --   -0.01376  -0.01287  -0.00474   0.00898   0.03959
 Alpha virt. eigenvalues --    0.04598   0.05238   0.05799   0.06176   0.06825
 Alpha virt. eigenvalues --    0.07042   0.07393   0.07881   0.07962   0.08601
 Alpha virt. eigenvalues --    0.08722   0.08978   0.09500   0.09571   0.10018
 Alpha virt. eigenvalues --    0.10316   0.10629   0.10929   0.11129   0.11488
 Alpha virt. eigenvalues --    0.11722   0.11893   0.12024   0.12152   0.12517
 Alpha virt. eigenvalues --    0.13058   0.13183   0.13207   0.13828   0.14048
 Alpha virt. eigenvalues --    0.14169   0.14527   0.14934   0.15450   0.16067
 Alpha virt. eigenvalues --    0.16664   0.16964   0.17320   0.17725   0.18007
 Alpha virt. eigenvalues --    0.18360   0.18517   0.19008   0.19259   0.19479
 Alpha virt. eigenvalues --    0.20079   0.20253   0.21158   0.21245   0.21450
 Alpha virt. eigenvalues --    0.21852   0.22009   0.22311   0.22557   0.22826
 Alpha virt. eigenvalues --    0.23110   0.23287   0.23568   0.23732   0.23979
 Alpha virt. eigenvalues --    0.24117   0.24477   0.24565   0.24784   0.24927
 Alpha virt. eigenvalues --    0.25227   0.25371   0.25720   0.26089   0.26145
 Alpha virt. eigenvalues --    0.26442   0.26794   0.26978   0.27170   0.27764
 Alpha virt. eigenvalues --    0.27994   0.28238   0.28591   0.29049   0.29335
 Alpha virt. eigenvalues --    0.29711   0.29837   0.30338   0.30466   0.30923
 Alpha virt. eigenvalues --    0.31485   0.31749   0.31982   0.32328   0.32756
 Alpha virt. eigenvalues --    0.33326   0.33558   0.33946   0.34133   0.34718
 Alpha virt. eigenvalues --    0.34738   0.35174   0.35318   0.35460   0.35903
 Alpha virt. eigenvalues --    0.36226   0.36434   0.36673   0.36983   0.37399
 Alpha virt. eigenvalues --    0.37659   0.37951   0.38055   0.38397   0.38701
 Alpha virt. eigenvalues --    0.39190   0.39371   0.39579   0.39689   0.39915
 Alpha virt. eigenvalues --    0.40169   0.40610   0.40782   0.40877   0.41179
 Alpha virt. eigenvalues --    0.41458   0.41888   0.42303   0.42552   0.42650
 Alpha virt. eigenvalues --    0.42740   0.43111   0.43351   0.43473   0.43589
 Alpha virt. eigenvalues --    0.43789   0.43885   0.44018   0.44377   0.44816
 Alpha virt. eigenvalues --    0.44878   0.45163   0.45509   0.45964   0.46027
 Alpha virt. eigenvalues --    0.46516   0.46735   0.46897   0.47280   0.47508
 Alpha virt. eigenvalues --    0.47708   0.47990   0.48221   0.48487   0.48703
 Alpha virt. eigenvalues --    0.48839   0.48861   0.49058   0.49432   0.50079
 Alpha virt. eigenvalues --    0.50306   0.50347   0.50567   0.50809   0.51005
 Alpha virt. eigenvalues --    0.51336   0.51710   0.52315   0.52410   0.52639
 Alpha virt. eigenvalues --    0.53019   0.53128   0.53769   0.53847   0.54300
 Alpha virt. eigenvalues --    0.54700   0.55263   0.55573   0.55770   0.55926
 Alpha virt. eigenvalues --    0.56181   0.56968   0.57294   0.57822   0.58395
 Alpha virt. eigenvalues --    0.58631   0.59188   0.59310   0.60313   0.60637
 Alpha virt. eigenvalues --    0.61302   0.61475   0.61620   0.62376   0.62537
 Alpha virt. eigenvalues --    0.63029   0.64403   0.64569   0.65226   0.65338
 Alpha virt. eigenvalues --    0.65910   0.66233   0.66284   0.66882   0.67437
 Alpha virt. eigenvalues --    0.67759   0.68254   0.68499   0.68618   0.68921
 Alpha virt. eigenvalues --    0.69311   0.69584   0.70097   0.70282   0.70464
 Alpha virt. eigenvalues --    0.71273   0.71783   0.72027   0.72253   0.72645
 Alpha virt. eigenvalues --    0.72828   0.73342   0.73681   0.73972   0.74245
 Alpha virt. eigenvalues --    0.74747   0.75275   0.75492   0.75685   0.75745
 Alpha virt. eigenvalues --    0.76164   0.76802   0.77056   0.77447   0.77854
 Alpha virt. eigenvalues --    0.78139   0.78277   0.78486   0.79237   0.79662
 Alpha virt. eigenvalues --    0.79878   0.80228   0.80441   0.80879   0.81152
 Alpha virt. eigenvalues --    0.81707   0.82028   0.82656   0.82785   0.83270
 Alpha virt. eigenvalues --    0.83946   0.84188   0.84287   0.85789   0.85988
 Alpha virt. eigenvalues --    0.86494   0.86887   0.87531   0.88210   0.88432
 Alpha virt. eigenvalues --    0.89017   0.89186   0.89730   0.90080   0.90575
 Alpha virt. eigenvalues --    0.91007   0.91097   0.91306   0.92199   0.92260
 Alpha virt. eigenvalues --    0.92948   0.93157   0.93486   0.93807   0.94538
 Alpha virt. eigenvalues --    0.94597   0.95362   0.95676   0.96180   0.96911
 Alpha virt. eigenvalues --    0.97627   0.97915   0.99238   1.00021   1.00537
 Alpha virt. eigenvalues --    1.00947   1.01998   1.02111   1.02867   1.03173
 Alpha virt. eigenvalues --    1.03580   1.04103   1.04666   1.04929   1.05485
 Alpha virt. eigenvalues --    1.06079   1.06787   1.07133   1.07604   1.08121
 Alpha virt. eigenvalues --    1.08661   1.08855   1.09077   1.09760   1.10517
 Alpha virt. eigenvalues --    1.10779   1.10893   1.11282   1.11827   1.12149
 Alpha virt. eigenvalues --    1.12708   1.13103   1.14179   1.14553   1.15081
 Alpha virt. eigenvalues --    1.15613   1.16206   1.16985   1.17639   1.18154
 Alpha virt. eigenvalues --    1.18401   1.18661   1.19420   1.20133   1.20398
 Alpha virt. eigenvalues --    1.20721   1.20984   1.21298   1.22116   1.22192
 Alpha virt. eigenvalues --    1.22497   1.23077   1.23468   1.23787   1.24097
 Alpha virt. eigenvalues --    1.24301   1.24755   1.25126   1.25170   1.25357
 Alpha virt. eigenvalues --    1.25476   1.26126   1.26400   1.27173   1.27370
 Alpha virt. eigenvalues --    1.27653   1.27955   1.28095   1.28804   1.29029
 Alpha virt. eigenvalues --    1.29296   1.29843   1.30284   1.30562   1.30606
 Alpha virt. eigenvalues --    1.31295   1.31846   1.31977   1.32367   1.32890
 Alpha virt. eigenvalues --    1.33113   1.33554   1.33887   1.34371   1.34588
 Alpha virt. eigenvalues --    1.35282   1.35642   1.36137   1.37103   1.37527
 Alpha virt. eigenvalues --    1.38305   1.38704   1.39728   1.40494   1.41229
 Alpha virt. eigenvalues --    1.41779   1.42156   1.42493   1.43034   1.43603
 Alpha virt. eigenvalues --    1.44222   1.44660   1.44888   1.45447   1.46317
 Alpha virt. eigenvalues --    1.46601   1.46692   1.47258   1.47632   1.47811
 Alpha virt. eigenvalues --    1.48626   1.49218   1.49641   1.50255   1.50580
 Alpha virt. eigenvalues --    1.50938   1.51373   1.52225   1.52788   1.53006
 Alpha virt. eigenvalues --    1.53299   1.53537   1.53945   1.54482   1.55092
 Alpha virt. eigenvalues --    1.55532   1.56126   1.56710   1.57198   1.57382
 Alpha virt. eigenvalues --    1.57802   1.58369   1.58569   1.58786   1.59796
 Alpha virt. eigenvalues --    1.59941   1.60165   1.61133   1.61786   1.62246
 Alpha virt. eigenvalues --    1.62537   1.63026   1.63550   1.63793   1.63981
 Alpha virt. eigenvalues --    1.64668   1.65442   1.65855   1.66101   1.66441
 Alpha virt. eigenvalues --    1.66721   1.67560   1.68028   1.68227   1.68657
 Alpha virt. eigenvalues --    1.68952   1.69482   1.70167   1.70433   1.70753
 Alpha virt. eigenvalues --    1.71055   1.71121   1.71290   1.71569   1.71703
 Alpha virt. eigenvalues --    1.72290   1.72580   1.72625   1.73121   1.73440
 Alpha virt. eigenvalues --    1.73709   1.74239   1.74693   1.74905   1.75150
 Alpha virt. eigenvalues --    1.75920   1.76324   1.76649   1.77505   1.77668
 Alpha virt. eigenvalues --    1.78175   1.78728   1.79490   1.80504   1.81301
 Alpha virt. eigenvalues --    1.81695   1.82293   1.82814   1.83184   1.83372
 Alpha virt. eigenvalues --    1.83768   1.84223   1.85612   1.86097   1.86493
 Alpha virt. eigenvalues --    1.87013   1.87380   1.87715   1.88605   1.88714
 Alpha virt. eigenvalues --    1.89465   1.90282   1.91075   1.91190   1.92599
 Alpha virt. eigenvalues --    1.92789   1.93660   1.94093   1.94958   1.95274
 Alpha virt. eigenvalues --    1.95834   1.96044   1.96459   1.97310   1.98266
 Alpha virt. eigenvalues --    1.99280   2.00661   2.01285   2.02137   2.02444
 Alpha virt. eigenvalues --    2.03563   2.04007   2.04227   2.04456   2.04711
 Alpha virt. eigenvalues --    2.05000   2.05720   2.06707   2.07411   2.07719
 Alpha virt. eigenvalues --    2.08242   2.08512   2.08855   2.09473   2.09995
 Alpha virt. eigenvalues --    2.10153   2.10343   2.10949   2.11410   2.12166
 Alpha virt. eigenvalues --    2.12500   2.13212   2.13242   2.13497   2.14295
 Alpha virt. eigenvalues --    2.14831   2.15125   2.15845   2.16017   2.16668
 Alpha virt. eigenvalues --    2.17558   2.17993   2.18656   2.19038   2.19102
 Alpha virt. eigenvalues --    2.19632   2.20216   2.20610   2.21087   2.21557
 Alpha virt. eigenvalues --    2.21915   2.22560   2.24106   2.24226   2.25035
 Alpha virt. eigenvalues --    2.25182   2.26433   2.26881   2.27626   2.27913
 Alpha virt. eigenvalues --    2.28819   2.29807   2.30184   2.30949   2.31528
 Alpha virt. eigenvalues --    2.33046   2.33250   2.34925   2.36733   2.36976
 Alpha virt. eigenvalues --    2.37591   2.38764   2.39866   2.40458   2.40942
 Alpha virt. eigenvalues --    2.41779   2.42092   2.42327   2.42801   2.43519
 Alpha virt. eigenvalues --    2.44078   2.44387   2.45186   2.46053   2.46368
 Alpha virt. eigenvalues --    2.46617   2.46836   2.47141   2.48523   2.49472
 Alpha virt. eigenvalues --    2.50349   2.50726   2.51285   2.51913   2.52914
 Alpha virt. eigenvalues --    2.53586   2.54466   2.54864   2.55529   2.55669
 Alpha virt. eigenvalues --    2.55868   2.56356   2.56755   2.57610   2.57647
 Alpha virt. eigenvalues --    2.57901   2.59756   2.60250   2.60610   2.60886
 Alpha virt. eigenvalues --    2.61650   2.61823   2.61999   2.62497   2.63113
 Alpha virt. eigenvalues --    2.63572   2.63890   2.64108   2.64452   2.64577
 Alpha virt. eigenvalues --    2.64848   2.65013   2.65577   2.65699   2.65907
 Alpha virt. eigenvalues --    2.66141   2.66461   2.66713   2.66950   2.67317
 Alpha virt. eigenvalues --    2.67561   2.67971   2.68164   2.69014   2.69145
 Alpha virt. eigenvalues --    2.69382   2.70140   2.70318   2.71017   2.71283
 Alpha virt. eigenvalues --    2.71672   2.71739   2.72137   2.72458   2.72830
 Alpha virt. eigenvalues --    2.73195   2.73428   2.73752   2.74165   2.74396
 Alpha virt. eigenvalues --    2.74612   2.75801   2.76117   2.76349   2.76729
 Alpha virt. eigenvalues --    2.77493   2.77808   2.77955   2.78262   2.78443
 Alpha virt. eigenvalues --    2.78853   2.79077   2.79198   2.79441   2.79688
 Alpha virt. eigenvalues --    2.79980   2.80441   2.80505   2.81085   2.81641
 Alpha virt. eigenvalues --    2.81735   2.82472   2.82721   2.83317   2.84087
 Alpha virt. eigenvalues --    2.84203   2.84388   2.85036   2.85260   2.85478
 Alpha virt. eigenvalues --    2.86244   2.86535   2.86869   2.87239   2.87310
 Alpha virt. eigenvalues --    2.87783   2.88141   2.88734   2.88838   2.89252
 Alpha virt. eigenvalues --    2.89798   2.89932   2.90716   2.91466   2.91697
 Alpha virt. eigenvalues --    2.92038   2.92367   2.93167   2.93274   2.93939
 Alpha virt. eigenvalues --    2.94238   2.94398   2.95219   2.96042   2.97021
 Alpha virt. eigenvalues --    2.97071   2.97559   2.98148   2.98784   2.99170
 Alpha virt. eigenvalues --    3.00316   3.00641   3.01459   3.01826   3.03056
 Alpha virt. eigenvalues --    3.03878   3.04565   3.05342   3.05771   3.06369
 Alpha virt. eigenvalues --    3.06970   3.07835   3.08107   3.09295   3.09371
 Alpha virt. eigenvalues --    3.10291   3.10709   3.11392   3.11722   3.11861
 Alpha virt. eigenvalues --    3.12477   3.13055   3.13188   3.13504   3.13655
 Alpha virt. eigenvalues --    3.13871   3.14084   3.14616   3.14764   3.15607
 Alpha virt. eigenvalues --    3.15875   3.16075   3.16315   3.16629   3.17020
 Alpha virt. eigenvalues --    3.17136   3.17680   3.17879   3.18382   3.18565
 Alpha virt. eigenvalues --    3.18835   3.19357   3.19758   3.20641   3.21093
 Alpha virt. eigenvalues --    3.21337   3.21694   3.22302   3.22575   3.22808
 Alpha virt. eigenvalues --    3.23869   3.24164   3.24765   3.25249   3.25342
 Alpha virt. eigenvalues --    3.25554   3.26237   3.26627   3.26875   3.27509
 Alpha virt. eigenvalues --    3.27932   3.28820   3.28980   3.29292   3.30082
 Alpha virt. eigenvalues --    3.30193   3.30908   3.31263   3.31638   3.31714
 Alpha virt. eigenvalues --    3.32687   3.32912   3.33457   3.33681   3.33957
 Alpha virt. eigenvalues --    3.34248   3.34986   3.35172   3.35853   3.36193
 Alpha virt. eigenvalues --    3.36475   3.36951   3.37194   3.37476   3.37623
 Alpha virt. eigenvalues --    3.38336   3.38581   3.38955   3.39230   3.39738
 Alpha virt. eigenvalues --    3.39894   3.40394   3.40517   3.40710   3.41077
 Alpha virt. eigenvalues --    3.41162   3.42369   3.42507   3.42656   3.43093
 Alpha virt. eigenvalues --    3.43301   3.43580   3.43707   3.43933   3.44553
 Alpha virt. eigenvalues --    3.45679   3.45915   3.46412   3.46700   3.47142
 Alpha virt. eigenvalues --    3.47927   3.48404   3.48856   3.49024   3.49183
 Alpha virt. eigenvalues --    3.49614   3.50122   3.50603   3.51002   3.51660
 Alpha virt. eigenvalues --    3.51986   3.52129   3.52501   3.52576   3.52852
 Alpha virt. eigenvalues --    3.53298   3.53417   3.53655   3.53976   3.54354
 Alpha virt. eigenvalues --    3.54892   3.55293   3.55671   3.56279   3.56703
 Alpha virt. eigenvalues --    3.57489   3.57639   3.58098   3.58910   3.59942
 Alpha virt. eigenvalues --    3.60357   3.60648   3.61081   3.62537   3.62969
 Alpha virt. eigenvalues --    3.63904   3.64877   3.65900   3.67878   3.68239
 Alpha virt. eigenvalues --    3.69317   3.69792   3.70206   3.70527   3.71100
 Alpha virt. eigenvalues --    3.71290   3.71493   3.71876   3.72214   3.73832
 Alpha virt. eigenvalues --    3.74468   3.75215   3.75719   3.76374   3.76840
 Alpha virt. eigenvalues --    3.77063   3.77363   3.78424   3.79732   3.80028
 Alpha virt. eigenvalues --    3.82069   3.83190   3.84868   3.86174   3.86497
 Alpha virt. eigenvalues --    3.86683   3.88380   3.89189   3.89233   3.91628
 Alpha virt. eigenvalues --    3.91918   3.91991   3.94208   3.94422   3.94678
 Alpha virt. eigenvalues --    3.94702   3.95357   3.95870   3.96792   4.00280
 Alpha virt. eigenvalues --    4.01119   4.01847   4.02556   4.02700   4.03326
 Alpha virt. eigenvalues --    4.03943   4.04467   4.05003   4.05537   4.06308
 Alpha virt. eigenvalues --    4.06955   4.07060   4.08358   4.08894   4.10094
 Alpha virt. eigenvalues --    4.11431   4.12111   4.12410   4.12621   4.13135
 Alpha virt. eigenvalues --    4.13482   4.13716   4.14340   4.15626   4.16094
 Alpha virt. eigenvalues --    4.16838   4.18558   4.19320   4.19461   4.19836
 Alpha virt. eigenvalues --    4.19889   4.20048   4.20353   4.20555   4.20592
 Alpha virt. eigenvalues --    4.21120   4.21326   4.21728   4.21955   4.22147
 Alpha virt. eigenvalues --    4.22374   4.22744   4.23196   4.24133   4.24400
 Alpha virt. eigenvalues --    4.24888   4.25021   4.25423   4.26266   4.26401
 Alpha virt. eigenvalues --    4.26711   4.26844   4.27298   4.27500   4.28273
 Alpha virt. eigenvalues --    4.28781   4.29489   4.30647   4.31147   4.31599
 Alpha virt. eigenvalues --    4.32274   4.33325   4.34103   4.34831   4.35197
 Alpha virt. eigenvalues --    4.35640   4.36276   4.38252   4.39514   4.40832
 Alpha virt. eigenvalues --    4.40907   4.41758   4.44232   4.46965   4.48823
 Alpha virt. eigenvalues --    4.52120   4.53325   4.55780   4.59716   4.60928
 Alpha virt. eigenvalues --    4.61482   4.61854   4.61907   4.62547   4.63104
 Alpha virt. eigenvalues --    4.63380   4.63776   4.64273   4.65399   4.65629
 Alpha virt. eigenvalues --    4.66050   4.66457   4.70109   4.71145   4.71516
 Alpha virt. eigenvalues --    4.72141   4.72543   4.73424   4.74821   4.75542
 Alpha virt. eigenvalues --    4.75887   4.84251   4.84515   4.84768   4.85166
 Alpha virt. eigenvalues --    4.86242   4.89602   4.91287   4.91804   4.92476
 Alpha virt. eigenvalues --    4.92530   4.93745   4.94273   4.95193   4.95796
 Alpha virt. eigenvalues --    4.96327   5.01532   5.03377   5.06138   5.09573
 Alpha virt. eigenvalues --    5.12684   5.12945   5.13169   5.13383   5.13523
 Alpha virt. eigenvalues --    5.14064   5.14573   5.14952   5.15058   5.19786
 Alpha virt. eigenvalues --    5.21774   5.26044   5.26255   5.26707   5.27366
 Alpha virt. eigenvalues --    5.33564   5.33830   5.34843   5.36314   5.39175
 Alpha virt. eigenvalues --    5.40444   5.42170   5.43018   5.57658   5.58198
 Alpha virt. eigenvalues --    5.58491   5.59417   7.74056   7.74806   7.98163
 Alpha virt. eigenvalues --    8.04686   8.05945   8.09134  15.90976  15.96060
 Alpha virt. eigenvalues --   22.10390  22.10708  22.15311  22.16100  22.41514
 Alpha virt. eigenvalues --   22.57349  22.60843  22.61327  22.61821  22.62013
 Alpha virt. eigenvalues --   22.62682  22.63148  22.63275  22.63882  22.68642
 Alpha virt. eigenvalues --   22.72772  22.73057  22.74582  22.76336  22.78316
 Alpha virt. eigenvalues --   22.79593  22.80576  22.81701  22.84123  22.89453
 Alpha virt. eigenvalues --   22.92476  22.98436  23.12321  23.12705  23.15308
 Alpha virt. eigenvalues --   23.16555
          Condensed to atoms (all electrons):
 Mulliken charges:
               1
     1  P    0.024626
     2  C    0.155871
     3  C   -0.190234
     4  C   -0.122149
     5  C   -0.112195
     6  C   -0.127999
     7  C   -0.210379
     8  H    0.115033
     9  H    0.118163
    10  H    0.119157
    11  H    0.120502
    12  H    0.146103
    13  C    0.138926
    14  C   -0.185534
    15  C   -0.148736
    16  C   -0.110648
    17  C   -0.111337
    18  C   -0.211292
    19  H    0.129604
    20  H    0.119646
    21  H    0.120390
    22  H    0.117404
    23  H    0.142287
    24  C   -0.277786
    25  C    0.107442
    26  C   -0.205715
    27  C   -0.230185
    28  H    0.117041
    29  C    0.060167
    30  H    0.128816
    31  C   -0.246293
    32  H    0.133775
    33  H    0.102534
    34  C   -0.219920
    35  P    0.079508
    36  C    0.016755
    37  C   -0.159937
    38  C   -0.121037
    39  C   -0.104269
    40  C   -0.112763
    41  C   -0.170310
    42  H    0.134053
    43  H    0.119261
    44  H    0.120747
    45  H    0.120341
    46  H    0.138182
    47  C    0.157967
    48  C   -0.208927
    49  C   -0.145427
    50  C   -0.122390
    51  C   -0.115626
    52  C   -0.209414
    53  H    0.126750
    54  H    0.116175
    55  H    0.115286
    56  H    0.114100
    57  H    0.129164
    58  H    0.120850
    59  H    0.119720
    60  H    0.101352
    61  H    0.132801
 Sum of Mulliken charges =  -0.00000
 Mulliken charges with hydrogens summed into heavy atoms:
               1
     1  P    0.024626
     2  C    0.155871
     3  C   -0.044130
     4  C   -0.001647
     5  C    0.006961
     6  C   -0.009836
     7  C   -0.095345
    13  C    0.138926
    14  C   -0.043248
    15  C   -0.031332
    16  C    0.009742
    17  C    0.008309
    18  C   -0.081688
    24  C   -0.144985
    25  C    0.208794
    26  C   -0.085995
    27  C   -0.113144
    29  C    0.188983
    31  C   -0.009983
    34  C   -0.099070
    35  P    0.079508
    36  C    0.016755
    37  C   -0.021755
    38  C   -0.000696
    39  C    0.016478
    40  C    0.006498
    41  C   -0.036257
    47  C    0.157967
    48  C   -0.079762
    49  C   -0.031327
    50  C   -0.007105
    51  C    0.000549
    52  C   -0.082664
 Electronic spatial extent (au):  <R**2>=          15028.9739
 Charge=              0.0000 electrons
 Dipole moment (field-independent basis, Debye):
    X=              0.5932    Y=              0.6676    Z=              1.7846  Tot=              1.9956
 Quadrupole moment (field-independent basis, Debye-Ang):
   XX=           -194.9044   YY=           -188.1079   ZZ=           -208.6821
   XY=              2.4321   XZ=              1.9047   YZ=             -2.8471
 Traceless Quadrupole moment (field-independent basis, Debye-Ang):
   XX=              2.3271   YY=              9.1236   ZZ=            -11.4506
   XY=              2.4321   XZ=              1.9047   YZ=             -2.8471
 Octapole moment (field-independent basis, Debye-Ang**2):
  XXX=              2.2423  YYY=             -9.1159  ZZZ=             -9.0007  XYY=              9.5655
  XXY=             18.5628  XXZ=             25.2379  XZZ=              5.7324  YZZ=             26.4856
  YYZ=             -3.7791  XYZ=            -21.1108
 Hexadecapole moment (field-independent basis, Debye-Ang**3):
 XXXX=         -11338.7078 YYYY=          -6331.1405 ZZZZ=          -2622.0755 XXXY=            276.0688
 XXXZ=            244.2199 YYYX=           -108.9195 YYYZ=            -13.4297 ZZZX=            -46.5535
 ZZZY=            -30.5353 XXYY=          -2777.7228 XXZZ=          -2309.0824 YYZZ=          -1564.9326
 XXYZ=            -34.4775 YYXZ=            -89.0527 ZZXY=             28.8184
 N-N= 3.617879049834D+03 E-N=-1.163756109938D+04  KE= 1.871087885642D+03
 1\1\GINC-NC255\SP\RPBE1PBE\def2TZVP\C31H28P2\MACKK4\05-Dec-2021\0\\# P
 BE1PBE/def2TZVP int=(grid=ultrafine) empiricaldispersion=GD3BJ nmr=gia
 o\\RR_NorPhos_2 title\\0,1\P,0,-1.6237586781,0.0205740054,-0.016697702
 1\C,0,-2.4172988131,1.662776569,0.1383955062\C,0,-1.7976255493,2.74633
 70897,-0.5148846032\C,0,-2.3043014718,4.04309057,-0.3565702836\C,0,-3.
 4384782602,4.2619302329,0.4374138415\C,0,-4.0753626464,3.1804320059,1.
 0655721418\C,0,-3.5697310007,1.883114487,0.9172757787\H,0,-4.084287140
 5,1.0416535105,1.3908808719\H,0,-4.9755792537,3.3466027547,1.666415797
 7\H,0,-3.8394348964,5.2740539142,0.5537225099\H,0,-1.8210276008,4.8798
 38148,-0.8708947942\H,0,-0.9383434742,2.5527190818,-1.1680014556\C,0,-
 2.9230493124,-1.2706095082,-0.0054353377\C,0,-3.6323158807,-1.57348781
 45,1.1774693135\C,0,-4.6082533251,-2.5779421414,1.17745484\C,0,-4.8793
 349375,-3.2931037039,0.0019964472\C,0,-4.1730654902,-2.9994633875,-1.1
 724699938\C,0,-3.1971834546,-1.9937384551,-1.1828693251\H,0,-2.6558001
 063,-1.7443054478,-2.1017327877\H,0,-4.3807702641,-3.5543483486,-2.092
 9677052\H,0,-5.64030316,-4.0803626945,0.0042367018\H,0,-5.1535241977,-
 2.8044255997,2.0995492503\H,0,-3.4261431781,-1.029359906,2.1033055744\
 C,0,-0.6269047346,-0.2659272363,1.5320078314\C,0,-0.992417109,-0.15454
 5881,3.056022927\C,0,-1.1909287823,1.307613646,3.4327481967\C,0,0.0180
 444943,1.9085601595,3.3911879596\H,0,0.2316530688,2.9756331916,3.49908
 71526\C,0,1.0347157501,0.8609180976,2.9339767952\H,0,2.0969977643,1.08
 71601575,3.1031585604\C,0,0.4436151779,-0.3970602408,3.6112879714\H,0,
 0.896311658,-1.343153718,3.2678439864\H,0,0.4828710604,-0.335634992,4.
 7108384159\C,0,0.617054899,0.6620635004,1.4271080092\P,0,1.6225392724,
 0.0034221261,0.0164260045\C,0,2.2812447735,-1.6222571896,0.5217547724\
 C,0,1.7504061207,-2.7827674015,-0.0723934678\C,0,2.178879602,-4.045642
 133,0.3594404281\C,0,3.1364001551,-4.1518613938,1.3779679398\C,0,3.676
 7030233,-2.995224045,1.9630401157\C,0,3.2552847042,-1.7304001068,1.535
 4547396\H,0,3.687576907,-0.826652763,1.978172313\H,0,4.4326500413,-3.0
 798078128,2.7505350431\H,0,3.4719751965,-5.138836557,1.7125022801\H,0,
 1.769654514,-4.9466557222,-0.1083144689\H,0,1.0200705855,-2.6765083859
 ,-0.8829723288\C,0,3.0713688146,1.09956375,-0.1372947511\C,0,3.0855695
 262,2.378145032,0.454907726\C,0,4.2064251901,3.2064234304,0.3107203312
 \C,0,5.3150133308,2.7670627761,-0.42583783\C,0,5.3007271631,1.49759959
 6,-1.0228602962\C,0,4.1852275914,0.6642774287,-0.885261988\H,0,4.16106
 28887,-0.3133813667,-1.3734572868\H,0,6.1598127524,1.1561555438,-1.608
 8643936\H,0,6.1886739214,3.416814364,-0.5397282757\H,0,4.2107038993,4.
 1978748437,0.7750769201\H,0,2.2250925707,2.7357394324,1.0283150397\H,0
 ,0.2944959867,1.6452751559,1.0309999176\H,0,-2.1592159674,1.7849239692
 ,3.5976748835\H,0,-1.7628680706,-0.8653564032,3.3854152411\H,0,-0.3061
 779087,-1.316299257,1.3786807967\\Version=ES64L-G09RevE.01\State=1-A\H
 F=-1879.6328788\RMSD=6.187e-09\Dipole=-0.2128446,-0.2671762,0.7069192\
 Quadrupole=1.5250977,7.0009801,-8.5260778,1.5325368,-1.6325581,1.86138
 27\PG=C01 [X(C31H28P2)]\\@


 IF YOU WISH TO UNDERSTAND THE FRAGRANCE OF THE ROSE, 
 OR THE TENACITY OF THE OAK; 
 IF YOU ARE NOT SATISFIED UNTIL YOU KNOW THE SECRET PATHS 
 BY WHICH THE SUNSHINE AND THE AIR ACHIEVE THESE WONDERS; 
 IF YOU WISH TO SEE THE PATTERN WHICH UNDERLIES ONE LARGE FIELD OF 
 HUMAN EXPERIENCE AND HUMAN MEASUREMENT, THEN TAKE UP CHEMISTRY.

                                         -- C. A. COULSON, 1973.
 Job cpu time:       0 days 13 hours 39 minutes 29.6 seconds.
 File lengths (MBytes):  RWF=    843 Int=      0 D2E=      0 Chk=    112 Scr=      1
 Normal termination of Gaussian 09 at Sun Dec  5 03:09:00 2021.
 Initial command:
 /gstore/apps/gaussian/g09.e01-foss-2017a/g09/l1.exe "/local/22791352/Gau-12190.inp" -scrdir="/local/22791352/"
 Entering Link 1 = /gstore/apps/gaussian/g09.e01-foss-2017a/g09/l1.exe PID=     31514.
  
 Copyright (c) 1988,1990,1992,1993,1995,1998,2003,2009,2015,
            Gaussian, Inc.  All Rights Reserved.
  
 This is part of the Gaussian(R) 09 program.  It is based on
 the Gaussian(R) 03 system (copyright 2003, Gaussian, Inc.),
 the Gaussian(R) 98 system (copyright 1998, Gaussian, Inc.),
 the Gaussian(R) 94 system (copyright 1995, Gaussian, Inc.),
 the Gaussian 92(TM) system (copyright 1992, Gaussian, Inc.),
 the Gaussian 90(TM) system (copyright 1990, Gaussian, Inc.),
 the Gaussian 88(TM) system (copyright 1988, Gaussian, Inc.),
 the Gaussian 86(TM) system (copyright 1986, Carnegie Mellon
 University), and the Gaussian 82(TM) system (copyright 1983,
 Carnegie Mellon University). Gaussian is a federally registered
 trademark of Gaussian, Inc.
  
 This software contains proprietary and confidential information,
 including trade secrets, belonging to Gaussian, Inc.
  
 This software is provided under written license and may be
 used, copied, transmitted, or stored only in accord with that
 written license.
  
 The following legend is applicable only to US Government
 contracts under FAR:
  
                    RESTRICTED RIGHTS LEGEND
  
 Use, reproduction and disclosure by the US Government is
 subject to restrictions as set forth in subparagraphs (a)
 and (c) of the Commercial Computer Software - Restricted
 Rights clause in FAR 52.227-19.
  
 Gaussian, Inc.
 340 Quinnipiac St., Bldg. 40, Wallingford CT 06492
  
  
 ---------------------------------------------------------------
 Warning -- This program may not be used in any manner that
 competes with the business of Gaussian, Inc. or will provide
 assistance to any competitor of Gaussian, Inc.  The licensee
 of this program is prohibited from giving any competitor of
 Gaussian, Inc. access to this program.  By using this program,
 the user acknowledges that Gaussian, Inc. is engaged in the
 business of creating and licensing software in the field of
 computational chemistry and represents and warrants to the
 licensee that it is not a competitor of Gaussian, Inc. and that
 it will not use this program in any manner prohibited above.
 ---------------------------------------------------------------
  

 Cite this work as:
 Gaussian 09, Revision E.01,
 M. J. Frisch, G. W. Trucks, H. B. Schlegel, G. E. Scuseria, 
 M. A. Robb, J. R. Cheeseman, G. Scalmani, V. Barone, B. Mennucci, 
 G. A. Petersson, H. Nakatsuji, M. Caricato, X. Li, H. P. Hratchian, 
 A. F. Izmaylov, J. Bloino, G. Zheng, J. L. Sonnenberg, M. Hada, 
 M. Ehara, K. Toyota, R. Fukuda, J. Hasegawa, M. Ishida, T. Nakajima, 
 Y. Honda, O. Kitao, H. Nakai, T. Vreven, J. A. Montgomery, Jr., 
 J. E. Peralta, F. Ogliaro, M. Bearpark, J. J. Heyd, E. Brothers, 
 K. N. Kudin, V. N. Staroverov, T. Keith, R. Kobayashi, J. Normand, 
 K. Raghavachari, A. Rendell, J. C. Burant, S. S. Iyengar, J. Tomasi, 
 M. Cossi, N. Rega, J. M. Millam, M. Klene, J. E. Knox, J. B. Cross, 
 V. Bakken, C. Adamo, J. Jaramillo, R. Gomperts, R. E. Stratmann, 
 O. Yazyev, A. J. Austin, R. Cammi, C. Pomelli, J. W. Ochterski, 
 R. L. Martin, K. Morokuma, V. G. Zakrzewski, G. A. Voth, 
 P. Salvador, J. J. Dannenberg, S. Dapprich, A. D. Daniels, 
 O. Farkas, J. B. Foresman, J. V. Ortiz, J. Cioslowski, 
 and D. J. Fox, Gaussian, Inc., Wallingford CT, 2013.
 
 ******************************************
 Gaussian 09:  ES64L-G09RevE.01 30-Nov-2015
                 5-Dec-2021 
 ******************************************
 %nprocs=14
 Will use up to   14 processors via shared memory.
 %mem=128GB
 %chk=RR_NorPhos_2_SPE_NoPd.chk
 ----------------------------------------------------------------------
 # PBE1PBE/def2TZVP int=(grid=ultrafine) empiricaldispersion=GD3BJ pop=
 nbo guess=read geom=check
 ----------------------------------------------------------------------
 1/29=2,38=1/1;
 2/12=2,40=1/2;
 3/5=44,7=101,11=2,14=-4,16=1,25=1,30=1,74=-13,75=-5,116=-2,124=41/1,2,3;
 4/5=1/1;
 5/5=2,38=6/2;
 6/7=2,8=2,9=2,10=2,28=1,40=1/1,7;
 99/5=1,9=1/99;
 ------------------
 RR_NorPhos_2 title
 ------------------
 Structure from the checkpoint file:  "RR_NorPhos_2_SPE_NoPd.chk"
 Charge =  0 Multiplicity = 1
 Z-Matrix found in file.
 P,0,-1.6237586781,0.0205740054,-0.0166977021
 C,0,-2.4172988131,1.662776569,0.1383955062
 C,0,-1.7976255493,2.7463370897,-0.5148846032
 C,0,-2.3043014718,4.04309057,-0.3565702836
 C,0,-3.4384782602,4.2619302329,0.4374138415
 C,0,-4.0753626464,3.1804320059,1.0655721418
 C,0,-3.5697310007,1.883114487,0.9172757787
 H,0,-4.0842871405,1.0416535105,1.3908808719
 H,0,-4.9755792537,3.3466027547,1.6664157977
 H,0,-3.8394348964,5.2740539142,0.5537225099
 H,0,-1.8210276008,4.879838148,-0.8708947942
 H,0,-0.9383434742,2.5527190818,-1.1680014556
 C,0,-2.9230493124,-1.2706095082,-0.0054353377
 C,0,-3.6323158807,-1.5734878145,1.1774693135
 C,0,-4.6082533251,-2.5779421414,1.17745484
 C,0,-4.8793349375,-3.2931037039,0.0019964472
 C,0,-4.1730654902,-2.9994633875,-1.1724699938
 C,0,-3.1971834546,-1.9937384551,-1.1828693251
 H,0,-2.6558001063,-1.7443054478,-2.1017327877
 H,0,-4.3807702641,-3.5543483486,-2.0929677052
 H,0,-5.64030316,-4.0803626945,0.0042367018
 H,0,-5.1535241977,-2.8044255997,2.0995492503
 H,0,-3.4261431781,-1.029359906,2.1033055744
 C,0,-0.6269047346,-0.2659272363,1.5320078314
 C,0,-0.992417109,-0.154545881,3.056022927
 C,0,-1.1909287823,1.307613646,3.4327481967
 C,0,0.0180444943,1.9085601595,3.3911879596
 H,0,0.2316530688,2.9756331916,3.4990871526
 C,0,1.0347157501,0.8609180976,2.9339767952
 H,0,2.0969977643,1.0871601575,3.1031585604
 C,0,0.4436151779,-0.3970602408,3.6112879714
 H,0,0.896311658,-1.343153718,3.2678439864
 H,0,0.4828710604,-0.335634992,4.7108384159
 C,0,0.617054899,0.6620635004,1.4271080092
 P,0,1.6225392724,0.0034221261,0.0164260045
 C,0,2.2812447735,-1.6222571896,0.5217547724
 C,0,1.7504061207,-2.7827674015,-0.0723934678
 C,0,2.178879602,-4.045642133,0.3594404281
 C,0,3.1364001551,-4.1518613938,1.3779679398
 C,0,3.6767030233,-2.995224045,1.9630401157
 C,0,3.2552847042,-1.7304001068,1.5354547396
 H,0,3.687576907,-0.826652763,1.978172313
 H,0,4.4326500413,-3.0798078128,2.7505350431
 H,0,3.4719751965,-5.138836557,1.7125022801
 H,0,1.769654514,-4.9466557222,-0.1083144689
 H,0,1.0200705855,-2.6765083859,-0.8829723288
 C,0,3.0713688146,1.09956375,-0.1372947511
 C,0,3.0855695262,2.378145032,0.454907726
 C,0,4.2064251901,3.2064234304,0.3107203312
 C,0,5.3150133308,2.7670627761,-0.42583783
 C,0,5.3007271631,1.497599596,-1.0228602962
 C,0,4.1852275914,0.6642774287,-0.885261988
 H,0,4.1610628887,-0.3133813667,-1.3734572868
 H,0,6.1598127524,1.1561555438,-1.6088643936
 H,0,6.1886739214,3.416814364,-0.5397282757
 H,0,4.2107038993,4.1978748437,0.7750769201
 H,0,2.2250925707,2.7357394324,1.0283150397
 H,0,0.2944959867,1.6452751559,1.0309999176
 H,0,-2.1592159674,1.7849239692,3.5976748835
 H,0,-1.7628680706,-0.8653564032,3.3854152411
 H,0,-0.3061779087,-1.316299257,1.3786807967
 Recover connectivity data from disk.
 Stoichiometry    C31H28P2
 Framework group  C1[X(C31H28P2)]
 Deg. of freedom   177
 Full point group                 C1      NOp   1
 Largest Abelian subgroup         C1      NOp   1
 Largest concise Abelian subgroup C1      NOp   1
                         Standard orientation:                         
 ---------------------------------------------------------------------
 Center     Atomic      Atomic             Coordinates (Angstroms)
 Number     Number       Type             X           Y           Z
 ---------------------------------------------------------------------
      1         15           0        1.610696   -0.047929   -0.767597
      2          6           0        2.317943   -1.728127   -0.602298
      3          6           0        1.635767   -2.783955   -1.238487
      4          6           0        2.074817   -4.104011   -1.071039
      5          6           0        3.203394   -4.374470   -0.285021
      6          6           0        3.902409   -3.321865    0.325916
      7          6           0        3.464527   -2.001199    0.168469
      8          1           0        4.027251   -1.183376    0.628505
      9          1           0        4.798297   -3.529313    0.920360
     10          1           0        3.551491   -5.405146   -0.161632
     11          1           0        1.543190   -4.919191   -1.572122
     12          1           0        0.781703   -2.551789   -1.885858
     13          6           0        2.976339    1.172832   -0.781672
     14          6           0        3.711850    1.449712    0.391537
     15          6           0        4.739372    2.401134    0.372126
     16          6           0        5.036576    3.089085   -0.813217
     17          6           0        4.304625    2.821356   -1.978113
     18          6           0        3.276992    1.868557   -1.969102
     19          1           0        2.714462    1.638834   -2.880370
     20          1           0        4.532521    3.355181   -2.906256
     21          1           0        5.838001    3.835010   -0.826144
     22          1           0        5.304605    2.607768    1.286833
     23          1           0        3.486103    0.926601    1.324891
     24          6           0        0.645166    0.306452    0.786899
     25          6           0        1.018818    0.191278    2.308656
     26          6           0        1.143505   -1.275457    2.699015
     27          6           0       -0.095828   -1.812060    2.674687
     28          1           0       -0.364391   -2.865211    2.795776
     29          6           0       -1.060133   -0.716814    2.215591
     30          1           0       -2.131208   -0.884883    2.396704
     31          6           0       -0.397058    0.514931    2.874223
     32          1           0       -0.802471    1.480116    2.524883
     33          1           0       -0.429007    0.466753    3.974669
     34          6           0       -0.646960   -0.555511    0.703008
     35         15           0       -1.629713    0.141095   -0.705455
     36          6           0       -2.196890    1.804326   -0.211433
     37          6           0       -1.611264    2.929111   -0.822566
     38          6           0       -1.968380    4.217155   -0.400269
     39          6           0       -2.909202    4.384091    0.625652
     40          6           0       -3.504162    3.263581    1.227754
     41          6           0       -3.154153    1.974007    0.809788
     42          1           0       -3.629275    1.098878    1.265905
     43          1           0       -4.247046    3.395932    2.021079
     44          1           0       -3.189037    5.390744    0.952740
     45          1           0       -1.516675    5.090521   -0.881184
     46          1           0       -0.895318    2.776238   -1.638514
     47          6           0       -3.135751   -0.878440   -0.834541
     48          6           0       -3.211730   -2.148449   -0.228753
     49          6           0       -4.376044   -2.917745   -0.354088
     50          6           0       -5.466888   -2.427858   -1.085247
     51          6           0       -5.391350   -1.167007   -1.695759
     52          6           0       -4.232182   -0.392458   -1.577017
     53          1           0       -4.161135    0.577587   -2.075717
     54          1           0       -6.236780   -0.786563   -2.277588
     55          1           0       -6.374655   -3.031645   -1.184399
     56          1           0       -4.428188   -3.902853    0.120742
     57          1           0       -2.365883   -2.545220    0.340639
     58          1           0       -0.380512   -1.558338    0.314430
     59          1           0        2.086794   -1.801587    2.860261
     60          1           0        1.828801    0.863662    2.623573
     61          1           0        0.378848    1.370707    0.625369
 ---------------------------------------------------------------------
 Rotational constants (GHZ):      0.1551038      0.0996051      0.0756294
 Standard basis: def2TZVP (5D, 7F)
 There are  1368 symmetry adapted cartesian basis functions of A   symmetry.
 There are  1203 symmetry adapted basis functions of A   symmetry.
  1203 basis functions,  1943 primitive gaussians,  1368 cartesian basis functions
   122 alpha electrons      122 beta electrons
       nuclear repulsion energy      3617.9715569773 Hartrees.
 NAtoms=   61 NActive=   61 NUniq=   61 SFac= 1.00D+00 NAtFMM=   60 NAOKFM=T Big=T
 Integral buffers will be    131072 words long.
 Raffenetti 2 integral format.
 Two-electron integral symmetry is turned on.
 Nuclear repulsion after empirical dispersion term =     3617.8790498344 Hartrees.
 One-electron integrals computed using PRISM.
   1 Symmetry operations used in ECPInt.
 ECPInt:  NShTT=  114960 NPrTT=  355741 LenC2=   93650 LenP2D=  195025.
 LDataN:  DoStor=T MaxTD1= 6 Len=  172
 NBasis=  1203 RedAO= T EigKep=  7.56D-06  NBF=  1203
 NBsUse=  1203 1.00D-06 EigRej= -1.00D+00 NBFU=  1203
[...]
   970. RY*(  21) C  48                  0.00000     3.34179   
   971. RY*(  22) C  48                  0.00001     3.21756   
   972. RY*(  23) C  48                  0.00000     3.53419   
   973. RY*(  24) C  48                  0.00000     3.64134   
   974. RY*(  25) C  48                  0.00001     3.39182   
   975. RY*(  26) C  48                  0.00000     3.65289   
   976. RY*(   1) C  49                  0.00498     1.54844   
   977. RY*(   2) C  49                  0.00187     1.47815   
   978. RY*(   3) C  49                  0.00111     0.57789   
   979. RY*(   4) C  49                  0.00073     1.33326   
   980. RY*(   5) C  49                  0.00050     1.75531   
   981. RY*(   6) C  49                  0.00037     3.17878   
   982. RY*(   7) C  49                  0.00015     2.12720   
   983. RY*(   8) C  49                  0.00014     1.76063   
   984. RY*(   9) C  49                  0.00007     3.33996   
   985. RY*(  10) C  49                  0.00004     2.11668   
   986. RY*(  11) C  49                  0.00004     1.64137   
   987. RY*(  12) C  49                  0.00004     1.85037   
   988. RY*(  13) C  49                  0.00002     2.69192   
   989. RY*(  14) C  49                  0.00000    21.01134   
   990. RY*(  15) C  49                  0.00000     3.25937   
   991. RY*(  16) C  49                  0.00001     1.57252   
   992. RY*(  17) C  49                  0.00001     2.55431   
   993. RY*(  18) C  49                  0.00000     1.14533   
   994. RY*(  19) C  49                  0.00000     3.18643   
   995. RY*(  20) C  49                  0.00000     3.53166   
   996. RY*(  21) C  49                  0.00000     3.43258   
   997. RY*(  22) C  49                  0.00000     3.29445   
   998. RY*(  23) C  49                  0.00000     3.41290   
   999. RY*(  24) C  49                  0.00000     3.42902   
  1000. RY*(  25) C  49                  0.00000     3.53876   
  1001. RY*(  26) C  49                  0.00000     3.69749   
  1002. RY*(   1) C  50                  0.00498     1.58600   
  1003. RY*(   2) C  50                  0.00221     1.73245   
  1004. RY*(   3) C  50                  0.00147     0.52909   
  1005. RY*(   4) C  50                  0.00079     1.25969   
  1006. RY*(   5) C  50                  0.00069     1.38703   
  1007. RY*(   6) C  50                  0.00035     3.29695   
  1008. RY*(   7) C  50                  0.00014     1.93233   
  1009. RY*(   8) C  50                  0.00013     2.75451   
  1010. RY*(   9) C  50                  0.00006     2.07419   
  1011. RY*(  10) C  50                  0.00004     2.59377   
  1012. RY*(  11) C  50                  0.00003     2.24553   
  1013. RY*(  12) C  50                  0.00000     1.23718   
  1014. RY*(  13) C  50                  0.00000    21.30417   
  1015. RY*(  14) C  50                  0.00001     1.47485   
  1016. RY*(  15) C  50                  0.00000     3.13479   
  1017. RY*(  16) C  50                  0.00000     1.90611   
  1018. RY*(  17) C  50                  0.00000     2.99543   
  1019. RY*(  18) C  50                  0.00000     1.94484   
  1020. RY*(  19) C  50                  0.00000     2.22090   
  1021. RY*(  20) C  50                  0.00000     3.48004   
  1022. RY*(  21) C  50                  0.00000     3.47002   
  1023. RY*(  22) C  50                  0.00000     3.46139   
  1024. RY*(  23) C  50                  0.00000     3.42562   
  1025. RY*(  24) C  50                  0.00000     3.39542   
  1026. RY*(  25) C  50                  0.00000     3.49115   
  1027. RY*(  26) C  50                  0.00000     3.77152   
  1028. RY*(   1) C  51                  0.00489     1.55839   
  1029. RY*(   2) C  51                  0.00185     1.49887   
  1030. RY*(   3) C  51                  0.00106     0.59870   
  1031. RY*(   4) C  51                  0.00074     1.32621   
  1032. RY*(   5) C  51                  0.00052     1.75520   
  1033. RY*(   6) C  51                  0.00037     3.07752   
  1034. RY*(   7) C  51                  0.00013     2.25027   
  1035. RY*(   8) C  51                  0.00013     1.81771   
  1036. RY*(   9) C  51                  0.00007     3.09076   
  1037. RY*(  10) C  51                  0.00005     1.27673   
  1038. RY*(  11) C  51                  0.00004     1.89300   
  1039. RY*(  12) C  51                  0.00003     2.83035   
  1040. RY*(  13) C  51                  0.00000     3.27392   
  1041. RY*(  14) C  51                  0.00001     1.62434   
  1042. RY*(  15) C  51                  0.00001     3.16116   
  1043. RY*(  16) C  51                  0.00001     1.72872   
  1044. RY*(  17) C  51                  0.00000    21.21939   
  1045. RY*(  18) C  51                  0.00000     1.37374   
  1046. RY*(  19) C  51                  0.00000     3.19640   
  1047. RY*(  20) C  51                  0.00000     3.43439   
  1048. RY*(  21) C  51                  0.00000     3.32203   
  1049. RY*(  22) C  51                  0.00000     3.20028   
  1050. RY*(  23) C  51                  0.00000     3.69342   
  1051. RY*(  24) C  51                  0.00000     3.19429   
  1052. RY*(  25) C  51                  0.00000     3.26462   
  1053. RY*(  26) C  51                  0.00000     3.76326   
  1054. RY*(   1) C  52                  0.00598     1.59699   
  1055. RY*(   2) C  52                  0.00178     1.39982   
  1056. RY*(   3) C  52                  0.00131     0.78950   
  1057. RY*(   4) C  52                  0.00112     1.83645   
  1058. RY*(   5) C  52                  0.00078     1.53118   
  1059. RY*(   6) C  52                  0.00035     2.95425   
  1060. RY*(   7) C  52                  0.00031     1.44477   
  1061. RY*(   8) C  52                  0.00021     2.06657   
  1062. RY*(   9) C  52                  0.00012     1.67537   
  1063. RY*(  10) C  52                  0.00008     2.11897   
  1064. RY*(  11) C  52                  0.00007     2.20812   
  1065. RY*(  12) C  52                  0.00003     2.81337   
  1066. RY*(  13) C  52                  0.00004     1.63036   
  1067. RY*(  14) C  52                  0.00002     2.85931   
  1068. RY*(  15) C  52                  0.00002     3.02116   
  1069. RY*(  16) C  52                  0.00001     1.61200   
  1070. RY*(  17) C  52                  0.00000     3.27841   
  1071. RY*(  18) C  52                  0.00000    21.02137   
  1072. RY*(  19) C  52                  0.00000     3.32439   
  1073. RY*(  20) C  52                  0.00000     3.34483   
  1074. RY*(  21) C  52                  0.00001     3.44730   
  1075. RY*(  22) C  52                  0.00000     3.29690   
  1076. RY*(  23) C  52                  0.00000     3.41702   
  1077. RY*(  24) C  52                  0.00000     3.08941   
  1078. RY*(  25) C  52                  0.00001     3.34870   
  1079. RY*(  26) C  52                  0.00000     3.63581   
  1080. RY*(   1) H  53                  0.00090     0.69050   
  1081. RY*(   2) H  53                  0.00025     2.28998   
  1082. RY*(   3) H  53                  0.00013     2.20288   
  1083. RY*(   4) H  53                  0.00009     2.76870   
  1084. RY*(   5) H  53                  0.00002     3.11264   
  1085. RY*(   1) H  54                  0.00037     0.95262   
  1086. RY*(   2) H  54                  0.00020     1.87652   
  1087. RY*(   3) H  54                  0.00012     2.68337   
  1088. RY*(   4) H  54                  0.00011     2.18772   
  1089. RY*(   5) H  54                  0.00002     3.09939   
  1090. RY*(   1) H  55                  0.00033     0.89006   
  1091. RY*(   2) H  55                  0.00019     1.84107   
  1092. RY*(   3) H  55                  0.00011     2.15781   
  1093. RY*(   4) H  55                  0.00008     2.75678   
  1094. RY*(   5) H  55                  0.00002     3.10233   
  1095. RY*(   1) H  56                  0.00039     0.97525   
  1096. RY*(   2) H  56                  0.00019     1.86995   
  1097. RY*(   3) H  56                  0.00012     2.63131   
  1098. RY*(   4) H  56                  0.00011     2.22816   
  1099. RY*(   5) H  56                  0.00002     3.09345   
  1100. RY*(   1) H  57                  0.00108     0.80509   
  1101. RY*(   2) H  57                  0.00028     2.39869   
  1102. RY*(   3) H  57                  0.00013     2.19782   
  1103. RY*(   4) H  57                  0.00010     2.74720   
  1104. RY*(   5) H  57                  0.00003     3.18852   
  1105. RY*(   1) H  58                  0.00172     0.88517   
  1106. RY*(   2) H  58                  0.00032     2.52681   
  1107. RY*(   3) H  58                  0.00017     2.70104   
  1108. RY*(   4) H  58                  0.00013     2.72171   
  1109. RY*(   5) H  58                  0.00005     3.27257   
  1110. RY*(   1) H  59                  0.00054     1.44929   
  1111. RY*(   2) H  59                  0.00024     1.53671   
  1112. RY*(   3) H  59                  0.00016     2.23122   
  1113. RY*(   4) H  59                  0.00011     2.47433   
  1114. RY*(   5) H  59                  0.00003     3.03364   
  1115. RY*(   1) H  60                  0.00100     0.86995   
  1116. RY*(   2) H  60                  0.00030     2.31101   
  1117. RY*(   3) H  60                  0.00017     2.60320   
  1118. RY*(   4) H  60                  0.00008     2.56254   
  1119. RY*(   5) H  60                  0.00002     3.00513   
  1120. RY*(   1) H  61                  0.00125     0.83146   
  1121. RY*(   2) H  61                  0.00034     2.47919   
  1122. RY*(   3) H  61                  0.00022     2.60157   
  1123. RY*(   4) H  61                  0.00012     2.71806   
  1124. RY*(   5) H  61                  0.00004     3.26204   
  1125. BD*(   1) P   1 - C   2          0.04757     0.23504   
  1126. BD*(   1) P   1 - C  13          0.03836     0.24116   
  1127. BD*(   1) P   1 - C  24          0.05143     0.20866   
  1128. BD*(   1) C   2 - C   3          0.02299     0.52228   
  1129. BD*(   2) C   2 - C   3          0.35803     0.02672  1134(v),1139(v),1144(r)
                                                    1127(v),179(g)
  1130. BD*(   1) C   2 - C   7          0.03255     0.52894   
  1131. BD*(   1) C   3 - C   4          0.01690     0.54183   
  1132. BD*(   1) C   3 - H  12          0.01546     0.41019   
  1133. BD*(   1) C   4 - C   5          0.01469     0.53724   
  1134. BD*(   2) C   4 - C   5          0.32539     0.02611  1129(v),1139(v),231(g)
                                                    205(g)
  1135. BD*(   1) C   4 - H  11          0.01353     0.40382   
  1136. BD*(   1) C   5 - C   6          0.01468     0.53464   
  1137. BD*(   1) C   5 - H  10          0.01296     0.40364   
  1138. BD*(   1) C   6 - C   7          0.01729     0.54361   
  1139. BD*(   2) C   6 - C   7          0.31113     0.02940  1129(v),1134(v),257(g)
                                                    1144(r)
  1140. BD*(   1) C   6 - H   9          0.01400     0.40234   
  1141. BD*(   1) C   7 - H   8          0.01680     0.41105   
  1142. BD*(   1) C  13 - C  14          0.03240     0.51756   
  1143. BD*(   1) C  13 - C  18          0.02314     0.52241   
  1144. BD*(   2) C  13 - C  18          0.35231     0.02533  1146(v),1151(v),1129(r)
                                                    464(g),1125(v),1127(v)
                                                    1139(r)
  1145. BD*(   1) C  14 - C  15          0.01842     0.54115   
  1146. BD*(   2) C  14 - C  15          0.31936     0.02584  1144(v),1151(v),386(g)
                                                    360(g)
  1147. BD*(   1) C  14 - H  23          0.01623     0.40854   
  1148. BD*(   1) C  15 - C  16          0.01462     0.53378   
  1149. BD*(   1) C  15 - H  22          0.01408     0.39939   
  1150. BD*(   1) C  16 - C  17          0.01468     0.53542   
  1151. BD*(   2) C  16 - C  17          0.32642     0.02409  1144(v),1146(v),412(g)
                                                    438(g)
  1152. BD*(   1) C  16 - H  21          0.01296     0.40142   
  1153. BD*(   1) C  17 - C  18          0.01597     0.53839   
  1154. BD*(   1) C  17 - H  20          0.01344     0.40224   
  1155. BD*(   1) C  18 - H  19          0.01545     0.40714   
  1156. BD*(   1) C  24 - C  25          0.06185     0.30774   
  1157. BD*(   1) C  24 - C  34          0.02721     0.31719   
  1158. BD*(   1) C  24 - H  61          0.02424     0.37532   
  1159. BD*(   1) C  25 - C  26          0.02139     0.37323   
  1160. BD*(   1) C  25 - C  31          0.01440     0.31255   
  1161. BD*(   1) C  25 - H  60          0.02107     0.37807   
  1162. BD*(   1) C  26 - C  27          0.00953     0.59034   
  1163. BD*(   2) C  26 - C  27          0.06031     0.05231   
  1164. BD*(   1) C  26 - H  59          0.01653     0.42805   
  1165. BD*(   1) C  27 - H  28          0.01644     0.42227   
  1166. BD*(   1) C  27 - C  29          0.01953     0.36247   
  1167. BD*(   1) C  29 - H  30          0.02142     0.38029   
  1168. BD*(   1) C  29 - C  31          0.01340     0.32496   
  1169. BD*(   1) C  29 - C  34          0.05854     0.30486   
  1170. BD*(   1) C  31 - H  32          0.01545     0.38665   
  1171. BD*(   1) C  31 - H  33          0.01301     0.38226   
  1172. BD*(   1) C  34 - P  35          0.04837     0.21554   
  1173. BD*(   1) C  34 - H  58          0.02545     0.37842   
  1174. BD*(   1) P  35 - C  36          0.04031     0.23786   
  1175. BD*(   1) P  35 - C  47          0.04228     0.24813   
  1176. BD*(   1) C  36 - C  37          0.02403     0.52361   
  1177. BD*(   2) C  36 - C  37          0.35804     0.02341  1182(v),1187(v),1191(r)
                                                    771(g),1172(v),746(g)
                                                    1175(v)
  1178. BD*(   1) C  36 - C  41          0.03318     0.52353   
  1179. BD*(   1) C  37 - C  38          0.01681     0.53812   
  1180. BD*(   1) C  37 - H  46          0.01562     0.40854   
  1181. BD*(   1) C  38 - C  39          0.01463     0.53440   
  1182. BD*(   2) C  38 - C  39          0.32184     0.02363  1177(v),1187(v),823(g)
                                                    797(g)
  1183. BD*(   1) C  38 - H  45          0.01351     0.40210   
  1184. BD*(   1) C  39 - C  40          0.01471     0.53136   
  1185. BD*(   1) C  39 - H  44          0.01290     0.40191   
  1186. BD*(   1) C  40 - C  41          0.01733     0.54154   
  1187. BD*(   2) C  40 - C  41          0.30523     0.02790  1182(v),1177(v),1191(r)
                                                    849(g),1201(r)
  1188. BD*(   1) C  40 - H  43          0.01403     0.40106   
  1189. BD*(   1) C  41 - H  42          0.01564     0.40805   
  1190. BD*(   1) C  47 - C  48          0.02492     0.53075   
  1191. BD*(   2) C  47 - C  48          0.38594     0.02750  1196(v),1201(v),1187(r)
                                                    1177(r),952(g),1174(v)
                                                    927(g),1056(v)
  1192. BD*(   1) C  47 - C  52          0.02168     0.52725   
  1193. BD*(   1) C  48 - C  49          0.01599     0.54782   
  1194. BD*(   1) C  48 - H  57          0.01542     0.41162   
  1195. BD*(   1) C  49 - C  50          0.01457     0.54311   
  1196. BD*(   2) C  49 - C  50          0.33857     0.03096  1191(v),1201(v),1004(g)
                                                    978(g)
  1197. BD*(   1) C  49 - H  56          0.01353     0.40727   
  1198. BD*(   1) C  50 - C  51          0.01460     0.54202   
  1199. BD*(   1) C  50 - H  55          0.01301     0.40889   
  1200. BD*(   1) C  51 - C  52          0.01509     0.54946   
  1201. BD*(   2) C  51 - C  52          0.31558     0.03442  1196(v),1191(v),1030(g)
                                                    1187(r),1056(g)
  1202. BD*(   1) C  51 - H  54          0.01343     0.40930   
  1203. BD*(   1) C  52 - H  53          0.01538     0.41119   
       -------------------------------
              Total Lewis  238.06594  ( 97.5680%)
        Valence non-Lewis    5.47920  (  2.2456%)
        Rydberg non-Lewis    0.45485  (  0.1864%)
       -------------------------------
            Total unit  1  244.00000  (100.0000%)
           Charge unit  1    0.00000
 1\1\GINC-NC255\SP\RPBE1PBE\def2TZVP\C31H28P2\MACKK4\05-Dec-2021\0\\# P
 BE1PBE/def2TZVP int=(grid=ultrafine) empiricaldispersion=GD3BJ pop=nbo
  guess=read geom=check\\RR_NorPhos_2 title\\0,1\P,0,-1.6237586781,0.02
 05740054,-0.0166977021\C,0,-2.4172988131,1.662776569,0.1383955062\C,0,
 -1.7976255493,2.7463370897,-0.5148846032\C,0,-2.3043014718,4.04309057,
 -0.3565702836\C,0,-3.4384782602,4.2619302329,0.4374138415\C,0,-4.07536
 26464,3.1804320059,1.0655721418\C,0,-3.5697310007,1.883114487,0.917275
 7787\H,0,-4.0842871405,1.0416535105,1.3908808719\H,0,-4.9755792537,3.3
 466027547,1.6664157977\H,0,-3.8394348964,5.2740539142,0.5537225099\H,0
 ,-1.8210276008,4.879838148,-0.8708947942\H,0,-0.9383434742,2.552719081
 8,-1.1680014556\C,0,-2.9230493124,-1.2706095082,-0.0054353377\C,0,-3.6
 323158807,-1.5734878145,1.1774693135\C,0,-4.6082533251,-2.5779421414,1
 .17745484\C,0,-4.8793349375,-3.2931037039,0.0019964472\C,0,-4.17306549
 02,-2.9994633875,-1.1724699938\C,0,-3.1971834546,-1.9937384551,-1.1828
 693251\H,0,-2.6558001063,-1.7443054478,-2.1017327877\H,0,-4.3807702641
 ,-3.5543483486,-2.0929677052\H,0,-5.64030316,-4.0803626945,0.004236701
 8\H,0,-5.1535241977,-2.8044255997,2.0995492503\H,0,-3.4261431781,-1.02
 9359906,2.1033055744\C,0,-0.6269047346,-0.2659272363,1.5320078314\C,0,
 -0.992417109,-0.154545881,3.056022927\C,0,-1.1909287823,1.307613646,3.
 4327481967\C,0,0.0180444943,1.9085601595,3.3911879596\H,0,0.2316530688
 ,2.9756331916,3.4990871526\C,0,1.0347157501,0.8609180976,2.9339767952\
 H,0,2.0969977643,1.0871601575,3.1031585604\C,0,0.4436151779,-0.3970602
 408,3.6112879714\H,0,0.896311658,-1.343153718,3.2678439864\H,0,0.48287
 10604,-0.335634992,4.7108384159\C,0,0.617054899,0.6620635004,1.4271080
 092\P,0,1.6225392724,0.0034221261,0.0164260045\C,0,2.2812447735,-1.622
 2571896,0.5217547724\C,0,1.7504061207,-2.7827674015,-0.0723934678\C,0,
 2.178879602,-4.045642133,0.3594404281\C,0,3.1364001551,-4.1518613938,1
 .3779679398\C,0,3.6767030233,-2.995224045,1.9630401157\C,0,3.255284704
 2,-1.7304001068,1.5354547396\H,0,3.687576907,-0.826652763,1.978172313\
 H,0,4.4326500413,-3.0798078128,2.7505350431\H,0,3.4719751965,-5.138836
 557,1.7125022801\H,0,1.769654514,-4.9466557222,-0.1083144689\H,0,1.020
 0705855,-2.6765083859,-0.8829723288\C,0,3.0713688146,1.09956375,-0.137
 2947511\C,0,3.0855695262,2.378145032,0.454907726\C,0,4.2064251901,3.20
 64234304,0.3107203312\C,0,5.3150133308,2.7670627761,-0.42583783\C,0,5.
 3007271631,1.497599596,-1.0228602962\C,0,4.1852275914,0.6642774287,-0.
 885261988\H,0,4.1610628887,-0.3133813667,-1.3734572868\H,0,6.159812752
 4,1.1561555438,-1.6088643936\H,0,6.1886739214,3.416814364,-0.539728275
 7\H,0,4.2107038993,4.1978748437,0.7750769201\H,0,2.2250925707,2.735739
 4324,1.0283150397\H,0,0.2944959867,1.6452751559,1.0309999176\H,0,-2.15
 92159674,1.7849239692,3.5976748835\H,0,-1.7628680706,-0.8653564032,3.3
 854152411\H,0,-0.3061779087,-1.316299257,1.3786807967\\Version=ES64L-G
 09RevE.01\State=1-A\HF=-1879.6328788\RMSD=3.822e-09\Dipole=-0.2128432,
 -0.2671786,0.7069186\Quadrupole=1.5250931,7.0009851,-8.5260782,1.53251
 55,-1.6325506,1.861396\PG=C01 [X(C31H28P2)]\\@


 Luck is a matter of preparation meeting opportunity.
                                    -- Oprah Winfrey
 Job cpu time:       0 days  1 hours  5 minutes 18.8 seconds.
 File lengths (MBytes):  RWF=    744 Int=      0 D2E=      0 Chk=    112 Scr=      1
 Normal termination of Gaussian 09 at Sun Dec  5 03:13:49 2021.
