 Entering Gaussian System, Link 0=/uufs/chpc.utah.edu/sys/pkg/gaussian09/D01/EM64T/g09/g09
 Input=RR_NorPhos_1_SPE.com
 Output=RR_NorPhos_1_SPE.log
 Initial command:
 /uufs/chpc.utah.edu/sys/pkg/gaussian09/D01/EM64T/g09/l1.exe "/scratch/local/u1010977/3871914/notchpeak.peaks/Gau-209886.inp" -scrdir="/scratch/local/u1010977/3871914/notchpeak.peaks/"
 Entering Link 1 = /uufs/chpc.utah.edu/sys/pkg/gaussian09/D01/EM64T/g09/l1.exe PID=    209888.
  
 Copyright (c) 1988,1990,1992,1993,1995,1998,2003,2009,2013,
            Gaussian, Inc.  All Rights Reserved.
  
 This is part of the Gaussian(R) 09 program.  It is based on
 the Gaussian(R) 03 system (copyright 2003, Gaussian, Inc.),
 the Gaussian(R) 98 system (copyright 1998, Gaussian, Inc.),
 the Gaussian(R) 94 system (copyright 1995, Gaussian, Inc.),
 the Gaussian 92(TM) system (copyright 1992, Gaussian, Inc.),
 the Gaussian 90(TM) system (copyright 1990, Gaussian, Inc.),
 the Gaussian 88(TM) system (copyright 1988, Gaussian, Inc.),
 the Gaussian 86(TM) system (copyright 1986, Carnegie Mellon
 University), and the Gaussian 82(TM) system (copyright 1983,
 Carnegie Mellon University). Gaussian is a federally registered
 trademark of Gaussian, Inc.
  
 This software contains proprietary and confidential information,
 including trade secrets, belonging to Gaussian, Inc.
  
 This software is provided under written license and may be
 used, copied, transmitted, or stored only in accord with that
 written license.
  
 The following legend is applicable only to US Government
 contracts under FAR:
  
                    RESTRICTED RIGHTS LEGEND
  
 Use, reproduction and disclosure by the US Government is
 subject to restrictions as set forth in subparagraphs (a)
 and (c) of the Commercial Computer Software - Restricted
 Rights clause in FAR 52.227-19.
  
 Gaussian, Inc.
 340 Quinnipiac St., Bldg. 40, Wallingford CT 06492
  
  
 ---------------------------------------------------------------
 Warning -- This program may not be used in any manner that
 competes with the business of Gaussian, Inc. or will provide
 assistance to any competitor of Gaussian, Inc.  The licensee
 of this program is prohibited from giving any competitor of
 Gaussian, Inc. access to this program.  By using this program,
 the user acknowledges that Gaussian, Inc. is engaged in the
 business of creating and licensing software in the field of
 computational chemistry and represents and warrants to the
 licensee that it is not a competitor of Gaussian, Inc. and that
 it will not use this program in any manner prohibited above.
 ---------------------------------------------------------------
  

 Cite this work as:
 Gaussian 09, Revision D.01,
 M. J. Frisch, G. W. Trucks, H. B. Schlegel, G. E. Scuseria, 
 M. A. Robb, J. R. Cheeseman, G. Scalmani, V. Barone, B. Mennucci, 
 G. A. Petersson, H. Nakatsuji, M. Caricato, X. Li, H. P. Hratchian, 
 A. F. Izmaylov, J. Bloino, G. Zheng, J. L. Sonnenberg, M. Hada, 
 M. Ehara, K. Toyota, R. Fukuda, J. Hasegawa, M. Ishida, T. Nakajima, 
 Y. Honda, O. Kitao, H. Nakai, T. Vreven, J. A. Montgomery, Jr., 
 J. E. Peralta, F. Ogliaro, M. Bearpark, J. J. Heyd, E. Brothers, 
 K. N. Kudin, V. N. Staroverov, T. Keith, R. Kobayashi, J. Normand, 
 K. Raghavachari, A. Rendell, J. C. Burant, S. S. Iyengar, J. Tomasi, 
 M. Cossi, N. Rega, J. M. Millam, M. Klene, J. E. Knox, J. B. Cross, 
 V. Bakken, C. Adamo, J. Jaramillo, R. Gomperts, R. E. Stratmann, 
 O. Yazyev, A. J. Austin, R. Cammi, C. Pomelli, J. W. Ochterski, 
 R. L. Martin, K. Morokuma, V. G. Zakrzewski, G. A. Voth, 
 P. Salvador, J. J. Dannenberg, S. Dapprich, A. D. Daniels, 
 O. Farkas, J. B. Foresman, J. V. Ortiz, J. Cioslowski, 
 and D. J. Fox, Gaussian, Inc., Wallingford CT, 2013.
 
 ******************************************
 Gaussian 09:  ES64L-G09RevD.01 24-Apr-2013
                 8-Feb-2022 
 ******************************************
 %NProcShared=64
 Will use up to   64 processors via shared memory.
 %mem=18GB
 %chk=RR_NorPhos_1_SPE.chk
 ----------------------------------------------------------------------
 # PBE1PBE gen pseudo=read int=(grid=ultrafine) empiricaldispersion=GD3
 BJ nmr=giao
 ----------------------------------------------------------------------
 1/38=1/1;
 2/12=2,17=6,18=5,40=1/2;
 3/5=7,11=2,16=1,17=8,25=1,30=1,74=-13,75=-5,124=41/1,2,8,3;
 4//1;
 5/5=2,38=5/2;
 8/6=1,10=90,11=11/1;
 10/13=100,45=16/2;
 6/7=2,8=2,9=2,10=2,28=1/1;
 99/9=1/99;
 ------------------
 RR_NorPhos_1 title
 ------------------
 Symbolic Z-matrix:
 Charge =  0 Multiplicity = 1
 P                    -1.592    -0.02125  -0.02475 
 C                    -2.37004   1.62529   0.10213 
 C                    -1.80044   2.69534  -0.61323 
 C                    -2.32434   3.98751  -0.47017 
 C                    -3.42175   4.21071   0.37317 
 C                    -4.00498   3.14066   1.0707 
 C                    -3.48345   1.84846   0.93676 
 H                    -3.94511   1.00921   1.46777 
 H                    -4.87266   3.31352   1.7159 
 H                    -3.83504   5.21915   0.47794 
 H                    -1.88307   4.81699  -1.03178 
 H                    -0.96589   2.49395  -1.29529 
 C                    -2.95974  -1.22753   0.0004 
 C                    -2.92683  -2.35795   0.84116 
 C                    -3.98108  -3.28055   0.82068 
 C                    -5.07021  -3.08449  -0.03946 
 C                    -5.10161  -1.96538  -0.88479 
 C                    -4.05247  -1.03953  -0.87211 
 H                    -4.06101  -0.18373  -1.5521 
 H                    -5.9437   -1.81594  -1.56787 
 H                    -5.8918   -3.80779  -0.05594 
 H                    -3.94826  -4.15495   1.47869 
 H                    -2.07974  -2.52947   1.51191 
 C                    -0.6077   -0.29751   1.52144 
 C                    -1.01177  -0.19584   3.0335 
 C                    -1.2126    1.26407   3.41968 
 C                    -0.00261   1.86396   3.40525 
 H                     0.21122   2.92896   3.53174 
 C                     1.01968   0.81954   2.95357 
 H                     2.07924   1.04073   3.14506 
 C                     0.4144   -0.4434    3.6141 
 H                     0.8752   -1.38751   3.27524 
 H                     0.43698  -0.38541   4.71423 
 C                     0.62734   0.64123   1.43478 
 P                     1.64876   0.00232   0.02362 
 C                     2.34382  -1.60127   0.55471 
 C                     1.83376  -2.78364  -0.01448 
 C                     2.28636  -4.02914   0.44292 
 C                     3.24754  -4.09643   1.46135 
 C                     3.76779  -2.91793   2.0205 
 C                     3.32199  -1.67034   1.56768 
 H                     3.73883  -0.74954   1.98976 
 H                     4.52752  -2.97205   2.80707 
 H                     3.60248  -5.06982   1.81528 
 H                     1.89415  -4.947    -0.00645 
 H                     1.10218  -2.70803  -0.82761 
 C                     3.07231   1.13086  -0.13614 
 C                     3.09553   2.38058   0.51462 
 C                     4.20008   3.22979   0.36501 
 C                     5.283     2.84017  -0.43491 
 C                     5.25921   1.59972  -1.08996 
 C                     4.16044   0.74525  -0.94717 
 H                     4.12547  -0.20763  -1.48192 
 H                     6.09773   1.29755  -1.72528 
 H                     6.14386   3.50619  -0.55261 
 H                     4.2117    4.19843   0.87523 
 H                     2.25526   2.69908   1.13867 
 Pd                    0.05435  -0.17116  -1.61443 
 Cl                    1.83805  -0.51381  -3.158 
 Cl                   -1.699    -0.16907  -3.22826 
 H                     0.30199   1.62757   1.04899 
 H                    -2.18237   1.73858   3.58157 
 H                    -1.80421  -0.89846   3.32922 
 H                    -0.25359  -1.33802   1.3735 
 
 Stoichiometry    C31H28Cl2P2Pd
 Framework group  C1[X(C31H28Cl2P2Pd)]
 Deg. of freedom   186
 Full point group                 C1      NOp   1
 Largest Abelian subgroup         C1      NOp   1
 Largest concise Abelian subgroup C1      NOp   1
                         Standard orientation:                         
 ---------------------------------------------------------------------
 Center     Atomic      Atomic             Coordinates (Angstroms)
 Number     Number       Type             X           Y           Z
 ---------------------------------------------------------------------
      1         15           0       -1.602219    0.015585    0.007011
      2          6           0       -2.337008    1.683643    0.108097
      3          6           0       -1.749615    2.723668   -0.636550
      4          6           0       -2.239068    4.031428   -0.514766
      5          6           0       -3.319969    4.300035    0.336608
      6          6           0       -3.921214    3.259974    1.063586
      7          6           0       -3.434021    1.952434    0.950959
      8          1           0       -3.909999    1.136475    1.505129
      9          1           0       -4.776206    3.468280    1.715232
     10          1           0       -3.706464    5.320612    0.424824
     11          1           0       -1.784096    4.837499   -1.099083
     12          1           0       -0.928910    2.486912   -1.324040
     13          6           0       -2.999426   -1.154800    0.074026
     14          6           0       -2.984499   -2.267835    0.938169
     15          6           0       -4.061778   -3.163600    0.949819
     16          6           0       -5.156222   -2.958009    0.098691
     17          6           0       -5.169977   -1.856414   -0.769792
     18          6           0       -4.097818   -0.957432   -0.789250
     19          1           0       -4.093291   -0.116127   -1.487120
     20          1           0       -6.016455   -1.699992   -1.445849
     21          1           0       -5.995871   -3.660416    0.107346
     22          1           0       -4.042779   -4.024575    1.625827
     23          1           0       -2.133733   -2.446714    1.602305
     24          6           0       -0.606066   -0.253131    1.546927
     25          6           0       -0.988671   -0.109592    3.061175
     26          6           0       -1.147938    1.362717    3.418606
     27          6           0        0.076468    1.931267    3.377068
     28          1           0        0.318542    2.992908    3.478342
     29          6           0        1.066513    0.852004    2.935578
     30          1           0        2.133581    1.050180    3.109730
     31          6           0        0.437926   -0.381053    3.629936
     32          1           0        0.870618   -1.343453    3.305762
     33          1           0        0.475595   -0.300630    4.728235
     34          6           0        0.650997    0.651937    1.425686
     35         15           0        1.638455   -0.042114    0.016394
     36          6           0        2.299537   -1.651356    0.573152
     37          6           0        1.752905   -2.832054    0.035308
     38          6           0        2.179710   -4.078793    0.513666
     39          6           0        3.151453   -4.149113    1.521817
     40          6           0        3.708044   -2.972747    2.049582
     41          6           0        3.288157   -1.724003    1.575678
     42          1           0        3.733201   -0.805442    1.973111
     43          1           0        4.475873   -3.029653    2.828047
     44          1           0        3.486180   -5.123570    1.892113
     45          1           0        1.759017   -4.995608    0.088596
     46          1           0        1.013425   -2.754952   -0.770503
     47          6           0        3.087827    1.046340   -0.184203
     48          6           0        3.150512    2.308420    0.439532
     49          6           0        4.274110    3.125996    0.258802
     50          6           0        5.336897    2.692345   -0.545454
     51          6           0        5.273814    1.439449   -1.173666
     52          6           0        4.155781    0.616323   -0.999721
     53          1           0        4.090249   -0.346350   -1.513649
     54          1           0        6.096530    1.102850   -1.812332
     55          1           0        6.212688    3.333688   -0.687493
     56          1           0        4.316402    4.104499    0.748154
     57          1           0        2.326320    2.661150    1.066605
     58         46           0        0.020001   -0.209331   -1.598555
     59         17           0        1.775241   -0.629405   -3.155569
     60         17           0       -1.752634   -0.196531   -3.191142
     61          1           0        0.345781    1.637918    1.022907
     62          1           0       -2.103400    1.864981    3.581878
     63          1           0       -1.794783   -0.785517    3.381153
     64          1           0       -0.280076   -1.305163    1.416938
 ---------------------------------------------------------------------
 Rotational constants (GHZ):      0.1144384      0.0767741      0.0726029
 General basis read from cards:  (5D, 7F)
 ======================================================================================================
                                       Pseudopotential Parameters
 ======================================================================================================
  Center     Atomic      Valence      Angular      Power
  Number     Number     Electrons     Momentum     of R      Exponent        Coefficient   SO-Coeffient
 ======================================================================================================
    1         15
                                   No pseudopotential on this center.
    2          6
                                   No pseudopotential on this center.
    3          6
                                   No pseudopotential on this center.
    4          6
                                   No pseudopotential on this center.
    5          6
                                   No pseudopotential on this center.
    6          6
                                   No pseudopotential on this center.
    7          6
                                   No pseudopotential on this center.
    8          1
                                   No pseudopotential on this center.
    9          1
                                   No pseudopotential on this center.
   10          1
                                   No pseudopotential on this center.
   11          1
                                   No pseudopotential on this center.
   12          1
                                   No pseudopotential on this center.
   13          6
                                   No pseudopotential on this center.
   14          6
                                   No pseudopotential on this center.
   15          6
                                   No pseudopotential on this center.
   16          6
                                   No pseudopotential on this center.
   17          6
                                   No pseudopotential on this center.
   18          6
                                   No pseudopotential on this center.
   19          1
                                   No pseudopotential on this center.
   20          1
                                   No pseudopotential on this center.
   21          1
                                   No pseudopotential on this center.
   22          1
                                   No pseudopotential on this center.
   23          1
                                   No pseudopotential on this center.
   24          6
                                   No pseudopotential on this center.
   25          6
                                   No pseudopotential on this center.
   26          6
                                   No pseudopotential on this center.
   27          6
                                   No pseudopotential on this center.
   28          1
                                   No pseudopotential on this center.
   29          6
                                   No pseudopotential on this center.
   30          1
                                   No pseudopotential on this center.
   31          6
                                   No pseudopotential on this center.
   32          1
                                   No pseudopotential on this center.
   33          1
                                   No pseudopotential on this center.
   34          6
                                   No pseudopotential on this center.
   35         15
                                   No pseudopotential on this center.
   36          6
                                   No pseudopotential on this center.
   37          6
                                   No pseudopotential on this center.
   38          6
                                   No pseudopotential on this center.
   39          6
                                   No pseudopotential on this center.
   40          6
                                   No pseudopotential on this center.
   41          6
                                   No pseudopotential on this center.
   42          1
                                   No pseudopotential on this center.
   43          1
                                   No pseudopotential on this center.
   44          1
                                   No pseudopotential on this center.
   45          1
                                   No pseudopotential on this center.
   46          1
                                   No pseudopotential on this center.
   47          6
                                   No pseudopotential on this center.
   48          6
                                   No pseudopotential on this center.
   49          6
                                   No pseudopotential on this center.
   50          6
                                   No pseudopotential on this center.
   51          6
                                   No pseudopotential on this center.
   52          6
                                   No pseudopotential on this center.
   53          1
                                   No pseudopotential on this center.
   54          1
                                   No pseudopotential on this center.
   55          1
                                   No pseudopotential on this center.
   56          1
                                   No pseudopotential on this center.
   57          1
                                   No pseudopotential on this center.
   58         46           18
                                      G and up 
                                                     2        1.0000000        0.00000000    0.00000000
                                      S - G
                                                     2       12.4300000      240.22904000    0.00000000
                                                     2        6.1707590       35.17194300    0.00000000
                                      P - G
                                                     2       11.0800000      170.41727600    0.00000000
                                                     2        5.8295540       28.47213300    0.00000000
                                      D - G
                                                     2        9.5100000       69.01384500    0.00000000
                                                     2        4.1397810       11.75086200    0.00000000
                                      F - G
                                                     2       13.2700000      -31.92955400    0.00000000
                                                     2        6.6300000       -5.39821700    0.00000000
   59         17
                                   No pseudopotential on this center.
   60         17
                                   No pseudopotential on this center.
   61          1
                                   No pseudopotential on this center.
   62          1
                                   No pseudopotential on this center.
   63          1
                                   No pseudopotential on this center.
   64          1
                                   No pseudopotential on this center.
 ======================================================================================================
 There are  1491 symmetry adapted cartesian basis functions of A   symmetry.
 There are  1313 symmetry adapted basis functions of A   symmetry.
  1313 basis functions,  2146 primitive gaussians,  1491 cartesian basis functions
   148 alpha electrons      148 beta electrons
       nuclear repulsion energy      5181.9128701615 Hartrees.
 NAtoms=   64 NActive=   64 NUniq=   64 SFac= 1.00D+00 NAtFMM=   60 NAOKFM=T Big=T
 Integral buffers will be    131072 words long.
 Raffenetti 2 integral format.
 Two-electron integral symmetry is turned on.
 Nuclear repulsion after empirical dispersion term =     5181.7971111847 Hartrees.
 One-electron integrals computed using PRISM.
   1 Symmetry operations used in ECPInt.
 ECPInt:  NShTT=  134940 NPrTT=  421824 LenC2=  111453 LenP2D=  234007.
 LDataN:  DoStor=T MaxTD1= 7 Len=  274
 Number of processors reduced to  28 by ecpmxn.
 NBasis=  1313 RedAO= T EigKep=  6.76D-06  NBF=  1313
 NBsUse=  1313 1.00D-06 EigRej= -1.00D+00 NBFU=  1313
 Defaulting to unpruned grid for atomic number  46.
 ExpMin= 1.60D-02 ExpMax= 6.95D+04 ExpMxC= 2.37D+03 IAcc=3 IRadAn=         5 AccDes= 0.00D+00
 Harris functional with IExCor= 1009 and IRadAn=       5 diagonalized for initial guess.
 HarFok:  IExCor= 1009 AccDes= 0.00D+00 IRadAn=         5 IDoV= 1 UseB2=F ITyADJ=14
 ICtDFT=  3500011 ScaDFX=  1.000000  1.000000  1.000000  1.000000
 Defaulting to unpruned grid for atomic number  46.
 Defaulting to unpruned grid for atomic number  46.
 Defaulting to unpruned grid for atomic number  46.
 Defaulting to unpruned grid for atomic number  46.
 Defaulting to unpruned grid for atomic number  46.
 Defaulting to unpruned grid for atomic number  46.
 Defaulting to unpruned grid for atomic number  46.
 Defaulting to unpruned grid for atomic number  46.
 Defaulting to unpruned grid for atomic number  46.
 Defaulting to unpruned grid for atomic number  46.
 Defaulting to unpruned grid for atomic number  46.
 Defaulting to unpruned grid for atomic number  46.
 Defaulting to unpruned grid for atomic number  46.
 Defaulting to unpruned grid for atomic number  46.
 Defaulting to unpruned grid for atomic number  46.
 Defaulting to unpruned grid for atomic number  46.
 Defaulting to unpruned grid for atomic number  46.
 Defaulting to unpruned grid for atomic number  46.
 Defaulting to unpruned grid for atomic number  46.
 Defaulting to unpruned grid for atomic number  46.
 Defaulting to unpruned grid for atomic number  46.
 Defaulting to unpruned grid for atomic number  46.
 Defaulting to unpruned grid for atomic number  46.
 Defaulting to unpruned grid for atomic number  46.
 Defaulting to unpruned grid for atomic number  46.
 Defaulting to unpruned grid for atomic number  46.
 Defaulting to unpruned grid for atomic number  46.
 Defaulting to unpruned grid for atomic number  46.
 Defaulting to unpruned grid for atomic number  46.
 Defaulting to unpruned grid for atomic number  46.
 Defaulting to unpruned grid for atomic number  46.
 Defaulting to unpruned grid for atomic number  46.
 Defaulting to unpruned grid for atomic number  46.
 Defaulting to unpruned grid for atomic number  46.
 Defaulting to unpruned grid for atomic number  46.
 Defaulting to unpruned grid for atomic number  46.
 Defaulting to unpruned grid for atomic number  46.
 Defaulting to unpruned grid for atomic number  46.
 Defaulting to unpruned grid for atomic number  46.
 Defaulting to unpruned grid for atomic number  46.
 Defaulting to unpruned grid for atomic number  46.
 Defaulting to unpruned grid for atomic number  46.
 Defaulting to unpruned grid for atomic number  46.
 Defaulting to unpruned grid for atomic number  46.
 Defaulting to unpruned grid for atomic number  46.
 Defaulting to unpruned grid for atomic number  46.
 Defaulting to unpruned grid for atomic number  46.
 Defaulting to unpruned grid for atomic number  46.
 Defaulting to unpruned grid for atomic number  46.
 Defaulting to unpruned grid for atomic number  46.
 Defaulting to unpruned grid for atomic number  46.
 Defaulting to unpruned grid for atomic number  46.
 Defaulting to unpruned grid for atomic number  46.
 Defaulting to unpruned grid for atomic number  46.
 Defaulting to unpruned grid for atomic number  46.
 Defaulting to unpruned grid for atomic number  46.
 Defaulting to unpruned grid for atomic number  46.
 Defaulting to unpruned grid for atomic number  46.
 Defaulting to unpruned grid for atomic number  46.
 Defaulting to unpruned grid for atomic number  46.
 Defaulting to unpruned grid for atomic number  46.
 Defaulting to unpruned grid for atomic number  46.
 Defaulting to unpruned grid for atomic number  46.
 Defaulting to unpruned grid for atomic number  46.
 FoFCou: FMM=F IPFlag=           0 FMFlag=      100000 FMFlg1=        2001
         NFxFlg=           0 DoJE=T BraDBF=F KetDBF=T FulRan=T
         wScrn=  0.000000 ICntrl=     500 IOpCl=  0 I1Cent=   200000004 NGrid=           0
         NMat0=    1 NMatS0=      1 NMatT0=    0 NMatD0=    1 NMtDS0=    0 NMtDT0=    0
 Petite list used in FoFCou.
 Requested convergence on RMS density matrix=1.00D-08 within 128 cycles.
 Requested convergence on MAX density matrix=1.00D-06.
 Requested convergence on             energy=1.00D-06.
 No special actions if energy rises.
 Defaulting to unpruned grid for atomic number  46.
 Defaulting to unpruned grid for atomic number  46.
 Defaulting to unpruned grid for atomic number  46.
 Defaulting to unpruned grid for atomic number  46.
 Defaulting to unpruned grid for atomic number  46.
 Defaulting to unpruned grid for atomic number  46.
 Defaulting to unpruned grid for atomic number  46.
 Defaulting to unpruned grid for atomic number  46.
 Defaulting to unpruned grid for atomic number  46.
 Defaulting to unpruned grid for atomic number  46.
 Defaulting to unpruned grid for atomic number  46.
 Defaulting to unpruned grid for atomic number  46.
 Defaulting to unpruned grid for atomic number  46.
 Defaulting to unpruned grid for atomic number  46.
 Defaulting to unpruned grid for atomic number  46.
 Defaulting to unpruned grid for atomic number  46.
 Defaulting to unpruned grid for atomic number  46.
 Defaulting to unpruned grid for atomic number  46.
 Defaulting to unpruned grid for atomic number  46.
 Defaulting to unpruned grid for atomic number  46.
 Defaulting to unpruned grid for atomic number  46.
 Defaulting to unpruned grid for atomic number  46.
 Defaulting to unpruned grid for atomic number  46.
 Defaulting to unpruned grid for atomic number  46.
 Defaulting to unpruned grid for atomic number  46.
 Defaulting to unpruned grid for atomic number  46.
 Defaulting to unpruned grid for atomic number  46.
 Defaulting to unpruned grid for atomic number  46.
 Defaulting to unpruned grid for atomic number  46.
 Defaulting to unpruned grid for atomic number  46.
 Defaulting to unpruned grid for atomic number  46.
 Defaulting to unpruned grid for atomic number  46.
 Defaulting to unpruned grid for atomic number  46.
 Defaulting to unpruned grid for atomic number  46.
 Defaulting to unpruned grid for atomic number  46.
 Defaulting to unpruned grid for atomic number  46.
 Defaulting to unpruned grid for atomic number  46.
 Defaulting to unpruned grid for atomic number  46.
 Defaulting to unpruned grid for atomic number  46.
 Defaulting to unpruned grid for atomic number  46.
 Defaulting to unpruned grid for atomic number  46.
 Defaulting to unpruned grid for atomic number  46.
 Defaulting to unpruned grid for atomic number  46.
 Defaulting to unpruned grid for atomic number  46.
 Defaulting to unpruned grid for atomic number  46.
 Defaulting to unpruned grid for atomic number  46.
 Defaulting to unpruned grid for atomic number  46.
 Defaulting to unpruned grid for atomic number  46.
 Defaulting to unpruned grid for atomic number  46.
 Defaulting to unpruned grid for atomic number  46.
 Defaulting to unpruned grid for atomic number  46.
 Defaulting to unpruned grid for atomic number  46.
 Defaulting to unpruned grid for atomic number  46.
 Defaulting to unpruned grid for atomic number  46.
 Defaulting to unpruned grid for atomic number  46.
 Defaulting to unpruned grid for atomic number  46.
 Defaulting to unpruned grid for atomic number  46.
 Defaulting to unpruned grid for atomic number  46.
 Defaulting to unpruned grid for atomic number  46.
 Defaulting to unpruned grid for atomic number  46.
 Defaulting to unpruned grid for atomic number  46.
 Defaulting to unpruned grid for atomic number  46.
 Defaulting to unpruned grid for atomic number  46.
 Defaulting to unpruned grid for atomic number  46.
 EnCoef did     4 forward-backward iterations
 EnCoef did   100 forward-backward iterations
 EnCoef did   100 forward-backward iterations
 EnCoef did     8 forward-backward iterations
 SCF Done:  E(RPBE1PBE) =  -2927.83194040     A.U. after   20 cycles
            NFock= 20  Conv=0.96D-08     -V/T= 2.0318
 DoSCS=F DFT=T ScalE2(SS,OS)=  1.000000  1.000000
 Range of M.O.s used for correlation:     1  1313
 NBasis=  1313 NAE=   148 NBE=   148 NFC=     0 NFV=     0
 NROrb=   1313 NOA=   148 NOB=   148 NVA=  1165 NVB=  1165

 **** Warning!!: The largest alpha MO coefficient is  0.40415755D+02

          Differentiating once with respect to magnetic field using GIAOs.
          Electric field/nuclear overlap derivatives assumed to be zero.
 Defaulting to unpruned grid for atomic number  46.
 FoFCou: FMM=F IPFlag=           0 FMFlag=      100000 FMFlg1=        2001
         NFxFlg=           0 DoJE=F BraDBF=F KetDBF=T FulRan=T
         wScrn=  0.000000 ICntrl=    6100 IOpCl=  0 I1Cent=           7 NGrid=          64
         NMat0=    1 NMatS0=      1 NMatT0=    0 NMatD0=    1 NMtDS0=    0 NMtDT0=    0
 Symmetry not used in FoFCou.
   1 Symmetry operations used in ECPInt.
 ECPInt:  NShTT=  134940 NPrTT=  421824 LenC2=  134941 LenP2D=  421824.
 LDataN:  DoStor=T MaxTD1= 8 Len=  415
 Number of processors reduced to  18 by ecpmxn.
 FoFJK:  IHMeth= 1 ICntrl=    6127 DoSepK=F KAlg= 0 I1Cent=   0 FoldK=F
 IRaf=         1 NMat=   1 IRICut=       1 DoRegI=T DoRafI=F ISym2E= 0.
 Defaulting to unpruned grid for atomic number  46.
 Defaulting to unpruned grid for atomic number  46.
 Defaulting to unpruned grid for atomic number  46.
 Defaulting to unpruned grid for atomic number  46.
 Defaulting to unpruned grid for atomic number  46.
 Defaulting to unpruned grid for atomic number  46.
 Defaulting to unpruned grid for atomic number  46.
 Defaulting to unpruned grid for atomic number  46.
 Defaulting to unpruned grid for atomic number  46.
 Defaulting to unpruned grid for atomic number  46.
 Defaulting to unpruned grid for atomic number  46.
 Defaulting to unpruned grid for atomic number  46.
 Defaulting to unpruned grid for atomic number  46.
 Defaulting to unpruned grid for atomic number  46.
 Defaulting to unpruned grid for atomic number  46.
 Defaulting to unpruned grid for atomic number  46.
 Defaulting to unpruned grid for atomic number  46.
 Defaulting to unpruned grid for atomic number  46.
 Defaulting to unpruned grid for atomic number  46.
 Defaulting to unpruned grid for atomic number  46.
 Defaulting to unpruned grid for atomic number  46.
 Defaulting to unpruned grid for atomic number  46.
 Defaulting to unpruned grid for atomic number  46.
 Defaulting to unpruned grid for atomic number  46.
 Defaulting to unpruned grid for atomic number  46.
 Defaulting to unpruned grid for atomic number  46.
 Defaulting to unpruned grid for atomic number  46.
 Defaulting to unpruned grid for atomic number  46.
 Defaulting to unpruned grid for atomic number  46.
 Defaulting to unpruned grid for atomic number  46.
 Defaulting to unpruned grid for atomic number  46.
 Defaulting to unpruned grid for atomic number  46.
 Defaulting to unpruned grid for atomic number  46.
 Defaulting to unpruned grid for atomic number  46.
 Defaulting to unpruned grid for atomic number  46.
 Defaulting to unpruned grid for atomic number  46.
 Defaulting to unpruned grid for atomic number  46.
 Defaulting to unpruned grid for atomic number  46.
 Defaulting to unpruned grid for atomic number  46.
 Defaulting to unpruned grid for atomic number  46.
 Defaulting to unpruned grid for atomic number  46.
 Defaulting to unpruned grid for atomic number  46.
 Defaulting to unpruned grid for atomic number  46.
 Defaulting to unpruned grid for atomic number  46.
 Defaulting to unpruned grid for atomic number  46.
 Defaulting to unpruned grid for atomic number  46.
 Defaulting to unpruned grid for atomic number  46.
 Defaulting to unpruned grid for atomic number  46.
 Defaulting to unpruned grid for atomic number  46.
 Defaulting to unpruned grid for atomic number  46.
 Defaulting to unpruned grid for atomic number  46.
 Defaulting to unpruned grid for atomic number  46.
 Defaulting to unpruned grid for atomic number  46.
 Defaulting to unpruned grid for atomic number  46.
 Defaulting to unpruned grid for atomic number  46.
 Defaulting to unpruned grid for atomic number  46.
 Defaulting to unpruned grid for atomic number  46.
 Defaulting to unpruned grid for atomic number  46.
 Defaulting to unpruned grid for atomic number  46.
 Defaulting to unpruned grid for atomic number  46.
 Defaulting to unpruned grid for atomic number  46.
 Defaulting to unpruned grid for atomic number  46.
 Defaulting to unpruned grid for atomic number  46.
 Defaulting to unpruned grid for atomic number  46.
          There are     3 degrees of freedom in the 1st order CPHF.  IDoFFX=0 NUNeed=     3.
      3 vectors produced by pass  0 Test12= 5.75D-12 3.33D-08 XBig12= 1.61D+02 1.77D+00.
 AX will form     3 AO Fock derivatives at one time.
      3 vectors produced by pass  1 Test12= 5.75D-12 3.33D-08 XBig12= 7.79D-01 1.60D-01.
      3 vectors produced by pass  2 Test12= 5.75D-12 3.33D-08 XBig12= 7.40D-03 3.64D-02.
      3 vectors produced by pass  3 Test12= 5.75D-12 3.33D-08 XBig12= 1.59D-04 4.63D-03.
      3 vectors produced by pass  4 Test12= 5.75D-12 3.33D-08 XBig12= 6.71D-07 1.75D-04.
      3 vectors produced by pass  5 Test12= 5.75D-12 3.33D-08 XBig12= 4.20D-09 2.16D-05.
      3 vectors produced by pass  6 Test12= 5.75D-12 3.33D-08 XBig12= 5.07D-11 2.82D-06.
      3 vectors produced by pass  7 Test12= 5.75D-12 3.33D-08 XBig12= 5.43D-13 1.92D-07.
 InvSVY:  IOpt=1 It=  1 EMax= 1.78D-15
 Solved reduced A of dimension    24 with     3 vectors.
 Calculating GIAO nuclear magnetic shielding tensors.
 SCF GIAO Magnetic shielding tensor (ppm):
      1  P    Isotropic =   241.9408   Anisotropy =    82.5226
   XX=   246.7042   YX=     2.5236   ZX=   -47.1249
   XY=    -1.8025   YY=   238.8380   ZY=    15.7771
   XZ=   -56.6429   YZ=    11.8404   ZZ=   240.2801
   Eigenvalues:   189.3276   239.5389   296.9559
      2  C    Isotropic =    48.7054   Anisotropy =   178.7206
   XX=    76.1127   YX=    34.9595   ZX=    67.3745
   XY=    42.8967   YY=   -32.2987   ZY=    17.9400
   XZ=    73.6868   YZ=    13.4109   ZZ=   102.3024
   Eigenvalues:   -45.2396    23.5034   167.8525
      3  C    Isotropic =    36.1726   Anisotropy =   194.6231
   XX=    26.0820   YX=    36.5360   ZX=   114.0588
   XY=    26.5366   YY=    25.7263   ZY=     7.5692
   XZ=   119.4256   YZ=    18.8700   ZZ=    56.7095
   Eigenvalues:   -78.5851    21.1815   165.9213
      4  C    Isotropic =    51.2783   Anisotropy =   187.2241
   XX=    77.1738   YX=   -13.2720   ZX=    87.7827
   XY=   -14.7532   YY=   -11.4971   ZY=    54.7376
   XZ=    87.5276   YZ=    57.3871   ZZ=    88.1584
   Eigenvalues:   -59.3399    37.0805   176.0944
      5  C    Isotropic =    47.6003   Anisotropy =   194.2628
   XX=    78.5709   YX=    43.7886   ZX=    72.5511
   XY=    45.2677   YY=   -48.9711   ZY=    12.5775
   XZ=    73.7622   YZ=    10.2121   ZZ=   113.2010
   Eigenvalues:   -63.8389    29.5309   177.1088
      6  C    Isotropic =    52.9149   Anisotropy =   184.7686
   XX=    34.9351   YX=    28.3599   ZX=   110.0578
   XY=    28.5815   YY=    41.6171   ZY=     5.3306
   XZ=   111.9088   YZ=     8.3877   ZZ=    82.1925
   Eigenvalues:   -58.1636    40.8143   176.0940
      7  C    Isotropic =    43.6280   Anisotropy =   197.8486
   XX=    60.6827   YX=   -14.6839   ZX=    95.1086
   XY=   -17.1919   YY=   -19.3732   ZY=    54.0316
   XZ=    90.9328   YZ=    62.2110   ZZ=    89.5746
   Eigenvalues:   -71.5401    26.8971   175.5271
      8  H    Isotropic =    24.0454   Anisotropy =    11.9755
   XX=    25.4823   YX=    -5.5575   ZX=    -2.7595
   XY=    -4.0037   YY=    25.7308   ZY=     3.2328
   XZ=    -0.5450   YZ=     5.3100   ZZ=    20.9231
   Eigenvalues:    18.2228    21.8844    32.0291
      9  H    Isotropic =    23.9106   Anisotropy =     6.3298
   XX=    23.0901   YX=    -1.8117   ZX=    -1.4086
   XY=    -1.2989   YY=    27.6439   ZY=    -0.9246
   XZ=    -1.0648   YZ=    -0.2667   ZZ=    20.9979
   Eigenvalues:    20.2212    23.3802    28.1305
     10  H    Isotropic =    23.6254   Anisotropy =     3.7920
   XX=    24.1173   YX=    -0.6106   ZX=    -2.7243
   XY=    -0.2043   YY=    24.2291   ZY=    -1.1637
   XZ=    -2.5647   YZ=    -1.0743   ZZ=    22.5298
   Eigenvalues:    20.2349    24.4879    26.1534
     11  H    Isotropic =    23.6019   Anisotropy =     7.0781
   XX=    23.2848   YX=    -3.1290   ZX=    -1.7279
   XY=    -2.9252   YY=    26.2835   ZY=     0.2969
   XZ=    -1.4591   YZ=     0.1799   ZZ=    21.2374
   Eigenvalues:    20.0175    22.4675    28.3206
     12  H    Isotropic =    22.1183   Anisotropy =    12.2186
   XX=    18.0318   YX=    -3.0800   ZX=     1.0515
   XY=    -2.1161   YY=    29.4773   ZY=    -1.3864
   XZ=     0.6882   YZ=    -1.5108   ZZ=    18.8459
   Eigenvalues:    17.2567    18.8343    30.2641
     13  C    Isotropic =    46.3833   Anisotropy =   174.2094
   XX=    16.0413   YX=   -70.8844   ZX=   -43.1156
   XY=   -65.5838   YY=    35.8895   ZY=    52.0757
   XZ=   -46.9183   YZ=    58.6969   ZZ=    87.2191
   Eigenvalues:   -43.0380    19.6651   162.5229
     14  C    Isotropic =    49.7132   Anisotropy =   186.8875
   XX=     4.7430   YX=   -20.2687   ZX=   -89.5885
   XY=   -13.4614   YY=    78.1667   ZY=    65.2459
   XZ=   -87.8764   YZ=    69.7154   ZZ=    66.2300
   Eigenvalues:   -63.7839    38.6186   174.3049
     15  C    Isotropic =    53.3528   Anisotropy =   183.5832
   XX=    68.9340   YX=   -30.3937   ZX=   -43.6669
   XY=   -31.8408   YY=    18.9495   ZY=   101.2968
   XZ=   -42.7617   YZ=    99.0591   ZZ=    72.1748
   Eigenvalues:   -58.1152    42.4320   175.7416
     16  C    Isotropic =    48.4213   Anisotropy =   192.1201
   XX=     8.4130   YX=   -79.8768   ZX=   -45.1090
   XY=   -85.2538   YY=    33.5310   ZY=    56.6762
   XZ=   -48.3522   YZ=    54.4414   ZZ=   103.3200
   Eigenvalues:   -62.5474    31.3100   176.5014
     17  C    Isotropic =    50.9935   Anisotropy =   188.8216
   XX=     9.3978   YX=   -22.7989   ZX=   -90.1360
   XY=   -25.8974   YY=    76.3067   ZY=    62.0900
   XZ=   -91.6296   YZ=    64.4404   ZZ=    67.2759
   Eigenvalues:   -59.7854    35.8913   176.8745
     18  C    Isotropic =    39.0453   Anisotropy =   204.3959
   XX=    42.4426   YX=   -38.1215   ZX=   -56.7822
   XY=   -26.1419   YY=    16.4289   ZY=   102.6359
   XZ=   -49.8367   YZ=   112.0339   ZZ=    58.2644
   Eigenvalues:   -72.8524    14.6791   175.3092
     19  H    Isotropic =    22.8401   Anisotropy =    12.0768
   XX=    29.5289   YX=     4.6067   ZX=     2.0858
   XY=     2.0771   YY=    18.6076   ZY=     0.4254
   XZ=     1.2582   YZ=     3.1274   ZZ=    20.3836
   Eigenvalues:    17.1272    20.5017    30.8913
     20  H    Isotropic =    23.6965   Anisotropy =     6.6083
   XX=    24.8365   YX=     3.4045   ZX=     0.3519
   XY=     3.0476   YY=    24.7076   ZY=    -1.9680
   XZ=     0.5584   YZ=    -1.2523   ZZ=    21.5455
   Eigenvalues:    20.0360    22.9516    28.1020
     21  H    Isotropic =    23.6431   Anisotropy =     3.9509
   XX=    24.3765   YX=     0.6963   ZX=     2.0128
   XY=     0.1955   YY=    23.4057   ZY=    -2.4114
   XZ=     1.7214   YZ=    -2.2514   ZZ=    23.1470
   Eigenvalues:    20.2435    24.4087    26.2770
     22  H    Isotropic =    23.7551   Anisotropy =     6.9365
   XX=    26.5018   YX=     3.0200   ZX=     1.5794
   XY=     2.9412   YY=    23.3610   ZY=    -0.8389
   XZ=     1.1364   YZ=    -0.8491   ZZ=    21.4026
   Eigenvalues:    20.0220    22.8639    28.3795
     23  H    Isotropic =    23.5887   Anisotropy =    12.2694
   XX=    24.1787   YX=     5.4860   ZX=    -1.1881
   XY=     5.6801   YY=    26.6719   ZY=    -2.1087
   XZ=    -2.0841   YZ=    -2.2308   ZZ=    19.9156
   Eigenvalues:    19.2788    19.7190    31.7684
     24  C    Isotropic =   134.5380   Anisotropy =    57.1442
   XX=   139.9120   YX=    -1.8894   ZX=    -8.5540
   XY=     0.4915   YY=    92.3804   ZY=     1.4594
   XZ=    -4.5203   YZ=    -3.2085   ZZ=   171.3214
   Eigenvalues:    92.3581   138.6217   172.6341
     25  C    Isotropic =   139.4682   Anisotropy =    13.8967
   XX=   134.4436   YX=    -2.9016   ZX=    -0.2316
   XY=    -1.8393   YY=   142.5064   ZY=    -5.0757
   XZ=    16.7677   YZ=     0.1908   ZZ=   141.4547
   Eigenvalues:   128.9382   140.7338   148.7327
     26  C    Isotropic =    43.5688   Anisotropy =   170.6651
   XX=    25.1200   YX=    28.1179   ZX=    22.0211
   XY=    57.6691   YY=   -32.6399   ZY=   -38.4491
   XZ=    69.5066   YZ=   -39.3070   ZZ=   138.2261
   Eigenvalues:   -70.6859    44.0467   157.3455
     27  C    Isotropic =    37.3186   Anisotropy =   180.8194
   XX=    30.0283   YX=    35.0274   ZX=    16.7338
   XY=     6.4124   YY=   -61.7726   ZY=   -32.3346
   XZ=   -18.0539   YZ=   -78.1363   ZZ=   143.7002
   Eigenvalues:   -79.3175    33.4085   157.8649
     28  H    Isotropic =    25.0254   Anisotropy =     2.5349
   XX=    25.3657   YX=     0.9033   ZX=     0.9497
   XY=    -0.0546   YY=    23.4674   ZY=     2.6527
   XZ=    -0.4189   YZ=    -0.5321   ZZ=    26.2431
   Eigenvalues:    23.0643    25.2966    26.7153
     29  C    Isotropic =   141.1111   Anisotropy =    10.0081
   XX=   141.2118   YX=    -4.2928   ZX=     4.8055
   XY=    -1.8602   YY=   137.6042   ZY=    -0.6966
   XZ=   -13.6256   YZ=    -6.7044   ZZ=   144.5174
   Eigenvalues:   133.1734   142.3768   147.7832
     30  H    Isotropic =    28.6740   Anisotropy =     7.5983
   XX=    31.9853   YX=     1.4964   ZX=     2.1524
   XY=     3.0953   YY=    25.2453   ZY=     0.5677
   XZ=     1.5228   YZ=     2.7696   ZZ=    28.7913
   Eigenvalues:    24.2558    28.0266    33.7395
     31  C    Isotropic =   131.3130   Anisotropy =    36.1899
   XX=   144.4906   YX=   -15.9823   ZX=    17.2922
   XY=    -6.0380   YY=   138.8234   ZY=     2.1464
   XZ=     5.2955   YZ=    -6.5538   ZZ=   110.6251
   Eigenvalues:   107.1632   131.3362   155.4396
     32  H    Isotropic =    30.5572   Anisotropy =     8.3778
   XX=    28.5722   YX=    -7.0170   ZX=    -2.2820
   XY=    -3.7894   YY=    32.2766   ZY=    -1.6041
   XZ=    -0.6578   YZ=    -0.9271   ZZ=    30.8228
   Eigenvalues:    24.1528    31.3763    36.1424
     33  H    Isotropic =    29.8898   Anisotropy =    12.4364
   XX=    26.5892   YX=    -1.3267   ZX=     1.9705
   XY=     0.1507   YY=    25.8228   ZY=    -1.6349
   XZ=     1.9602   YZ=    -3.5604   ZZ=    37.2573
   Eigenvalues:    25.2357    26.2530    38.1807
     34  C    Isotropic =   133.3273   Anisotropy =    57.9743
   XX=   136.7736   YX=    -2.1839   ZX=    12.7517
   XY=     1.8969   YY=    97.8934   ZY=    19.7538
   XZ=     9.3745   YZ=    11.0595   ZZ=   165.3148
   Eigenvalues:    94.3873   133.6177   171.9768
     35  P    Isotropic =   243.6637   Anisotropy =    72.4106
   XX=   245.9394   YX=    11.7738   ZX=    42.9429
   XY=    14.6859   YY=   231.1326   ZY=    -6.9309
   XZ=    40.6916   YZ=   -16.4709   ZZ=   253.9190
   Eigenvalues:   198.3951   240.6585   291.9374
     36  C    Isotropic =    46.0275   Anisotropy =   181.5422
   XX=    93.7906   YX=    13.7422   ZX=   -74.8521
   XY=    19.8898   YY=   -35.3228   ZY=    17.2400
   XZ=   -85.2272   YZ=    19.7729   ZZ=    79.6148
   Eigenvalues:   -47.0351    18.0621   167.0557
     37  C    Isotropic =    36.3215   Anisotropy =   194.5797
   XX=    52.5405   YX=     4.9805   ZX=  -120.2668
   XY=    -3.0252   YY=    20.5470   ZY=     1.9030
   XZ=  -122.7906   YZ=    -4.6300   ZZ=    35.8769
   Eigenvalues:   -77.6064    20.5295   166.0413
     38  C    Isotropic =    50.7169   Anisotropy =   187.9621
   XX=    94.3220   YX=   -32.3437   ZX=   -84.7313
   XY=   -33.5614   YY=   -31.8142   ZY=   -28.8115
   XZ=   -83.1953   YZ=   -30.2784   ZZ=    89.6429
   Eigenvalues:   -60.3730    36.4988   176.0250
     39  C    Isotropic =    47.6417   Anisotropy =   193.9410
   XX=    98.2420   YX=    21.1025   ZX=   -81.8589
   XY=    21.7339   YY=   -45.7157   ZY=    29.7603
   XZ=   -82.9104   YZ=    30.8949   ZZ=    90.3988
   Eigenvalues:   -63.6969    29.6864   176.9357
     40  C    Isotropic =    52.1525   Anisotropy =   185.7287
   XX=    61.1744   YX=     0.4389   ZX=  -117.3665
   XY=    -0.2945   YY=    39.6524   ZY=     5.7355
   XZ=  -117.5581   YZ=     3.5073   ZZ=    55.6307
   Eigenvalues:   -59.2065    39.6923   175.9716
     41  C    Isotropic =    45.1767   Anisotropy =   193.8853
   XX=    80.6424   YX=   -34.5414   ZX=   -92.1075
   XY=   -36.5042   YY=   -35.3469   ZY=   -25.7649
   XZ=   -85.5201   YZ=   -32.7146   ZZ=    90.2345
   Eigenvalues:   -68.0342    29.1306   174.4336
     42  H    Isotropic =    24.0347   Anisotropy =    11.6019
   XX=    24.9440   YX=    -4.4843   ZX=     4.2035
   XY=    -3.1914   YY=    23.7720   ZY=    -3.9638
   XZ=     2.0039   YZ=    -5.3049   ZZ=    23.3881
   Eigenvalues:    18.8914    21.4435    31.7693
     43  H    Isotropic =    23.8553   Anisotropy =     6.4740
   XX=    22.5158   YX=    -1.3891   ZX=     1.8739
   XY=    -0.8955   YY=    27.5631   ZY=    -0.8033
   XZ=     1.7279   YZ=    -1.5070   ZZ=    21.4871
   Eigenvalues:    20.1204    23.2742    28.1714
     44  H    Isotropic =    23.5808   Anisotropy =     3.8247
   XX=    23.4176   YX=     0.0616   ZX=     2.9529
   XY=     0.3747   YY=    24.6186   ZY=     0.7289
   XZ=     2.7537   YZ=     0.4035   ZZ=    22.7062
   Eigenvalues:    20.1687    24.4432    26.1306
     45  H    Isotropic =    23.4854   Anisotropy =     7.0504
   XX=    22.6252   YX=    -2.4773   ZX=     2.4960
   XY=    -2.3113   YY=    25.8069   ZY=    -1.6694
   XZ=     2.1314   YZ=    -1.6324   ZZ=    22.0242
   Eigenvalues:    19.9632    22.3074    28.1857
     46  H    Isotropic =    21.8557   Anisotropy =    12.2603
   XX=    17.9338   YX=    -2.8709   ZX=    -0.1065
   XY=    -2.0897   YY=    29.3452   ZY=    -1.4956
   XZ=    -0.5241   YZ=    -1.5038   ZZ=    18.2882
   Eigenvalues:    17.0653    18.4726    30.0293
     47  C    Isotropic =    45.7398   Anisotropy =   174.0450
   XX=     9.8500   YX=   -60.1980   ZX=    56.0396
   XY=   -54.7180   YY=    22.8570   ZY=   -40.4493
   XZ=    57.7287   YZ=   -46.3467   ZZ=   104.5124
   Eigenvalues:   -43.2002    18.6498   161.7698
     48  C    Isotropic =    49.4904   Anisotropy =   185.2096
   XX=     7.5771   YX=     0.5240   ZX=    88.8747
   XY=     6.1351   YY=    50.8054   ZY=   -66.8591
   XZ=    84.5080   YZ=   -71.8391   ZZ=    90.0886
   Eigenvalues:   -63.2845    38.7922   172.9634
     49  C    Isotropic =    53.3829   Anisotropy =   183.0333
   XX=    67.1099   YX=   -26.9567   ZX=    44.1985
   XY=   -28.3352   YY=   -15.1323   ZY=   -84.8693
   XZ=    43.7782   YZ=   -83.0161   ZZ=   108.1711
   Eigenvalues:   -57.8361    42.5798   175.4051
     50  C    Isotropic =    48.4288   Anisotropy =   192.0964
   XX=     1.3211   YX=   -68.9268   ZX=    59.2375
   XY=   -73.3452   YY=    22.5077   ZY=   -41.0578
   XZ=    63.1152   YZ=   -39.0571   ZZ=   121.4576
   Eigenvalues:   -62.7123    31.5056   176.4931
     51  C    Isotropic =    50.8231   Anisotropy =   189.0992
   XX=    10.4152   YX=    -2.1464   ZX=    90.5255
   XY=    -4.8756   YY=    51.0783   ZY=   -64.2079
   XZ=    92.1723   YZ=   -66.1005   ZZ=    90.9759
   Eigenvalues:   -60.2212    35.8013   176.8892
     52  C    Isotropic =    38.7450   Anisotropy =   204.5844
   XX=    40.6887   YX=   -29.9380   ZX=    59.1772
   XY=   -19.8895   YY=   -22.2414   ZY=   -89.2447
   XZ=    50.6702   YZ=   -96.1601   ZZ=    97.7877
   Eigenvalues:   -72.8553    13.9556   175.1346
     53  H    Isotropic =    22.6723   Anisotropy =    12.1513
   XX=    29.6480   YX=     3.7837   ZX=    -3.1704
   XY=     1.4854   YY=    17.4225   ZY=     0.5406
   XZ=    -1.4948   YZ=    -1.5911   ZZ=    20.9464
   Eigenvalues:    16.8784    20.3653    30.7732
     54  H    Isotropic =    23.6826   Anisotropy =     6.7300
   XX=    25.0886   YX=     3.3900   ZX=    -1.0723
   XY=     2.9742   YY=    24.8782   ZY=     1.2509
   XZ=    -1.1134   YZ=     0.6759   ZZ=    21.0810
   Eigenvalues:    19.9432    22.9354    28.1692
     55  H    Isotropic =    23.6380   Anisotropy =     4.0055
   XX=    24.2574   YX=     0.3458   ZX=    -2.0509
   XY=    -0.1037   YY=    24.3244   ZY=     2.3017
   XZ=    -1.7035   YZ=     2.1452   ZZ=    22.3322
   Eigenvalues:    20.2018    24.4039    26.3083
     56  H    Isotropic =    23.7327   Anisotropy =     6.9089
   XX=    26.5652   YX=     2.5012   ZX=    -2.2588
   XY=     2.5324   YY=    23.3980   ZY=     0.5084
   XZ=    -1.9448   YZ=     0.4317   ZZ=    21.2349
   Eigenvalues:    19.9301    22.9294    28.3386
     57  H    Isotropic =    23.5913   Anisotropy =    12.3565
   XX=    24.3567   YX=     5.9421   ZX=    -0.3350
   XY=     6.3234   YY=    26.7643   ZY=     0.6363
   XZ=     0.0782   YZ=     0.8065   ZZ=    19.6528
   Eigenvalues:    18.8923    20.0525    31.8289
     58  Pd   Isotropic =  -155.5042   Anisotropy =   266.6030
   XX=    -2.9229   YX=   -15.4169   ZX=     0.4786
   XY=   -34.4222   YY=  -477.7192   ZY=    61.9844
   XZ=     2.7859   YZ=    64.5378   ZZ=    14.1297
   Eigenvalues:  -487.0091    -1.7345    22.2311
     59  Cl   Isotropic =   943.6365   Anisotropy =   538.9578
   XX=   729.1522   YX=    22.4110   ZX=  -164.4733
   XY=    80.7380   YY=  1298.1018   ZY=     7.8760
   XZ=  -169.8098   YZ=     2.9823   ZZ=   803.6557
   Eigenvalues:   592.4543   935.5135  1302.9418
     60  Cl   Isotropic =   936.2244   Anisotropy =   541.0885
   XX=   725.3302   YX=    67.5635   ZX=   165.9040
   XY=   120.0088   YY=  1255.1591   ZY=  -133.0152
   XZ=   148.1474   YZ=  -130.5314   ZZ=   828.1840
   Eigenvalues:   576.5321   935.1912  1296.9501
     61  H    Isotropic =    28.8127   Anisotropy =     4.6008
   XX=    28.1820   YX=    -4.1072   ZX=     1.2429
   XY=     0.9649   YY=    28.9353   ZY=    -0.4520
   XZ=     3.4511   YZ=    -0.6746   ZZ=    29.3208
   Eigenvalues:    26.0244    28.5337    31.8799
     62  H    Isotropic =    25.7181   Anisotropy =     5.6233
   XX=    24.9395   YX=    -2.8188   ZX=     1.2310
   XY=     1.1850   YY=    23.5425   ZY=     2.1197
   XZ=     2.4470   YZ=    -0.4059   ZZ=    28.6723
   Eigenvalues:    22.7139    24.9734    29.4670
     63  H    Isotropic =    28.4378   Anisotropy =     8.4335
   XX=    29.3839   YX=     2.4211   ZX=    -2.5435
   XY=     5.6167   YY=    26.7670   ZY=    -0.6684
   XZ=    -2.7484   YZ=    -2.0101   ZZ=    29.1625
   Eigenvalues:    23.7980    27.4552    34.0602
     64  H    Isotropic =    28.2781   Anisotropy =     4.6687
   XX=    29.2896   YX=    -4.0499   ZX=     0.3905
   XY=    -0.0760   YY=    28.0468   ZY=     0.1040
   XZ=    -3.0022   YZ=     1.3618   ZZ=    27.4978
   Eigenvalues:    26.4472    26.9965    31.3905
 End of Minotr F.D. properties file   721 does not exist.
 End of Minotr F.D. properties file   722 does not exist.
 End of Minotr F.D. properties file   788 does not exist.

 **********************************************************************

            Population analysis using the SCF density.

 **********************************************************************

 Orbital symmetries:
       Occupied  (A) (A) (A) (A) (A) (A) (A) (A) (A) (A) (A) (A)
                 (A) (A) (A) (A) (A) (A) (A) (A) (A) (A) (A) (A)
                 (A) (A) (A) (A) (A) (A) (A) (A) (A) (A) (A) (A)
                 (A) (A) (A) (A) (A) (A) (A) (A) (A) (A) (A) (A)
                 (A) (A) (A) (A) (A) (A) (A) (A) (A) (A) (A) (A)
                 (A) (A) (A) (A) (A) (A) (A) (A) (A) (A) (A) (A)
                 (A) (A) (A) (A) (A) (A) (A) (A) (A) (A) (A) (A)
                 (A) (A) (A) (A) (A) (A) (A) (A) (A) (A) (A) (A)
                 (A) (A) (A) (A) (A) (A) (A) (A) (A) (A) (A) (A)
                 (A) (A) (A) (A) (A) (A) (A) (A) (A) (A) (A) (A)
                 (A) (A) (A) (A) (A) (A) (A) (A) (A) (A) (A) (A)
                 (A) (A) (A) (A) (A) (A) (A) (A) (A) (A) (A) (A)
                 (A) (A) (A) (A)
       Virtual   (A) (A) (A) (A) (A) (A) (A) (A) (A) (A) (A) (A)
                 (A) (A) (A) (A) (A) (A) (A) (A) (A) (A) (A) (A)
                 (A) (A) (A) (A) (A) (A) (A) (A) (A) (A) (A) (A)
                 (A) (A) (A) (A) (A) (A) (A) (A) (A) (A) (A) (A)
                 (A) (A) (A) (A) (A) (A) (A) (A) (A) (A) (A) (A)
                 (A) (A) (A) (A) (A) (A) (A) (A) (A) (A) (A) (A)
                 (A) (A) (A) (A) (A) (A) (A) (A) (A) (A) (A) (A)
                 (A) (A) (A) (A) (A) (A) (A) (A) (A) (A) (A) (A)
                 (A) (A) (A) (A) (A) (A) (A) (A) (A) (A) (A) (A)
                 (A) (A) (A) (A) (A) (A) (A) (A) (A) (A) (A) (A)
                 (A) (A) (A) (A) (A) (A) (A) (A) (A) (A) (A) (A)
                 (A) (A) (A) (A) (A) (A) (A) (A) (A) (A) (A) (A)
                 (A) (A) (A) (A) (A) (A) (A) (A) (A) (A) (A) (A)
                 (A) (A) (A) (A) (A) (A) (A) (A) (A) (A) (A) (A)
                 (A) (A) (A) (A) (A) (A) (A) (A) (A) (A) (A) (A)
                 (A) (A) (A) (A) (A) (A) (A) (A) (A) (A) (A) (A)
                 (A) (A) (A) (A) (A) (A) (A) (A) (A) (A) (A) (A)
                 (A) (A) (A) (A) (A) (A) (A) (A) (A) (A) (A) (A)
                 (A) (A) (A) (A) (A) (A) (A) (A) (A) (A) (A) (A)
                 (A) (A) (A) (A) (A) (A) (A) (A) (A) (A) (A) (A)
                 (A) (A) (A) (A) (A) (A) (A) (A) (A) (A) (A) (A)
                 (A) (A) (A) (A) (A) (A) (A) (A) (A) (A) (A) (A)
                 (A) (A) (A) (A) (A) (A) (A) (A) (A) (A) (A) (A)
                 (A) (A) (A) (A) (A) (A) (A) (A) (A) (A) (A) (A)
                 (A) (A) (A) (A) (A) (A) (A) (A) (A) (A) (A) (A)
                 (A) (A) (A) (A) (A) (A) (A) (A) (A) (A) (A) (A)
                 (A) (A) (A) (A) (A) (A) (A) (A) (A) (A) (A) (A)
                 (A) (A) (A) (A) (A) (A) (A) (A) (A) (A) (A) (A)
                 (A) (A) (A) (A) (A) (A) (A) (A) (A) (A) (A) (A)
                 (A) (A) (A) (A) (A) (A) (A) (A) (A) (A) (A) (A)
                 (A) (A) (A) (A) (A) (A) (A) (A) (A) (A) (A) (A)
                 (A) (A) (A) (A) (A) (A) (A) (A) (A) (A) (A) (A)
                 (A) (A) (A) (A) (A) (A) (A) (A) (A) (A) (A) (A)
                 (A) (A) (A) (A) (A) (A) (A) (A) (A) (A) (A) (A)
                 (A) (A) (A) (A) (A) (A) (A) (A) (A) (A) (A) (A)
                 (A) (A) (A) (A) (A) (A) (A) (A) (A) (A) (A) (A)
                 (A) (A) (A) (A) (A) (A) (A) (A) (A) (A) (A) (A)
                 (A) (A) (A) (A) (A) (A) (A) (A) (A) (A) (A) (A)
                 (A) (A) (A) (A) (A) (A) (A) (A) (A) (A) (A) (A)
                 (A) (A) (A) (A) (A) (A) (A) (A) (A) (A) (A) (A)
                 (A) (A) (A) (A) (A) (A) (A) (A) (A) (A) (A) (A)
                 (A) (A) (A) (A) (A) (A) (A) (A) (A) (A) (A) (A)
                 (A) (A) (A) (A) (A) (A) (A) (A) (A) (A) (A) (A)
                 (A) (A) (A) (A) (A) (A) (A) (A) (A) (A) (A) (A)
                 (A) (A) (A) (A) (A) (A) (A) (A) (A) (A) (A) (A)
                 (A) (A) (A) (A) (A) (A) (A) (A) (A) (A) (A) (A)
                 (A) (A) (A) (A) (A) (A) (A) (A) (A) (A) (A) (A)
                 (A) (A) (A) (A) (A) (A) (A) (A) (A) (A) (A) (A)
                 (A) (A) (A) (A) (A) (A) (A) (A) (A) (A) (A) (A)
                 (A) (A) (A) (A) (A) (A) (A) (A) (A) (A) (A) (A)
                 (A) (A) (A) (A) (A) (A) (A) (A) (A) (A) (A) (A)
                 (A) (A) (A) (A) (A) (A) (A) (A) (A) (A) (A) (A)
                 (A) (A) (A) (A) (A) (A) (A) (A) (A) (A) (A) (A)
                 (A) (A) (A) (A) (A) (A) (A) (A) (A) (A) (A) (A)
                 (A) (A) (A) (A) (A) (A) (A) (A) (A) (A) (A) (A)
                 (A) (A) (A) (A) (A) (A) (A) (A) (A) (A) (A) (A)
                 (A) (A) (A) (A) (A) (A) (A) (A) (A) (A) (A) (A)
                 (A) (A) (A) (A) (A) (A) (A) (A) (A) (A) (A) (A)
                 (A) (A) (A) (A) (A) (A) (A) (A) (A) (A) (A) (A)
                 (A) (A) (A) (A) (A) (A) (A) (A) (A) (A) (A) (A)
                 (A) (A) (A) (A) (A) (A) (A) (A) (A) (A) (A) (A)
                 (A) (A) (A) (A) (A) (A) (A) (A) (A) (A) (A) (A)
                 (A) (A) (A) (A) (A) (A) (A) (A) (A) (A) (A) (A)
                 (A) (A) (A) (A) (A) (A) (A) (A) (A) (A) (A) (A)
                 (A) (A) (A) (A) (A) (A) (A) (A) (A) (A) (A) (A)
                 (A) (A) (A) (A) (A) (A) (A) (A) (A) (A) (A) (A)
                 (A) (A) (A) (A) (A) (A) (A) (A) (A) (A) (A) (A)
                 (A) (A) (A) (A) (A) (A) (A) (A) (A) (A) (A) (A)
                 (A) (A) (A) (A) (A) (A) (A) (A) (A) (A) (A) (A)
                 (A) (A) (A) (A) (A) (A) (A) (A) (A) (A) (A) (A)
                 (A) (A) (A) (A) (A) (A) (A) (A) (A) (A) (A) (A)
                 (A) (A) (A) (A) (A) (A) (A) (A) (A) (A) (A) (A)
                 (A) (A) (A) (A) (A) (A) (A) (A) (A) (A) (A) (A)
                 (A) (A) (A) (A) (A) (A) (A) (A) (A) (A) (A) (A)
                 (A) (A) (A) (A) (A) (A) (A) (A) (A) (A) (A) (A)
                 (A) (A) (A) (A) (A) (A) (A) (A) (A) (A) (A) (A)
                 (A) (A) (A) (A) (A) (A) (A) (A) (A) (A) (A) (A)
                 (A) (A) (A) (A) (A) (A) (A) (A) (A) (A) (A) (A)
                 (A) (A) (A) (A) (A) (A) (A) (A) (A) (A) (A) (A)
                 (A) (A) (A) (A) (A) (A) (A) (A) (A) (A) (A) (A)
                 (A) (A) (A) (A) (A) (A) (A) (A) (A) (A) (A) (A)
                 (A) (A) (A) (A) (A) (A) (A) (A) (A) (A) (A) (A)
                 (A) (A) (A) (A) (A) (A) (A) (A) (A) (A) (A) (A)
                 (A) (A) (A) (A) (A) (A) (A) (A) (A) (A) (A) (A)
                 (A) (A) (A) (A) (A) (A) (A) (A) (A) (A) (A) (A)
                 (A) (A) (A) (A) (A) (A) (A) (A) (A) (A) (A) (A)
                 (A) (A) (A) (A) (A) (A) (A) (A) (A) (A) (A) (A)
                 (A) (A) (A) (A) (A) (A) (A) (A) (A) (A) (A) (A)
                 (A) (A) (A) (A) (A) (A) (A) (A) (A) (A) (A) (A)
                 (A) (A) (A) (A) (A) (A) (A) (A) (A) (A) (A) (A)
                 (A) (A) (A) (A) (A) (A) (A) (A) (A) (A) (A) (A)
                 (A) (A) (A) (A) (A) (A) (A) (A) (A) (A) (A) (A)
                 (A) (A) (A) (A) (A) (A) (A) (A) (A) (A) (A) (A)
                 (A) (A) (A) (A) (A) (A) (A) (A) (A) (A) (A) (A)
                 (A) (A) (A) (A) (A) (A) (A) (A) (A) (A) (A) (A)
                 (A) (A) (A) (A) (A) (A) (A) (A) (A) (A) (A) (A)
                 (A) (A) (A) (A) (A) (A) (A) (A) (A) (A) (A) (A)
                 (A)
 The electronic state is 1-A.
 Alpha  occ. eigenvalues -- -101.60864-101.60863 -77.26462 -77.26416 -10.27180
 Alpha  occ. eigenvalues --  -10.27056 -10.26615 -10.26589 -10.26286 -10.26178
 Alpha  occ. eigenvalues --  -10.26120 -10.26103 -10.25744 -10.25567 -10.25431
 Alpha  occ. eigenvalues --  -10.25427 -10.25367 -10.25220 -10.25218 -10.25214
 Alpha  occ. eigenvalues --  -10.25123 -10.25044 -10.24946 -10.24794 -10.24732
 Alpha  occ. eigenvalues --  -10.24730 -10.24688 -10.24660 -10.24656 -10.24631
 Alpha  occ. eigenvalues --  -10.24569 -10.24531 -10.24452 -10.24290 -10.24276
 Alpha  occ. eigenvalues --   -9.43365  -9.43364  -7.16543  -7.16541  -7.16094
 Alpha  occ. eigenvalues --   -7.16089  -7.16061  -7.16060  -6.65714  -6.65676
 Alpha  occ. eigenvalues --   -4.79308  -4.79277  -4.79271  -4.79238  -4.79047
 Alpha  occ. eigenvalues --   -4.79006  -3.51593  -2.19273  -2.19165  -2.15982
 Alpha  occ. eigenvalues --   -0.93993  -0.90123  -0.90014  -0.89333  -0.89301
 Alpha  occ. eigenvalues --   -0.82996  -0.81128  -0.79110  -0.78770  -0.78645
 Alpha  occ. eigenvalues --   -0.78491  -0.78302  -0.78104  -0.78054  -0.76627
 Alpha  occ. eigenvalues --   -0.74739  -0.73588  -0.73026  -0.69709  -0.67826
 Alpha  occ. eigenvalues --   -0.64483  -0.64271  -0.64241  -0.63802  -0.63241
 Alpha  occ. eigenvalues --   -0.63154  -0.62348  -0.61543  -0.59139  -0.58684
 Alpha  occ. eigenvalues --   -0.56043  -0.55294  -0.54722  -0.54551  -0.53830
 Alpha  occ. eigenvalues --   -0.53121  -0.50594  -0.48865  -0.48746  -0.48618
 Alpha  occ. eigenvalues --   -0.48446  -0.48320  -0.47977  -0.47617  -0.46858
 Alpha  occ. eigenvalues --   -0.46347  -0.45321  -0.45259  -0.45135  -0.44705
 Alpha  occ. eigenvalues --   -0.44340  -0.43752  -0.43152  -0.42195  -0.41955
 Alpha  occ. eigenvalues --   -0.41269  -0.40590  -0.40300  -0.40031  -0.39582
 Alpha  occ. eigenvalues --   -0.39158  -0.38556  -0.38524  -0.37971  -0.37637
 Alpha  occ. eigenvalues --   -0.37288  -0.37220  -0.36830  -0.36804  -0.36413
 Alpha  occ. eigenvalues --   -0.35781  -0.35631  -0.35028  -0.34504  -0.32045
 Alpha  occ. eigenvalues --   -0.31180  -0.30951  -0.30515  -0.29766  -0.29100
 Alpha  occ. eigenvalues --   -0.28904  -0.28651  -0.28476  -0.28145  -0.28041
 Alpha  occ. eigenvalues --   -0.27771  -0.26860  -0.26168  -0.25293  -0.24597
 Alpha  occ. eigenvalues --   -0.23653  -0.23356  -0.23051
 Alpha virt. eigenvalues --   -0.07400  -0.04970  -0.04562  -0.03857  -0.03427
 Alpha virt. eigenvalues --   -0.03223  -0.02673  -0.02299  -0.01871  -0.01001
 Alpha virt. eigenvalues --    0.00461   0.00860   0.03186   0.03842   0.04104
 Alpha virt. eigenvalues --    0.04612   0.04953   0.05204   0.06003   0.06205
 Alpha virt. eigenvalues --    0.06577   0.06658   0.07084   0.07463   0.07526
 Alpha virt. eigenvalues --    0.07851   0.08083   0.08419   0.08979   0.09042
 Alpha virt. eigenvalues --    0.09252   0.09678   0.09775   0.10048   0.10301
 Alpha virt. eigenvalues --    0.10568   0.10976   0.11143   0.11349   0.11610
 Alpha virt. eigenvalues --    0.12038   0.12305   0.12603   0.12788   0.13209
 Alpha virt. eigenvalues --    0.13446   0.13619   0.13891   0.14322   0.14597
 Alpha virt. eigenvalues --    0.15481   0.15499   0.15996   0.16084   0.16535
 Alpha virt. eigenvalues --    0.16785   0.17378   0.17816   0.18109   0.18222
 Alpha virt. eigenvalues --    0.18875   0.19200   0.19264   0.19701   0.19825
 Alpha virt. eigenvalues --    0.20248   0.20488   0.20888   0.21203   0.21252
 Alpha virt. eigenvalues --    0.21533   0.21719   0.22133   0.22528   0.22752
 Alpha virt. eigenvalues --    0.22829   0.23122   0.23357   0.23404   0.23569
 Alpha virt. eigenvalues --    0.23765   0.24006   0.24184   0.24303   0.24381
 Alpha virt. eigenvalues --    0.24558   0.25071   0.25485   0.25588   0.26050
 Alpha virt. eigenvalues --    0.26350   0.26403   0.26498   0.26737   0.27073
 Alpha virt. eigenvalues --    0.27378   0.27550   0.27905   0.28636   0.28671
 Alpha virt. eigenvalues --    0.28699   0.29239   0.29697   0.29958   0.30438
 Alpha virt. eigenvalues --    0.30650   0.30990   0.31186   0.31374   0.31739
 Alpha virt. eigenvalues --    0.31849   0.32391   0.32708   0.33027   0.33431
 Alpha virt. eigenvalues --    0.33712   0.33825   0.34164   0.34384   0.34859
 Alpha virt. eigenvalues --    0.34951   0.35190   0.35631   0.35735   0.36258
 Alpha virt. eigenvalues --    0.36479   0.36667   0.37024   0.37355   0.37754
 Alpha virt. eigenvalues --    0.37894   0.37910   0.38095   0.38295   0.38412
 Alpha virt. eigenvalues --    0.38675   0.39106   0.39149   0.39400   0.39574
 Alpha virt. eigenvalues --    0.39805   0.40317   0.40586   0.40744   0.40852
 Alpha virt. eigenvalues --    0.41133   0.41445   0.41616   0.41726   0.41853
 Alpha virt. eigenvalues --    0.41940   0.42213   0.42454   0.42679   0.42755
 Alpha virt. eigenvalues --    0.42884   0.43171   0.43500   0.43893   0.44013
 Alpha virt. eigenvalues --    0.44134   0.44403   0.44496   0.44831   0.44996
 Alpha virt. eigenvalues --    0.45173   0.45238   0.45650   0.45829   0.46085
 Alpha virt. eigenvalues --    0.46265   0.46398   0.46877   0.47228   0.47367
 Alpha virt. eigenvalues --    0.47540   0.47903   0.48326   0.48392   0.48619
 Alpha virt. eigenvalues --    0.48811   0.49173   0.49444   0.49630   0.49781
 Alpha virt. eigenvalues --    0.49970   0.50320   0.50961   0.51105   0.51318
 Alpha virt. eigenvalues --    0.51498   0.51937   0.52142   0.52232   0.52382
 Alpha virt. eigenvalues --    0.52722   0.52826   0.53192   0.53666   0.54092
 Alpha virt. eigenvalues --    0.54670   0.54756   0.55160   0.55753   0.56027
 Alpha virt. eigenvalues --    0.56512   0.56922   0.56932   0.57498   0.57749
 Alpha virt. eigenvalues --    0.58161   0.58635   0.58859   0.58930   0.59724
 Alpha virt. eigenvalues --    0.59962   0.60527   0.60671   0.61053   0.61514
 Alpha virt. eigenvalues --    0.61852   0.62188   0.62981   0.63405   0.63893
 Alpha virt. eigenvalues --    0.64475   0.64637   0.64889   0.65006   0.65441
 Alpha virt. eigenvalues --    0.65980   0.66449   0.66606   0.67058   0.67158
 Alpha virt. eigenvalues --    0.67502   0.67698   0.67948   0.68123   0.68351
 Alpha virt. eigenvalues --    0.68804   0.69034   0.69281   0.69659   0.70174
 Alpha virt. eigenvalues --    0.70550   0.71280   0.71332   0.71526   0.71941
 Alpha virt. eigenvalues --    0.72453   0.72701   0.72796   0.73191   0.73443
 Alpha virt. eigenvalues --    0.73534   0.73979   0.74066   0.74869   0.75017
 Alpha virt. eigenvalues --    0.75215   0.75445   0.76023   0.76094   0.76693
 Alpha virt. eigenvalues --    0.77200   0.77386   0.77764   0.77881   0.78316
 Alpha virt. eigenvalues --    0.78450   0.79105   0.79145   0.79693   0.79757
 Alpha virt. eigenvalues --    0.80005   0.80627   0.80748   0.81095   0.81318
 Alpha virt. eigenvalues --    0.81906   0.82166   0.82697   0.82800   0.83257
 Alpha virt. eigenvalues --    0.83429   0.84067   0.84813   0.85312   0.85468
 Alpha virt. eigenvalues --    0.85721   0.86591   0.86754   0.87359   0.87432
 Alpha virt. eigenvalues --    0.87805   0.88467   0.89036   0.89547   0.90002
 Alpha virt. eigenvalues --    0.90048   0.90515   0.90834   0.91670   0.91781
 Alpha virt. eigenvalues --    0.91932   0.92621   0.93218   0.93635   0.94075
 Alpha virt. eigenvalues --    0.94222   0.94514   0.95206   0.95541   0.95757
 Alpha virt. eigenvalues --    0.96182   0.96833   0.97352   0.98090   0.98496
 Alpha virt. eigenvalues --    0.98830   0.99741   1.00124   1.00389   1.01025
 Alpha virt. eigenvalues --    1.01536   1.01855   1.02192   1.02910   1.03594
 Alpha virt. eigenvalues --    1.03752   1.04241   1.04503   1.04616   1.05183
 Alpha virt. eigenvalues --    1.05584   1.06109   1.06695   1.07205   1.07613
 Alpha virt. eigenvalues --    1.08273   1.08470   1.08887   1.09059   1.09589
 Alpha virt. eigenvalues --    1.09879   1.10049   1.10566   1.11603   1.12094
 Alpha virt. eigenvalues --    1.12638   1.13548   1.14136   1.14775   1.15037
 Alpha virt. eigenvalues --    1.15886   1.16072   1.16377   1.16587   1.16690
 Alpha virt. eigenvalues --    1.17521   1.17879   1.18166   1.18455   1.19458
 Alpha virt. eigenvalues --    1.19611   1.20085   1.20861   1.21295   1.21733
 Alpha virt. eigenvalues --    1.22075   1.22189   1.22699   1.23063   1.23350
 Alpha virt. eigenvalues --    1.23548   1.23625   1.24156   1.24449   1.24678
 Alpha virt. eigenvalues --    1.25095   1.25296   1.25587   1.25967   1.26375
 Alpha virt. eigenvalues --    1.26614   1.26941   1.27272   1.27517   1.27983
 Alpha virt. eigenvalues --    1.28249   1.28507   1.28868   1.29473   1.29529
 Alpha virt. eigenvalues --    1.30194   1.30415   1.30877   1.31042   1.31633
 Alpha virt. eigenvalues --    1.31891   1.32404   1.32576   1.33097   1.33568
 Alpha virt. eigenvalues --    1.34046   1.34679   1.35239   1.35482   1.35791
 Alpha virt. eigenvalues --    1.36154   1.36420   1.36647   1.37103   1.37526
 Alpha virt. eigenvalues --    1.38639   1.39474   1.40522   1.41256   1.41388
 Alpha virt. eigenvalues --    1.41830   1.42637   1.43237   1.43758   1.43918
 Alpha virt. eigenvalues --    1.44414   1.44650   1.45143   1.45730   1.46100
 Alpha virt. eigenvalues --    1.46407   1.46785   1.47024   1.47554   1.47980
 Alpha virt. eigenvalues --    1.49119   1.49554   1.50039   1.50358   1.50917
 Alpha virt. eigenvalues --    1.51491   1.51930   1.52385   1.52580   1.53062
 Alpha virt. eigenvalues --    1.53531   1.53822   1.54007   1.54476   1.54550
 Alpha virt. eigenvalues --    1.55133   1.55390   1.55882   1.56162   1.57122
 Alpha virt. eigenvalues --    1.57285   1.57723   1.58257   1.58887   1.59083
 Alpha virt. eigenvalues --    1.59902   1.60517   1.60980   1.61483   1.61888
 Alpha virt. eigenvalues --    1.62475   1.62705   1.63263   1.63484   1.64528
 Alpha virt. eigenvalues --    1.64814   1.65172   1.65446   1.65803   1.66525
 Alpha virt. eigenvalues --    1.66681   1.67130   1.67654   1.67880   1.68298
 Alpha virt. eigenvalues --    1.68952   1.69166   1.69509   1.69694   1.69930
 Alpha virt. eigenvalues --    1.70382   1.71002   1.71277   1.71434   1.71496
 Alpha virt. eigenvalues --    1.71844   1.72309   1.72619   1.72996   1.73194
 Alpha virt. eigenvalues --    1.73729   1.73810   1.74707   1.74827   1.75469
 Alpha virt. eigenvalues --    1.75507   1.75991   1.76269   1.76825   1.76914
 Alpha virt. eigenvalues --    1.78215   1.78736   1.79196   1.79568   1.80647
 Alpha virt. eigenvalues --    1.81065   1.81625   1.81915   1.82343   1.82694
 Alpha virt. eigenvalues --    1.83240   1.84019   1.84163   1.84915   1.85775
 Alpha virt. eigenvalues --    1.86109   1.86312   1.87309   1.88345   1.89413
 Alpha virt. eigenvalues --    1.89582   1.90364   1.90736   1.91435   1.91640
 Alpha virt. eigenvalues --    1.92147   1.92629   1.93426   1.93677   1.93787
 Alpha virt. eigenvalues --    1.94280   1.95232   1.95645   1.95679   1.96207
 Alpha virt. eigenvalues --    1.96598   1.97261   1.97605   1.99075   1.99465
 Alpha virt. eigenvalues --    1.99817   1.99939   2.00617   2.00832   2.01483
 Alpha virt. eigenvalues --    2.01799   2.02131   2.02325   2.02810   2.03408
 Alpha virt. eigenvalues --    2.03759   2.04200   2.04648   2.05085   2.05419
 Alpha virt. eigenvalues --    2.06241   2.06367   2.06990   2.07266   2.07526
 Alpha virt. eigenvalues --    2.08058   2.08980   2.09002   2.09350   2.09589
 Alpha virt. eigenvalues --    2.09713   2.10163   2.10885   2.11404   2.11782
 Alpha virt. eigenvalues --    2.12145   2.12531   2.12752   2.12925   2.13588
 Alpha virt. eigenvalues --    2.13706   2.14300   2.14874   2.15910   2.15988
 Alpha virt. eigenvalues --    2.16614   2.16804   2.17192   2.17480   2.17883
 Alpha virt. eigenvalues --    2.18028   2.18352   2.19022   2.19373   2.19758
 Alpha virt. eigenvalues --    2.20451   2.20829   2.21072   2.21162   2.21845
 Alpha virt. eigenvalues --    2.22449   2.22914   2.23358   2.23614   2.24205
 Alpha virt. eigenvalues --    2.24637   2.25272   2.25650   2.25927   2.26091
 Alpha virt. eigenvalues --    2.26764   2.26998   2.27441   2.28026   2.28808
 Alpha virt. eigenvalues --    2.29622   2.29814   2.30700   2.31333   2.32072
 Alpha virt. eigenvalues --    2.32680   2.33071   2.33911   2.35478   2.35651
 Alpha virt. eigenvalues --    2.35866   2.37209   2.37877   2.38494   2.38914
 Alpha virt. eigenvalues --    2.39628   2.40213   2.40418   2.40966   2.41545
 Alpha virt. eigenvalues --    2.41708   2.41943   2.42360   2.42913   2.43424
 Alpha virt. eigenvalues --    2.44075   2.44693   2.45186   2.45381   2.45928
 Alpha virt. eigenvalues --    2.46228   2.46397   2.47448   2.47478   2.47864
 Alpha virt. eigenvalues --    2.49134   2.49469   2.49775   2.50383   2.50454
 Alpha virt. eigenvalues --    2.51429   2.51715   2.52070   2.52758   2.53062
 Alpha virt. eigenvalues --    2.53744   2.54636   2.54954   2.55324   2.55842
 Alpha virt. eigenvalues --    2.56151   2.56397   2.56812   2.57323   2.58738
 Alpha virt. eigenvalues --    2.59057   2.59360   2.60095   2.60507   2.61136
 Alpha virt. eigenvalues --    2.61588   2.61824   2.61987   2.62496   2.62743
 Alpha virt. eigenvalues --    2.62960   2.63310   2.63482   2.63737   2.64453
 Alpha virt. eigenvalues --    2.64613   2.64792   2.65021   2.65541   2.65662
 Alpha virt. eigenvalues --    2.66034   2.66407   2.66504   2.66889   2.67125
 Alpha virt. eigenvalues --    2.67673   2.67719   2.68137   2.68572   2.69068
 Alpha virt. eigenvalues --    2.69379   2.69672   2.69985   2.70464   2.70798
 Alpha virt. eigenvalues --    2.71609   2.71873   2.71975   2.72112   2.72442
 Alpha virt. eigenvalues --    2.72746   2.73501   2.73563   2.74034   2.74167
 Alpha virt. eigenvalues --    2.74681   2.74911   2.75379   2.75632   2.76141
 Alpha virt. eigenvalues --    2.76430   2.76776   2.77103   2.77147   2.77235
 Alpha virt. eigenvalues --    2.77719   2.77885   2.78010   2.78494   2.78606
 Alpha virt. eigenvalues --    2.79082   2.79311   2.79499   2.79745   2.80355
 Alpha virt. eigenvalues --    2.81251   2.81483   2.82326   2.83099   2.83254
 Alpha virt. eigenvalues --    2.83828   2.84590   2.84661   2.85021   2.85307
 Alpha virt. eigenvalues --    2.85612   2.86013   2.86065   2.86571   2.86779
 Alpha virt. eigenvalues --    2.86851   2.87470   2.87921   2.88566   2.89067
 Alpha virt. eigenvalues --    2.89621   2.89966   2.90115   2.90911   2.91132
 Alpha virt. eigenvalues --    2.91568   2.91881   2.92378   2.92940   2.93497
 Alpha virt. eigenvalues --    2.94081   2.94752   2.94947   2.95229   2.95507
 Alpha virt. eigenvalues --    2.96102   2.96390   2.97174   2.97664   2.98089
 Alpha virt. eigenvalues --    2.98456   3.00125   3.00289   3.01422   3.01591
 Alpha virt. eigenvalues --    3.02708   3.03395   3.04411   3.04973   3.05290
 Alpha virt. eigenvalues --    3.06435   3.07105   3.07366   3.08103   3.09003
 Alpha virt. eigenvalues --    3.09357   3.09622   3.10431   3.10687   3.10969
 Alpha virt. eigenvalues --    3.11537   3.11682   3.12050   3.12400   3.12568
 Alpha virt. eigenvalues --    3.12745   3.13164   3.13440   3.14309   3.14653
 Alpha virt. eigenvalues --    3.14926   3.15477   3.15806   3.16019   3.16081
 Alpha virt. eigenvalues --    3.16357   3.16701   3.17293   3.17407   3.17765
 Alpha virt. eigenvalues --    3.18205   3.18423   3.19039   3.19511   3.19910
 Alpha virt. eigenvalues --    3.20347   3.20449   3.21220   3.21360   3.22022
 Alpha virt. eigenvalues --    3.22157   3.23271   3.23663   3.23876   3.24561
 Alpha virt. eigenvalues --    3.25457   3.25717   3.26005   3.26418   3.26616
 Alpha virt. eigenvalues --    3.27066   3.27716   3.28019   3.28979   3.29427
 Alpha virt. eigenvalues --    3.29660   3.30048   3.30321   3.30405   3.31057
 Alpha virt. eigenvalues --    3.31287   3.31820   3.32264   3.32911   3.33162
 Alpha virt. eigenvalues --    3.33459   3.34033   3.34405   3.34904   3.35430
 Alpha virt. eigenvalues --    3.35498   3.35812   3.36153   3.36605   3.36745
 Alpha virt. eigenvalues --    3.37012   3.37679   3.38129   3.38560   3.38954
 Alpha virt. eigenvalues --    3.38997   3.39376   3.39761   3.40105   3.40766
 Alpha virt. eigenvalues --    3.40992   3.41123   3.41236   3.41777   3.42115
 Alpha virt. eigenvalues --    3.42209   3.42316   3.42658   3.42828   3.43764
 Alpha virt. eigenvalues --    3.43877   3.44351   3.44929   3.45224   3.45812
 Alpha virt. eigenvalues --    3.46031   3.46463   3.46912   3.47497   3.47664
 Alpha virt. eigenvalues --    3.47831   3.48091   3.49030   3.49353   3.49532
 Alpha virt. eigenvalues --    3.49821   3.50693   3.51001   3.51204   3.51514
 Alpha virt. eigenvalues --    3.51700   3.52235   3.52251   3.52525   3.52967
 Alpha virt. eigenvalues --    3.53384   3.53917   3.54047   3.54533   3.55198
 Alpha virt. eigenvalues --    3.55917   3.56218   3.56830   3.57233   3.58304
 Alpha virt. eigenvalues --    3.58696   3.59305   3.59942   3.60808   3.61157
 Alpha virt. eigenvalues --    3.61763   3.62827   3.63684   3.64618   3.65471
 Alpha virt. eigenvalues --    3.66311   3.67836   3.68623   3.68924   3.68963
 Alpha virt. eigenvalues --    3.69187   3.69812   3.70401   3.70783   3.70975
 Alpha virt. eigenvalues --    3.71392   3.72668   3.73424   3.73899   3.74314
 Alpha virt. eigenvalues --    3.74523   3.75308   3.75648   3.76538   3.76788
 Alpha virt. eigenvalues --    3.78404   3.78508   3.81078   3.81503   3.83144
 Alpha virt. eigenvalues --    3.85965   3.86609   3.87166   3.87835   3.88834
 Alpha virt. eigenvalues --    3.89315   3.91085   3.91616   3.92163   3.92570
 Alpha virt. eigenvalues --    3.92988   3.93732   3.94044   3.94652   3.95616
 Alpha virt. eigenvalues --    3.96671   3.98669   4.00289   4.00694   4.01184
 Alpha virt. eigenvalues --    4.01823   4.02351   4.02740   4.02844   4.03070
 Alpha virt. eigenvalues --    4.04062   4.04507   4.05397   4.05982   4.06707
 Alpha virt. eigenvalues --    4.07380   4.08214   4.10432   4.10893   4.11261
 Alpha virt. eigenvalues --    4.11526   4.11929   4.13167   4.13307   4.13449
 Alpha virt. eigenvalues --    4.14321   4.15109   4.15535   4.17079   4.17956
 Alpha virt. eigenvalues --    4.18188   4.18243   4.18619   4.18764   4.18881
 Alpha virt. eigenvalues --    4.19248   4.19352   4.19641   4.20055   4.20420
 Alpha virt. eigenvalues --    4.20762   4.20858   4.20914   4.21475   4.21855
 Alpha virt. eigenvalues --    4.23115   4.23625   4.24320   4.24742   4.24869
 Alpha virt. eigenvalues --    4.25097   4.25376   4.25742   4.25829   4.26718
 Alpha virt. eigenvalues --    4.26878   4.27156   4.28145   4.28729   4.28987
 Alpha virt. eigenvalues --    4.29589   4.30927   4.32040   4.32654   4.33531
 Alpha virt. eigenvalues --    4.34029   4.34638   4.35528   4.36443   4.36718
 Alpha virt. eigenvalues --    4.38179   4.39854   4.40134   4.40417   4.41582
 Alpha virt. eigenvalues --    4.45468   4.47308   4.49896   4.51344   4.53822
 Alpha virt. eigenvalues --    4.58631   4.59361   4.59891   4.60179   4.60353
 Alpha virt. eigenvalues --    4.61480   4.61810   4.62052   4.62108   4.63510
 Alpha virt. eigenvalues --    4.64008   4.64597   4.64997   4.66461   4.68457
 Alpha virt. eigenvalues --    4.70398   4.70549   4.71802   4.72780   4.74554
 Alpha virt. eigenvalues --    4.74858   4.75588   4.76179   4.82083   4.83636
 Alpha virt. eigenvalues --    4.84139   4.84511   4.84974   4.88188   4.90315
 Alpha virt. eigenvalues --    4.91026   4.91195   4.92314   4.92629   4.93299
 Alpha virt. eigenvalues --    4.94004   4.94896   4.96093   5.00496   5.02521
 Alpha virt. eigenvalues --    5.03625   5.09434   5.11191   5.11417   5.11873
 Alpha virt. eigenvalues --    5.11987   5.12494   5.12922   5.13245   5.13653
 Alpha virt. eigenvalues --    5.14229   5.17834   5.18815   5.24728   5.24792
 Alpha virt. eigenvalues --    5.25740   5.25858   5.32118   5.32661   5.34504
 Alpha virt. eigenvalues --    5.35330   5.39111   5.39540   5.40766   5.40886
 Alpha virt. eigenvalues --    5.56345   5.56696   5.57861   5.58758   7.83662
 Alpha virt. eigenvalues --    7.86151   7.96852   8.03592   8.04185   8.06131
 Alpha virt. eigenvalues --   10.93046  10.93709  10.98009  11.02476  11.03594
 Alpha virt. eigenvalues --   11.09671  16.05099  16.17985  22.13280  22.14229
 Alpha virt. eigenvalues --   22.17578  22.21157  22.39873  22.57580  22.59563
[...]
  1202. RY*(  20)Cl  60                  0.00001     2.65046   
  1203. RY*(  21)Cl  60                  0.00000     2.66327   
  1204. RY*(  22)Cl  60                  0.00000     2.20633   
  1205. RY*(  23)Cl  60                  0.00000     2.18155   
  1206. RY*(  24)Cl  60                  0.00000     2.16337   
  1207. RY*(  25)Cl  60                  0.00000     2.18540   
  1208. RY*(  26)Cl  60                  0.00000     2.18073   
  1209. RY*(  27)Cl  60                  0.00000     2.18674   
  1210. RY*(  28)Cl  60                  0.00000     2.17921   
  1211. RY*(   1) H  61                  0.00171     0.92202   
  1212. RY*(   2) H  61                  0.00033     2.40485   
  1213. RY*(   3) H  61                  0.00014     2.67652   
  1214. RY*(   4) H  61                  0.00011     2.73843   
  1215. RY*(   5) H  61                  0.00003     3.31251   
  1216. RY*(   1) H  62                  0.00048     1.58334   
  1217. RY*(   2) H  62                  0.00021     1.42535   
  1218. RY*(   3) H  62                  0.00016     2.21920   
  1219. RY*(   4) H  62                  0.00013     2.45598   
  1220. RY*(   5) H  62                  0.00002     3.00681   
  1221. RY*(   1) H  63                  0.00094     0.56820   
  1222. RY*(   2) H  63                  0.00020     2.27867   
  1223. RY*(   3) H  63                  0.00015     2.54290   
  1224. RY*(   4) H  63                  0.00016     2.54263   
  1225. RY*(   5) H  63                  0.00001     3.06376   
  1226. RY*(   1) H  64                  0.00172     0.90176   
  1227. RY*(   2) H  64                  0.00034     2.44916   
  1228. RY*(   3) H  64                  0.00016     2.71222   
  1229. RY*(   4) H  64                  0.00011     2.77399   
  1230. RY*(   5) H  64                  0.00002     3.30874   
  1231. BD*(   1) P   1 - C   2          0.07091     0.20349   
  1232. BD*(   1) P   1 - C  13          0.06758     0.20761   
  1233. BD*(   1) P   1 - C  24          0.07813     0.18714   
  1234. BD*(   1) P   1 -Pd  58          0.17536     0.64069  1283(g),1149(g),1148(g)
                                                    1137(g),150(g),1140(g)
                                                    1145(g),1133(g),742(v)
                                                    1138(g),1144(g),1142(g)
                                                    1134(g),1141(g),540(v)
                                                    1150(g),1158(v),1186(v)
                                                    716(r),360(v),952(r),160(g)
                                                    749(v),157(g),752(v),158(g)
                                                    542(v),1226(r),179(v),744(v)
                                                    1211(r),771(r),1147(g)
                                                    152(g),719(r),1313(g),750(v)
                                                    798(r),951(r),1146(g),159(g)
                                                    751(v),1162(v),359(v)
                                                    1127(r),1139(g),1132(g)
                                                    754(v),1151(g),162(g),926(r)
                                                    770(r),1190(v),535(r),772(r)
                                                    1107(r),515(r),761(v),312(r)
                                                    547(v),178(v),169(g),723(r)
                                                    363(v),208(r),1221(r),706(r)
                                                    800(r),1159(v),904(r),953(r)
                                                    361(v),1160(v),183(v),955(r)
                                                    334(r),181(v),309(r),778(r)
                                                    205(r),753(v),956(r),366(v)
                                                    1239(r),718(r),747(v)
                                                    1136(g),958(r),185(v)
                                                    1083(r),544(v),797(r),370(v)
                                                    206(r),492(r),954(r),1161(v)
                                                    180(v),207(r),962(r),362(v)
                                                    1188(v),775(r),1189(v)
                                                    901(r),543(v),1156(v),310(r)
                                                    165(g),374(v),364(v),721(r)
                                                    1153(g),1084(r),808(r)
                                                    1238(r),153(g),1179(v)
                                                    779(r),311(r),1187(v)
                                                    1169(v),762(v),182(v)
                                                    1163(v),941(r),354(r),367(v)
                                                    596(r),743(v),722(r),764(v)
                                                    167(g),186(v),774(r),190(v)
                                                    397(r),745(v),387(r),168(g)
                                                    1197(v),1204(v)
  1235. BD*(   1) C   2 - C   3          0.02358     0.50634   
  1236. BD*(   2) C   2 - C   3          0.36191     0.00867  1246(v),1241(v),1233(v)
                                                    1250(r),206(g),1232(v)
                                                    181(g)
  1237. BD*(   1) C   2 - C   7          0.02730     0.50257   
  1238. BD*(   1) C   3 - C   4          0.01620     0.53102   
  1239. BD*(   1) C   3 - H  12          0.01482     0.42031   
  1240. BD*(   1) C   4 - C   5          0.01429     0.52208   
  1241. BD*(   2) C   4 - C   5          0.31187     0.01260  1246(v),1236(v),258(g)
                                                    232(g)
  1242. BD*(   1) C   4 - H  11          0.01327     0.39227   
  1243. BD*(   1) C   5 - C   6          0.01457     0.51743   
  1244. BD*(   1) C   5 - H  10          0.01272     0.39070   
  1245. BD*(   1) C   6 - C   7          0.01516     0.52485   
  1246. BD*(   2) C   6 - C   7          0.30903     0.01166  1241(v),1236(v),284(g)
                                                    1260(r),1270(r)
  1247. BD*(   1) C   6 - H   9          0.01343     0.38687   
  1248. BD*(   1) C   7 - H   8          0.01512     0.38962   
  1249. BD*(   1) C  13 - C  14          0.02452     0.50544   
  1250. BD*(   2) C  13 - C  14          0.38866     0.00430  1255(v),1260(v),1236(r)
                                                    387(g),1299(r),1231(v)
  1251. BD*(   1) C  13 - C  18          0.02227     0.50596   
  1252. BD*(   1) C  14 - C  15          0.01492     0.52728   
  1253. BD*(   1) C  14 - H  23          0.01486     0.38832   
  1254. BD*(   1) C  15 - C  16          0.01437     0.52480   
  1255. BD*(   2) C  15 - C  16          0.32396     0.01442  1250(v),1260(v),439(g)
                                                    413(g)
  1256. BD*(   1) C  15 - H  22          0.01316     0.38999   
  1257. BD*(   1) C  16 - C  17          0.01444     0.52590   
  1258. BD*(   1) C  16 - H  21          0.01277     0.39465   
  1259. BD*(   1) C  17 - C  18          0.01506     0.53642   
  1260. BD*(   2) C  17 - C  18          0.29131     0.02398  1255(v),1250(v),465(g)
                                                    491(g),1246(r)
  1261. BD*(   1) C  17 - H  20          0.01321     0.39676   
  1262. BD*(   1) C  18 - H  19          0.01418     0.41481   
  1263. BD*(   1) C  24 - C  25          0.05114     0.28560   
  1264. BD*(   1) C  24 - C  34          0.02536     0.29034   
  1265. BD*(   1) C  24 - H  64          0.02572     0.34588   
  1266. BD*(   1) C  25 - C  26          0.02096     0.34888   
  1267. BD*(   1) C  25 - C  31          0.01262     0.28648   
  1268. BD*(   1) C  25 - H  63          0.02011     0.35995   
  1269. BD*(   1) C  26 - C  27          0.00945     0.56931   
  1270. BD*(   2) C  26 - C  27          0.05432     0.03033   
  1271. BD*(   1) C  26 - H  62          0.01611     0.40862   
  1272. BD*(   1) C  27 - H  28          0.01612     0.40140   
  1273. BD*(   1) C  27 - C  29          0.01874     0.33826   
  1274. BD*(   1) C  29 - H  30          0.02051     0.36176   
  1275. BD*(   1) C  29 - C  31          0.01332     0.29942   
  1276. BD*(   1) C  29 - C  34          0.04915     0.27918   
  1277. BD*(   1) C  31 - H  32          0.01541     0.36295   
  1278. BD*(   1) C  31 - H  33          0.01240     0.36174   
  1279. BD*(   1) C  34 - P  35          0.07762     0.18587   
  1280. BD*(   1) C  34 - H  61          0.02513     0.35600   
  1281. BD*(   1) P  35 - C  36          0.07205     0.20218   
  1282. BD*(   1) P  35 - C  47          0.06964     0.20683   
  1283. BD*(   1) P  35 -Pd  58          0.17514     0.64074  1234(g),1149(g),1148(g)
                                                    742(g),1140(g),1137(g)
                                                    1138(g),1145(g),1133(g)
                                                    150(v),1141(g),1144(g)
                                                    1142(g),1150(g),1158(v)
                                                    716(v),1134(g),540(r)
                                                    1186(v),952(v),360(r),752(g)
                                                    749(g),157(v),160(v),1226(r)
                                                    1136(g),179(r),158(v),542(r)
                                                    1211(r),152(v),771(v),719(v)
                                                    744(g),750(g),1312(g)
                                                    1139(g),751(g),1147(g)
                                                    359(r),1146(g),1190(v)
                                                    1127(r),951(v),162(v)
                                                    1132(g),1151(g),159(v)
                                                    754(g),798(r),515(r),1188(v)
                                                    178(r),953(v),169(v),1107(r)
                                                    770(v),904(r),206(r),1162(v)
                                                    955(v),535(r),706(r),547(r)
                                                    334(r),926(r),761(g),723(v)
                                                    772(v),208(r),312(r),800(r)
                                                    183(r),753(g),778(v),1221(r)
                                                    958(v),1187(v),362(r),309(r)
                                                    363(r),185(r),797(r),180(r)
                                                    544(r),153(v),956(v),1288(r)
                                                    1161(v),205(r),370(r),366(r)
                                                    361(r),181(r),310(r),1084(r)
                                                    543(r),718(v),901(r),1184(v)
                                                    207(r),364(r),311(r),747(g)
                                                    962(v),1135(g),492(r),774(v)
                                                    1083(r),1153(g),170(v)
                                                    775(v),1287(r),155(v),808(r)
                                                    721(v),165(v),1207(v)
                                                    1169(v),1157(v),1189(v)
                                                    374(r),1159(v),779(v)
                                                    1284(v),596(r),1197(v)
                                                    548(r),1204(v),946(r),354(r)
                                                    722(v),760(g),190(r),1143(g)
  1284. BD*(   1) C  36 - C  37          0.02367     0.50483   
  1285. BD*(   2) C  36 - C  37          0.36271     0.00654  1295(v),1290(v),1299(r)
                                                    1279(v),798(g),1282(v)
                                                    773(g)
  1286. BD*(   1) C  36 - C  41          0.02736     0.50158   
  1287. BD*(   1) C  37 - C  38          0.01625     0.52945   
  1288. BD*(   1) C  37 - H  46          0.01484     0.42164   
  1289. BD*(   1) C  38 - C  39          0.01432     0.52052   
  1290. BD*(   2) C  38 - C  39          0.31140     0.01094  1295(v),1285(v),850(g)
                                                    824(g)
  1291. BD*(   1) C  38 - H  45          0.01329     0.39144   
  1292. BD*(   1) C  39 - C  40          0.01451     0.51572   
  1293. BD*(   1) C  39 - H  44          0.01274     0.38948   
  1294. BD*(   1) C  40 - C  41          0.01511     0.52309   
  1295. BD*(   2) C  40 - C  41          0.30834     0.00963  1290(v),1285(v),876(g)
  1296. BD*(   1) C  40 - H  43          0.01335     0.38618   
  1297. BD*(   1) C  41 - H  42          0.01523     0.38605   
  1298. BD*(   1) C  47 - C  48          0.02460     0.50533   
  1299. BD*(   2) C  47 - C  48          0.38865     0.00426  1304(v),1309(v),1285(r)
                                                    979(g),1281(v),1250(r)
                                                    1295(r)
  1300. BD*(   1) C  47 - C  52          0.02220     0.50622   
  1301. BD*(   1) C  48 - C  49          0.01495     0.52731   
  1302. BD*(   1) C  48 - H  57          0.01475     0.39057   
  1303. BD*(   1) C  49 - C  50          0.01439     0.52484   
  1304. BD*(   2) C  49 - C  50          0.32361     0.01438  1299(v),1309(v),1031(g)
                                                    1005(g)
  1305. BD*(   1) C  49 - H  56          0.01320     0.38975   
  1306. BD*(   1) C  50 - C  51          0.01443     0.52577   
  1307. BD*(   1) C  50 - H  55          0.01277     0.39465   
  1308. BD*(   1) C  51 - C  52          0.01499     0.53640   
  1309. BD*(   2) C  51 - C  52          0.28939     0.02421  1304(v),1299(v),1057(g)
                                                    1083(g)
  1310. BD*(   1) C  51 - H  54          0.01319     0.39716   
  1311. BD*(   1) C  52 - H  53          0.01452     0.41440   
  1312. BD*(   1)Pd  58 -Cl  59          0.18504     0.17040  1313(g),1283(g),1142(g)
                                                    1140(g),742(v),1148(g)
                                                    1141(g),1136(g),1279(v)
                                                    150(v),1145(g),716(r)
                                                    1158(g),752(v),1133(g)
                                                    1139(g),157(v),1138(g)
                                                    1282(v),1137(g),952(r)
                                                    1144(g),749(v),160(v)
                                                    1288(r),540(r),1143(g)
                                                    1186(v),1150(g),158(v)
                                                    1155(g),1149(g)
  1313. BD*(   1)Pd  58 -Cl  60          0.18522     0.17036  1312(g),1234(g),1140(g)
                                                    1142(g),150(v),1148(g)
                                                    1145(g),1136(g),742(v)
                                                    1233(v),540(r),1186(g)
                                                    160(v),1137(g),1133(g)
                                                    749(v),1144(g),1232(v)
                                                    360(r),1143(g),1138(g)
                                                    157(v),752(v),1158(v)
                                                    1150(g),158(v),1147(g)
                                                    716(r),542(r),1183(g)
       -------------------------------
              Total Lewis  317.13480  ( 97.8811%)
        Valence non-Lewis    6.33885  (  1.9564%)
        Rydberg non-Lewis    0.52635  (  0.1625%)
       -------------------------------
            Total unit  1  324.00000  (100.0000%)
           Charge unit  1    0.00000
 1\1\GINC-NOTCH173\SP\RPBE1PBE\Gen\C31H28Cl2P2Pd1\U1010977\08-Feb-2022\
 0\\# PBE1PBE gen pseudo=read int=(grid=ultrafine) empiricaldispersion=
 GD3BJ pop=nbo guess=read geom=check\\RR_NorPhos_1 title\\0,1\P,0,-1.59
 19989913,-0.0212480463,-0.0247505294\C,0,-2.3700422249,1.625294436,0.1
 021268446\C,0,-1.8004394321,2.6953411708,-0.6132310428\C,0,-2.32434269
 96,3.987505402,-0.4701651006\C,0,-3.4217454903,4.2107136925,0.37317446
 59\C,0,-4.0049834447,3.1406584123,1.070695159\C,0,-3.4834538275,1.8484
 62179,0.9367595257\H,0,-3.9451119443,1.0092087657,1.467771836\H,0,-4.8
 726645236,3.3135191573,1.715904394\H,0,-3.8350426816,5.2191513563,0.47
 79443263\H,0,-1.8830746955,4.8169894498,-1.0317821186\H,0,-0.965885731
 9,2.4939454297,-1.2952943345\C,0,-2.9597436841,-1.2275325916,0.0003997
 643\C,0,-2.9268273351,-2.3579528894,0.8411604558\C,0,-3.9810837936,-3.
 2805502753,0.8206828979\C,0,-5.0702116732,-3.0844853365,-0.0394635928\
 C,0,-5.1016142847,-1.9653761531,-0.8847882611\C,0,-4.0524650587,-1.039
 5269111,-0.872112112\H,0,-4.061011315,-0.1837329963,-1.5520992918\H,0,
 -5.9437047326,-1.8159428226,-1.5678695473\H,0,-5.8918040672,-3.8077945
 466,-0.0559388074\H,0,-3.9482622775,-4.1549469828,1.478693932\H,0,-2.0
 797395174,-2.5294699756,1.5119071687\C,0,-0.607698412,-0.2975106588,1.
 5214386449\C,0,-1.0117740151,-0.195843237,3.0334985161\C,0,-1.21259505
 55,1.2640709603,3.4196841486\C,0,-0.0026096449,1.8639624771,3.40525499
 66\H,0,0.2112178572,2.9289591666,3.5317362403\C,0,1.0196849703,0.81954
 48792,2.9535725248\H,0,2.0792358336,1.040726068,3.1450605165\C,0,0.414
 4016695,-0.4433953009,3.6141019822\H,0,0.8752018219,-1.3875130069,3.27
 52350987\H,0,0.4369754861,-0.3854087514,4.714226976\C,0,0.627336077,0.
 6412312425,1.4347836226\P,0,1.6487554132,0.0023175097,0.0236220729\C,0
 ,2.3438180052,-1.6012728195,0.5547123084\C,0,1.8337567544,-2.783637459
 2,-0.0144820279\C,0,2.2863625922,-4.029141282,0.4429169223\C,0,3.24754
 03141,-4.0964293591,1.4613503645\C,0,3.7677862298,-2.9179298461,2.0205
 016997\C,0,3.32199118,-1.6703427229,1.5676830655\H,0,3.7388255031,-0.7
 495412179,1.989757891\H,0,4.5275162539,-2.9720542534,2.8070693783\H,0,
 3.6024758402,-5.069816422,1.8152801555\H,0,1.894154316,-4.9469988234,-
 0.0064478628\H,0,1.1021766925,-2.7080349866,-0.8276125423\C,0,3.072309
 5306,1.1308649348,-0.1361389896\C,0,3.095527804,2.3805818248,0.5146216
 173\C,0,4.2000765003,3.2297891611,0.3650073121\C,0,5.2830030458,2.8401
 706653,-0.4349096438\C,0,5.2592061222,1.5997179724,-1.0899582873\C,0,4
 .1604417767,0.7452464612,-0.9471741591\H,0,4.125474117,-0.2076297336,-
 1.4819243589\H,0,6.0977262837,1.2975467722,-1.7252788844\H,0,6.1438561
 913,3.5061914368,-0.5526094477\H,0,4.211703631,4.1984256483,0.87523223
 12\H,0,2.2552617791,2.6990844804,1.1386720079\Pd,0,0.0543540514,-0.171
 159232,-1.6144279136\Cl,0,1.8380531699,-0.5138119793,-3.1580044518\Cl,
 0,-1.6990015749,-0.1690658111,-3.2282639643\H,0,0.3019929051,1.6275677
 857,1.0489884813\H,0,-2.1823700409,1.7385844146,3.5815745944\H,0,-1.80
 42100905,-0.8984574475,3.3292249711\H,0,-0.2535874584,-1.3380194344,1.
 3734981605\\Version=ES64L-G09RevD.01\State=1-A\HF=-2927.8319404\RMSD=4
 .608e-09\Dipole=-0.0804842,0.4418142,4.6361413\Quadrupole=15.1859159,1
 5.9717328,-31.1576486,2.0053588,0.9203216,-4.7525204\PG=C01 [X(C31H28C
 l2P2Pd1)]\\@


 GOD GAVE US TWO ENDS... ONE TO SIT ON...    
 AND THE OTHER TO THINK WITH...              
 YOUR SUCCESS DEPENDS UPON WHICH END YOU     
 USE THE MOST...                             
                                             
 IT'S A CASE OF HEADS YOU WIN TAILS YOU LOSE.
          SOURCE UNKNOWN(IT'S JUST AS WELL.) 
 Job cpu time:       0 days  2 hours  6 minutes 12.6 seconds.
 File lengths (MBytes):  RWF=    885 Int=      0 D2E=      0 Chk=     94 Scr=      1
 Normal termination of Gaussian 09 at Tue Feb  8 09:54:12 2022.
