 Entering Gaussian System, Link 0=g09
 Input=RR_NorPhos_1.com
 Output=RR_NorPhos_1.log
 Initial command:
 /gstore/apps/gaussian/g09.e01-foss-2017a/g09/l1.exe "/local/21251378/Gau-1383.inp" -scrdir="/local/21251378/"
 Entering Link 1 = /gstore/apps/gaussian/g09.e01-foss-2017a/g09/l1.exe PID=      1384.
  
 Copyright (c) 1988,1990,1992,1993,1995,1998,2003,2009,2015,
            Gaussian, Inc.  All Rights Reserved.
  
 This is part of the Gaussian(R) 09 program.  It is based on
 the Gaussian(R) 03 system (copyright 2003, Gaussian, Inc.),
 the Gaussian(R) 98 system (copyright 1998, Gaussian, Inc.),
 the Gaussian(R) 94 system (copyright 1995, Gaussian, Inc.),
 the Gaussian 92(TM) system (copyright 1992, Gaussian, Inc.),
 the Gaussian 90(TM) system (copyright 1990, Gaussian, Inc.),
 the Gaussian 88(TM) system (copyright 1988, Gaussian, Inc.),
 the Gaussian 86(TM) system (copyright 1986, Carnegie Mellon
 University), and the Gaussian 82(TM) system (copyright 1983,
 Carnegie Mellon University). Gaussian is a federally registered
 trademark of Gaussian, Inc.
  
 This software contains proprietary and confidential information,
 including trade secrets, belonging to Gaussian, Inc.
  
 This software is provided under written license and may be
 used, copied, transmitted, or stored only in accord with that
 written license.
  
 The following legend is applicable only to US Government
 contracts under FAR:
  
                    RESTRICTED RIGHTS LEGEND
  
 Use, reproduction and disclosure by the US Government is
 subject to restrictions as set forth in subparagraphs (a)
 and (c) of the Commercial Computer Software - Restricted
 Rights clause in FAR 52.227-19.
  
 Gaussian, Inc.
 340 Quinnipiac St., Bldg. 40, Wallingford CT 06492
  
  
 ---------------------------------------------------------------
 Warning -- This program may not be used in any manner that
 competes with the business of Gaussian, Inc. or will provide
 assistance to any competitor of Gaussian, Inc.  The licensee
 of this program is prohibited from giving any competitor of
 Gaussian, Inc. access to this program.  By using this program,
 the user acknowledges that Gaussian, Inc. is engaged in the
 business of creating and licensing software in the field of
 computational chemistry and represents and warrants to the
 licensee that it is not a competitor of Gaussian, Inc. and that
 it will not use this program in any manner prohibited above.
 ---------------------------------------------------------------
  

 Cite this work as:
 Gaussian 09, Revision E.01,
 M. J. Frisch, G. W. Trucks, H. B. Schlegel, G. E. Scuseria, 
 M. A. Robb, J. R. Cheeseman, G. Scalmani, V. Barone, B. Mennucci, 
 G. A. Petersson, H. Nakatsuji, M. Caricato, X. Li, H. P. Hratchian, 
 A. F. Izmaylov, J. Bloino, G. Zheng, J. L. Sonnenberg, M. Hada, 
 M. Ehara, K. Toyota, R. Fukuda, J. Hasegawa, M. Ishida, T. Nakajima, 
 Y. Honda, O. Kitao, H. Nakai, T. Vreven, J. A. Montgomery, Jr., 
 J. E. Peralta, F. Ogliaro, M. Bearpark, J. J. Heyd, E. Brothers, 
 K. N. Kudin, V. N. Staroverov, T. Keith, R. Kobayashi, J. Normand, 
 K. Raghavachari, A. Rendell, J. C. Burant, S. S. Iyengar, J. Tomasi, 
 M. Cossi, N. Rega, J. M. Millam, M. Klene, J. E. Knox, J. B. Cross, 
 V. Bakken, C. Adamo, J. Jaramillo, R. Gomperts, R. E. Stratmann, 
 O. Yazyev, A. J. Austin, R. Cammi, C. Pomelli, J. W. Ochterski, 
 R. L. Martin, K. Morokuma, V. G. Zakrzewski, G. A. Voth, 
 P. Salvador, J. J. Dannenberg, S. Dapprich, A. D. Daniels, 
 O. Farkas, J. B. Foresman, J. V. Ortiz, J. Cioslowski, 
 and D. J. Fox, Gaussian, Inc., Wallingford CT, 2013.
 
 ******************************************
 Gaussian 09:  ES64L-G09RevE.01 30-Nov-2015
                16-Nov-2021 
 ******************************************
 %nprocs=14
 Will use up to   14 processors via shared memory.
 %mem=128GB
 %chk=RR_NorPhos_1.chk
 ----------------------------------------------------------------------
 # PBEPBE gen 6D pseudo=read scf=maxcycles=500 denfit int=(grid=ultrafi
 ne) empiricaldispersion=GD3BJ opt freq=noraman
 ----------------------------------------------------------------------
 1/14=-1,18=20,19=15,26=4,38=1/1,3;
 2/9=110,12=2,17=6,18=5,40=1/2;
 3/5=7,8=2,11=2,16=1,17=8,25=1,30=1,71=1,74=1009,75=-5,82=47,124=41/1,2,3;
 4//1;
 5/5=2,7=500,38=5/2;
 6/7=2,8=2,9=2,10=2,28=1/1;
 7//1,2,3,16;
 1/14=-1,18=20,19=15,26=4/3(2);
 2/9=110/2;
 99//99;
 2/9=110/2;
 3/5=7,6=1,8=2,11=2,16=1,17=8,25=1,30=1,71=1,74=1009,75=-5,82=7,124=41/1,2,3;
 4/5=5,16=3,69=1/1;
 5/5=2,7=500,38=5/2;
 7//1,2,3,16;
 1/14=-1,18=20,19=15,26=4/3(-5);
 2/9=110/2;
 6/7=2,8=2,9=2,10=2,19=2,28=1/1;
 99/9=1/99;
 ----------
 RR_NorPhos
 ----------
 Symbolic Z-matrix:
 Charge =  0 Multiplicity = 1
 P                    -1.6135    0.014    -0.0484 
 C                    -2.3613    1.7065    0.1692 
 C                    -1.8058    2.8182   -0.4975 
 C                    -2.3613    4.1015   -0.3299 
 C                    -3.481     4.2808    0.5043 
 C                    -4.0456    3.1746    1.1671 
 C                    -3.4873    1.8931    0.9973 
 H                    -3.9263    1.0459    1.5051 
 H                    -4.9093    3.3073    1.8024 
 H                    -3.9103    5.2643    0.6306 
 H                    -1.9311    4.9481   -0.8455 
 H                    -0.9503    2.6917   -1.1447 
 C                    -3.0156   -1.2208   -0.0624 
 C                    -2.9872   -2.3987    0.7164 
 C                    -4.0623   -3.3081    0.6788 
 C                    -5.1763   -3.0496   -0.1414 
 C                    -5.2117   -1.881    -0.9244 
 C                    -4.1353   -0.9743   -0.8836 
 H                    -4.1683   -0.0798   -1.49 
 H                    -6.0625   -1.6792   -1.5591 
 H                    -6.0008   -3.7472   -0.1727 
 H                    -4.0317   -4.2063    1.2784 
 H                    -2.1435   -2.6215    1.3507 
 C                    -0.6096   -0.3039    1.4434 
 C                    -1.0498   -0.2324    2.9252 
 C                    -1.2042    1.199     3.409 
 C                     0.0104    1.7608    3.4296 
 H                     0.2611    2.7768    3.7002 
 C                     0.9939    0.7433    2.8827 
 H                     2.0413    0.9318    3.1208 
 C                     0.3584   -0.5165    3.5015 
 H                     0.8167   -1.4518    3.1728 
 H                     0.3794   -0.5065    4.5938 
 C                     0.6137    0.631     1.3811 
 P                     1.6529   -0.0465    0.037 
 C                     2.3659   -1.6423    0.6796 
 C                     1.8971   -2.8775    0.1866 
 C                     2.4233   -4.0877    0.6786 
 C                     3.4263   -4.0694    1.6663 
 C                     3.9043   -2.8398    2.1575 
 C                     3.376    -1.6317    1.6633 
 H                     3.7504   -0.6902    2.0393 
 H                     4.679    -2.822     2.9104 
 H                     3.8332   -4.9972    2.0422 
 H                     2.0606   -5.0305    0.2949 
 H                     1.1319   -2.9034   -0.5755 
 C                     3.0882    1.1262   -0.1933 
 C                     3.0899    2.4283    0.3539 
 C                     4.1914    3.2847    0.1603 
 C                     5.3027    2.8471   -0.5841 
 C                     5.3096    1.5519   -1.1339 
 C                     4.207     0.6986   -0.9376 
 H                     4.2193   -0.2951   -1.3634 
 H                     6.1592    1.211    -1.7079 
 H                     6.1477    3.5034   -0.7347 
 H                     4.1839    4.2791    0.5826 
 H                     2.2504    2.7871    0.9288 
 Pd                    0.0604   -0.2159   -1.7673 
 Cl                    1.7647   -0.4542   -3.3341 
 Cl                   -1.5708   -0.3462   -3.4223 
 H                     0.3108    1.6202    1.0343 
 H                    -2.1462    1.6577    3.6744 
 H                    -1.8267   -0.9286    3.2425 
 H                    -0.2863   -1.3344    1.2916 
 

 GradGradGradGradGradGradGradGradGradGradGradGradGradGradGradGradGradGrad
 Berny optimization.
 Initialization pass.
                           ----------------------------
                           !    Initial Parameters    !
                           ! (Angstroms and Degrees)  !
 --------------------------                            --------------------------
 ! Name  Definition              Value          Derivative Info.                !
 --------------------------------------------------------------------------------
 ! R1    R(1,2)                  1.8631         estimate D2E/DX2                !
 ! R2    R(1,13)                 1.8684         estimate D2E/DX2                !
 ! R3    R(1,24)                 1.826          estimate D2E/DX2                !
 ! R4    R(1,58)                 2.4103         estimate D2E/DX2                !
 ! R5    R(2,3)                  1.4103         estimate D2E/DX2                !
 ! R6    R(2,7)                  1.4101         estimate D2E/DX2                !
 ! R7    R(3,4)                  1.4084         estimate D2E/DX2                !
 ! R8    R(3,12)                 1.0802         estimate D2E/DX2                !
 ! R9    R(4,5)                  1.4078         estimate D2E/DX2                !
 ! R10   R(4,11)                 1.0806         estimate D2E/DX2                !
 ! R11   R(5,6)                  1.4077         estimate D2E/DX2                !
 ! R12   R(5,10)                 1.0805         estimate D2E/DX2                !
 ! R13   R(6,7)                  1.4081         estimate D2E/DX2                !
 ! R14   R(6,9)                  1.0804         estimate D2E/DX2                !
 ! R15   R(7,8)                  1.0809         estimate D2E/DX2                !
 ! R16   R(13,14)                1.4124         estimate D2E/DX2                !
 ! R17   R(13,18)                1.4103         estimate D2E/DX2                !
 ! R18   R(14,15)                1.4086         estimate D2E/DX2                !
 ! R19   R(14,23)                1.0788         estimate D2E/DX2                !
 ! R20   R(15,16)                1.4073         estimate D2E/DX2                !
 ! R21   R(15,22)                1.0804         estimate D2E/DX2                !
 ! R22   R(16,17)                1.4071         estimate D2E/DX2                !
 ! R23   R(16,21)                1.0805         estimate D2E/DX2                !
 ! R24   R(17,18)                1.408          estimate D2E/DX2                !
 ! R25   R(17,20)                1.0805         estimate D2E/DX2                !
 ! R26   R(18,19)                1.0812         estimate D2E/DX2                !
 ! R27   R(24,25)                1.5475         estimate D2E/DX2                !
 ! R28   R(24,34)                1.5409         estimate D2E/DX2                !
 ! R29   R(24,64)                1.0906         estimate D2E/DX2                !
 ! R30   R(25,26)                1.5188         estimate D2E/DX2                !
 ! R31   R(25,31)                1.5479         estimate D2E/DX2                !
 ! R32   R(25,63)                1.0904         estimate D2E/DX2                !
 ! R33   R(26,27)                1.3384         estimate D2E/DX2                !
 ! R34   R(26,62)                1.0808         estimate D2E/DX2                !
 ! R35   R(27,28)                1.0809         estimate D2E/DX2                !
 ! R36   R(27,29)                1.5171         estimate D2E/DX2                !
 ! R37   R(29,30)                1.0905         estimate D2E/DX2                !
 ! R38   R(29,31)                1.5407         estimate D2E/DX2                !
 ! R39   R(29,34)                1.5531         estimate D2E/DX2                !
 ! R40   R(31,32)                1.0922         estimate D2E/DX2                !
 ! R41   R(31,33)                1.0925         estimate D2E/DX2                !
 ! R42   R(34,35)                1.8291         estimate D2E/DX2                !
 ! R43   R(34,61)                1.0911         estimate D2E/DX2                !
 ! R44   R(35,36)                1.8622         estimate D2E/DX2                !
 ! R45   R(35,47)                1.8677         estimate D2E/DX2                !
 ! R46   R(35,58)                2.4125         estimate D2E/DX2                !
 ! R47   R(36,37)                1.4102         estimate D2E/DX2                !
 ! R48   R(36,41)                1.41           estimate D2E/DX2                !
 ! R49   R(37,38)                1.4084         estimate D2E/DX2                !
 ! R50   R(37,46)                1.0803         estimate D2E/DX2                !
 ! R51   R(38,39)                1.4078         estimate D2E/DX2                !
 ! R52   R(38,45)                1.0806         estimate D2E/DX2                !
 ! R53   R(39,40)                1.4077         estimate D2E/DX2                !
 ! R54   R(39,44)                1.0806         estimate D2E/DX2                !
 ! R55   R(40,41)                1.4081         estimate D2E/DX2                !
 ! R56   R(40,43)                1.0804         estimate D2E/DX2                !
 ! R57   R(41,42)                1.0807         estimate D2E/DX2                !
 ! R58   R(47,48)                1.4124         estimate D2E/DX2                !
 ! R59   R(47,52)                1.4102         estimate D2E/DX2                !
 ! R60   R(48,49)                1.4086         estimate D2E/DX2                !
 ! R61   R(48,57)                1.0789         estimate D2E/DX2                !
 ! R62   R(49,50)                1.4073         estimate D2E/DX2                !
 ! R63   R(49,56)                1.0804         estimate D2E/DX2                !
 ! R64   R(50,51)                1.4071         estimate D2E/DX2                !
 ! R65   R(50,55)                1.0805         estimate D2E/DX2                !
 ! R66   R(51,52)                1.408          estimate D2E/DX2                !
 ! R67   R(51,54)                1.0805         estimate D2E/DX2                !
 ! R68   R(52,53)                1.0812         estimate D2E/DX2                !
 ! R69   R(58,59)                2.3273         estimate D2E/DX2                !
 ! R70   R(58,60)                2.3274         estimate D2E/DX2                !
 ! A1    A(2,1,13)             107.4606         estimate D2E/DX2                !
 ! A2    A(2,1,24)             106.4634         estimate D2E/DX2                !
 ! A3    A(2,1,58)             116.6598         estimate D2E/DX2                !
 ! A4    A(13,1,24)            107.6761         estimate D2E/DX2                !
 ! A5    A(13,1,58)            116.9227         estimate D2E/DX2                !
 ! A6    A(24,1,58)            100.615          estimate D2E/DX2                !
 ! A7    A(1,2,3)              120.1844         estimate D2E/DX2                !
 ! A8    A(1,2,7)              120.6175         estimate D2E/DX2                !
 ! A9    A(3,2,7)              119.198          estimate D2E/DX2                !
 ! A10   A(2,3,4)              120.4409         estimate D2E/DX2                !
 ! A11   A(2,3,12)             120.1918         estimate D2E/DX2                !
 ! A12   A(4,3,12)             119.3671         estimate D2E/DX2                !
 ! A13   A(3,4,5)              120.0193         estimate D2E/DX2                !
 ! A14   A(3,4,11)             120.0052         estimate D2E/DX2                !
 ! A15   A(5,4,11)             119.9748         estimate D2E/DX2                !
 ! A16   A(4,5,6)              119.8622         estimate D2E/DX2                !
 ! A17   A(4,5,10)             120.0799         estimate D2E/DX2                !
 ! A18   A(6,5,10)             120.0567         estimate D2E/DX2                !
 ! A19   A(5,6,7)              119.9567         estimate D2E/DX2                !
 ! A20   A(5,6,9)              120.0647         estimate D2E/DX2                !
 ! A21   A(7,6,9)              119.978          estimate D2E/DX2                !
 ! A22   A(2,7,6)              120.5205         estimate D2E/DX2                !
 ! A23   A(2,7,8)              119.7676         estimate D2E/DX2                !
 ! A24   A(6,7,8)              119.7118         estimate D2E/DX2                !
 ! A25   A(1,13,14)            122.1379         estimate D2E/DX2                !
 ! A26   A(1,13,18)            118.9906         estimate D2E/DX2                !
 ! A27   A(14,13,18)           118.8701         estimate D2E/DX2                !
 ! A28   A(13,14,15)           120.5539         estimate D2E/DX2                !
 ! A29   A(13,14,23)           120.8092         estimate D2E/DX2                !
 ! A30   A(15,14,23)           118.6369         estimate D2E/DX2                !
 ! A31   A(14,15,16)           120.0741         estimate D2E/DX2                !
 ! A32   A(14,15,22)           120.0195         estimate D2E/DX2                !
 ! A33   A(16,15,22)           119.9063         estimate D2E/DX2                !
 ! A34   A(15,16,17)           119.7866         estimate D2E/DX2                !
 ! A35   A(15,16,21)           120.1546         estimate D2E/DX2                !
 ! A36   A(17,16,21)           120.0585         estimate D2E/DX2                !
 ! A37   A(16,17,18)           119.9641         estimate D2E/DX2                !
 ! A38   A(16,17,20)           120.1191         estimate D2E/DX2                !
 ! A39   A(18,17,20)           119.9166         estimate D2E/DX2                !
 ! A40   A(13,18,17)           120.7503         estimate D2E/DX2                !
 ! A41   A(13,18,19)           119.6987         estimate D2E/DX2                !
 ! A42   A(17,18,19)           119.5509         estimate D2E/DX2                !
 ! A43   A(1,24,25)            128.1607         estimate D2E/DX2                !
 ! A44   A(1,24,34)            107.3256         estimate D2E/DX2                !
 ! A45   A(1,24,64)            102.3426         estimate D2E/DX2                !
 ! A46   A(25,24,34)           103.681          estimate D2E/DX2                !
 ! A47   A(25,24,64)           105.1449         estimate D2E/DX2                !
 ! A48   A(34,24,64)           109.4088         estimate D2E/DX2                !
 ! A49   A(24,25,26)           112.178          estimate D2E/DX2                !
 ! A50   A(24,25,31)            95.1201         estimate D2E/DX2                !
 ! A51   A(24,25,63)           116.8613         estimate D2E/DX2                !
 ! A52   A(26,25,31)            98.4454         estimate D2E/DX2                !
 ! A53   A(26,25,63)           115.8881         estimate D2E/DX2                !
 ! A54   A(31,25,63)           115.0037         estimate D2E/DX2                !
 ! A55   A(25,26,27)           107.9535         estimate D2E/DX2                !
 ! A56   A(25,26,62)           124.5263         estimate D2E/DX2                !
 ! A57   A(27,26,62)           127.5182         estimate D2E/DX2                !
 ! A58   A(26,27,28)           127.5096         estimate D2E/DX2                !
 ! A59   A(26,27,29)           107.5318         estimate D2E/DX2                !
 ! A60   A(28,27,29)           124.7711         estimate D2E/DX2                !
 ! A61   A(27,29,30)           115.3401         estimate D2E/DX2                !
 ! A62   A(27,29,31)            97.8291         estimate D2E/DX2                !
 ! A63   A(27,29,34)           103.7884         estimate D2E/DX2                !
 ! A64   A(30,29,31)           116.7305         estimate D2E/DX2                !
 ! A65   A(30,29,34)           117.3048         estimate D2E/DX2                !
 ! A66   A(31,29,34)           103.1924         estimate D2E/DX2                !
 ! A67   A(25,31,29)            94.338          estimate D2E/DX2                !
 ! A68   A(25,31,32)           115.27           estimate D2E/DX2                !
 ! A69   A(25,31,33)           112.8328         estimate D2E/DX2                !
 ! A70   A(29,31,32)           113.9701         estimate D2E/DX2                !
 ! A71   A(29,31,33)           112.7135         estimate D2E/DX2                !
 ! A72   A(32,31,33)           107.4973         estimate D2E/DX2                !
 ! A73   A(24,34,29)           101.4861         estimate D2E/DX2                !
 ! A74   A(24,34,35)           104.8344         estimate D2E/DX2                !
 ! A75   A(24,34,61)           110.0301         estimate D2E/DX2                !
 ! A76   A(29,34,35)           126.741          estimate D2E/DX2                !
 ! A77   A(29,34,61)           108.0421         estimate D2E/DX2                !
 ! A78   A(35,34,61)           105.068          estimate D2E/DX2                !
 ! A79   A(34,35,36)           106.3419         estimate D2E/DX2                !
 ! A80   A(34,35,47)           107.1369         estimate D2E/DX2                !
 ! A81   A(34,35,58)           101.5696         estimate D2E/DX2                !
 ! A82   A(36,35,47)           106.6406         estimate D2E/DX2                !
 ! A83   A(36,35,58)           116.7847         estimate D2E/DX2                !
 ! A84   A(47,35,58)           117.3317         estimate D2E/DX2                !
 ! A85   A(35,36,37)           120.1781         estimate D2E/DX2                !
 ! A86   A(35,36,41)           120.5698         estimate D2E/DX2                !
 ! A87   A(37,36,41)           119.252          estimate D2E/DX2                !
 ! A88   A(36,37,38)           120.42           estimate D2E/DX2                !
 ! A89   A(36,37,46)           120.2066         estimate D2E/DX2                !
 ! A90   A(38,37,46)           119.373          estimate D2E/DX2                !
 ! A91   A(37,38,39)           120.0074         estimate D2E/DX2                !
 ! A92   A(37,38,45)           120.0179         estimate D2E/DX2                !
 ! A93   A(39,38,45)           119.9741         estimate D2E/DX2                !
 ! A94   A(38,39,40)           119.8732         estimate D2E/DX2                !
 ! A95   A(38,39,44)           120.0779         estimate D2E/DX2                !
 ! A96   A(40,39,44)           120.0477         estimate D2E/DX2                !
 ! A97   A(39,40,41)           119.969          estimate D2E/DX2                !
 ! A98   A(39,40,43)           120.0672         estimate D2E/DX2                !
 ! A99   A(41,40,43)           119.9633         estimate D2E/DX2                !
 ! A100  A(36,41,40)           120.4758         estimate D2E/DX2                !
 ! A101  A(36,41,42)           119.8318         estimate D2E/DX2                !
 ! A102  A(40,41,42)           119.6921         estimate D2E/DX2                !
 ! A103  A(35,47,48)           122.1405         estimate D2E/DX2                !
 ! A104  A(35,47,52)           118.9728         estimate D2E/DX2                !
 ! A105  A(48,47,52)           118.8867         estimate D2E/DX2                !
 ! A106  A(47,48,49)           120.5429         estimate D2E/DX2                !
 ! A107  A(47,48,57)           120.8036         estimate D2E/DX2                !
 ! A108  A(49,48,57)           118.6534         estimate D2E/DX2                !
 ! A109  A(48,49,50)           120.0751         estimate D2E/DX2                !
 ! A110  A(48,49,56)           120.0288         estimate D2E/DX2                !
 ! A111  A(50,49,56)           119.8961         estimate D2E/DX2                !
 ! A112  A(49,50,51)           119.7863         estimate D2E/DX2                !
 ! A113  A(49,50,55)           120.1592         estimate D2E/DX2                !
 ! A114  A(51,50,55)           120.0544         estimate D2E/DX2                !
 ! A115  A(50,51,52)           119.9699         estimate D2E/DX2                !
 ! A116  A(50,51,54)           120.1218         estimate D2E/DX2                !
 ! A117  A(52,51,54)           119.9083         estimate D2E/DX2                !
 ! A118  A(47,52,51)           120.739          estimate D2E/DX2                !
 ! A119  A(47,52,53)           119.7093         estimate D2E/DX2                !
 ! A120  A(51,52,53)           119.5516         estimate D2E/DX2                !
 ! A121  A(1,58,35)             85.3177         estimate D2E/DX2                !
 ! A122  A(1,58,60)             91.4737         estimate D2E/DX2                !
 ! A123  A(35,58,59)            91.564          estimate D2E/DX2                !
 ! A124  A(59,58,60)            91.6498         estimate D2E/DX2                !
 ! A125  L(1,58,59,60,-1)      183.1235         estimate D2E/DX2                !
 ! A126  L(35,58,60,59,-1)     183.2139         estimate D2E/DX2                !
 ! A127  L(1,58,59,60,-2)      180.581          estimate D2E/DX2                !
 ! A128  L(35,58,60,59,-2)     180.49           estimate D2E/DX2                !
 ! D1    D(13,1,2,3)          -143.419          estimate D2E/DX2                !
 ! D2    D(13,1,2,7)            36.4669         estimate D2E/DX2                !
 ! D3    D(24,1,2,3)           101.4389         estimate D2E/DX2                !
 ! D4    D(24,1,2,7)           -78.6751         estimate D2E/DX2                !
 ! D5    D(58,1,2,3)            -9.8644         estimate D2E/DX2                !
 ! D6    D(58,1,2,7)           170.0215         estimate D2E/DX2                !
 ! D7    D(2,1,13,14)         -132.1135         estimate D2E/DX2                !
 ! D8    D(2,1,13,18)           48.3175         estimate D2E/DX2                !
 ! D9    D(24,1,13,14)         -17.7797         estimate D2E/DX2                !
 ! D10   D(24,1,13,18)         162.6512         estimate D2E/DX2                !
 ! D11   D(58,1,13,14)          94.4719         estimate D2E/DX2                !
 ! D12   D(58,1,13,18)         -85.0972         estimate D2E/DX2                !
 ! D13   D(2,1,24,25)           54.0111         estimate D2E/DX2                !
 ! D14   D(2,1,24,34)          -70.0612         estimate D2E/DX2                !
 ! D15   D(2,1,24,64)          174.8137         estimate D2E/DX2                !
 ! D16   D(13,1,24,25)         -60.985          estimate D2E/DX2                !
 ! D17   D(13,1,24,34)         174.9427         estimate D2E/DX2                !
 ! D18   D(13,1,24,64)          59.8176         estimate D2E/DX2                !
 ! D19   D(58,1,24,25)         176.1116         estimate D2E/DX2                !
 ! D20   D(58,1,24,34)          52.0394         estimate D2E/DX2                !
 ! D21   D(58,1,24,64)         -63.0857         estimate D2E/DX2                !
 ! D22   D(2,1,58,35)           99.7237         estimate D2E/DX2                !
 ! D23   D(2,1,58,60)          -79.7522         estimate D2E/DX2                !
 ! D24   D(13,1,58,35)        -131.114          estimate D2E/DX2                !
 ! D25   D(13,1,58,60)          49.4101         estimate D2E/DX2                !
 ! D26   D(24,1,58,35)         -14.9049         estimate D2E/DX2                !
 ! D27   D(24,1,58,60)         165.6193         estimate D2E/DX2                !
 ! D28   D(1,2,3,4)           -179.5765         estimate D2E/DX2                !
 ! D29   D(1,2,3,12)             0.5948         estimate D2E/DX2                !
 ! D30   D(7,2,3,4)              0.536          estimate D2E/DX2                !
 ! D31   D(7,2,3,12)          -179.2928         estimate D2E/DX2                !
 ! D32   D(1,2,7,6)            179.5892         estimate D2E/DX2                !
 ! D33   D(1,2,7,8)             -0.4761         estimate D2E/DX2                !
 ! D34   D(3,2,7,6)             -0.5238         estimate D2E/DX2                !
 ! D35   D(3,2,7,8)            179.4109         estimate D2E/DX2                !
 ! D36   D(2,3,4,5)             -0.1939         estimate D2E/DX2                !
 ! D37   D(2,3,4,11)          -179.892          estimate D2E/DX2                !
 ! D38   D(12,3,4,5)           179.6363         estimate D2E/DX2                !
 ! D39   D(12,3,4,11)           -0.0618         estimate D2E/DX2                !
 ! D40   D(3,4,5,6)             -0.1669         estimate D2E/DX2                !
 ! D41   D(3,4,5,10)          -179.7648         estimate D2E/DX2                !
 ! D42   D(11,4,5,6)           179.5313         estimate D2E/DX2                !
 ! D43   D(11,4,5,10)           -0.0666         estimate D2E/DX2                !
 ! D44   D(4,5,6,7)              0.1793         estimate D2E/DX2                !
 ! D45   D(4,5,6,9)           -179.5553         estimate D2E/DX2                !
 ! D46   D(10,5,6,7)           179.7773         estimate D2E/DX2                !
 ! D47   D(10,5,6,9)             0.0428         estimate D2E/DX2                !
 ! D48   D(5,6,7,2)              0.169          estimate D2E/DX2                !
 ! D49   D(5,6,7,8)           -179.7658         estimate D2E/DX2                !
 ! D50   D(9,6,7,2)            179.9038         estimate D2E/DX2                !
 ! D51   D(9,6,7,8)             -0.031          estimate D2E/DX2                !
 ! D52   D(1,13,14,15)        -179.9056         estimate D2E/DX2                !
 ! D53   D(1,13,14,23)           0.0372         estimate D2E/DX2                !
 ! D54   D(18,13,14,15)         -0.336          estimate D2E/DX2                !
 ! D55   D(18,13,14,23)        179.6068         estimate D2E/DX2                !
 ! D56   D(1,13,18,17)         179.8958         estimate D2E/DX2                !
 ! D57   D(1,13,18,19)          -0.0395         estimate D2E/DX2                !
 ! D58   D(14,13,18,17)          0.3125         estimate D2E/DX2                !
 ! D59   D(14,13,18,19)       -179.6228         estimate D2E/DX2                !
 ! D60   D(13,14,15,16)          0.1475         estimate D2E/DX2                !
 ! D61   D(13,14,15,22)       -179.9759         estimate D2E/DX2                !
 ! D62   D(23,14,15,16)       -179.7965         estimate D2E/DX2                !
 ! D63   D(23,14,15,22)          0.0801         estimate D2E/DX2                !
 ! D64   D(14,15,16,17)          0.0704         estimate D2E/DX2                !
 ! D65   D(14,15,16,21)        179.881          estimate D2E/DX2                !
 ! D66   D(22,15,16,17)       -179.8064         estimate D2E/DX2                !
 ! D67   D(22,15,16,21)          0.0042         estimate D2E/DX2                !
 ! D68   D(15,16,17,18)         -0.0943         estimate D2E/DX2                !
 ! D69   D(15,16,17,20)        179.7495         estimate D2E/DX2                !
 ! D70   D(21,16,17,18)       -179.9051         estimate D2E/DX2                !
 ! D71   D(21,16,17,20)         -0.0612         estimate D2E/DX2                !
 ! D72   D(16,17,18,13)         -0.0997         estimate D2E/DX2                !
 ! D73   D(16,17,18,19)        179.8357         estimate D2E/DX2                !
 ! D74   D(20,17,18,13)       -179.9438         estimate D2E/DX2                !
 ! D75   D(20,17,18,19)         -0.0085         estimate D2E/DX2                !
 ! D76   D(1,24,25,26)         -74.6317         estimate D2E/DX2                !
 ! D77   D(1,24,25,31)        -175.9209         estimate D2E/DX2                !
 ! D78   D(1,24,25,63)          62.6745         estimate D2E/DX2                !
 ! D79   D(34,24,25,26)         50.8956         estimate D2E/DX2                !
 ! D80   D(34,24,25,31)        -50.3937         estimate D2E/DX2                !
 ! D81   D(34,24,25,63)       -171.7982         estimate D2E/DX2                !
 ! D82   D(64,24,25,26)        165.7429         estimate D2E/DX2                !
 ! D83   D(64,24,25,31)         64.4536         estimate D2E/DX2                !
 ! D84   D(64,24,25,63)        -56.9509         estimate D2E/DX2                !
 ! D85   D(1,24,34,29)         155.6966         estimate D2E/DX2                !
 ! D86   D(1,24,34,35)         -71.0451         estimate D2E/DX2                !
 ! D87   D(1,24,34,61)          41.4621         estimate D2E/DX2                !
 ! D88   D(25,24,34,29)         17.7883         estimate D2E/DX2                !
 ! D89   D(25,24,34,35)        151.0467         estimate D2E/DX2                !
 ! D90   D(25,24,34,61)        -96.4461         estimate D2E/DX2                !
 ! D91   D(64,24,34,29)        -93.9801         estimate D2E/DX2                !
 ! D92   D(64,24,34,35)         39.2783         estimate D2E/DX2                !
 ! D93   D(64,24,34,61)        151.7855         estimate D2E/DX2                !
 ! D94   D(24,25,26,27)        -67.27           estimate D2E/DX2                !
 ! D95   D(24,25,26,62)        112.2369         estimate D2E/DX2                !
 ! D96   D(31,25,26,27)         31.8183         estimate D2E/DX2                !
 ! D97   D(31,25,26,62)       -148.6748         estimate D2E/DX2                !
 ! D98   D(63,25,26,27)        154.9821         estimate D2E/DX2                !
 ! D99   D(63,25,26,62)        -25.511          estimate D2E/DX2                !
 ! D100  D(24,25,31,29)         61.6971         estimate D2E/DX2                !
 ! D101  D(24,25,31,32)        -57.4039         estimate D2E/DX2                !
 ! D102  D(24,25,31,33)        178.5751         estimate D2E/DX2                !
 ! D103  D(26,25,31,29)        -51.6598         estimate D2E/DX2                !
 ! D104  D(26,25,31,32)       -170.7607         estimate D2E/DX2                !
 ! D105  D(26,25,31,33)         65.2183         estimate D2E/DX2                !
 ! D106  D(63,25,31,29)       -175.4597         estimate D2E/DX2                !
 ! D107  D(63,25,31,32)         65.4393         estimate D2E/DX2                !
 ! D108  D(63,25,31,33)        -58.5817         estimate D2E/DX2                !
 ! D109  D(25,26,27,28)        178.4248         estimate D2E/DX2                !
 ! D110  D(25,26,27,29)          3.2543         estimate D2E/DX2                !
 ! D111  D(62,26,27,28)         -1.063          estimate D2E/DX2                !
 ! D112  D(62,26,27,29)       -176.2335         estimate D2E/DX2                !
 ! D113  D(26,27,29,30)       -161.781          estimate D2E/DX2                !
 ! D114  D(26,27,29,31)        -37.2066         estimate D2E/DX2                !
 ! D115  D(26,27,29,34)         68.5141         estimate D2E/DX2                !
 ! D116  D(28,27,29,30)         22.8824         estimate D2E/DX2                !
 ! D117  D(28,27,29,31)        147.4568         estimate D2E/DX2                !
 ! D118  D(28,27,29,34)       -106.8225         estimate D2E/DX2                !
 ! D119  D(27,29,31,25)         53.4011         estimate D2E/DX2                !
 ! D120  D(27,29,31,32)        173.5496         estimate D2E/DX2                !
 ! D121  D(27,29,31,33)        -63.5756         estimate D2E/DX2                !
 ! D122  D(30,29,31,25)        176.9712         estimate D2E/DX2                !
 ! D123  D(30,29,31,32)        -62.8803         estimate D2E/DX2                !
 ! D124  D(30,29,31,33)         59.9945         estimate D2E/DX2                !
 ! D125  D(34,29,31,25)        -52.8192         estimate D2E/DX2                !
 ! D126  D(34,29,31,32)         67.3292         estimate D2E/DX2                !
 ! D127  D(34,29,31,33)       -169.7959         estimate D2E/DX2                !
 ! D128  D(27,29,34,24)        -79.7247         estimate D2E/DX2                !
 ! D129  D(27,29,34,35)        161.7393         estimate D2E/DX2                !
 ! D130  D(27,29,34,61)         35.9828         estimate D2E/DX2                !
 ! D131  D(30,29,34,24)        151.7662         estimate D2E/DX2                !
 ! D132  D(30,29,34,35)         33.2302         estimate D2E/DX2                !
 ! D133  D(30,29,34,61)        -92.5263         estimate D2E/DX2                !
 ! D134  D(31,29,34,24)         21.9052         estimate D2E/DX2                !
 ! D135  D(31,29,34,35)        -96.6308         estimate D2E/DX2                !
 ! D136  D(31,29,34,61)        137.6127         estimate D2E/DX2                !
 ! D137  D(24,34,35,36)        -71.0034         estimate D2E/DX2                !
 ! D138  D(24,34,35,47)        175.2495         estimate D2E/DX2                !
 ! D139  D(24,34,35,58)         51.6378         estimate D2E/DX2                !
 ! D140  D(29,34,35,36)         46.0469         estimate D2E/DX2                !
 ! D141  D(29,34,35,47)        -67.7002         estimate D2E/DX2                !
 ! D142  D(29,34,35,58)        168.6882         estimate D2E/DX2                !
 ! D143  D(61,34,35,36)        173.0046         estimate D2E/DX2                !
 ! D144  D(61,34,35,47)         59.2575         estimate D2E/DX2                !
 ! D145  D(61,34,35,58)        -64.3541         estimate D2E/DX2                !
 ! D146  D(34,35,36,37)        107.615          estimate D2E/DX2                !
 ! D147  D(34,35,36,41)        -72.2749         estimate D2E/DX2                !
 ! D148  D(47,35,36,37)       -138.2981         estimate D2E/DX2                !
 ! D149  D(47,35,36,41)         41.8119         estimate D2E/DX2                !
 ! D150  D(58,35,36,37)         -4.8511         estimate D2E/DX2                !
 ! D151  D(58,35,36,41)        175.259          estimate D2E/DX2                !
 ! D152  D(34,35,47,48)        -14.8173         estimate D2E/DX2                !
 ! D153  D(34,35,47,52)        165.1848         estimate D2E/DX2                !
 ! D154  D(36,35,47,48)       -128.3624         estimate D2E/DX2                !
 ! D155  D(36,35,47,52)         51.6398         estimate D2E/DX2                !
 ! D156  D(58,35,47,48)         98.487          estimate D2E/DX2                !
 ! D157  D(58,35,47,52)        -81.5108         estimate D2E/DX2                !
 ! D158  D(34,35,58,1)         -16.21           estimate D2E/DX2                !
 ! D159  D(34,35,58,59)        164.3995         estimate D2E/DX2                !
 ! D160  D(36,35,58,1)          98.9447         estimate D2E/DX2                !
 ! D161  D(36,35,58,59)        -80.4458         estimate D2E/DX2                !
 ! D162  D(47,35,58,1)        -132.593          estimate D2E/DX2                !
 ! D163  D(47,35,58,59)         48.0165         estimate D2E/DX2                !
 ! D164  D(35,36,37,38)       -179.365          estimate D2E/DX2                !
 ! D165  D(35,36,37,46)          0.8283         estimate D2E/DX2                !
 ! D166  D(41,36,37,38)          0.5263         estimate D2E/DX2                !
 ! D167  D(41,36,37,46)       -179.2803         estimate D2E/DX2                !
 ! D168  D(35,36,41,40)        179.3611         estimate D2E/DX2                !
 ! D169  D(35,36,41,42)         -0.8268         estimate D2E/DX2                !
 ! D170  D(37,36,41,40)         -0.5299         estimate D2E/DX2                !
 ! D171  D(37,36,41,42)        179.2822         estimate D2E/DX2                !
 ! D172  D(36,37,38,39)         -0.1689         estimate D2E/DX2                !
 ! D173  D(36,37,38,45)       -179.8877         estimate D2E/DX2                !
 ! D174  D(46,37,38,39)        179.6393         estimate D2E/DX2                !
 ! D175  D(46,37,38,45)         -0.0794         estimate D2E/DX2                !
 ! D176  D(37,38,39,40)         -0.1908         estimate D2E/DX2                !
 ! D177  D(37,38,39,44)       -179.7937         estimate D2E/DX2                !
 ! D178  D(45,38,39,40)        179.5281         estimate D2E/DX2                !
 ! D179  D(45,38,39,44)         -0.0748         estimate D2E/DX2                !
 ! D180  D(38,39,40,41)          0.1875         estimate D2E/DX2                !
 ! D181  D(38,39,40,43)       -179.5614         estimate D2E/DX2                !
 ! D182  D(44,39,40,41)        179.7905         estimate D2E/DX2                !
 ! D183  D(44,39,40,43)          0.0415         estimate D2E/DX2                !
 ! D184  D(39,40,41,36)          0.1756         estimate D2E/DX2                !
 ! D185  D(39,40,41,42)       -179.6368         estimate D2E/DX2                !
 ! D186  D(43,40,41,36)        179.9248         estimate D2E/DX2                !
 ! D187  D(43,40,41,42)          0.1124         estimate D2E/DX2                !
 ! D188  D(35,47,48,49)        179.9416         estimate D2E/DX2                !
 ! D189  D(35,47,48,57)          0.0247         estimate D2E/DX2                !
 ! D190  D(52,47,48,49)         -0.0606         estimate D2E/DX2                !
 ! D191  D(52,47,48,57)       -179.9774         estimate D2E/DX2                !
 ! D192  D(35,47,52,51)       -179.9746         estimate D2E/DX2                !
 ! D193  D(35,47,52,53)          0.0665         estimate D2E/DX2                !
 ! D194  D(48,47,52,51)          0.0275         estimate D2E/DX2                !
 ! D195  D(48,47,52,53)       -179.9314         estimate D2E/DX2                !
 ! D196  D(47,48,49,50)          0.0482         estimate D2E/DX2                !
 ! D197  D(47,48,49,56)        179.9992         estimate D2E/DX2                !
 ! D198  D(57,48,49,50)        179.9668         estimate D2E/DX2                !
 ! D199  D(57,48,49,56)         -0.0822         estimate D2E/DX2                !
 ! D200  D(48,49,50,51)         -0.0018         estimate D2E/DX2                !
 ! D201  D(48,49,50,55)        179.9079         estimate D2E/DX2                !
 ! D202  D(56,49,50,51)       -179.9528         estimate D2E/DX2                !
 ! D203  D(56,49,50,55)         -0.0432         estimate D2E/DX2                !
 ! D204  D(49,50,51,52)         -0.0311         estimate D2E/DX2                !
 ! D205  D(49,50,51,54)        179.8863         estimate D2E/DX2                !
 ! D206  D(55,50,51,52)       -179.9409         estimate D2E/DX2                !
 ! D207  D(55,50,51,54)         -0.0235         estimate D2E/DX2                !
 ! D208  D(50,51,52,47)          0.0182         estimate D2E/DX2                !
 ! D209  D(50,51,52,53)        179.9771         estimate D2E/DX2                !
 ! D210  D(54,51,52,47)       -179.8994         estimate D2E/DX2                !
 ! D211  D(54,51,52,53)          0.0596         estimate D2E/DX2                !
 --------------------------------------------------------------------------------
 Trust Radius=3.00D-01 FncErr=1.00D-07 GrdErr=1.00D-06
 Number of steps in this run=    384 maximum allowed number of steps=    384.
 GradGradGradGradGradGradGradGradGradGradGradGradGradGradGradGradGradGrad

 Stoichiometry    C31H28Cl2P2Pd
 Framework group  C1[X(C31H28Cl2P2Pd)]
 Deg. of freedom   186
 Full point group                 C1      NOp   1
 Largest Abelian subgroup         C1      NOp   1
 Largest concise Abelian subgroup C1      NOp   1
                         Standard orientation:                         
 ---------------------------------------------------------------------
 Center     Atomic      Atomic             Coordinates (Angstroms)
 Number     Number       Type             X           Y           Z
 ---------------------------------------------------------------------
      1         15           0       -1.625337    0.036141    0.023684
      2          6           0       -2.353744    1.737499    0.237968
      3          6           0       -1.796570    2.838526   -0.444852
      4          6           0       -2.337332    4.128450   -0.279921
      5          6           0       -3.443893    4.325130    0.567785
      6          6           0       -4.010165    3.229661    1.246784
      7          6           0       -3.466616    1.941493    1.079602
      8          1           0       -3.906893    1.102577    1.599896
      9          1           0       -4.863894    3.375704    1.892547
     10          1           0       -3.861926    5.313725    0.692088
     11          1           0       -1.905965    4.966792   -0.807892
     12          1           0       -0.951140    2.698670   -1.102452
     13          6           0       -3.039366   -1.184975    0.038210
     14          6           0       -3.011847   -2.357033    0.825805
     15          6           0       -4.096094   -3.256152    0.809786
     16          6           0       -5.218506   -2.993137    0.002593
     17          6           0       -5.253170   -1.830342   -0.789035
     18          6           0       -4.167606   -0.933912   -0.769813
     19          1           0       -4.200137   -0.043852   -1.382737
     20          1           0       -6.110464   -1.625159   -1.413835
     21          1           0       -6.050056   -3.682871   -0.012155
     22          1           0       -4.066091   -4.149940    1.415972
     23          1           0       -2.161861   -2.583149    1.450465
     24          6           0       -0.604525   -0.279995    1.504340
     25          6           0       -1.023986   -0.192732    2.991303
     26          6           0       -1.158007    1.243809    3.465850
     27          6           0        0.062132    1.793860    3.465735
     28          1           0        0.326266    2.809427    3.724944
     29          6           0        1.028288    0.762599    2.913718
     30          1           0        2.080577    0.942696    3.136257
     31          6           0        0.389048   -0.486106    3.550881
     32          1           0        0.833813   -1.428354    3.223435
     33          1           0        0.424875   -0.467858    4.642689
     34          6           0        0.626800    0.642400    1.418282
     35         15           0        1.641180   -0.055601    0.065738
     36          6           0        2.347329   -1.653268    0.711257
     37          6           0        1.860007   -2.887609    0.234325
     38          6           0        2.381076   -4.099047    0.728732
     39          6           0        3.397438   -4.082902    1.702716
     40          6           0        3.893880   -2.854265    2.177768
     41          6           0        3.370661   -1.644923    1.681206
     42          1           0        3.759179   -0.704244    2.044729
     43          1           0        4.678801   -2.838207    2.920046
     44          1           0        3.800386   -5.011695    2.080415
     45          1           0        2.004140   -5.041200    0.357363
     46          1           0        1.084383   -2.911930   -0.517215
     47          6           0        3.084509    1.101205   -0.193014
     48          6           0        3.106172    2.407422    0.343849
     49          6           0        4.213185    3.251498    0.128759
     50          6           0        5.310062    2.797315   -0.627013
     51          6           0        5.297029    1.497893   -1.166646
     52          6           0        4.188983    0.656949   -0.948865
     53          1           0        4.185935   -0.340089   -1.366958
     54          1           0        6.135476    1.144277   -1.749289
     55          1           0        6.159257    3.444144   -0.794094
     56          1           0        4.220992    4.249162    0.543282
     57          1           0        2.278010    2.778844    0.927116
     58         46           0        0.022925   -0.223395   -1.715650
     59         17           0        1.703554   -0.490451   -3.303245
     60         17           0       -1.631633   -0.350560   -3.347546
     61          1           0        0.328823    1.631799    1.067802
     62          1           0       -2.091865    1.713729    3.740243
     63          1           0       -1.803227   -0.878833    3.324464
     64          1           0       -0.293276   -1.314748    1.356333
 ---------------------------------------------------------------------
 Rotational constants (GHZ):      0.1102584      0.0741327      0.0711199
 General basis read from cards:  (6D, 7F)
 ======================================================================================================
                                       Pseudopotential Parameters
 ======================================================================================================
  Center     Atomic      Valence      Angular      Power
  Number     Number     Electrons     Momentum     of R      Exponent        Coefficient   SO-Coeffient
 ======================================================================================================
    1         15
                                   No pseudopotential on this center.
    2          6
                                   No pseudopotential on this center.
    3          6
                                   No pseudopotential on this center.
    4          6
                                   No pseudopotential on this center.
    5          6
                                   No pseudopotential on this center.
    6          6
                                   No pseudopotential on this center.
    7          6
                                   No pseudopotential on this center.
    8          1
                                   No pseudopotential on this center.
    9          1
                                   No pseudopotential on this center.
   10          1
                                   No pseudopotential on this center.
   11          1
                                   No pseudopotential on this center.
   12          1
                                   No pseudopotential on this center.
   13          6
                                   No pseudopotential on this center.
   14          6
                                   No pseudopotential on this center.
   15          6
                                   No pseudopotential on this center.
   16          6
                                   No pseudopotential on this center.
   17          6
                                   No pseudopotential on this center.
   18          6
                                   No pseudopotential on this center.
   19          1
                                   No pseudopotential on this center.
   20          1
                                   No pseudopotential on this center.
   21          1
                                   No pseudopotential on this center.
   22          1
                                   No pseudopotential on this center.
   23          1
                                   No pseudopotential on this center.
   24          6
                                   No pseudopotential on this center.
   25          6
                                   No pseudopotential on this center.
   26          6
                                   No pseudopotential on this center.
   27          6
                                   No pseudopotential on this center.
   28          1
                                   No pseudopotential on this center.
   29          6
                                   No pseudopotential on this center.
   30          1
                                   No pseudopotential on this center.
   31          6
                                   No pseudopotential on this center.
   32          1
                                   No pseudopotential on this center.
   33          1
                                   No pseudopotential on this center.
   34          6
                                   No pseudopotential on this center.
   35         15
                                   No pseudopotential on this center.
   36          6
                                   No pseudopotential on this center.
   37          6
                                   No pseudopotential on this center.
   38          6
                                   No pseudopotential on this center.
   39          6
                                   No pseudopotential on this center.
   40          6
                                   No pseudopotential on this center.
   41          6
                                   No pseudopotential on this center.
   42          1
                                   No pseudopotential on this center.
   43          1
                                   No pseudopotential on this center.
   44          1
                                   No pseudopotential on this center.
   45          1
                                   No pseudopotential on this center.
   46          1
                                   No pseudopotential on this center.
   47          6
                                   No pseudopotential on this center.
   48          6
                                   No pseudopotential on this center.
   49          6
                                   No pseudopotential on this center.
   50          6
                                   No pseudopotential on this center.
   51          6
                                   No pseudopotential on this center.
   52          6
                                   No pseudopotential on this center.
   53          1
                                   No pseudopotential on this center.
   54          1
                                   No pseudopotential on this center.
   55          1
                                   No pseudopotential on this center.
   56          1
                                   No pseudopotential on this center.
   57          1
                                   No pseudopotential on this center.
   58         46           18
                                      F and up 
                                                     0      598.3336444       -0.05631770    0.00000000
                                                     1      162.4298290      -20.12880360    0.00000000
                                                     2       51.5714771     -105.81979230    0.00000000
                                                     2       16.4888260      -42.57333450    0.00000000
                                                     2        5.8287656       -3.61650860    0.00000000
                                      S - F
                                                     0       73.3806304        3.00036510    0.00000000
                                                     1       14.7550438       32.43500930    0.00000000
                                                     2       17.8350204      459.08303830    0.00000000
                                                     2       12.7111477     -868.06290290    0.00000000
                                                     2        9.3292063      514.47260980    0.00000000
                                      P - F
                                                     0       55.6689877        4.95930990    0.00000000
                                                     1       64.2337771       21.17110290    0.00000000
                                                     2       17.6254952      605.05600920    0.00000000
                                                     2       11.9058155     -726.96418460    0.00000000
                                                     2        8.5100832      396.32748830    0.00000000
                                      D - F
                                                     0       49.9994728        3.05087450    0.00000000
                                                     1       39.7477547       22.25065800    0.00000000
                                                     2       11.4321366      674.83576980    0.00000000
                                                     2        9.1790080    -1040.85540480    0.00000000
                                                     2        7.5624429      505.93751470    0.00000000
   59         17
                                   No pseudopotential on this center.
   60         17
                                   No pseudopotential on this center.
   61          1
                                   No pseudopotential on this center.
   62          1
                                   No pseudopotential on this center.
   63          1
                                   No pseudopotential on this center.
   64          1
                                   No pseudopotential on this center.
 ======================================================================================================
 There are   621 symmetry adapted cartesian basis functions of A   symmetry.
 There are   621 symmetry adapted basis functions of A   symmetry.
   621 basis functions,  1237 primitive gaussians,   621 cartesian basis functions
   148 alpha electrons      148 beta electrons
       nuclear repulsion energy      5125.5511795640 Hartrees.
 NAtoms=   64 NActive=   64 NUniq=   64 SFac= 1.00D+00 NAtFMM=   60 NAOKFM=T Big=T
 Integral buffers will be    131072 words long.
 Raffenetti 2 integral format.
 Two-electron integral symmetry is turned on.
 Nuclear repulsion after empirical dispersion term =     5125.4290504848 Hartrees.
 Standard density basis: Auto (5D, 7F)
  2757 Density fitting functions
 There are  2757 symmetry adapted density basis functions of A   symmetry.
 One-electron integrals computed using PRISM.
   1 Symmetry operations used in ECPInt.
 ECPInt:  NShTT=   21736 NPrTT=  145778 LenC2=   17547 LenP2D=   61016.
 LDataN:  DoStor=T MaxTD1= 5 Len=  102
 NBasis=   621 RedAO= T EigKep=  5.26D-04  NBF=   621
 NBsUse=   621 1.00D-06 EigRej= -1.00D+00 NBFU=   621
 NBasis=      621 NBas6D=      621 NTT=      193131   NTT6D=   193131
 NDBShl=      545 NDBF=       2757 NDBF6D=     3258  NNucDB=        0
 IDenFi=        2 ISolve=        0 FullAP=F BlkAPC=T NucTyp=        0
 TolInv= 1.00D-06 TolIt=  1.00D-10 IR12=0.
 FoFCou: FMM=F IPFlag=           0 FMFlag=           0 FMFlg1=           0
         NFxFlg=           0 DoJE=F BraDBF=T KetDBF=T FulRan=T
         wScrn=  0.000000 ICntrl=     600 IOpCl=  3 I1Cent=           6 NGrid=           0
         NMat0=    1 NMatS0=   3258 NMatT0=    0 NMatD0=    1 NMtDS0=    0 NMtDT0=    0
 Petite list used in FoFCou.
 DBF EigKep=  1.19D-06 EigRej= -1.00D+00
 NDBF=   2757  NBFD=  2757
 NRank=  2757 NBFDU=  2757
 S*AI*S=  12.0642005583    
 Defaulting to unpruned grid for atomic number  46.
 ExpMin= 2.62D-02 ExpMax= 2.52D+04 ExpMxC= 3.78D+03 IAcc=3 IRadAn=         5 AccDes= 0.00D+00
 Harris functional with IExCor= 1009 and IRadAn=       5 diagonalized for initial guess.
 HarFok:  IExCor= 1009 AccDes= 0.00D+00 IRadAn=         5 IDoV= 1 UseB2=F ITyADJ=14
 ICtDFT=  3500011 ScaDFX=  1.000000  1.000000  1.000000  1.000000
 Defaulting to unpruned grid for atomic number  46.
 Defaulting to unpruned grid for atomic number  46.
 Defaulting to unpruned grid for atomic number  46.
 Defaulting to unpruned grid for atomic number  46.
 Defaulting to unpruned grid for atomic number  46.
 Defaulting to unpruned grid for atomic number  46.
 Defaulting to unpruned grid for atomic number  46.
 Defaulting to unpruned grid for atomic number  46.
 Defaulting to unpruned grid for atomic number  46.
 Defaulting to unpruned grid for atomic number  46.
 Defaulting to unpruned grid for atomic number  46.
 Defaulting to unpruned grid for atomic number  46.
 Defaulting to unpruned grid for atomic number  46.
 Defaulting to unpruned grid for atomic number  46.
 FoFCou: FMM=F IPFlag=           0 FMFlag=      100000 FMFlg1=        2001
         NFxFlg=           0 DoJE=T BraDBF=F KetDBF=T FulRan=T
         wScrn=  0.000000 ICntrl=     500 IOpCl=  0 I1Cent=   200000004 NGrid=           0
         NMat0=    1 NMatS0=      1 NMatT0=    0 NMatD0=    1 NMtDS0=    0 NMtDT0=    0
 Petite list used in FoFCou.
 Requested convergence on RMS density matrix=1.00D-08 within 500 cycles.
 Requested convergence on MAX density matrix=1.00D-06.
 Requested convergence on             energy=1.00D-06.
 No special actions if energy rises.
 FoFCou: FMM=F IPFlag=           0 FMFlag=      100000 FMFlg1=        2001
         NFxFlg=           0 DoJE=T BraDBF=T KetDBF=F FulRan=T
         wScrn=  0.000000 ICntrl=     500 IOpCl=  0 I1Cent=           5 NGrid=           0
         NMat0=    1 NMatS0=      1 NMatT0=    0 NMatD0=    1 NMtDS0=    0 NMtDT0=    0
 Symmetry not used in FoFCou.
 Defaulting to unpruned grid for atomic number  46.
 Defaulting to unpruned grid for atomic number  46.
 Defaulting to unpruned grid for atomic number  46.
 Defaulting to unpruned grid for atomic number  46.
 Defaulting to unpruned grid for atomic number  46.
 Defaulting to unpruned grid for atomic number  46.
 Defaulting to unpruned grid for atomic number  46.
 Defaulting to unpruned grid for atomic number  46.
 Defaulting to unpruned grid for atomic number  46.
 Defaulting to unpruned grid for atomic number  46.
 Defaulting to unpruned grid for atomic number  46.
 Defaulting to unpruned grid for atomic number  46.
 Defaulting to unpruned grid for atomic number  46.
 Defaulting to unpruned grid for atomic number  46.
 EnCoef did     3 forward-backward iterations
 EnCoef did   100 forward-backward iterations
 EnCoef did   100 forward-backward iterations
 EnCoef did   100 forward-backward iterations
 EnCoef did   100 forward-backward iterations
 EnCoef did     8 forward-backward iterations
 EnCoef did     2 forward-backward iterations
 Initial convergence to 1.0D-05 achieved.  Increase integral accuracy.
 SCF Done:  E(RPBE-PBE) =  -2925.90345561     A.U. after   27 cycles
            NFock= 27  Conv=0.38D-08     -V/T= 2.0348

 **********************************************************************

            Population analysis using the SCF density.

 **********************************************************************

 Orbital symmetries:
       Occupied  (A) (A) (A) (A) (A) (A) (A) (A) (A) (A) (A) (A)
                 (A) (A) (A) (A) (A) (A) (A) (A) (A) (A) (A) (A)
                 (A) (A) (A) (A) (A) (A) (A) (A) (A) (A) (A) (A)
                 (A) (A) (A) (A) (A) (A) (A) (A) (A) (A) (A) (A)
                 (A) (A) (A) (A) (A) (A) (A) (A) (A) (A) (A) (A)
                 (A) (A) (A) (A) (A) (A) (A) (A) (A) (A) (A) (A)
                 (A) (A) (A) (A) (A) (A) (A) (A) (A) (A) (A) (A)
                 (A) (A) (A) (A) (A) (A) (A) (A) (A) (A) (A) (A)
                 (A) (A) (A) (A) (A) (A) (A) (A) (A) (A) (A) (A)
                 (A) (A) (A) (A) (A) (A) (A) (A) (A) (A) (A) (A)
                 (A) (A) (A) (A) (A) (A) (A) (A) (A) (A) (A) (A)
                 (A) (A) (A) (A) (A) (A) (A) (A) (A) (A) (A) (A)
                 (A) (A) (A) (A)
       Virtual   (A) (A) (A) (A) (A) (A) (A) (A) (A) (A) (A) (A)
                 (A) (A) (A) (A) (A) (A) (A) (A) (A) (A) (A) (A)
                 (A) (A) (A) (A) (A) (A) (A) (A) (A) (A) (A) (A)
                 (A) (A) (A) (A) (A) (A) (A) (A) (A) (A) (A) (A)
                 (A) (A) (A) (A) (A) (A) (A) (A) (A) (A) (A) (A)
                 (A) (A) (A) (A) (A) (A) (A) (A) (A) (A) (A) (A)
                 (A) (A) (A) (A) (A) (A) (A) (A) (A) (A) (A) (A)
                 (A) (A) (A) (A) (A) (A) (A) (A) (A) (A) (A) (A)
                 (A) (A) (A) (A) (A) (A) (A) (A) (A) (A) (A) (A)
                 (A) (A) (A) (A) (A) (A) (A) (A) (A) (A) (A) (A)
                 (A) (A) (A) (A) (A) (A) (A) (A) (A) (A) (A) (A)
                 (A) (A) (A) (A) (A) (A) (A) (A) (A) (A) (A) (A)
                 (A) (A) (A) (A) (A) (A) (A) (A) (A) (A) (A) (A)
                 (A) (A) (A) (A) (A) (A) (A) (A) (A) (A) (A) (A)
                 (A) (A) (A) (A) (A) (A) (A) (A) (A) (A) (A) (A)
                 (A) (A) (A) (A) (A) (A) (A) (A) (A) (A) (A) (A)
                 (A) (A) (A) (A) (A) (A) (A) (A) (A) (A) (A) (A)
                 (A) (A) (A) (A) (A) (A) (A) (A) (A) (A) (A) (A)
                 (A) (A) (A) (A) (A) (A) (A) (A) (A) (A) (A) (A)
                 (A) (A) (A) (A) (A) (A) (A) (A) (A) (A) (A) (A)
                 (A) (A) (A) (A) (A) (A) (A) (A) (A) (A) (A) (A)
                 (A) (A) (A) (A) (A) (A) (A) (A) (A) (A) (A) (A)
                 (A) (A) (A) (A) (A) (A) (A) (A) (A) (A) (A) (A)
                 (A) (A) (A) (A) (A) (A) (A) (A) (A) (A) (A) (A)
                 (A) (A) (A) (A) (A) (A) (A) (A) (A) (A) (A) (A)
                 (A) (A) (A) (A) (A) (A) (A) (A) (A) (A) (A) (A)
                 (A) (A) (A) (A) (A) (A) (A) (A) (A) (A) (A) (A)
                 (A) (A) (A) (A) (A) (A) (A) (A) (A) (A) (A) (A)
                 (A) (A) (A) (A) (A) (A) (A) (A) (A) (A) (A) (A)
                 (A) (A) (A) (A) (A) (A) (A) (A) (A) (A) (A) (A)
                 (A) (A) (A) (A) (A) (A) (A) (A) (A) (A) (A) (A)
                 (A) (A) (A) (A) (A) (A) (A) (A) (A) (A) (A) (A)
                 (A) (A) (A) (A) (A) (A) (A) (A) (A) (A) (A) (A)
                 (A) (A) (A) (A) (A) (A) (A) (A) (A) (A) (A) (A)
                 (A) (A) (A) (A) (A) (A) (A) (A) (A) (A) (A) (A)
                 (A) (A) (A) (A) (A) (A) (A) (A) (A) (A) (A) (A)
                 (A) (A) (A) (A) (A) (A) (A) (A) (A) (A) (A) (A)
                 (A) (A) (A) (A) (A) (A) (A) (A) (A) (A) (A) (A)
                 (A) (A) (A) (A) (A) (A) (A) (A) (A) (A) (A) (A)
                 (A) (A) (A) (A) (A)
 The electronic state is 1-A.
 Alpha  occ. eigenvalues -- -100.58443-100.58438 -76.37559 -76.37500  -9.93898
 Alpha  occ. eigenvalues --   -9.93773  -9.93427  -9.93290  -9.93022  -9.92990
 Alpha  occ. eigenvalues --   -9.92847  -9.92844  -9.92464  -9.92268  -9.92123
 Alpha  occ. eigenvalues --   -9.92077  -9.92039  -9.91957  -9.91941  -9.91893
 Alpha  occ. eigenvalues --   -9.91892  -9.91834  -9.91834  -9.91669  -9.91336
 Alpha  occ. eigenvalues --   -9.91221  -9.91212  -9.91201  -9.91097  -9.91059
 Alpha  occ. eigenvalues --   -9.91052  -9.91007  -9.90995  -9.90942  -9.90863
 Alpha  occ. eigenvalues --   -9.07974  -9.07967  -6.90311  -6.90309  -6.89570
 Alpha  occ. eigenvalues --   -6.89561  -6.89514  -6.89505  -6.35461  -6.35411
 Alpha  occ. eigenvalues --   -4.57277  -4.57253  -4.57221  -4.57205  -4.56946
 Alpha  occ. eigenvalues --   -4.56897  -3.19480  -1.96409  -1.96067  -1.92465
 Alpha  occ. eigenvalues --   -0.83791  -0.78796  -0.78628  -0.77843  -0.77752
 Alpha  occ. eigenvalues --   -0.73155  -0.70671  -0.69085  -0.68590  -0.68439
 Alpha  occ. eigenvalues --   -0.68264  -0.67978  -0.67755  -0.67669  -0.67241
 Alpha  occ. eigenvalues --   -0.65136  -0.63687  -0.62938  -0.60720  -0.58748
 Alpha  occ. eigenvalues --   -0.55925  -0.55692  -0.55655  -0.55036  -0.54647
 Alpha  occ. eigenvalues --   -0.54590  -0.54077  -0.53399  -0.51343  -0.50940
 Alpha  occ. eigenvalues --   -0.48551  -0.48142  -0.47279  -0.46987  -0.46577
 Alpha  occ. eigenvalues --   -0.45895  -0.43612  -0.41839  -0.41765  -0.41566
 Alpha  occ. eigenvalues --   -0.41022  -0.40915  -0.40477  -0.40384  -0.40030
 Alpha  occ. eigenvalues --   -0.39573  -0.38845  -0.38479  -0.38325  -0.37720
 Alpha  occ. eigenvalues --   -0.37513  -0.37185  -0.36682  -0.35765  -0.35136
 Alpha  occ. eigenvalues --   -0.34591  -0.34007  -0.33745  -0.33664  -0.33037
 Alpha  occ. eigenvalues --   -0.32931  -0.32466  -0.32250  -0.31579  -0.31361
 Alpha  occ. eigenvalues --   -0.31095  -0.30872  -0.30732  -0.30458  -0.30159
 Alpha  occ. eigenvalues --   -0.29894  -0.29504  -0.28907  -0.28169  -0.26073
 Alpha  occ. eigenvalues --   -0.25159  -0.24693  -0.24328  -0.24058  -0.23773
 Alpha  occ. eigenvalues --   -0.23606  -0.23468  -0.23205  -0.22866  -0.22797
 Alpha  occ. eigenvalues --   -0.22575  -0.21699  -0.21010  -0.18578  -0.17955
 Alpha  occ. eigenvalues --   -0.17168  -0.16889  -0.16505
 Alpha virt. eigenvalues --   -0.09187  -0.06604  -0.06143  -0.05213  -0.05167
 Alpha virt. eigenvalues --   -0.04880  -0.04612  -0.04054  -0.03749  -0.03045
 Alpha virt. eigenvalues --   -0.00481   0.01726   0.02763   0.03403   0.04064
 Alpha virt. eigenvalues --    0.04098   0.05290   0.05383   0.06431   0.06637
 Alpha virt. eigenvalues --    0.07111   0.07337   0.08083   0.08375   0.08548
 Alpha virt. eigenvalues --    0.08722   0.08908   0.09252   0.10062   0.10289
 Alpha virt. eigenvalues --    0.10676   0.10938   0.11609   0.11921   0.12065
 Alpha virt. eigenvalues --    0.12141   0.12685   0.12962   0.13197   0.13292
 Alpha virt. eigenvalues --    0.13404   0.13607   0.13914   0.14620   0.14870
 Alpha virt. eigenvalues --    0.15436   0.15535   0.15683   0.16177   0.16617
 Alpha virt. eigenvalues --    0.17035   0.17819   0.17966   0.18784   0.19537
 Alpha virt. eigenvalues --    0.20043   0.20592   0.21035   0.21543   0.22050
 Alpha virt. eigenvalues --    0.23430   0.24213   0.24250   0.24813   0.25373
 Alpha virt. eigenvalues --    0.25841   0.25930   0.26041   0.26386   0.26527
 Alpha virt. eigenvalues --    0.26672   0.26987   0.27247   0.27523   0.29057
 Alpha virt. eigenvalues --    0.29431   0.30003   0.31688   0.31795   0.32877
 Alpha virt. eigenvalues --    0.34290   0.35163   0.35920   0.38057   0.38290
 Alpha virt. eigenvalues --    0.39438   0.40315   0.43010   0.43589   0.44797
 Alpha virt. eigenvalues --    0.45122   0.45808   0.46398   0.46643   0.46713
 Alpha virt. eigenvalues --    0.47135   0.47761   0.47817   0.48025   0.48235
 Alpha virt. eigenvalues --    0.48637   0.48932   0.49364   0.49606   0.49686
 Alpha virt. eigenvalues --    0.49741   0.49912   0.50306   0.50732   0.50819
 Alpha virt. eigenvalues --    0.51168   0.51435   0.51631   0.51745   0.52026
 Alpha virt. eigenvalues --    0.52098   0.52236   0.53302   0.53487   0.53501
 Alpha virt. eigenvalues --    0.53681   0.54381   0.54938   0.55095   0.55274
 Alpha virt. eigenvalues --    0.55432   0.55723   0.55882   0.56222   0.56277
 Alpha virt. eigenvalues --    0.56642   0.56749   0.56804   0.56891   0.57203
 Alpha virt. eigenvalues --    0.57484   0.58057   0.58326   0.58606   0.58885
 Alpha virt. eigenvalues --    0.59109   0.59934   0.60459   0.61024   0.61594
 Alpha virt. eigenvalues --    0.61935   0.62291   0.62884   0.63248   0.63795
 Alpha virt. eigenvalues --    0.64607   0.65257   0.65611   0.66133   0.67236
 Alpha virt. eigenvalues --    0.67678   0.67886   0.70362   0.70639   0.70999
 Alpha virt. eigenvalues --    0.71280   0.71452   0.73031   0.73823   0.74524
 Alpha virt. eigenvalues --    0.75323   0.75505   0.76768   0.77168   0.77318
 Alpha virt. eigenvalues --    0.77703   0.77980   0.78082   0.78454   0.78600
 Alpha virt. eigenvalues --    0.78861   0.79119   0.79351   0.79595   0.79676
 Alpha virt. eigenvalues --    0.79918   0.80202   0.80414   0.81083   0.81503
 Alpha virt. eigenvalues --    0.82268   0.82506   0.83101   0.83748   0.84162
 Alpha virt. eigenvalues --    0.84367   0.84880   0.85020   0.85252   0.85501
 Alpha virt. eigenvalues --    0.86138   0.86268   0.86584   0.87202   0.87536
 Alpha virt. eigenvalues --    0.87824   0.88039   0.88664   0.88917   0.89253
 Alpha virt. eigenvalues --    0.89272   0.89746   0.89935   0.90021   0.90361
 Alpha virt. eigenvalues --    0.91024   0.91177   0.91914   0.92412   0.93008
 Alpha virt. eigenvalues --    0.93767   0.94163   0.94453   0.95430   0.95579
 Alpha virt. eigenvalues --    0.95769   0.96091   0.97566   0.98166   0.98906
 Alpha virt. eigenvalues --    1.00215   1.00481   1.01045   1.01450   1.01577
 Alpha virt. eigenvalues --    1.02006   1.02570   1.03939   1.04330   1.05723
 Alpha virt. eigenvalues --    1.06286   1.06805   1.07125   1.08271   1.08461
 Alpha virt. eigenvalues --    1.09400   1.10024   1.10362   1.10623   1.10959
 Alpha virt. eigenvalues --    1.11586   1.11863   1.12621   1.13169   1.14213
 Alpha virt. eigenvalues --    1.15700   1.17231   1.18010   1.18347   1.18515
 Alpha virt. eigenvalues --    1.19759   1.19847   1.21394   1.22000   1.22668
 Alpha virt. eigenvalues --    1.24724   1.26035   1.26317   1.29684   1.29830
 Alpha virt. eigenvalues --    1.31220   1.33320   1.34258   1.36091   1.36683
 Alpha virt. eigenvalues --    1.36911   1.37218   1.37480   1.38325   1.38545
 Alpha virt. eigenvalues --    1.39003   1.39492   1.39675   1.39865   1.40212
 Alpha virt. eigenvalues --    1.40469   1.40811   1.41199   1.41378   1.41495
 Alpha virt. eigenvalues --    1.41923   1.42331   1.42537   1.42812   1.43360
 Alpha virt. eigenvalues --    1.43564   1.43597   1.44333   1.46393   1.48500
 Alpha virt. eigenvalues --    1.48943   1.49979   1.53769   1.55109   1.56155
 Alpha virt. eigenvalues --    1.57458   1.58852   1.61367   1.62722   1.64309
 Alpha virt. eigenvalues --    1.67647   1.68957   1.69628   1.70088   1.71065
 Alpha virt. eigenvalues --    1.71650   1.72187   1.73091   1.73606   1.74992
 Alpha virt. eigenvalues --    1.75095   1.75801   1.76780   1.77573   1.77784
 Alpha virt. eigenvalues --    1.78559   1.80072   1.82281   1.82600   1.82853
 Alpha virt. eigenvalues --    1.82953   1.85499   1.88405   1.89428   1.90097
 Alpha virt. eigenvalues --    1.90404   1.90560   1.91186   1.91903   1.92256
 Alpha virt. eigenvalues --    1.92473   1.94451   1.96417   1.96743   1.97301
 Alpha virt. eigenvalues --    1.98262   1.99808   2.00359   2.01229   2.01622
 Alpha virt. eigenvalues --    2.02494   2.03466   2.03843   2.04199   2.04747
 Alpha virt. eigenvalues --    2.04986   2.05111   2.05252   2.05461   2.05638
 Alpha virt. eigenvalues --    2.05776   2.05912   2.06102   2.06289   2.06608
 Alpha virt. eigenvalues --    2.06676   2.06898   2.07067   2.07545   2.08145
 Alpha virt. eigenvalues --    2.09594   2.10936   2.14954   2.16881   2.19167
 Alpha virt. eigenvalues --    2.19410   2.19806   2.19883   2.20087   2.20216
 Alpha virt. eigenvalues --    2.20541   2.20848   2.21273   2.22075   2.22361
 Alpha virt. eigenvalues --    2.22666   2.22825   2.23723   2.30004   2.32757
 Alpha virt. eigenvalues --    2.35748   2.38910   2.41334   2.44820   2.45314
 Alpha virt. eigenvalues --    2.45843   2.46491   2.48034   2.48538   2.49181
 Alpha virt. eigenvalues --    2.49736   2.49953   2.52602   2.52785   2.53348
 Alpha virt. eigenvalues --    2.53476   2.54976   2.55171   2.55525   2.56665
 Alpha virt. eigenvalues --    2.56855   2.58395   2.58740   2.58976   2.60111
 Alpha virt. eigenvalues --    2.60666   2.62053   2.63241   2.63535   2.64561
 Alpha virt. eigenvalues --    2.64606   2.65001   2.65305   2.66646   2.66965
 Alpha virt. eigenvalues --    2.67816   2.68395   2.70074   2.70428   2.70842
 Alpha virt. eigenvalues --    2.72708   2.78885   2.79921   2.83545   2.92853
 Alpha virt. eigenvalues --    2.93267   2.93651   2.94103   3.23166   3.23281
 Alpha virt. eigenvalues --    3.26176   3.26384   3.49311   3.51784   3.98777
 Alpha virt. eigenvalues --    3.99046   3.99381   3.99991   4.02253   4.02628
 Alpha virt. eigenvalues --    4.03529   4.03570   4.09893   4.10715   4.11020
 Alpha virt. eigenvalues --    4.11743   4.16151   4.22341   4.23217   4.24210
 Alpha virt. eigenvalues --    4.25339   4.25829   4.26244   4.27220   4.28348
 Alpha virt. eigenvalues --    4.28620   4.29228   4.31093   4.31708   4.34138
 Alpha virt. eigenvalues --    4.48619   4.53674   4.56019   4.56712   4.57204
 Alpha virt. eigenvalues --    4.59266   4.72317  30.97523
          Condensed to atoms (all electrons):
 Mulliken charges:
               1
     1  P    0.593930
     2  C   -0.067073
     3  C   -0.179286
     4  C   -0.128646
     5  C   -0.137104
     6  C   -0.134406
     7  C   -0.170846
     8  H    0.158006
     9  H    0.149823
    10  H    0.151594
    11  H    0.157487
    12  H    0.210321
    13  C   -0.073545
    14  C   -0.183908
    15  C   -0.127269
    16  C   -0.137314
    17  C   -0.128698
    18  C   -0.158593
    19  H    0.184633
    20  H    0.155133
    21  H    0.149073
    22  H    0.146745
    23  H    0.142147
    24  C   -0.332540
    25  C   -0.187191
    26  C   -0.078164
    27  C   -0.125909
    28  H    0.146791
    29  C   -0.179590
    30  H    0.154161
    31  C   -0.302366
    32  H    0.166888
    33  H    0.169029
    34  C   -0.322638
    35  P    0.580489
    36  C   -0.079891
    37  C   -0.181075
    38  C   -0.128810
    39  C   -0.137663
    40  C   -0.133612
    41  C   -0.165505
    42  H    0.159190
    43  H    0.151506
    44  H    0.152782
    45  H    0.158859
    46  H    0.217057
    47  C   -0.070851
    48  C   -0.185122
    49  C   -0.127165
    50  C   -0.137423
    51  C   -0.128841
    52  C   -0.156825
    53  H    0.185487
    54  H    0.154827
    55  H    0.148476
    56  H    0.145732
    57  H    0.141558
    58  Pd  -0.482875
    59  Cl  -0.257345
    60  Cl  -0.254907
    61  H    0.225417
    62  H    0.148172
    63  H    0.155454
    64  H    0.222227
 Sum of Mulliken charges =  -0.00000
 Mulliken charges with hydrogens summed into heavy atoms:
               1
     1  P    0.593930
     2  C   -0.067073
     3  C    0.031035
     4  C    0.028841
     5  C    0.014490
     6  C    0.015417
     7  C   -0.012839
    13  C   -0.073545
    14  C   -0.041761
    15  C    0.019475
    16  C    0.011759
    17  C    0.026436
    18  C    0.026041
    24  C   -0.110313
    25  C   -0.031737
    26  C    0.070008
    27  C    0.020882
    29  C   -0.025429
    31  C    0.033551
    34  C   -0.097221
    35  P    0.580489
    36  C   -0.079891
    37  C    0.035982
    38  C    0.030050
    39  C    0.015119
    40  C    0.017893
    41  C   -0.006314
    47  C   -0.070851
    48  C   -0.043564
    49  C    0.018567
    50  C    0.011053
    51  C    0.025986
    52  C    0.028663
    58  Pd  -0.482875
    59  Cl  -0.257345
    60  Cl  -0.254907
 Electronic spatial extent (au):  <R**2>=          17903.0823
 Charge=             -0.0000 electrons
 Dipole moment (field-independent basis, Debye):
    X=             -0.1535    Y=              1.4614    Z=             13.1098  Tot=             13.1919
 Quadrupole moment (field-independent basis, Debye-Ang):
   XX=           -213.0377   YY=           -215.8601   ZZ=           -281.1553
   XY=              0.2535   XZ=              0.4802   YZ=             -7.4334
 Traceless Quadrupole moment (field-independent basis, Debye-Ang):
   XX=             23.6467   YY=             20.8243   ZZ=            -44.4709
   XY=              0.2535   XZ=              0.4802   YZ=             -7.4334
 Octapole moment (field-independent basis, Debye-Ang**2):
  XXX=             -6.5001  YYY=             -3.2021  ZZZ=             38.1132  XYY=             -4.5770
  XXY=             -0.3389  XXZ=             -9.8436  XZZ=              7.3940  YZZ=              6.2605
  YYZ=              3.8726  XYZ=            -22.0139
 Hexadecapole moment (field-independent basis, Debye-Ang**3):
 XXXX=         -11282.2139 YYYY=          -5933.8995 ZZZZ=          -5758.7572 XXXY=            297.7290
 XXXZ=            -45.4335 YYYX=           -138.7790 YYYZ=            -66.4649 ZZZX=             24.8452
 ZZZY=            -27.5062 XXYY=          -2691.7939 XXZZ=          -2922.7782 YYZZ=          -2005.9725
 XXYZ=            -40.1747 YYXZ=             14.2221 ZZXY=            -53.6473
 N-N= 5.125429050485D+03 E-N=-1.710141185749D+04  KE= 2.827430619833D+03
   1 Symmetry operations used in ECPInt.
 ECPInt:  NShTT=   21736 NPrTT=  145778 LenC2=   17547 LenP2D=   61016.
 LDataN:  DoStor=T MaxTD1= 6 Len=  172
 Calling FoFJK, ICntrl=      2527 FMM=T ISym2X=0 I1Cent= 4 IOpClX= 0 NMat=1 NMatS=1 NMatT=0.
 Defaulting to unpruned grid for atomic number  46.
 Defaulting to unpruned grid for atomic number  46.
 Defaulting to unpruned grid for atomic number  46.
 Defaulting to unpruned grid for atomic number  46.
 Defaulting to unpruned grid for atomic number  46.
 Defaulting to unpruned grid for atomic number  46.
 Defaulting to unpruned grid for atomic number  46.
 Defaulting to unpruned grid for atomic number  46.
 Defaulting to unpruned grid for atomic number  46.
 Defaulting to unpruned grid for atomic number  46.
 Defaulting to unpruned grid for atomic number  46.
 Defaulting to unpruned grid for atomic number  46.
 Defaulting to unpruned grid for atomic number  46.
 Defaulting to unpruned grid for atomic number  46.
 ***** Axes restored to original set *****
 -------------------------------------------------------------------
 Center     Atomic                   Forces (Hartrees/Bohr)
 Number     Number              X              Y              Z
 -------------------------------------------------------------------
      1       15          -0.005818106   -0.001908501   -0.022388871
      2        6          -0.001162752   -0.005667972   -0.002272863
[...]
 051,-0.00002277,0.00003481,-0.00001700,0.00006026,-0.00002010,0.000012
 86,-0.00000690,-0.00001654,-0.00000992,0.00000199,-0.00001555,0.000005
 77,-0.00000523,-0.00002293,-0.00001644,-0.00000038,0.00000625,0.000002
 34,-0.00000385,-0.00000245,-0.00000349,-0.00000453,-0.00000444,-0.0000
 0401,-0.00000516,0.00000512,-0.00000951,-0.00000291,0.00001970,0.00003
 577,-0.00001044,0.00019544,-0.00125968,0.00058875,0.02015092,-0.002633
 26,-0.00096929,0.11262488,-0.10547344,-0.02614764,-0.01367618,0.010881
 87,0.00297785,0.00092706,0.00025855,0.00107461,-0.00324773,-0.00168721
 ,-0.00146556,-0.00058778,0.00105291,0.00024443,0.00054018,-0.00418934,
 -0.00200743,0.00145285,-0.00005163,0.00045960,-0.00001879,0.00005924,0
 .00010499,-0.00020564,-0.00015533,-0.00034879,0.00000056,-0.00004597,0
 .00000266,0.00006070,0.00000262,-0.00002397,0.00001416,0.00002690,0.00
 000348,0.00000481,0.00001641,0.00000057,0.00000090,0.00001841,-0.00000
 087,0.00000738,0.00001363,-0.00001847,-0.00002725,-0.00002910,-0.00005
 132,0.00001195,-0.00000697,0.00000363,-0.00000339,-0.00000106,0.000004
 54,0.00000016,-0.00000105,0.00000280,-0.00000217,-0.00000146,0.0000001
 0,-0.00000279,0.00000059,0.00001348,0.00001977,-0.00002094,-0.00003272
 ,0.00002520,-0.00001228,-0.00000594,0.00000289,0.00000957,0.00000508,0
 .00000161,0.00000323,0.00000067,-0.00000156,-0.00000134,-0.00000319,0.
 00001713,0.00001884,0.00000765,-0.00000441,-0.00000051,0.00000412,0.00
 000274,0.00000141,-0.00000110,0.00000055,0.00000142,0.00000105,0.00000
 255,0.00000493,-0.00000041,-0.00000698,0.00001305,-0.00001265,-0.00006
 089,0.00003532,-0.00006789,0.00002763,-0.00000219,-0.00001267,-0.00002
 122,0.00000158,-0.00002152,0.00007311,0.00003028,-0.00006994,-0.118123
 47,0.10238468,0.00041708,-0.00062897,-0.00004342,0.00022518,0.00012005
 ,-0.00017345,-0.00010195,-0.00018208,0.00006451,-0.00020424,0.00013369
 ,0.00005245,0.00020594,0.00026168,-0.00014249,-0.00028049,0.00007128,0
 .00028705,-0.00031257,0.00012642,-0.00057414,-0.00026591,-0.00021316,-
 0.00011499,-0.00002604,0.00000516,-0.00003227,-0.00000164,-0.00004382,
 0.00001001,-0.00000256,-0.00000186,0.00002806,-0.00000482,-0.00003768,
 0.00000643,-0.00007772,0.00010744,-0.00003750,0.00008742,-0.00002923,0
 .00006476,0.00000497,0.00000779,-0.00002190,0.00000749,0.00000418,-0.0
 0000362,-0.00002016,0.00001556,-0.00001812,-0.00002663,-0.00000180,0.0
 0000985,-0.00001513,-0.00000958,-0.00002971,0.00000148,-0.00000136,0.0
 0000080,0.00000182,0.00000699,-0.00000017,0.00000708,0.00001763,-0.000
 00195,-0.00002869,0.00002301,0.00001229,0.00004017,0.00032898,-0.00044
 851,0.00549116,-0.00087798,0.00125400,0.03777017,-0.02386707,-0.036547
 35,0.00000837,-0.00082004,0.00333564,-0.00068623,0.00100798,-0.0048495
 1,0.00207052,-0.00141979,0.00887158,0.00040437,-0.00077691,-0.00002974
 ,-0.00082324,-0.00068490,-0.00049447,-0.00024164,0.00055967,0.00008490
 ,0.00024445,-0.00003592,-0.00003940,-0.00115751,0.00083643,0.00116311,
 0.00014490,0.00010811,0.00047590,0.00003724,-0.00014981,0.00007413,0.0
 0002886,0.00005850,-0.00003532,0.00001536,-0.00000992,-0.00000252,-0.0
 0002439,-0.00000650,-0.00001694,-0.00000374,0.00004338,-0.00002614,0.0
 0005687,0.00000323,-0.00007036,-0.00003715,-0.00001083,0.00003239,-0.0
 0001048,0.00000904,-0.00000357,-0.00000866,0.00000275,0.00000261,-0.00
 000241,0.00000455,0.00000235,-0.00001085,-0.00001661,0.00000557,0.0000
 3316,0.00006164,-0.00001273,-0.00000844,0.00000727,-0.00002158,-0.0000
 1298,-0.00000026,-0.00000308,-0.00000199,-0.00000846,-0.00000411,-0.00
 000011,0.00000882,-0.00000124,-0.00002724,-0.00001767,-0.00001015,0.00
 001196,-0.00000459,0.00000538,-0.00000271,-0.00000304,0.00000432,-0.00
 000199,-0.00000365,0.00000208,-0.00000044,-0.00000848,0.00000412,0.000
 02414,-0.00000356,0.00000345,-0.00009992,0.00012185,-0.00003275,-0.000
 03759,0.00000354,0.00005559,0.00002682,0.00002666,0.00001468,-0.000110
 61,0.00023907,-0.00002784,-0.04237861,0.02568205,0.02823284,-0.0001664
 7,-0.00004191,0.00009788,0.00004843,0.00000721,-0.00002265,-0.00000261
 ,-0.00000251,0.00001608,-0.00000133,0.00001043,-0.00000646,0.00000425,
 0.00000057,-0.00000338,0.00000372,-0.00000388,-0.00000212,-0.00000957,
 -0.00001179,0.00002484,0.00003105,-0.00000365,-0.00000887,0.00000168,-
 0.00000104,-0.00000267,0.00000020,-0.00000201,-0.00000045,-0.00000210,
 0.00000091,0.00000127,-0.00000103,0.00000636,-0.00001152,-0.00011381,0
 .00001059,-0.00003010,0.00043375,-0.00040710,0.00002589,-0.00011020,0.
 00005399,-0.00009616,-0.00004499,0.00000303,0.00001942,-0.00002475,-0.
 00003072,0.00000048,0.00005678,0.00015305,0.00003846,-0.00002597,-0.00
 000130,-0.00001418,0.00001071,-0.00000186,-0.00001643,-0.00001834,0.00
 000629,-0.00001014,0.00003260,0.00001185,-0.00000312,-0.00013363,0.000
 10107,-0.00008070,-0.00220686,-0.00125925,-0.00090724,-0.18270323,-0.1
 2179033,0.05308873,0.00689230,0.00502386,-0.00364883,-0.00038649,0.002
 21835,0.00126863,0.00063964,0.00003808,0.00045717,-0.00550229,0.000654
 56,-0.00160897,-0.00016298,-0.00128760,0.00077588,-0.01175093,-0.01550
 412,0.00874248,0.00045958,0.00030714,0.00029018,0.00080264,0.00005797,
 -0.00025782,-0.00044615,-0.00050135,-0.00033514,-0.00005199,-0.0002979
 6,-0.00026931,-0.00001745,0.00000501,0.00002498,0.00000484,-0.00000549
 ,-0.00003494,0.00002185,0.00001673,-0.00001017,-0.00000162,0.00000613,
 -0.00001726,0.00001642,0.00000587,0.00002089,-0.00002266,-0.00003199,0
 .00000188,0.00005282,0.00000951,-0.00000747,-0.00000258,-0.00000360,-0
 .00000145,-0.00000748,0.00001115,0.00000273,-0.00000564,0.00001322,0.0
 0001070,-0.00000251,-0.00000345,0.00001758,-0.00000685,0.00002709,0.00
 012016,0.00003963,-0.00004763,0.00002453,0.00000495,0.00003379,0.00002
 955,-0.00000779,0.00000624,0.00000091,-0.00001683,0.00000456,-0.000000
 98,-0.00000817,-0.00004331,-0.00000752,-0.00000093,-0.00000381,0.00000
 378,-0.00000807,-0.00000078,0.00000016,-0.00000722,-0.00000145,0.00000
 227,0.00000195,-0.00000200,-0.00000232,-0.00005666,0.00006419,-0.00000
 180,-0.00001739,0.00003640,0.00007874,0.00001506,0.00000459,0.00000038
 ,0.00006356,0.00000976,0.00004122,-0.00008807,-0.00002738,0.00018268,0
 .00007945,-0.00066654,-0.00031023,0.19460506,-0.00044661,-0.00000017,0
 .00011161,0.00006626,0.00006922,-0.00003477,0.00004738,0.00001723,-0.0
 0001404,0.00002076,0.00002074,-0.00001295,-0.00001066,0.00002250,0.000
 01217,0.00004960,0.00004952,-0.00003926,-0.00019096,-0.00020890,0.0001
 0796,0.00015264,-0.00001128,0.00007350,0.00000289,-0.00001931,-0.00000
 403,0.00000224,0.00001208,-0.00000695,-0.00000143,0.00000396,-0.000009
 93,0.00000161,0.00001191,-0.00001640,0.00004813,0.00002229,-0.00014851
 ,-0.00007866,-0.00033139,-0.00035811,0.00006921,0.00000365,0.00000328,
 -0.00002233,0.00003525,-0.00002710,-0.00004406,-0.00004633,0.00003562,
 0.00007376,0.00000436,0.00010342,0.00000445,-0.00000205,0.00000185,0.0
 0000548,-0.00000792,-0.00000771,-0.00000020,0.00000520,0.00000739,-0.0
 0001145,0.00000283,0.00000353,-0.00010855,-0.00020053,-0.00048966,0.00
 205480,0.00112731,0.00007527,-0.12152991,-0.15533060,0.04593112,-0.020
 91836,-0.01248416,0.00789634,0.00077700,-0.00555103,-0.00089154,-0.001
 54306,-0.00022539,-0.00084000,0.00208695,-0.00078841,0.00031850,0.0000
 7283,0.00066788,-0.00009438,0.00567286,0.00519884,-0.00366203,-0.00048
 744,0.00028174,-0.00024361,-0.00055288,-0.00002326,-0.00008803,0.00086
 691,0.00093434,-0.00039234,0.00018360,0.00015794,-0.00011721,-0.000029
 63,0.00001965,0.00004313,-0.00001902,0.00001166,0.00000016,0.00000346,
 -0.00000935,0.00000064,-0.00000379,0.00000055,-0.00000544,0.00000460,0
 .00000686,0.00000382,0.00000381,0.00000041,0.00001012,0.00000105,0.000
 00251,0.00000173,-0.00000058,-0.00000090,-0.00000156,-0.00000042,0.000
 00110,0.00000009,0.00000035,0.00000240,-0.00000103,-0.00000009,0.00000
 045,-0.00000427,0.00007677,-0.00002112,-0.00006595,0.00004875,-0.00000
 636,-0.00003326,-0.00000674,0.00000261,0.00000412,0.00000439,-0.000001
 42,-0.00000192,0.00000811,0.00000317,-0.00000145,0.00001431,0.00002480
 ,0.00000432,-0.00000197,0.00000076,-0.00000053,0.00000129,0.00000228,0
 .00000071,-0.00000155,-0.00000038,0.00000132,0.00000536,0.00000567,-0.
 00000350,-0.00000075,-0.00001187,-0.00001065,-0.00005257,-0.00000529,0
 .00012380,0.00002249,-0.00000235,-0.00000949,0.00004986,0.00000478,0.0
 0001702,-0.00000179,-0.00000557,-0.00014053,0.00053670,0.00093928,-0.0
 0005623,0.13308662,0.16535283,0.00137751,0.00059885,0.00094491,-0.0002
 0084,-0.00008421,-0.00010380,-0.00002081,-0.00002903,-0.00000185,0.000
 00133,-0.00001766,0.00002631,-0.00000190,-0.00000600,-0.00000159,-0.00
 005980,0.00000220,0.00006574,0.00012377,0.00013942,-0.00009476,-0.0001
 0955,0.00003325,0.00000023,0.00000143,0.00000671,0.00000408,-0.0000067
 0,-0.00000847,0.00000360,0.00000297,-0.00000408,0.00000422,-0.00000238
 ,-0.00001704,0.00001409,-0.00000932,0.00036893,-0.00021316,-0.00067512
 ,0.00022112,-0.00015996,-0.00010831,-0.00028152,0.00027060,0.00006733,
 -0.00007166,-0.00000278,0.00004550,0.00001046,0.00000618,-0.00007391,-
 0.00013021,0.00003541,0.00006215,-0.00000019,0.00002435,-0.00000019,-0
 .00001307,0.00000918,0.00004482,0.00000336,0.00002594,-0.00002518,0.00
 002650,0.00000144,0.00040183,-0.00075404,-0.00045060,0.01956710,0.0178
 8111,-0.00739566,0.05228692,0.04704077,-0.06112619,-0.00696831,-0.0048
 2685,0.00135267,0.00015862,-0.00134593,0.00043986,-0.00049321,-0.00036
 157,-0.00000545,-0.00291562,-0.00007699,-0.00117028,-0.00035119,-0.000
 69397,0.00067524,-0.00717975,-0.00977092,0.00354964,0.00050065,0.00025
 828,0.00019954,0.00057275,-0.00015703,0.00023187,0.00131214,-0.0012986
 9,-0.00494934,0.00021101,0.00142643,0.00096288,0.00001254,-0.00002127,
 -0.00011825,0.00004959,-0.00001370,0.00005715,-0.00000705,-0.00000362,
 0.00001230,0.00000543,-0.00002275,0.00001048,-0.00000396,-0.00001252,0
 .00001648,-0.00004689,-0.00003981,-0.00003769,0.00001414,0.00001164,-0
 .00001819,0.00000555,-0.00000791,0.00000430,0.00000394,-0.00000144,0.0
 0000099,0.00000557,-0.00001555,0.00000039,0.00001013,0.00001181,-0.000
 00269,0.00038854,-0.00044043,-0.00049931,0.00004132,-0.00011912,-0.000
 02808,0.00001195,0.00000161,0.00001802,0.00000663,0.00000821,-0.000001
 09,0.00004894,-0.00005805,-0.00005304,0.00016017,0.00027078,0.00005209
 ,-0.00000374,-0.00000195,0.00000111,0.00003293,0.00001910,-0.00000242,
 0.00000274,0.00000720,-0.00000255,0.00001099,0.00001658,0.00000071,-0.
 00006982,-0.00002208,-0.00002506,-0.00006508,-0.00017421,-0.00017130,-
 0.00003116,0.00001616,0.00002218,-0.00015321,-0.00002335,-0.00005748,0
 .00007685,0.00002598,-0.00007722,0.00016379,0.00040102,0.00000021,-0.0
 5778442,-0.04750642,0.06685601,-0.00712656,0.01666377,-0.00152690,-0.0
 0140169,0.00016207,-0.00334899,-0.00049103,-0.00002267,0.00031933,0.00
 008919,0.00030355,0.00029718,0.00004698,0.00013711,-0.00014065,0.00019
 837,-0.00005431,0.00015865,0.00023973,0.00014559,-0.00030427,-0.000059
 60,-0.00003180,0.00002240,-0.00002455,0.00002724,0.00002674,-0.0000281
 0,0.00000334,-0.00003007,0.00000634,0.00007690,0.00002607,-0.00010254,
 0.00000702,-0.00015922,0.00059572,-0.00057996,0.00058948,-0.00106344,0
 .00013618,-0.00093318,0.00018428,-0.00036662,0.00041460,0.00008158,0.0
 0006395,0.00003516,0.00012530,-0.00004971,0.00014254,0.00011396,0.0000
 5142,-0.00016282,0.00010407,0.00000521,0.00009573,0.00002781,0.0000190
 9,0.00001781,0.00008016,-0.00000863,0.00003969,-0.00001377,0.00001198,
 -0.00002553,-0.00131705,-0.00144948,0.00059042,-0.06473084,0.08221198,
 0.01081294,-0.00356155,0.01155609,0.00349604,0.00015850,-0.00034266,0.
 00195349,-0.00082717,0.00037672,0.00067766,-0.00000418,0.00007629,-0.0
 0014147,0.00049914,0.00016194,0.00051214,-0.00004474,-0.00016464,-0.00
 005330,0.00061640,-0.00073005,-0.00280771,0.00038915,0.00019027,-0.001
 29041,-0.00042016,-0.00035251,0.00007415,0.00574577,-0.02531097,0.0001
 0036,-0.00043274,-0.00314189,0.00183133,-0.00039950,-0.00029104,-0.000
 02262,-0.00000871,0.00062895,0.00040594,-0.00013893,0.00029961,-0.0000
 5622,0.00014688,0.00008007,0.00017658,-0.00009940,-0.00028642,0.000021
 89,-0.00030166,0.00015457,-0.00050693,0.00005896,0.00000067,0.00001914
 ,0.00000309,-0.00000047,0.00001709,0.00002535,-0.00001711,-0.00000261,
 0.00001963,-0.00004595,-0.00002560,-0.00000840,-0.00006356,-0.00000156
 ,0.00015583,0.00024531,-0.00009761,0.00002263,-0.00031918,-0.00025044,
 -0.00005174,0.00011955,0.00009067,-0.00002568,-0.00003983,0.00000489,0
 .00000340,0.00000823,0.00000774,-0.00002712,0.00001262,-0.00000016,0.0
 0001138,-0.00001548,0.00003845,-0.00000207,0.00000343,0.00000017,-0.00
 001439,0.00000639,0.00001164,0.00000578,0.00000031,-0.00000356,-0.0000
 5314,0.00014586,0.00012221,0.00003102,-0.00049376,0.00054934,-0.000123
 66,0.00015341,0.00001070,-0.00009276,-0.00013449,-0.00000368,-0.004128
 07,-0.00307536,-0.00067527,0.00005791,0.00018634,0.00000074,-0.0001793
 0,-0.00006177,-0.00042211,0.07745994,0.00331690,-0.00539246,0.00069728
 ,-0.00044113,0.00004409,0.00040908,0.00009544,0.00011110,0.00007903,0.
 00007671,-0.00008290,-0.00008533,-0.00006342,-0.00000052,0.00005344,-0
 .00005463,0.00000439,0.00004060,-0.00011211,0.00018397,0.00011700,0.00
 000356,-0.00001885,-0.00001359,-0.00000373,0.00001171,-0.00000610,0.00
 000749,0.00000129,0.00000772,-0.00001426,-0.00000214,-0.00001858,0.000
 06846,-0.00004260,-0.00005612,0.00030556,-0.00024718,0.00045157,-0.001
 01959,-0.00058986,0.00011712,-0.00016974,0.00020261,-0.00017321,-0.000
 07470,-0.00003982,-0.00003379,-0.00001803,-0.00005554,0.00002951,0.000
 12037,0.00009899,0.00004265,-0.00000005,0.00001208,-0.00001721,0.00001
 608,0.00000421,-0.00000639,-0.00002083,-0.00001382,-0.00002987,0.00000
 272,0.00000135,0.00001474,-0.00091876,-0.00002122,-0.00026740,0.074181
 30,-0.25383296,-0.03010175,0.00114036,-0.00240444,-0.00110364,0.000530
 54,0.00082144,-0.00018499,-0.00012463,0.00056450,0.00049641,-0.0000581
 1,0.00008611,0.00006298,0.00026619,0.00039240,0.00032579,-0.00002629,-
 0.00009373,-0.00004405,0.00056919,0.00042552,0.00101986,-0.00048937,0.
 00064406,0.00022370,-0.00005819,0.00050020,0.00015113,0.00262033,-0.01
 817369,0.00127308,-0.00089713,-0.00172894,-0.00011543,0.00086235,0.000
 49870,0.00012598,-0.00001353,-0.00016534,-0.00006489,0.00008549,-0.000
 07469,-0.00002782,0.00005162,0.00000991,0.00004404,-0.00001036,-0.0001
 3565,0.00002366,-0.00019426,0.00014528,-0.00037665,-0.00001079,-0.0000
 0360,-0.00000737,0.00000482,-0.00001112,0.00000378,-0.00000200,-0.0000
 0087,0.00000248,-0.00001888,0.00000227,0.00001417,0.00009558,0.0001154
 1,0.00000435,-0.00001400,-0.00021343,-0.00001769,0.00015544,-0.0001370
 7,-0.00014487,-0.00005572,0.00010656,0.00002981,-0.00001266,-0.0000173
 1,0.00000507,-0.00000524,0.00000414,-0.00002943,0.00012825,0.00011788,
 0.00001103,-0.00001472,0.00001520,0.00000991,0.00000983,0.00000974,0.0
 0000090,-0.00000442,0.00000272,0.00001473,0.00001232,0.00001146,-0.000
 00705,-0.00002381,0.00008492,0.00010766,0.00003165,0.00073658,-0.00017
 680,0.00001109,-0.00003830,0.00001168,-0.00006045,-0.00003141,-0.00000
 887,-0.00270195,-0.00187900,-0.00061638,-0.00005909,-0.00011339,-0.000
 08263,-0.00002039,0.00026477,-0.00037419,-0.07698268,0.27932628,-0.007
 81223,0.01786431,0.00014730,-0.00190279,-0.00045291,-0.00379037,-0.000
 38178,0.00012478,0.00044724,0.00016585,0.00028778,0.00030851,0.0000014
 8,0.00016526,-0.00011027,0.00022610,0.00002917,0.00033703,0.00013539,0
 .00040287,-0.00030037,-0.00017309,-0.00008572,-0.00008251,-0.00006026,
 0.00006116,0.00002650,-0.00004924,0.00000854,-0.00005012,0.00000056,0.
 00010408,0.00001859,-0.00012284,0.00000796,-0.00017168,0.00048920,-0.0
 0060011,0.00026078,0.00007547,-0.00027822,0.00021266,-0.00013917,-0.00
 000832,-0.00002713,0.00001634,-0.00005861,0.00004667,0.00005471,-0.000
 00528,0.00009799,0.00017433,0.00018011,-0.00022041,0.00000953,0.000013
 44,0.00005799,0.00000665,0.00002701,0.00000237,-0.00000304,-0.00000697
 ,-0.00001379,0.00000152,0.00000266,0.00000887,0.00004732,0.00004129,0.
 00033164,0.00677356,-0.02371959,-0.03937989,0.00835450,-0.02611876,-0.
 01072672,0.00038479,0.00069291,-0.00474496,0.00061731,-0.00102851,-0.0
 0003952,-0.00019130,-0.00006203,0.00063054,-0.00009181,0.00027359,-0.0
 0018314,-0.00004131,0.00008738,-0.00001930,0.00122883,-0.00223442,-0.0
 0129922,-0.00092782,0.00058060,-0.00137046,-0.00005404,0.00026387,0.00
 040507,0.00022002,0.00421393,-0.00132442,0.00145714,0.00153452,-0.0002
 9873,0.00031251,0.00015796,-0.00000063,0.00010462,-0.00013122,0.000048
 30,0.00004639,-0.00023414,0.00011236,-0.00013183,-0.00005471,-0.000170
 24,-0.00002752,0.00021579,-0.00006084,0.00008034,-0.00005793,0.0000575
 5,-0.00002725,-0.00001401,-0.00001655,-0.00001111,0.00000183,-0.000006
 74,-0.00001237,0.00000843,-0.00001473,-0.00000586,0.00001319,0.0000204
 0,0.00011223,0.00007284,-0.00036342,-0.00011133,-0.00014003,-0.0001478
 9,-0.00002733,0.00010799,0.00007980,0.00001088,-0.00004728,0.00000224,
 -0.00000142,0.00000182,-0.00000710,0.00001176,-0.00001530,0.00000184,0
 .00003477,0.00000072,-0.00000915,-0.00000417,0.00001308,-0.00000831,-0
 .00000523,-0.00000033,0.00000334,-0.00000157,-0.00000153,-0.00000353,-
 0.00000526,-0.00000447,-0.00000321,0.00002658,-0.00002016,-0.00006928,
 0.00006514,-0.00065930,0.00026087,0.00004572,0.00003758,-0.00005033,0.
 00018847,-0.00008478,0.00015037,0.00148667,0.00052333,0.00035243,-0.00
 002979,-0.00061551,-0.00029006,0.00010428,0.00044823,0.00086936,-0.010
 71821,0.02817013,0.06007645\\-0.00000239,-0.00000342,-0.00000704,0.000
 00006,-0.00000217,0.00000042,-0.00000044,0.00000088,-0.00000012,-0.000
 00316,-0.00000119,0.00000061,0.00000114,-0.00000287,-0.00000087,0.0000
 0221,-0.00000277,-0.00000099,-0.00000109,0.00000316,0.00000130,-0.0000
 0086,-0.00000087,0.00000122,-0.00000137,-0.00000070,0.00000170,-0.0000
 0129,0.00000072,-0.00000043,-0.00000009,0.00000002,-0.00000108,-0.0000
 0019,-0.00000176,-0.00000056,0.00000106,0.00000281,0.00000287,-0.00000
 088,-0.00000216,0.00000088,-0.00000033,0.00000115,0.00000071,0.0000029
 2,-0.00000045,0.00000177,0.00000274,0.00000052,0.00000311,-0.00000379,
 -0.00000250,0.00000035,-0.00000063,-0.00000028,0.00000138,-0.00000122,
 -0.00000131,0.00000062,-0.00000078,-0.00000167,0.00000269,0.00000093,-
 0.00000148,0.00000290,0.00000084,0.00000002,0.00000170,0.00000007,0.00
 000379,0.00000419,0.00000138,-0.00000122,0.00000569,0.00000218,0.00000
 140,-0.00000288,0.00000063,0.00000441,-0.00000218,-0.00000110,0.000001
 74,-0.00000016,-0.00000086,0.00000154,0.00000304,0.00000077,0.00000105
 ,-0.00000239,0.00000411,-0.00000686,0.00000020,0.00000058,-0.00000141,
 -0.00000231,-0.00000016,0.00000160,-0.00000135,-0.00000323,-0.00000117
 ,-0.00000100,-0.00000349,0.00000078,-0.00000505,0.00000219,0.00000300,
 0.00000345,0.00000017,-0.00000211,0.00000092,0.00000247,0.00000144,0.0
 0000044,-0.00000117,0.00000285,-0.00000072,-0.00000157,0.00000255,-0.0
 0000278,0.00000225,-0.00000372,0.00000069,0.00000056,0.00000195,-0.000
 00072,0.00000210,0.00000124,0.00000079,0.00000170,-0.00000049,0.000000
 63,-0.00000059,-0.00000070,0.00000062,-0.00000072,0.00000082,-0.000000
 48,-0.00000267,0.00000180,0.00000283,0.00000121,0.00000041,-0.00000306
 ,0.00000229,-0.00000090,-0.00000280,-0.00000387,0.00000069,-0.00000068
 ,-0.00000451,-0.00000177,-0.00000013,0.00000475,0.00000039,-0.00000425
 ,-0.00000118,-0.00000052,-0.00000139,0.00000040,-0.00000008,-0.0000027
 7,0.00000023,0.00000160,-0.00000245,-0.00000065,0.00000190,-0.00000134
 ,-0.00000091,-0.00000011,-0.00000092,0.00001373,-0.00000071,0.00000423
 ,-0.00000613,-0.00000086,-0.00000047,-0.00000425,-0.00000053,0.0000009
 6,0.00000002,0.00000318,0.00000067,-0.00000062,0.00000213,0.00000036,-
 0.00000163,0.00000063,-0.00000202,0.00000210,-0.00000344,0.00000140\\\
 @


 LOGIC IS A SYSTEMATIC METHOD OF COMING TO THE
 WRONG CONCLUSION WITH CONFIDENCE.
 Job cpu time:       0 days  6 hours  1 minutes 59.7 seconds.
 File lengths (MBytes):  RWF=   3015 Int=      0 D2E=      0 Chk=    104 Scr=      1
 Normal termination of Gaussian 09 at Tue Nov 16 15:01:55 2021.
