 Entering Gaussian System, Link 0=g09
 Input=RR_NorPhos_3_SPE_NoPd.com
 Output=RR_NorPhos_3_SPE_NoPd.log
 Initial command:
 /gstore/apps/gaussian/g09.e01-foss-2017a/g09/l1.exe "/local/22791354/Gau-13146.inp" -scrdir="/local/22791354/"
 Entering Link 1 = /gstore/apps/gaussian/g09.e01-foss-2017a/g09/l1.exe PID=     13147.
  
 Copyright (c) 1988,1990,1992,1993,1995,1998,2003,2009,2015,
            Gaussian, Inc.  All Rights Reserved.
  
 This is part of the Gaussian(R) 09 program.  It is based on
 the Gaussian(R) 03 system (copyright 2003, Gaussian, Inc.),
 the Gaussian(R) 98 system (copyright 1998, Gaussian, Inc.),
 the Gaussian(R) 94 system (copyright 1995, Gaussian, Inc.),
 the Gaussian 92(TM) system (copyright 1992, Gaussian, Inc.),
 the Gaussian 90(TM) system (copyright 1990, Gaussian, Inc.),
 the Gaussian 88(TM) system (copyright 1988, Gaussian, Inc.),
 the Gaussian 86(TM) system (copyright 1986, Carnegie Mellon
 University), and the Gaussian 82(TM) system (copyright 1983,
 Carnegie Mellon University). Gaussian is a federally registered
 trademark of Gaussian, Inc.
  
 This software contains proprietary and confidential information,
 including trade secrets, belonging to Gaussian, Inc.
  
 This software is provided under written license and may be
 used, copied, transmitted, or stored only in accord with that
 written license.
  
 The following legend is applicable only to US Government
 contracts under FAR:
  
                    RESTRICTED RIGHTS LEGEND
  
 Use, reproduction and disclosure by the US Government is
 subject to restrictions as set forth in subparagraphs (a)
 and (c) of the Commercial Computer Software - Restricted
 Rights clause in FAR 52.227-19.
  
 Gaussian, Inc.
 340 Quinnipiac St., Bldg. 40, Wallingford CT 06492
  
  
 ---------------------------------------------------------------
 Warning -- This program may not be used in any manner that
 competes with the business of Gaussian, Inc. or will provide
 assistance to any competitor of Gaussian, Inc.  The licensee
 of this program is prohibited from giving any competitor of
 Gaussian, Inc. access to this program.  By using this program,
 the user acknowledges that Gaussian, Inc. is engaged in the
 business of creating and licensing software in the field of
 computational chemistry and represents and warrants to the
 licensee that it is not a competitor of Gaussian, Inc. and that
 it will not use this program in any manner prohibited above.
 ---------------------------------------------------------------
  

 Cite this work as:
 Gaussian 09, Revision E.01,
 M. J. Frisch, G. W. Trucks, H. B. Schlegel, G. E. Scuseria, 
 M. A. Robb, J. R. Cheeseman, G. Scalmani, V. Barone, B. Mennucci, 
 G. A. Petersson, H. Nakatsuji, M. Caricato, X. Li, H. P. Hratchian, 
 A. F. Izmaylov, J. Bloino, G. Zheng, J. L. Sonnenberg, M. Hada, 
 M. Ehara, K. Toyota, R. Fukuda, J. Hasegawa, M. Ishida, T. Nakajima, 
 Y. Honda, O. Kitao, H. Nakai, T. Vreven, J. A. Montgomery, Jr., 
 J. E. Peralta, F. Ogliaro, M. Bearpark, J. J. Heyd, E. Brothers, 
 K. N. Kudin, V. N. Staroverov, T. Keith, R. Kobayashi, J. Normand, 
 K. Raghavachari, A. Rendell, J. C. Burant, S. S. Iyengar, J. Tomasi, 
 M. Cossi, N. Rega, J. M. Millam, M. Klene, J. E. Knox, J. B. Cross, 
 V. Bakken, C. Adamo, J. Jaramillo, R. Gomperts, R. E. Stratmann, 
 O. Yazyev, A. J. Austin, R. Cammi, C. Pomelli, J. W. Ochterski, 
 R. L. Martin, K. Morokuma, V. G. Zakrzewski, G. A. Voth, 
 P. Salvador, J. J. Dannenberg, S. Dapprich, A. D. Daniels, 
 O. Farkas, J. B. Foresman, J. V. Ortiz, J. Cioslowski, 
 and D. J. Fox, Gaussian, Inc., Wallingford CT, 2013.
 
 ******************************************
 Gaussian 09:  ES64L-G09RevE.01 30-Nov-2015
                 5-Dec-2021 
 ******************************************
 %nprocs=14
 Will use up to   14 processors via shared memory.
 %mem=128GB
 %chk=RR_NorPhos_3_SPE_NoPd.chk
 ----------------------------------------------------------------------
 # PBE1PBE/def2TZVP int=(grid=ultrafine) empiricaldispersion=GD3BJ nmr=
 giao
 ----------------------------------------------------------------------
 1/38=1/1;
 2/12=2,17=6,18=5,40=1/2;
 3/5=44,7=101,11=2,16=1,25=1,30=1,74=-13,75=-5,124=41/1,2,8,3;
 4//1;
 5/5=2,38=5/2;
 8/6=1,10=90,11=11/1;
 10/13=100,45=16/2;
 6/7=2,8=2,9=2,10=2,28=1/1;
 99/9=1/99;
 ------------------
 RR_NorPhos_3 title
 ------------------
 Symbolic Z-matrix:
 Charge =  0 Multiplicity = 1
 P                    -1.64323   0.10822   0.03088 
 C                    -2.42202   1.75938   0.05893 
 C                    -3.10545   2.15464  -1.11239 
 C                    -3.72836   3.40628  -1.16221 
 C                    -3.66652   4.27555  -0.06174 
 C                    -2.97465   3.89048   1.0941 
 C                    -2.35338   2.63493   1.15897 
 H                    -1.80768   2.34489   2.05999 
 H                    -2.91509   4.56811   1.95242 
 H                    -4.15099   5.25625  -0.10935 
 H                    -4.25646   3.70795  -2.07238 
 H                    -3.12151   1.4845   -1.9801 
 C                    -3.00684  -1.10067   0.16346 
 C                    -4.09213  -0.83561   1.02194 
 C                    -5.08119  -1.80852   1.21378 
 C                    -4.99134  -3.04166   0.55038 
 C                    -3.91518  -3.30104  -0.31052 
 C                    -2.92232  -2.33284  -0.51018 
 H                    -2.10143  -2.50405  -1.21332 
 H                    -3.85491  -4.25503  -0.84397 
 H                    -5.76938  -3.79793   0.69699 
 H                    -5.92763  -1.60021   1.87636 
 H                    -4.16744   0.13412   1.52626 
 C                    -0.6094   -0.26563   1.5279 
 C                    -0.89904  -0.40585   3.06583 
 C                    -0.94938   0.95698   3.74228 
 C                     0.29479   1.48422   3.704 
 H                     0.60445   2.48389   4.02172 
 C                     1.19295   0.48443   2.97369 
 H                     2.27713   0.60253   3.11015 
 C                     0.54882  -0.83969   3.46189 
 H                     0.90868  -1.73769   2.93191 
 H                     0.66303  -0.97356   4.54935 
 C                     0.6846    0.58646   1.48281 
 P                     1.60251   0.01852  -0.03385 
 C                     2.35054  -1.58242   0.43376 
 C                     3.46917  -1.63439   1.28938 
 C                     3.95049  -2.8725    1.73202 
 C                     3.32371  -4.05944   1.32077 
 C                     2.22233  -4.01029   0.45436 
 C                     1.73705  -2.77475   0.00475 
 H                     0.90018  -2.71669  -0.70085 
 H                     1.74713  -4.93594   0.11445 
 H                     3.70498  -5.02561   1.66685 
 H                     4.82101  -2.91221   2.39486 
 H                     3.96637  -0.70796   1.59596 
 C                     3.00654   1.17074  -0.23637 
 C                     3.15711   2.30289   0.58989 
 C                     4.25827   3.15366   0.42301 
 C                     5.21243   2.88301  -0.56693 
 C                     5.06253   1.75965  -1.39396 
 C                     3.96699   0.90379  -1.23537 
 H                     3.82785   0.04499  -1.89867 
 H                     5.79992   1.54983  -2.17523 
 H                     6.07061   3.55026  -0.69688 
 H                     4.36751   4.03054   1.06948 
 H                     2.4218    2.5288    1.36736 
 H                     0.43072   1.63903   1.25374 
 H                    -1.8575    1.42502   4.13127 
 H                    -1.71613  -1.10532   3.29239 
 H                    -0.34019  -1.30075   1.22886 
 
 Stoichiometry    C31H28P2
 Framework group  C1[X(C31H28P2)]
 Deg. of freedom   177
 Full point group                 C1      NOp   1
 Largest Abelian subgroup         C1      NOp   1
 Largest concise Abelian subgroup C1      NOp   1
                         Standard orientation:                         
 ---------------------------------------------------------------------
 Center     Atomic      Atomic             Coordinates (Angstroms)
 Number     Number       Type             X           Y           Z
 ---------------------------------------------------------------------
      1         15           0        1.629694   -0.088439   -0.709575
      2          6           0        2.426018   -1.717241   -0.493962
      3          6           0        3.102858   -2.242301   -1.617136
      4          6           0        3.738406   -3.485121   -1.524614
      5          6           0        3.695746   -4.218207   -0.328254
      6          6           0        3.010430   -3.705182    0.780840
      7          6           0        2.376622   -2.456673    0.702774
      8          1           0        1.836135   -2.066884    1.568623
      9          1           0        2.965828   -4.276696    1.714017
     10          1           0        4.190044   -5.193048   -0.264232
     11          1           0        4.261326   -3.887719   -2.397980
     12          1           0        3.103959   -1.679743   -2.558301
     13          6           0        2.981674    1.140346   -0.735318
     14          6           0        4.077475    0.989197    0.137310
     15          6           0        5.057970    1.987199    0.202243
     16          6           0        4.949119    3.132012   -0.601729
     17          6           0        3.862480    3.277320   -1.476176
     18          6           0        2.878077    2.283029   -1.549401
     19          1           0        2.049049    2.361898   -2.259384
     20          1           0        3.787332    4.160659   -2.118328
     21          1           0        5.720469    3.907578   -0.553849
     22          1           0        5.912552    1.866915    0.876097
     23          1           0        4.167574    0.086904    0.752248
     24          6           0        0.605687    0.450730    0.743134
     25          6           0        0.907847    0.775165    2.250519
     26          6           0        0.978674   -0.497233    3.083238
     27          6           0       -0.260179   -1.036903    3.120552
     28          1           0       -0.556411   -1.994665    3.557742
     29          6           0       -1.175422   -0.139285    2.286141
     30          1           0       -2.257008   -0.250501    2.446802
     31          6           0       -0.540819    1.239378    2.607235
     32          1           0       -0.914919    2.064734    1.978258
     33          1           0       -0.646506    1.500265    3.672268
     34          6           0       -0.679648   -0.412757    0.812723
     35         15           0       -1.617258   -0.037419   -0.751046
     36          6           0       -2.377777    1.600633   -0.468873
     37          6           0       -3.489048    1.743304    0.386020
     38          6           0       -3.979296    3.020632    0.683676
     39          6           0       -3.368799    4.156196    0.128158
     40          6           0       -2.274908    4.014880   -0.737612
     41          6           0       -1.780795    2.739314   -1.042534
     42          1           0       -0.949826    2.605763   -1.744852
     43          1           0       -1.812582    4.898059   -1.189762
     44          1           0       -3.757033    5.152997    0.361146
     45          1           0       -4.844110    3.130579    1.346056
     46          1           0       -3.973669    0.855186    0.805396
     47          6           0       -3.010891   -1.218614   -0.801042
     48          6           0       -3.142018   -2.246072    0.155132
     49          6           0       -4.235649   -3.120898    0.101657
     50          6           0       -5.201593   -2.978567   -0.903506
     51          6           0       -5.071049   -1.959935   -1.859404
     52          6           0       -3.983162   -1.081094   -1.814703
     53          1           0       -3.859107   -0.305803   -2.576551
     54          1           0       -5.817702   -1.851214   -2.652404
     55          1           0       -6.053854   -3.664526   -0.944582
     56          1           0       -4.329766   -3.915849    0.848624
     57          1           0       -2.397317   -2.371237    0.946284
     58          1           0       -0.416813   -1.482656    0.707465
     59          1           0        1.895177   -0.907290    3.515601
     60          1           0        1.719573    1.504189    2.384119
     61          1           0        0.322893    1.440485    0.326259
 ---------------------------------------------------------------------
 Rotational constants (GHZ):      0.1555209      0.0970086      0.0750594
 Standard basis: def2TZVP (5D, 7F)
 There are  1368 symmetry adapted cartesian basis functions of A   symmetry.
 There are  1203 symmetry adapted basis functions of A   symmetry.
  1203 basis functions,  1943 primitive gaussians,  1368 cartesian basis functions
   122 alpha electrons      122 beta electrons
       nuclear repulsion energy      3606.2023277542 Hartrees.
 NAtoms=   61 NActive=   61 NUniq=   61 SFac= 1.00D+00 NAtFMM=   60 NAOKFM=T Big=T
 Integral buffers will be    131072 words long.
 Raffenetti 2 integral format.
 Two-electron integral symmetry is turned on.
 Nuclear repulsion after empirical dispersion term =     3606.1102485850 Hartrees.
 One-electron integrals computed using PRISM.
   1 Symmetry operations used in ECPInt.
 ECPInt:  NShTT=  114960 NPrTT=  355741 LenC2=   93322 LenP2D=  194184.
 LDataN:  DoStor=T MaxTD1= 6 Len=  172
 NBasis=  1203 RedAO= T EigKep=  6.98D-06  NBF=  1203
 NBsUse=  1203 1.00D-06 EigRej= -1.00D+00 NBFU=  1203
 ExpMin= 9.04D-02 ExpMax= 5.24D+04 ExpMxC= 1.79D+03 IAcc=3 IRadAn=         5 AccDes= 0.00D+00
 Harris functional with IExCor= 1009 and IRadAn=       5 diagonalized for initial guess.
 HarFok:  IExCor= 1009 AccDes= 0.00D+00 IRadAn=         5 IDoV= 1 UseB2=F ITyADJ=14
 ICtDFT=  3500011 ScaDFX=  1.000000  1.000000  1.000000  1.000000
 FoFCou: FMM=F IPFlag=           0 FMFlag=      100000 FMFlg1=        2001
         NFxFlg=           0 DoJE=T BraDBF=F KetDBF=T FulRan=T
         wScrn=  0.000000 ICntrl=     500 IOpCl=  0 I1Cent=   200000004 NGrid=           0
         NMat0=    1 NMatS0=      1 NMatT0=    0 NMatD0=    1 NMtDS0=    0 NMtDT0=    0
 Petite list used in FoFCou.
 Requested convergence on RMS density matrix=1.00D-08 within 128 cycles.
 Requested convergence on MAX density matrix=1.00D-06.
 Requested convergence on             energy=1.00D-06.
 No special actions if energy rises.
 Integral accuracy reduced to 1.0D-05 until final iterations.
 Problem detected with inexpensive integrals.
 Switching to full accuracy and repeating last cycle.
 SCF Done:  E(RPBE1PBE) =  -1879.63037609     A.U. after   14 cycles
            NFock= 14  Conv=0.78D-08     -V/T= 2.0046
 DoSCS=F DFT=T ScalE2(SS,OS)=  1.000000  1.000000
 Range of M.O.s used for correlation:     1  1203
 NBasis=  1203 NAE=   122 NBE=   122 NFC=     0 NFV=     0
 NROrb=   1203 NOA=   122 NOB=   122 NVA=  1081 NVB=  1081

 **** Warning!!: The largest alpha MO coefficient is  0.53476101D+02

          Differentiating once with respect to magnetic field using GIAOs.
          Electric field/nuclear overlap derivatives assumed to be zero.
 FoFCou: FMM=F IPFlag=           0 FMFlag=      100000 FMFlg1=        2001
         NFxFlg=           0 DoJE=F BraDBF=F KetDBF=T FulRan=T
         wScrn=  0.000000 ICntrl=    6100 IOpCl=  0 I1Cent=           7 NGrid=          61
         NMat0=    1 NMatS0=      1 NMatT0=    0 NMatD0=    1 NMtDS0=    0 NMtDT0=    0
 Symmetry not used in FoFCou.
   1 Symmetry operations used in ECPInt.
 ECPInt:  NShTT=  114960 NPrTT=  355741 LenC2=  114961 LenP2D=  355741.
 LDataN:  DoStor=T MaxTD1= 7 Len=  274
 FoFJK:  IHMeth= 1 ICntrl=    6127 DoSepK=F KAlg= 0 I1Cent=   0 FoldK=F
 IRaf=         1 NMat=   1 IRICut=       1 DoRegI=T DoRafI=F ISym2E= 0.
          There are     3 degrees of freedom in the 1st order CPHF.  IDoFFX=0 NUNeed=     3.
      3 vectors produced by pass  0 Test12= 4.40D-12 3.33D-08 XBig12= 1.18D+02 1.71D+00.
 AX will form     3 AO Fock derivatives at one time.
      3 vectors produced by pass  1 Test12= 4.40D-12 3.33D-08 XBig12= 5.15D-01 1.35D-01.
      3 vectors produced by pass  2 Test12= 4.40D-12 3.33D-08 XBig12= 1.92D-03 6.42D-03.
      3 vectors produced by pass  3 Test12= 4.40D-12 3.33D-08 XBig12= 6.72D-06 4.92D-04.
      3 vectors produced by pass  4 Test12= 4.40D-12 3.33D-08 XBig12= 3.79D-08 5.01D-05.
      3 vectors produced by pass  5 Test12= 4.40D-12 3.33D-08 XBig12= 2.06D-10 4.43D-06.
      3 vectors produced by pass  6 Test12= 4.40D-12 3.33D-08 XBig12= 1.24D-12 3.36D-07.
 InvSVY:  IOpt=1 It=  1 EMax= 5.33D-15
 Solved reduced A of dimension    21 with     3 vectors.
 Calculating GIAO nuclear magnetic shielding tensors.
 SCF GIAO Magnetic shielding tensor (ppm):
      1  P    Isotropic =   296.9298   Anisotropy =    56.0228
   XX=   281.0035   YX=   -28.5359   ZX=    19.0002
   XY=   -14.1002   YY=   300.2766   ZY=    -9.5013
   XZ=   -19.9442   YZ=   -41.1076   ZZ=   309.5093
   Eigenvalues:   262.1199   294.3912   334.2783
      2  C    Isotropic =    39.8685   Anisotropy =   197.3808
   XX=   112.8011   YX=    87.1811   ZX=    55.6671
   XY=    73.3627   YY=   -10.0455   ZY=    28.4970
   XZ=    40.0149   YZ=    22.5576   ZZ=    16.8497
   Eigenvalues:   -49.7538    -2.0965   171.4557
      3  C    Isotropic =    45.5634   Anisotropy =   188.5882
   XX=   141.2660   YX=    34.7659   ZX=    25.8252
   XY=    59.9307   YY=    30.2801   ZY=    50.3900
   XZ=    37.8324   YZ=    63.1014   ZZ=   -34.8560
   Eigenvalues:   -67.7945    33.1957   171.2888
      4  C    Isotropic =    51.3686   Anisotropy =   186.2817
   XX=   114.8293   YX=    67.4672   ZX=    69.1787
   XY=    68.6735   YY=    54.7480   ZY=   -11.4388
   XZ=    72.8061   YZ=    -9.0315   ZZ=   -15.4716
   Eigenvalues:   -60.3685    38.9178   175.5564
      5  C    Isotropic =    53.7386   Anisotropy =   184.6172
   XX=   115.0835   YX=    91.5092   ZX=    35.7801
   XY=    87.5573   YY=    -7.4103   ZY=    27.6898
   XZ=    31.3279   YZ=    26.1284   ZZ=    53.5427
   Eigenvalues:   -55.3002    39.6993   176.8167
      6  C    Isotropic =    52.7690   Anisotropy =   184.9398
   XX=   138.4212   YX=    46.9928   ZX=    33.0377
   XY=    50.3615   YY=    40.5512   ZY=    61.3158
   XZ=    38.2162   YZ=    64.0531   ZZ=   -20.6654
   Eigenvalues:   -59.9292    42.1740   176.0622
      7  C    Isotropic =    45.7969   Anisotropy =   186.1738
   XX=   112.0595   YX=    65.4424   ZX=    59.2286
   XY=    67.5952   YY=    49.3532   ZY=   -10.1141
   XZ=    77.4764   YZ=    -5.8081   ZZ=   -24.0219
   Eigenvalues:   -63.6495    31.1275   169.9128
      8  H    Isotropic =    23.1475   Anisotropy =    10.8768
   XX=    21.6751   YX=    -6.1458   ZX=    -0.5347
   XY=    -5.7900   YY=    26.1913   ZY=    -1.5873
   XZ=    -1.0057   YZ=    -1.5556   ZZ=    21.5761
   Eigenvalues:    17.0329    22.0109    30.3987
      9  H    Isotropic =    23.8847   Anisotropy =     7.0419
   XX=    23.0827   YX=    -3.2576   ZX=    -1.4968
   XY=    -3.4407   YY=    26.1470   ZY=     0.1828
   XZ=    -1.4592   YZ=     1.0188   ZZ=    22.4244
   Eigenvalues:    20.4510    22.6238    28.5793
     10  H    Isotropic =    24.0124   Anisotropy =     4.0442
   XX=    22.2683   YX=    -1.5645   ZX=    -1.5808
   XY=    -1.5313   YY=    23.7554   ZY=    -0.5058
   XZ=    -1.8636   YZ=    -0.1845   ZZ=    26.0136
   Eigenvalues:    20.7708    24.5579    26.7086
     11  H    Isotropic =    23.9454   Anisotropy =     5.3844
   XX=    22.1396   YX=    -2.7653   ZX=    -0.6472
   XY=    -2.2713   YY=    26.0485   ZY=    -1.5214
   XZ=    -0.3675   YZ=    -1.1376   ZZ=    23.6479
   Eigenvalues:    20.5415    23.7596    27.5350
     12  H    Isotropic =    23.6642   Anisotropy =    10.8448
   XX=    21.5250   YX=    -3.7566   ZX=    -1.4803
   XY=    -3.7978   YY=    26.2443   ZY=     4.3558
   XZ=    -1.8433   YZ=     3.9095   ZZ=    23.2233
   Eigenvalues:    19.2634    20.8351    30.8941
     13  C    Isotropic =    37.6091   Anisotropy =   209.4035
   XX=    20.3250   YX=   -62.3978   ZX=   -66.4954
   XY=   -73.8735   YY=    10.7280   ZY=    66.4103
   XZ=   -73.3447   YZ=    60.4614   ZZ=    81.7744
   Eigenvalues:   -52.8011   -11.5830   177.2114
     14  C    Isotropic =    40.1793   Anisotropy =   192.3216
   XX=    60.5576   YX=   -27.9330   ZX=   -59.4928
   XY=   -23.0206   YY=    -5.0982   ZY=    87.8010
   XZ=   -54.2786   YZ=   106.9225   ZZ=    65.0783
   Eigenvalues:   -74.7001    26.8442   168.3937
     15  C    Isotropic =    51.6030   Anisotropy =   184.9161
   XX=    16.5715   YX=   -23.3221   ZX=   -98.7956
   XY=   -23.3612   YY=    69.2272   ZY=    48.9688
   XZ=   -99.8703   YZ=    55.1638   ZZ=    69.0104
   Eigenvalues:   -61.4671    41.3958   174.8804
     16  C    Isotropic =    51.5653   Anisotropy =   187.4707
   XX=    28.0772   YX=   -79.7603   ZX=   -54.7631
   XY=   -81.6050   YY=    16.4386   ZY=    44.4446
   XZ=   -55.2677   YZ=    41.9891   ZZ=   110.1801
   Eigenvalues:   -58.8794    37.0295   176.5458
     17  C    Isotropic =    52.1510   Anisotropy =   184.3626
   XX=    76.5998   YX=   -27.4543   ZX=   -54.6280
   XY=   -27.5006   YY=     5.3777   ZY=    90.5250
   XZ=   -53.9768   YZ=    93.1179   ZZ=    74.4754
   Eigenvalues:   -58.7706    40.1642   175.0594
     18  C    Isotropic =    45.8460   Anisotropy =   176.4909
   XX=    11.2834   YX=   -30.2579   ZX=   -95.8283
   XY=   -16.8290   YY=    70.8366   ZY=    45.8460
   XZ=   -93.4894   YZ=    57.2741   ZZ=    55.4182
   Eigenvalues:   -65.3807    39.4122   163.5066
     19  H    Isotropic =    23.0777   Anisotropy =     9.1867
   XX=    22.1603   YX=     3.6138   ZX=    -2.6837
   XY=     2.7856   YY=    25.0795   ZY=    -3.0043
   XZ=    -1.1078   YZ=    -3.7291   ZZ=    21.9933
   Eigenvalues:    19.7982    20.2328    29.2022
     20  H    Isotropic =    23.7312   Anisotropy =     5.7020
   XX=    25.6358   YX=     2.7704   ZX=     1.3875
   XY=     2.3615   YY=    23.5549   ZY=    -0.8439
   XZ=     1.8656   YZ=    -0.6632   ZZ=    22.0028
   Eigenvalues:    20.3196    23.3414    27.5325
     21  H    Isotropic =    23.8718   Anisotropy =     4.2345
   XX=    24.1555   YX=     0.5628   ZX=     1.9618
   XY=     0.1057   YY=    24.0193   ZY=    -2.3514
   XZ=     2.1729   YZ=    -2.2594   ZZ=    23.4406
   Eigenvalues:    20.4937    24.4270    26.6948
     22  H    Isotropic =    23.9772   Anisotropy =     6.6115
   XX=    24.5090   YX=     3.2479   ZX=     0.6525
   XY=     2.4726   YY=    25.9806   ZY=    -1.8249
   XZ=     0.1715   YZ=    -1.6288   ZZ=    21.4419
   Eigenvalues:    20.3158    23.2308    28.3848
     23  H    Isotropic =    23.7594   Anisotropy =    12.0411
   XX=    28.2308   YX=     6.0226   ZX=     3.4794
   XY=     3.3180   YY=    23.0547   ZY=     1.6040
   XZ=     1.5492   YZ=     1.9952   ZZ=    19.9928
   Eigenvalues:    19.1286    20.3628    31.7868
     24  C    Isotropic =   133.4155   Anisotropy =    21.7705
   XX=   142.8962   YX=    -2.2167   ZX=     7.7341
   XY=    -3.1123   YY=   114.2468   ZY=     5.8367
   XZ=   -16.1336   YZ=     2.7760   ZZ=   143.1037
   Eigenvalues:   113.4745   138.8429   147.9292
     25  C    Isotropic =   137.5751   Anisotropy =    19.0163
   XX=   135.7433   YX=     0.4773   ZX=    -0.3211
   XY=   -16.6721   YY=   140.5420   ZY=     4.5781
   XZ=   -17.9655   YZ=    -1.8536   ZZ=   136.4399
   Eigenvalues:   125.1365   137.3361   150.2527
     26  C    Isotropic =    41.1269   Anisotropy =   167.8856
   XX=    31.0134   YX=    11.9563   ZX=   -38.9032
   XY=    23.4450   YY=    12.6524   ZY=    84.8625
   XZ=   -88.5670   YZ=    82.2201   ZZ=    79.7150
   Eigenvalues:   -71.0532    41.3834   153.0506
     27  C    Isotropic =    37.7981   Anisotropy =   176.8430
   XX=    30.1273   YX=    12.9634   ZX=   -29.2294
   XY=     7.2925   YY=     1.3169   ZY=    81.4564
   XZ=    12.8218   YZ=   131.9208   ZZ=    81.9501
   Eigenvalues:   -74.0401    31.7409   155.6935
     28  H    Isotropic =    24.3979   Anisotropy =     1.6072
   XX=    24.7153   YX=     0.3683   ZX=    -0.6921
   XY=     0.2369   YY=    23.6501   ZY=    -2.1377
   XZ=     2.0338   YZ=     1.0512   ZZ=    24.8283
   Eigenvalues:    23.2310    24.4933    25.4694
     29  C    Isotropic =   140.2533   Anisotropy =    13.3121
   XX=   140.1243   YX=    -5.8025   ZX=    -1.9392
   XY=     8.5770   YY=   141.7900   ZY=     2.7848
   XZ=    13.0900   YZ=     9.4483   ZZ=   138.8458
   Eigenvalues:   132.1376   139.4943   149.1281
     30  H    Isotropic =    28.4724   Anisotropy =     7.1101
   XX=    32.4056   YX=     0.4621   ZX=    -1.7078
   XY=     2.0395   YY=    24.3252   ZY=     0.3577
   XZ=    -1.2177   YZ=    -3.0401   ZZ=    28.6864
   Eigenvalues:    23.8642    28.3405    33.2125
     31  C    Isotropic =   130.3219   Anisotropy =    43.2500
   XX=   144.9062   YX=   -23.3344   ZX=    -7.2028
   XY=   -10.2156   YY=   137.2261   ZY=   -17.9629
   XZ=     2.0944   YZ=    -8.9057   ZZ=   108.8335
   Eigenvalues:   101.5545   130.2560   159.1553
     32  H    Isotropic =    31.6528   Anisotropy =    10.8392
   XX=    29.9145   YX=    -5.7032   ZX=     4.4647
   XY=    -4.4098   YY=    33.8960   ZY=    -0.5999
   XZ=     3.2451   YZ=    -2.2459   ZZ=    31.1478
   Eigenvalues:    25.3112    30.7682    38.8789
     33  H    Isotropic =    30.2657   Anisotropy =    10.2884
   XX=    27.6987   YX=    -2.2181   ZX=    -1.7167
   XY=    -1.4291   YY=    28.8255   ZY=     3.6713
   XZ=    -1.4572   YZ=     4.7785   ZZ=    34.2729
   Eigenvalues:    25.9587    27.7138    37.1246
     34  C    Isotropic =   143.4013   Anisotropy =    27.5718
   XX=   148.1799   YX=    -6.8448   ZX=   -13.9315
   XY=    -4.6294   YY=   126.0878   ZY=     1.9633
   XZ=    -1.8082   YZ=     4.5180   ZZ=   155.9361
   Eigenvalues:   124.6291   143.7922   161.7825
     35  P    Isotropic =   295.0299   Anisotropy =    43.6766
   XX=   314.3742   YX=    24.4699   ZX=    -6.0113
   XY=    17.6091   YY=   271.3756   ZY=    13.4255
   XZ=     5.7727   YZ=   -40.1545   ZZ=   299.3398
   Eigenvalues:   258.9872   301.9548   324.1476
     36  C    Isotropic =    40.0928   Anisotropy =   205.8878
   XX=    63.6904   YX=    19.5616   ZX=    87.6475
   XY=    27.7033   YY=   -45.2547   ZY=     7.3147
   XZ=    94.7727   YZ=    -0.3489   ZZ=   101.8429
   Eigenvalues:   -52.7653    -4.3075   177.3514
     37  C    Isotropic =    41.7096   Anisotropy =   193.0359
   XX=    57.5666   YX=   -23.5732   ZX=    87.1820
   XY=   -31.8539   YY=   -32.1451   ZY=    33.7762
   XZ=    88.2972   YZ=    53.2694   ZZ=    99.7072
   Eigenvalues:   -72.3790    27.1075   170.4002
     38  C    Isotropic =    51.3456   Anisotropy =   186.0854
   XX=    31.1142   YX=    12.2184   ZX=   113.2970
   XY=    11.2901   YY=    40.3558   ZY=    -2.0276
   XZ=   117.1362   YZ=     4.3977   ZZ=    82.5667
   Eigenvalues:   -61.9105    40.5447   175.4025
     39  C    Isotropic =    50.4774   Anisotropy =   189.4686
   XX=    79.1850   YX=    32.9057   ZX=    75.5498
   XY=    34.5168   YY=   -45.2504   ZY=   -12.5295
   XZ=    75.6352   YZ=   -14.6027   ZZ=   117.4977
   Eigenvalues:   -60.7248    35.3672   176.7898
     40  C    Isotropic =    52.4051   Anisotropy =   184.4155
   XX=    76.7202   YX=   -28.2868   ZX=    83.1896
   XY=   -29.8621   YY=   -24.8968   ZY=    37.7746
   XZ=    81.6830   YZ=    39.2613   ZZ=   105.3920
   Eigenvalues:   -58.8216    40.6881   175.3488
     41  C    Isotropic =    42.5336   Anisotropy =   181.5911
   XX=    23.9322   YX=    21.9473   ZX=   115.8883
   XY=     8.6310   YY=    37.9561   ZY=    -2.5519
   XZ=   115.3322   YZ=    10.1278   ZZ=    65.7126
   Eigenvalues:   -73.4420    37.4485   163.5943
     42  H    Isotropic =    22.9445   Anisotropy =     8.8567
   XX=    20.7990   YX=    -1.2366   ZX=     1.2596
   XY=    -0.8386   YY=    27.1258   ZY=    -3.3748
   XZ=    -0.6621   YZ=    -3.6484   ZZ=    20.9088
   Eigenvalues:    19.3103    20.6743    28.8490
     43  H    Isotropic =    23.7716   Anisotropy =     5.9525
   XX=    23.8621   YX=    -2.5258   ZX=    -1.8630
   XY=    -2.3670   YY=    25.6082   ZY=     0.0358
   XZ=    -2.4883   YZ=     0.5361   ZZ=    21.8445
   Eigenvalues:    20.1947    23.3801    27.7399
     44  H    Isotropic =    23.8551   Anisotropy =     4.1032
   XX=    24.3935   YX=     0.0102   ZX=    -2.5756
   XY=     0.2192   YY=    24.6594   ZY=    -1.2753
   XZ=    -2.8314   YZ=    -0.8480   ZZ=    22.5123
   Eigenvalues:    20.4362    24.5385    26.5906
     45  H    Isotropic =    24.0027   Anisotropy =     6.3864
   XX=    23.2228   YX=    -1.4172   ZX=    -1.3449
   XY=    -1.0839   YY=    27.9438   ZY=    -0.2575
   XZ=    -0.9519   YZ=     0.1020   ZZ=    20.8414
   Eigenvalues:    20.3374    23.4103    28.2603
     46  H    Isotropic =    23.9101   Anisotropy =    11.0777
   XX=    25.1108   YX=    -5.1807   ZX=    -2.7732
   XY=    -3.6829   YY=    25.5718   ZY=     3.3438
   XZ=    -0.5350   YZ=     4.2812   ZZ=    21.0477
   Eigenvalues:    18.7324    21.7027    31.2952
     47  C    Isotropic =    35.7959   Anisotropy =   204.6327
   XX=    23.0198   YX=   -85.6201   ZX=   -63.0053
   XY=   -73.2913   YY=    36.5691   ZY=    65.7485
   XZ=   -57.1189   YZ=    63.7301   ZZ=    47.7988
   Eigenvalues:   -49.9536   -14.8763   172.2177
     48  C    Isotropic =    49.3531   Anisotropy =   181.8923
   XX=    36.8991   YX=   -34.4765   ZX=   -82.4912
   XY=   -33.7114   YY=    90.1687   ZY=    51.5410
   XZ=   -98.8070   YZ=    61.3105   ZZ=    20.9916
   Eigenvalues:   -64.6438    42.0886   170.6146
     49  C    Isotropic =    51.7195   Anisotropy =   183.7897
   XX=    78.1558   YX=   -50.7468   ZX=   -30.5045
   XY=   -51.9740   YY=    40.4724   ZY=    96.1334
   XZ=   -35.5254   YZ=   100.4016   ZZ=    36.5304
   Eigenvalues:   -61.0497    41.9623   174.2460
     50  C    Isotropic =    54.2891   Anisotropy =   182.1731
   XX=    19.7035   YX=   -90.1913   ZX=   -44.4483
   XY=   -87.6057   YY=    53.6751   ZY=    49.7577
   XZ=   -41.4747   YZ=    47.0924   ZZ=    89.4886
   Eigenvalues:   -53.8593    40.9887   175.7378
     51  C    Isotropic =    51.6190   Anisotropy =   185.7334
   XX=    31.9680   YX=   -36.0879   ZX=   -89.7209
   XY=   -37.4683   YY=    90.6721   ZY=    56.8223
   XZ=   -90.7418   YZ=    58.3527   ZZ=    32.2170
   Eigenvalues:   -59.8456    39.2615   175.4413
     52  C    Isotropic =    47.1765   Anisotropy =   187.1578
   XX=    78.4617   YX=   -41.0709   ZX=   -35.9070
   XY=   -64.3029   YY=    33.4807   ZY=    92.3926
   XZ=   -40.2517   YZ=    99.6170   ZZ=    29.5870
   Eigenvalues:   -65.2566    34.8377   171.9484
     53  H    Isotropic =    23.7870   Anisotropy =    11.3345
   XX=    26.0837   YX=     4.0311   ZX=     4.2064
   XY=     3.5677   YY=    21.2697   ZY=     2.2267
   XZ=     4.1073   YZ=     2.6648   ZZ=    24.0077
   Eigenvalues:    19.1705    20.8472    31.3434
     54  H    Isotropic =    23.9179   Anisotropy =     5.4784
   XX=    24.3799   YX=     3.2178   ZX=     0.6596
   XY=     2.9021   YY=    24.5159   ZY=    -1.5982
   XZ=     0.6691   YZ=    -1.1537   ZZ=    22.8579
   Eigenvalues:    20.4977    23.6858    27.5702
     55  H    Isotropic =    24.0040   Anisotropy =     4.0803
   XX=    23.9727   YX=     1.0102   ZX=     1.9406
   XY=     0.8617   YY=    23.3735   ZY=    -2.0819
   XZ=     2.0715   YZ=    -1.9710   ZZ=    24.6659
   Eigenvalues:    20.6753    24.6126    26.7242
     56  H    Isotropic =    23.8426   Anisotropy =     6.8237
   XX=    26.0747   YX=     2.6367   ZX=     2.1178
   XY=     3.0199   YY=    23.4625   ZY=    -0.5631
   XZ=     2.3433   YZ=     0.1306   ZZ=    21.9908
   Eigenvalues:    20.2344    22.9018    28.3917
     57  H    Isotropic =    23.5857   Anisotropy =    12.5450
   XX=    24.7377   YX=     5.7141   ZX=    -0.7258
   XY=     6.7071   YY=    26.2740   ZY=    -1.5099
   XZ=     0.0688   YZ=    -1.9132   ZZ=    19.7454
   Eigenvalues:    18.5094    20.2986    31.9490
     58  H    Isotropic =    29.0619   Anisotropy =     5.8977
   XX=    29.6052   YX=    -4.0275   ZX=    -0.8616
   XY=     0.5246   YY=    32.0697   ZY=    -0.0355
   XZ=     0.0882   YZ=    -1.1124   ZZ=    25.5109
   Eigenvalues:    25.3849    28.8071    32.9937
     59  H    Isotropic =    24.7257   Anisotropy =     1.9611
   XX=    24.5926   YX=    -0.1814   ZX=     1.4887
   XY=     0.0262   YY=    23.7842   ZY=    -0.2819
   XZ=    -2.4273   YZ=    -0.6153   ZZ=    25.8004
   Eigenvalues:    23.6536    24.4905    26.0332
     60  H    Isotropic =    28.7868   Anisotropy =     7.5113
   XX=    31.3314   YX=     4.3196   ZX=    -0.1103
   XY=     3.7664   YY=    26.6197   ZY=     2.5542
   XZ=     0.8007   YZ=    -0.2995   ZZ=    28.4092
   Eigenvalues:    24.1414    28.4246    33.7943
     61  H    Isotropic =    29.3088   Anisotropy =     7.3308
   XX=    30.6000   YX=    -3.5505   ZX=    -0.5058
   XY=    -2.1067   YY=    28.9077   ZY=    -3.1142
   XZ=     0.0393   YZ=    -5.6556   ZZ=    28.4187
   Eigenvalues:    23.5973    30.1330    34.1960
 End of Minotr F.D. properties file   721 does not exist.
 End of Minotr F.D. properties file   722 does not exist.
 End of Minotr F.D. properties file   788 does not exist.

 **********************************************************************

            Population analysis using the SCF density.

 **********************************************************************

 Orbital symmetries:
       Occupied  (A) (A) (A) (A) (A) (A) (A) (A) (A) (A) (A) (A)
                 (A) (A) (A) (A) (A) (A) (A) (A) (A) (A) (A) (A)
                 (A) (A) (A) (A) (A) (A) (A) (A) (A) (A) (A) (A)
                 (A) (A) (A) (A) (A) (A) (A) (A) (A) (A) (A) (A)
                 (A) (A) (A) (A) (A) (A) (A) (A) (A) (A) (A) (A)
                 (A) (A) (A) (A) (A) (A) (A) (A) (A) (A) (A) (A)
                 (A) (A) (A) (A) (A) (A) (A) (A) (A) (A) (A) (A)
                 (A) (A) (A) (A) (A) (A) (A) (A) (A) (A) (A) (A)
                 (A) (A) (A) (A) (A) (A) (A) (A) (A) (A) (A) (A)
                 (A) (A) (A) (A) (A) (A) (A) (A) (A) (A) (A) (A)
                 (A) (A)
       Virtual   (A) (A) (A) (A) (A) (A) (A) (A) (A) (A) (A) (A)
                 (A) (A) (A) (A) (A) (A) (A) (A) (A) (A) (A) (A)
                 (A) (A) (A) (A) (A) (A) (A) (A) (A) (A) (A) (A)
                 (A) (A) (A) (A) (A) (A) (A) (A) (A) (A) (A) (A)
                 (A) (A) (A) (A) (A) (A) (A) (A) (A) (A) (A) (A)
                 (A) (A) (A) (A) (A) (A) (A) (A) (A) (A) (A) (A)
                 (A) (A) (A) (A) (A) (A) (A) (A) (A) (A) (A) (A)
                 (A) (A) (A) (A) (A) (A) (A) (A) (A) (A) (A) (A)
                 (A) (A) (A) (A) (A) (A) (A) (A) (A) (A) (A) (A)
                 (A) (A) (A) (A) (A) (A) (A) (A) (A) (A) (A) (A)
                 (A) (A) (A) (A) (A) (A) (A) (A) (A) (A) (A) (A)
                 (A) (A) (A) (A) (A) (A) (A) (A) (A) (A) (A) (A)
                 (A) (A) (A) (A) (A) (A) (A) (A) (A) (A) (A) (A)
                 (A) (A) (A) (A) (A) (A) (A) (A) (A) (A) (A) (A)
                 (A) (A) (A) (A) (A) (A) (A) (A) (A) (A) (A) (A)
                 (A) (A) (A) (A) (A) (A) (A) (A) (A) (A) (A) (A)
                 (A) (A) (A) (A) (A) (A) (A) (A) (A) (A) (A) (A)
                 (A) (A) (A) (A) (A) (A) (A) (A) (A) (A) (A) (A)
                 (A) (A) (A) (A) (A) (A) (A) (A) (A) (A) (A) (A)
                 (A) (A) (A) (A) (A) (A) (A) (A) (A) (A) (A) (A)
                 (A) (A) (A) (A) (A) (A) (A) (A) (A) (A) (A) (A)
                 (A) (A) (A) (A) (A) (A) (A) (A) (A) (A) (A) (A)
                 (A) (A) (A) (A) (A) (A) (A) (A) (A) (A) (A) (A)
                 (A) (A) (A) (A) (A) (A) (A) (A) (A) (A) (A) (A)
                 (A) (A) (A) (A) (A) (A) (A) (A) (A) (A) (A) (A)
                 (A) (A) (A) (A) (A) (A) (A) (A) (A) (A) (A) (A)
                 (A) (A) (A) (A) (A) (A) (A) (A) (A) (A) (A) (A)
                 (A) (A) (A) (A) (A) (A) (A) (A) (A) (A) (A) (A)
                 (A) (A) (A) (A) (A) (A) (A) (A) (A) (A) (A) (A)
                 (A) (A) (A) (A) (A) (A) (A) (A) (A) (A) (A) (A)
                 (A) (A) (A) (A) (A) (A) (A) (A) (A) (A) (A) (A)
                 (A) (A) (A) (A) (A) (A) (A) (A) (A) (A) (A) (A)
                 (A) (A) (A) (A) (A) (A) (A) (A) (A) (A) (A) (A)
                 (A) (A) (A) (A) (A) (A) (A) (A) (A) (A) (A) (A)
                 (A) (A) (A) (A) (A) (A) (A) (A) (A) (A) (A) (A)
                 (A) (A) (A) (A) (A) (A) (A) (A) (A) (A) (A) (A)
                 (A) (A) (A) (A) (A) (A) (A) (A) (A) (A) (A) (A)
                 (A) (A) (A) (A) (A) (A) (A) (A) (A) (A) (A) (A)
                 (A) (A) (A) (A) (A) (A) (A) (A) (A) (A) (A) (A)
                 (A) (A) (A) (A) (A) (A) (A) (A) (A) (A) (A) (A)
                 (A) (A) (A) (A) (A) (A) (A) (A) (A) (A) (A) (A)
                 (A) (A) (A) (A) (A) (A) (A) (A) (A) (A) (A) (A)
                 (A) (A) (A) (A) (A) (A) (A) (A) (A) (A) (A) (A)
                 (A) (A) (A) (A) (A) (A) (A) (A) (A) (A) (A) (A)
                 (A) (A) (A) (A) (A) (A) (A) (A) (A) (A) (A) (A)
                 (A) (A) (A) (A) (A) (A) (A) (A) (A) (A) (A) (A)
                 (A) (A) (A) (A) (A) (A) (A) (A) (A) (A) (A) (A)
                 (A) (A) (A) (A) (A) (A) (A) (A) (A) (A) (A) (A)
                 (A) (A) (A) (A) (A) (A) (A) (A) (A) (A) (A) (A)
                 (A) (A) (A) (A) (A) (A) (A) (A) (A) (A) (A) (A)
                 (A) (A) (A) (A) (A) (A) (A) (A) (A) (A) (A) (A)
                 (A) (A) (A) (A) (A) (A) (A) (A) (A) (A) (A) (A)
                 (A) (A) (A) (A) (A) (A) (A) (A) (A) (A) (A) (A)
                 (A) (A) (A) (A) (A) (A) (A) (A) (A) (A) (A) (A)
                 (A) (A) (A) (A) (A) (A) (A) (A) (A) (A) (A) (A)
                 (A) (A) (A) (A) (A) (A) (A) (A) (A) (A) (A) (A)
                 (A) (A) (A) (A) (A) (A) (A) (A) (A) (A) (A) (A)
                 (A) (A) (A) (A) (A) (A) (A) (A) (A) (A) (A) (A)
                 (A) (A) (A) (A) (A) (A) (A) (A) (A) (A) (A) (A)
                 (A) (A) (A) (A) (A) (A) (A) (A) (A) (A) (A) (A)
                 (A) (A) (A) (A) (A) (A) (A) (A) (A) (A) (A) (A)
                 (A) (A) (A) (A) (A) (A) (A) (A) (A) (A) (A) (A)
                 (A) (A) (A) (A) (A) (A) (A) (A) (A) (A) (A) (A)
                 (A) (A) (A) (A) (A) (A) (A) (A) (A) (A) (A) (A)
                 (A) (A) (A) (A) (A) (A) (A) (A) (A) (A) (A) (A)
                 (A) (A) (A) (A) (A) (A) (A) (A) (A) (A) (A) (A)
                 (A) (A) (A) (A) (A) (A) (A) (A) (A) (A) (A) (A)
                 (A) (A) (A) (A) (A) (A) (A) (A) (A) (A) (A) (A)
                 (A) (A) (A) (A) (A) (A) (A) (A) (A) (A) (A) (A)
                 (A) (A) (A) (A) (A) (A) (A) (A) (A) (A) (A) (A)
                 (A) (A) (A) (A) (A) (A) (A) (A) (A) (A) (A) (A)
                 (A) (A) (A) (A) (A) (A) (A) (A) (A) (A) (A) (A)
                 (A) (A) (A) (A) (A) (A) (A) (A) (A) (A) (A) (A)
                 (A) (A) (A) (A) (A) (A) (A) (A) (A) (A) (A) (A)
                 (A) (A) (A) (A) (A) (A) (A) (A) (A) (A) (A) (A)
                 (A) (A) (A) (A) (A) (A) (A) (A) (A) (A) (A) (A)
                 (A) (A) (A) (A) (A) (A) (A) (A) (A) (A) (A) (A)
                 (A) (A) (A) (A) (A) (A) (A) (A) (A) (A) (A) (A)
                 (A) (A) (A) (A) (A) (A) (A) (A) (A) (A) (A) (A)
                 (A) (A) (A) (A) (A) (A) (A) (A) (A) (A) (A) (A)
                 (A) (A) (A) (A) (A) (A) (A) (A) (A) (A) (A) (A)
                 (A) (A) (A) (A) (A) (A) (A) (A) (A) (A) (A) (A)
                 (A) (A) (A) (A) (A) (A) (A) (A) (A) (A) (A) (A)
                 (A) (A) (A) (A) (A) (A) (A) (A) (A) (A) (A) (A)
                 (A) (A) (A) (A) (A) (A) (A) (A) (A) (A) (A) (A)
                 (A) (A) (A) (A) (A) (A) (A) (A) (A) (A) (A) (A)
                 (A) (A) (A) (A) (A) (A) (A) (A) (A) (A) (A) (A)
                 (A) (A) (A) (A) (A) (A) (A) (A) (A) (A) (A) (A)
                 (A) (A) (A) (A) (A) (A) (A) (A) (A) (A) (A) (A)
                 (A) (A) (A) (A) (A) (A) (A) (A) (A) (A) (A) (A)
                 (A)
 The electronic state is 1-A.
 Alpha  occ. eigenvalues --  -77.19257 -77.19113 -10.24461 -10.24365 -10.24237
 Alpha  occ. eigenvalues --  -10.24213 -10.24095 -10.23889 -10.23859 -10.23846
 Alpha  occ. eigenvalues --  -10.23785 -10.23734 -10.23729 -10.23671 -10.23613
 Alpha  occ. eigenvalues --  -10.23473 -10.23458 -10.23358 -10.23269 -10.23207
 Alpha  occ. eigenvalues --  -10.23186 -10.23137 -10.23113 -10.23108 -10.23079
 Alpha  occ. eigenvalues --  -10.23041 -10.23015 -10.22988 -10.22957 -10.22957
 Alpha  occ. eigenvalues --  -10.22834 -10.22790 -10.22511  -6.58925  -6.58779
 Alpha  occ. eigenvalues --   -4.72515  -4.72507  -4.72376  -4.72359  -4.72045
 Alpha  occ. eigenvalues --   -4.71899  -0.91558  -0.88383  -0.88041  -0.87622
 Alpha  occ. eigenvalues --   -0.87480  -0.80119  -0.78665  -0.77304  -0.77021
 Alpha  occ. eigenvalues --   -0.76911  -0.76690  -0.76579  -0.76443  -0.76236
 Alpha  occ. eigenvalues --   -0.74275  -0.72373  -0.66663  -0.65098  -0.62777
 Alpha  occ. eigenvalues --   -0.62423  -0.62305  -0.61996  -0.61574  -0.61371
 Alpha  occ. eigenvalues --   -0.60484  -0.59175  -0.56727  -0.56497  -0.54041
 Alpha  occ. eigenvalues --   -0.53294  -0.53057  -0.52704  -0.51632  -0.50971
 Alpha  occ. eigenvalues --   -0.48101  -0.47192  -0.46968  -0.46852  -0.46537
 Alpha  occ. eigenvalues --   -0.46384  -0.46169  -0.45910  -0.45078  -0.43881
 Alpha  occ. eigenvalues --   -0.43705  -0.43478  -0.43433  -0.42732  -0.42581
 Alpha  occ. eigenvalues --   -0.41543  -0.41289  -0.39991  -0.39027  -0.38863
 Alpha  occ. eigenvalues --   -0.38340  -0.38229  -0.37970  -0.37677  -0.36928
 Alpha  occ. eigenvalues --   -0.36568  -0.36253  -0.36061  -0.35717  -0.35652
 Alpha  occ. eigenvalues --   -0.35464  -0.34415  -0.33172  -0.33093  -0.32413
 Alpha  occ. eigenvalues --   -0.30198  -0.28656  -0.27525  -0.27292  -0.27241
 Alpha  occ. eigenvalues --   -0.26984  -0.26843  -0.26559  -0.26428  -0.25853
 Alpha  occ. eigenvalues --   -0.22243  -0.19051
 Alpha virt. eigenvalues --   -0.03035  -0.02671  -0.02035  -0.01860  -0.01581
 Alpha virt. eigenvalues --   -0.01391  -0.00916  -0.00413   0.00155   0.03912
 Alpha virt. eigenvalues --    0.04625   0.05553   0.05616   0.06276   0.06584
 Alpha virt. eigenvalues --    0.06734   0.07323   0.07694   0.07955   0.08116
 Alpha virt. eigenvalues --    0.08518   0.08793   0.09492   0.09697   0.09890
 Alpha virt. eigenvalues --    0.10046   0.10362   0.10942   0.11169   0.11338
 Alpha virt. eigenvalues --    0.11913   0.12105   0.12205   0.12269   0.12480
 Alpha virt. eigenvalues --    0.12612   0.13019   0.13485   0.13760   0.13813
 Alpha virt. eigenvalues --    0.14156   0.14898   0.15660   0.16061   0.16246
 Alpha virt. eigenvalues --    0.16382   0.16572   0.17097   0.17368   0.18085
 Alpha virt. eigenvalues --    0.18175   0.18495   0.19033   0.19171   0.19669
 Alpha virt. eigenvalues --    0.20252   0.20408   0.20730   0.21138   0.21375
 Alpha virt. eigenvalues --    0.21863   0.22165   0.22284   0.22442   0.22709
 Alpha virt. eigenvalues --    0.23367   0.23413   0.23737   0.23804   0.24090
 Alpha virt. eigenvalues --    0.24227   0.24378   0.24696   0.24883   0.24994
 Alpha virt. eigenvalues --    0.25080   0.25325   0.25622   0.25816   0.26118
 Alpha virt. eigenvalues --    0.26361   0.26509   0.26977   0.27074   0.27495
 Alpha virt. eigenvalues --    0.27856   0.28135   0.28488   0.28692   0.29062
 Alpha virt. eigenvalues --    0.29459   0.29702   0.29783   0.30666   0.31122
 Alpha virt. eigenvalues --    0.31391   0.31640   0.32256   0.32450   0.32677
 Alpha virt. eigenvalues --    0.33161   0.33523   0.33726   0.34018   0.34228
 Alpha virt. eigenvalues --    0.34943   0.35131   0.35466   0.35723   0.35981
 Alpha virt. eigenvalues --    0.36019   0.36324   0.36637   0.36751   0.36959
 Alpha virt. eigenvalues --    0.37199   0.37434   0.38084   0.38535   0.38677
 Alpha virt. eigenvalues --    0.38980   0.39355   0.39550   0.39864   0.40098
 Alpha virt. eigenvalues --    0.40359   0.40624   0.40902   0.41166   0.41233
 Alpha virt. eigenvalues --    0.41431   0.41779   0.42044   0.42215   0.42549
 Alpha virt. eigenvalues --    0.42751   0.42794   0.43051   0.43189   0.43521
 Alpha virt. eigenvalues --    0.43656   0.43973   0.44228   0.44408   0.44751
 Alpha virt. eigenvalues --    0.45021   0.45270   0.45636   0.45825   0.46059
 Alpha virt. eigenvalues --    0.46344   0.46632   0.46900   0.47104   0.47265
 Alpha virt. eigenvalues --    0.47715   0.48154   0.48457   0.48730   0.48895
 Alpha virt. eigenvalues --    0.48935   0.49145   0.49302   0.49395   0.49667
 Alpha virt. eigenvalues --    0.50030   0.50301   0.50479   0.50761   0.50923
 Alpha virt. eigenvalues --    0.51417   0.51498   0.51783   0.52253   0.52357
 Alpha virt. eigenvalues --    0.52979   0.53300   0.53351   0.53640   0.54369
 Alpha virt. eigenvalues --    0.54891   0.54992   0.55564   0.55816   0.56428
 Alpha virt. eigenvalues --    0.56637   0.56901   0.57489   0.58559   0.58874
 Alpha virt. eigenvalues --    0.59410   0.59609   0.59994   0.60205   0.60721
 Alpha virt. eigenvalues --    0.60780   0.61586   0.62259   0.62608   0.63186
 Alpha virt. eigenvalues --    0.63431   0.64098   0.64411   0.65120   0.65374
 Alpha virt. eigenvalues --    0.65811   0.66204   0.66606   0.67117   0.67568
 Alpha virt. eigenvalues --    0.67693   0.67885   0.68514   0.68976   0.69260
 Alpha virt. eigenvalues --    0.69521   0.69921   0.70150   0.70372   0.70776
 Alpha virt. eigenvalues --    0.70921   0.71087   0.71620   0.72142   0.72513
 Alpha virt. eigenvalues --    0.72696   0.73121   0.73244   0.73444   0.73828
 Alpha virt. eigenvalues --    0.74532   0.74709   0.75157   0.75424   0.75629
 Alpha virt. eigenvalues --    0.76181   0.76805   0.77097   0.77320   0.77685
 Alpha virt. eigenvalues --    0.77792   0.78475   0.78857   0.78962   0.79484
 Alpha virt. eigenvalues --    0.79855   0.80149   0.81135   0.81342   0.81485
 Alpha virt. eigenvalues --    0.81605   0.81928   0.82527   0.83118   0.83381
 Alpha virt. eigenvalues --    0.83699   0.84633   0.84711   0.85303   0.85426
 Alpha virt. eigenvalues --    0.85980   0.86225   0.87248   0.87458   0.88165
 Alpha virt. eigenvalues --    0.88578   0.89069   0.89434   0.89770   0.90097
 Alpha virt. eigenvalues --    0.90608   0.90824   0.91493   0.92188   0.92334
 Alpha virt. eigenvalues --    0.92818   0.93029   0.93404   0.93592   0.94173
 Alpha virt. eigenvalues --    0.94790   0.94978   0.95629   0.96568   0.97054
 Alpha virt. eigenvalues --    0.97894   0.98545   0.99050   0.99172   1.00201
 Alpha virt. eigenvalues --    1.01037   1.01652   1.02634   1.02998   1.03380
 Alpha virt. eigenvalues --    1.03612   1.04298   1.04526   1.04762   1.05262
 Alpha virt. eigenvalues --    1.05730   1.05982   1.07310   1.07648   1.07921
 Alpha virt. eigenvalues --    1.08370   1.09060   1.09325   1.09671   1.10284
 Alpha virt. eigenvalues --    1.10704   1.11104   1.11204   1.11638   1.12430
 Alpha virt. eigenvalues --    1.12626   1.13355   1.13985   1.14432   1.14607
 Alpha virt. eigenvalues --    1.15478   1.15990   1.16257   1.17030   1.17227
 Alpha virt. eigenvalues --    1.18443   1.18700   1.19463   1.19984   1.20506
 Alpha virt. eigenvalues --    1.20628   1.21116   1.21401   1.21867   1.22200
 Alpha virt. eigenvalues --    1.22729   1.23083   1.23469   1.23677   1.23797
 Alpha virt. eigenvalues --    1.23992   1.24336   1.24712   1.25381   1.25508
 Alpha virt. eigenvalues --    1.25658   1.26034   1.26523   1.26872   1.27117
 Alpha virt. eigenvalues --    1.27664   1.27753   1.28335   1.28754   1.29111
 Alpha virt. eigenvalues --    1.29475   1.29789   1.30084   1.30490   1.31114
 Alpha virt. eigenvalues --    1.31260   1.31746   1.32086   1.32311   1.32339
 Alpha virt. eigenvalues --    1.32720   1.33359   1.33645   1.33904   1.34963
 Alpha virt. eigenvalues --    1.35343   1.35929   1.36296   1.37042   1.37313
 Alpha virt. eigenvalues --    1.38456   1.39202   1.40208   1.40773   1.41608
 Alpha virt. eigenvalues --    1.41883   1.42182   1.42587   1.42999   1.44079
 Alpha virt. eigenvalues --    1.44273   1.44538   1.45318   1.45380   1.46209
 Alpha virt. eigenvalues --    1.46931   1.47190   1.47471   1.47925   1.48307
 Alpha virt. eigenvalues --    1.48633   1.49009   1.49561   1.50187   1.50694
 Alpha virt. eigenvalues --    1.51114   1.51328   1.51861   1.52164   1.52792
 Alpha virt. eigenvalues --    1.53101   1.53524   1.54096   1.54236   1.55149
 Alpha virt. eigenvalues --    1.55154   1.55431   1.56251   1.56752   1.56971
 Alpha virt. eigenvalues --    1.57949   1.58002   1.58453   1.59308   1.59905
 Alpha virt. eigenvalues --    1.60335   1.60547   1.61384   1.61530   1.61928
 Alpha virt. eigenvalues --    1.62388   1.62657   1.63227   1.63868   1.64339
 Alpha virt. eigenvalues --    1.64986   1.65509   1.65907   1.66564   1.67062
 Alpha virt. eigenvalues --    1.67395   1.67432   1.67560   1.68184   1.68467
 Alpha virt. eigenvalues --    1.69058   1.70048   1.70387   1.70415   1.70731
 Alpha virt. eigenvalues --    1.70853   1.71078   1.71207   1.71502   1.71755
 Alpha virt. eigenvalues --    1.72442   1.72745   1.72975   1.73085   1.73508
 Alpha virt. eigenvalues --    1.73635   1.74063   1.74711   1.74806   1.75814
 Alpha virt. eigenvalues --    1.76218   1.76516   1.76639   1.77026   1.78307
 Alpha virt. eigenvalues --    1.78379   1.79040   1.79392   1.79652   1.80353
 Alpha virt. eigenvalues --    1.80859   1.82141   1.82499   1.82705   1.83385
 Alpha virt. eigenvalues --    1.84496   1.84823   1.85403   1.85861   1.86558
 Alpha virt. eigenvalues --    1.87071   1.87210   1.87373   1.87900   1.89124
 Alpha virt. eigenvalues --    1.89342   1.90271   1.91003   1.91565   1.92378
 Alpha virt. eigenvalues --    1.92852   1.93523   1.94434   1.94805   1.94969
 Alpha virt. eigenvalues --    1.96535   1.96586   1.96875   1.97895   1.97960
 Alpha virt. eigenvalues --    1.98953   1.99922   2.01118   2.01707   2.02764
 Alpha virt. eigenvalues --    2.03026   2.03419   2.03633   2.04543   2.05013
 Alpha virt. eigenvalues --    2.05580   2.05840   2.06239   2.07024   2.07089
 Alpha virt. eigenvalues --    2.07861   2.08163   2.09013   2.09306   2.09381
 Alpha virt. eigenvalues --    2.10107   2.10638   2.10806   2.11387   2.12135
 Alpha virt. eigenvalues --    2.12544   2.12664   2.12746   2.13586   2.14154
 Alpha virt. eigenvalues --    2.14871   2.15476   2.16314   2.16728   2.17270
 Alpha virt. eigenvalues --    2.17445   2.18023   2.18340   2.18812   2.18998
 Alpha virt. eigenvalues --    2.19832   2.20314   2.20642   2.21521   2.22237
 Alpha virt. eigenvalues --    2.22715   2.23727   2.24165   2.24437   2.24805
 Alpha virt. eigenvalues --    2.25340   2.26235   2.26490   2.27000   2.27829
 Alpha virt. eigenvalues --    2.28702   2.29785   2.30323   2.31254   2.32057
 Alpha virt. eigenvalues --    2.32980   2.34152   2.34697   2.36295   2.36898
 Alpha virt. eigenvalues --    2.37621   2.38188   2.39631   2.40011   2.40832
 Alpha virt. eigenvalues --    2.40908   2.41971   2.42069   2.42643   2.42731
 Alpha virt. eigenvalues --    2.44007   2.44189   2.44879   2.45071   2.45945
 Alpha virt. eigenvalues --    2.46647   2.46793   2.47368   2.47551   2.50023
 Alpha virt. eigenvalues --    2.50325   2.50823   2.51491   2.51795   2.53030
 Alpha virt. eigenvalues --    2.53291   2.54500   2.54745   2.54918   2.55575
 Alpha virt. eigenvalues --    2.55958   2.56312   2.56598   2.56849   2.57045
 Alpha virt. eigenvalues --    2.59033   2.59455   2.60079   2.60532   2.60758
 Alpha virt. eigenvalues --    2.61411   2.61938   2.62132   2.62320   2.62943
 Alpha virt. eigenvalues --    2.63561   2.63663   2.64009   2.64514   2.64566
 Alpha virt. eigenvalues --    2.65002   2.65250   2.65460   2.65717   2.66119
 Alpha virt. eigenvalues --    2.66639   2.66957   2.67282   2.67401   2.67633
 Alpha virt. eigenvalues --    2.68008   2.68269   2.68418   2.68579   2.69060
 Alpha virt. eigenvalues --    2.69573   2.69702   2.70283   2.70838   2.71152
 Alpha virt. eigenvalues --    2.71231   2.71569   2.72086   2.72197   2.72591
 Alpha virt. eigenvalues --    2.72736   2.73085   2.73464   2.73867   2.74672
 Alpha virt. eigenvalues --    2.74842   2.75444   2.75873   2.76304   2.76435
 Alpha virt. eigenvalues --    2.77126   2.77309   2.77720   2.78014   2.78374
 Alpha virt. eigenvalues --    2.78527   2.78788   2.79104   2.79342   2.79502
 Alpha virt. eigenvalues --    2.79624   2.80408   2.80837   2.81355   2.81658
 Alpha virt. eigenvalues --    2.81939   2.82534   2.82747   2.83467   2.84035
 Alpha virt. eigenvalues --    2.84677   2.84710   2.85239   2.85315   2.85776
 Alpha virt. eigenvalues --    2.86567   2.86780   2.87170   2.87494   2.87637
 Alpha virt. eigenvalues --    2.88182   2.88630   2.88813   2.89564   2.89724
 Alpha virt. eigenvalues --    2.89806   2.90329   2.90874   2.91081   2.91394
 Alpha virt. eigenvalues --    2.91944   2.92519   2.92734   2.93406   2.93807
 Alpha virt. eigenvalues --    2.94639   2.94668   2.95043   2.95756   2.96167
 Alpha virt. eigenvalues --    2.96720   2.97304   2.98436   2.98845   3.00603
 Alpha virt. eigenvalues --    3.00832   3.01157   3.01468   3.02389   3.03741
 Alpha virt. eigenvalues --    3.04787   3.05094   3.05393   3.06073   3.06574
 Alpha virt. eigenvalues --    3.07742   3.08231   3.08983   3.09155   3.10525
 Alpha virt. eigenvalues --    3.11026   3.11176   3.11790   3.11996   3.12281
 Alpha virt. eigenvalues --    3.12508   3.12856   3.12904   3.13508   3.13710
 Alpha virt. eigenvalues --    3.13881   3.14141   3.14452   3.14777   3.15368
 Alpha virt. eigenvalues --    3.15553   3.16004   3.16341   3.16553   3.16896
 Alpha virt. eigenvalues --    3.17523   3.17569   3.17747   3.17908   3.18227
 Alpha virt. eigenvalues --    3.19346   3.19470   3.19898   3.20232   3.20696
 Alpha virt. eigenvalues --    3.21380   3.21712   3.22284   3.22624   3.23631
 Alpha virt. eigenvalues --    3.23968   3.24627   3.24832   3.24982   3.25751
 Alpha virt. eigenvalues --    3.25874   3.26110   3.26622   3.26979   3.27028
 Alpha virt. eigenvalues --    3.28272   3.28529   3.28718   3.29531   3.29785
 Alpha virt. eigenvalues --    3.30329   3.30637   3.31111   3.31446   3.31882
 Alpha virt. eigenvalues --    3.32472   3.32511   3.33154   3.33695   3.34153
 Alpha virt. eigenvalues --    3.34224   3.34798   3.34987   3.35144   3.36158
 Alpha virt. eigenvalues --    3.36282   3.36774   3.36969   3.37286   3.37519
 Alpha virt. eigenvalues --    3.38113   3.38528   3.38865   3.38967   3.39520
 Alpha virt. eigenvalues --    3.39630   3.39767   3.40196   3.40988   3.41199
 Alpha virt. eigenvalues --    3.41396   3.42196   3.42296   3.42436   3.42748
 Alpha virt. eigenvalues --    3.42892   3.43433   3.43883   3.44862   3.45325
 Alpha virt. eigenvalues --    3.45540   3.45895   3.46229   3.46807   3.47381
 Alpha virt. eigenvalues --    3.47663   3.47742   3.48514   3.48928   3.49350
 Alpha virt. eigenvalues --    3.50177   3.50576   3.50897   3.50928   3.51775
 Alpha virt. eigenvalues --    3.51981   3.52368   3.52665   3.52842   3.53175
 Alpha virt. eigenvalues --    3.53275   3.53488   3.53869   3.54334   3.54821
 Alpha virt. eigenvalues --    3.55024   3.55356   3.55860   3.56292   3.56707
 Alpha virt. eigenvalues --    3.57751   3.58320   3.58554   3.59198   3.59563
 Alpha virt. eigenvalues --    3.59751   3.60637   3.61362   3.62222   3.63624
 Alpha virt. eigenvalues --    3.63988   3.65939   3.66334   3.68175   3.68681
 Alpha virt. eigenvalues --    3.69662   3.69910   3.70302   3.70386   3.70871
 Alpha virt. eigenvalues --    3.71289   3.71556   3.72256   3.72424   3.74298
 Alpha virt. eigenvalues --    3.74704   3.75209   3.75783   3.75913   3.76570
 Alpha virt. eigenvalues --    3.76828   3.78136   3.78528   3.79410   3.80507
 Alpha virt. eigenvalues --    3.81427   3.83309   3.84111   3.85408   3.86475
 Alpha virt. eigenvalues --    3.86772   3.88616   3.89140   3.89609   3.92181
 Alpha virt. eigenvalues --    3.92452   3.93250   3.93774   3.94644   3.95076
 Alpha virt. eigenvalues --    3.95097   3.95320   3.96688   3.97438   3.99776
 Alpha virt. eigenvalues --    4.01227   4.02205   4.02328   4.03301   4.03349
 Alpha virt. eigenvalues --    4.04301   4.04709   4.05003   4.05313   4.05926
 Alpha virt. eigenvalues --    4.06773   4.07459   4.07975   4.08598   4.09476
 Alpha virt. eigenvalues --    4.11703   4.11909   4.12374   4.12572   4.12748
 Alpha virt. eigenvalues --    4.13411   4.13867   4.15455   4.15720   4.16433
 Alpha virt. eigenvalues --    4.17036   4.18616   4.19191   4.19603   4.19757
 Alpha virt. eigenvalues --    4.19960   4.19999   4.20221   4.20390   4.20612
 Alpha virt. eigenvalues --    4.20863   4.21439   4.21631   4.21954   4.22115
 Alpha virt. eigenvalues --    4.22322   4.22804   4.22897   4.23512   4.24261
 Alpha virt. eigenvalues --    4.24660   4.25015   4.25433   4.26146   4.26349
 Alpha virt. eigenvalues --    4.26653   4.26728   4.27185   4.27286   4.28641
 Alpha virt. eigenvalues --    4.29182   4.29349   4.29655   4.30769   4.32285
 Alpha virt. eigenvalues --    4.33866   4.34495   4.34688   4.34927   4.35432
 Alpha virt. eigenvalues --    4.36187   4.36936   4.37791   4.39543   4.39902
 Alpha virt. eigenvalues --    4.41766   4.42207   4.44493   4.47316   4.49246
 Alpha virt. eigenvalues --    4.51581   4.52503   4.55394   4.59489   4.60795
 Alpha virt. eigenvalues --    4.61251   4.61463   4.61705   4.62950   4.63232
 Alpha virt. eigenvalues --    4.63454   4.63614   4.65028   4.65628   4.65846
 Alpha virt. eigenvalues --    4.66596   4.67341   4.69981   4.71228   4.71622
 Alpha virt. eigenvalues --    4.71946   4.72464   4.73703   4.74355   4.75235
 Alpha virt. eigenvalues --    4.75667   4.83409   4.84404   4.85029   4.85919
 Alpha virt. eigenvalues --    4.87105   4.91005   4.91974   4.92386   4.92976
 Alpha virt. eigenvalues --    4.93505   4.94293   4.94565   4.94773   4.95535
 Alpha virt. eigenvalues --    4.97657   5.01101   5.04471   5.05327   5.09157
 Alpha virt. eigenvalues --    5.12744   5.12900   5.13248   5.13646   5.13937
 Alpha virt. eigenvalues --    5.14184   5.14565   5.14601   5.15607   5.20606
 Alpha virt. eigenvalues --    5.21525   5.26138   5.26657   5.27182   5.27716
 Alpha virt. eigenvalues --    5.34034   5.34340   5.35695   5.36125   5.40602
 Alpha virt. eigenvalues --    5.40686   5.42120   5.43813   5.57583   5.58037
 Alpha virt. eigenvalues --    5.58661   5.58862   7.73952   7.77735   7.98690
 Alpha virt. eigenvalues --    8.03915   8.06102   8.09566  15.90417  15.94085
 Alpha virt. eigenvalues --   22.07950  22.12679  22.14110  22.17898  22.47603
 Alpha virt. eigenvalues --   22.59732  22.60892  22.61162  22.62005  22.62538
 Alpha virt. eigenvalues --   22.62937  22.63100  22.63645  22.65562  22.66924
 Alpha virt. eigenvalues --   22.71078  22.72397  22.74846  22.76545  22.77208
 Alpha virt. eigenvalues --   22.79424  22.79780  22.81691  22.83559  22.88088
 Alpha virt. eigenvalues --   22.93606  22.99141  23.11534  23.11799  23.15831
 Alpha virt. eigenvalues --   23.18159
          Condensed to atoms (all electrons):
 Mulliken charges:
               1
     1  P   -0.000841
     2  C    0.023480
     3  C   -0.145843
     4  C   -0.142165
     5  C   -0.092203
     6  C   -0.186423
     7  C   -0.051693
     8  H    0.126826
     9  H    0.114434
    10  H    0.117459
    11  H    0.117129
    12  H    0.121176
    13  C    0.132070
    14  C   -0.197441
    15  C   -0.117063
    16  C   -0.111124
    17  C   -0.116887
    18  C   -0.207654
    19  H    0.134506
    20  H    0.117297
    21  H    0.119169
    22  H    0.117603
    23  H    0.138768
    24  C   -0.299686
    25  C    0.178084
    26  C   -0.284602
    27  C   -0.200448
    28  H    0.118037
    29  C    0.065746
    30  H    0.122655
    31  C   -0.256298
    32  H    0.140880
    33  H    0.103874
    34  C   -0.208458
    35  P    0.064855
    36  C   -0.006763
    37  C   -0.140933
    38  C   -0.134207
    39  C   -0.102162
    40  C   -0.125474
    41  C   -0.153342
    42  H    0.133759
    43  H    0.119155
    44  H    0.120717
    45  H    0.119209
    46  H    0.142529
    47  C    0.135068
    48  C   -0.173375
    49  C   -0.163945
    50  C   -0.112844
    51  C   -0.116683
    52  C   -0.194764
    53  H    0.120062
    54  H    0.117256
    55  H    0.117140
    56  H    0.114457
    57  H    0.128004
    58  H    0.138686
    59  H    0.131956
    60  H    0.117898
    61  H    0.113372
 Sum of Mulliken charges =  -0.00000
 Mulliken charges with hydrogens summed into heavy atoms:
               1
     1  P   -0.000841
     2  C    0.023480
     3  C   -0.024667
     4  C   -0.025036
     5  C    0.025257
     6  C   -0.071989
     7  C    0.075132
    13  C    0.132070
    14  C   -0.058673
    15  C    0.000540
    16  C    0.008046
    17  C    0.000410
    18  C   -0.073149
    24  C   -0.186314
    25  C    0.295982
    26  C   -0.152646
    27  C   -0.082411
    29  C    0.188402
    31  C   -0.011544
    34  C   -0.069771
    35  P    0.064855
    36  C   -0.006763
    37  C    0.001597
    38  C   -0.014998
    39  C    0.018555
    40  C   -0.006319
    41  C   -0.019583
    47  C    0.135068
    48  C   -0.045370
    49  C   -0.049487
    50  C    0.004296
    51  C    0.000573
    52  C   -0.074702
 Electronic spatial extent (au):  <R**2>=          15200.4966
 Charge=             -0.0000 electrons
 Dipole moment (field-independent basis, Debye):
    X=             -0.1931    Y=              0.9859    Z=              1.8476  Tot=              2.1030
 Quadrupole moment (field-independent basis, Debye-Ang):
   XX=           -195.3750   YY=           -191.2935   ZZ=           -205.4264
   XY=              0.4477   XZ=             -0.6187   YZ=             -6.9517
 Traceless Quadrupole moment (field-independent basis, Debye-Ang):
   XX=              1.9900   YY=              6.0715   ZZ=             -8.0614
   XY=              0.4477   XZ=             -0.6187   YZ=             -6.9517
 Octapole moment (field-independent basis, Debye-Ang**2):
  XXX=            -18.7067  YYY=             30.1560  ZZZ=             -9.6781  XYY=             10.5987
  XXY=             -4.7224  XXZ=              9.2833  XZZ=              2.1106  YZZ=             -7.5890
  YYZ=              1.9281  XYZ=             -5.4424
 Hexadecapole moment (field-independent basis, Debye-Ang**3):
 XXXX=         -11685.8579 YYYY=          -6359.1851 ZZZZ=          -2708.3082 XXXY=            251.3185
 XXXZ=            137.7840 YYYX=           -123.1123 YYYZ=           -158.2518 ZZZX=             11.3484
 ZZZY=            -26.1146 XXYY=          -2724.7638 XXZZ=          -2354.6181 YYZZ=          -1526.2650
 XXYZ=            113.6646 YYXZ=           -123.4904 ZZXY=            -23.9832
 N-N= 3.606110248585D+03 E-N=-1.161387156156D+04  KE= 1.871074876188D+03
 1\1\GINC-NC283\SP\RPBE1PBE\def2TZVP\C31H28P2\MACKK4\05-Dec-2021\0\\# P
 BE1PBE/def2TZVP int=(grid=ultrafine) empiricaldispersion=GD3BJ nmr=gia
 o\\RR_NorPhos_3 title\\0,1\P,0,-1.6432271553,0.1082204355,0.0308762914
 \C,0,-2.4220177104,1.7593761586,0.0589338533\C,0,-3.1054495621,2.15464
 28292,-1.1123934896\C,0,-3.7283579676,3.4062763694,-1.1622149067\C,0,-
 3.6665214882,4.275553839,-0.0617394389\C,0,-2.9746467725,3.890478358,1
 .0941017469\C,0,-2.3533829969,2.6349287012,1.1589676384\H,0,-1.8076759
 65,2.3448941039,2.0599885979\H,0,-2.915091434,4.5681063999,1.952419876
 5\H,0,-4.1509938273,5.2562499044,-0.1093462276\H,0,-4.2564574369,3.707
 9528373,-2.0723794069\H,0,-3.1215075107,1.484502007,-1.9801017998\C,0,
 -3.0068354294,-1.1006705694,0.1634584939\C,0,-4.0921282632,-0.83561284
 96,1.0219392461\C,0,-5.0811947696,-1.8085151675,1.2137800646\C,0,-4.99
 13441167,-3.0416595139,0.5503810698\C,0,-3.9151763018,-3.3010373336,-0
 .3105157876\C,0,-2.922322883,-2.3328436854,-0.5101849663\H,0,-2.101425
 6353,-2.5040475589,-1.2133208778\H,0,-3.8549134074,-4.2550251904,-0.84
 39653525\H,0,-5.7693810577,-3.7979277038,0.6969878574\H,0,-5.927627583
 5,-1.6002066683,1.8763636544\H,0,-4.1674441252,0.1341243595,1.52625659
 24\C,0,-0.6093990097,-0.2656302008,1.5279039321\C,0,-0.8990381738,-0.4
 058523952,3.065828976\C,0,-0.9493791903,0.9569783279,3.7422849284\C,0,
 0.2947864054,1.4842152366,3.7039965774\H,0,0.6044515212,2.4838918646,4
 .0217242712\C,0,1.192949561,0.4844251054,2.973688036\H,0,2.2771259338,
 0.6025323936,3.1101482818\C,0,0.5488197156,-0.839694672,3.4618877443\H
 ,0,0.9086841991,-1.737691554,2.9319121235\H,0,0.6630259436,-0.97355739
 31,4.5493452156\C,0,0.6846048048,0.5864607171,1.482811326\P,0,1.602506
 2684,0.0185217646,-0.0338514159\C,0,2.3505352391,-1.5824195368,0.43376
 32083\C,0,3.46916978,-1.6343909994,1.2893774725\C,0,3.9504886353,-2.87
 2496998,1.7320229539\C,0,3.3237070583,-4.0594384888,1.3207737459\C,0,2
 .2223259489,-4.010285044,0.4543621533\C,0,1.7370515091,-2.774749355,0.
 0047460154\H,0,0.9001774299,-2.7166886381,-0.7008518529\H,0,1.74712570
 27,-4.9359374661,0.1144450736\H,0,3.704979058,-5.0256078725,1.66685247
 51\H,0,4.8210129331,-2.9122138641,2.3948570529\H,0,3.9663714155,-0.707
 9562092,1.5959641974\C,0,3.006537706,1.1707436979,-0.2363682196\C,0,3.
 1571123765,2.3028912363,0.5898895964\C,0,4.2582689648,3.1536635966,0.4
 230106099\C,0,5.212434681,2.8830106934,-0.5669257287\C,0,5.0625290807,
 1.7596526391,-1.393962074\C,0,3.9669876215,0.9037940062,-1.2353706283\
 H,0,3.8278451967,0.0449867042,-1.8986708711\H,0,5.7999249444,1.5498317
 95,-2.1752313764\H,0,6.0706071421,3.5502648664,-0.696880615\H,0,4.3675
 070579,4.0305411665,1.0694765469\H,0,2.4218032365,2.5287999749,1.36735
 58941\H,0,0.4307195916,1.6390347303,1.2537369901\H,0,-1.8575046222,1.4
 250177777,4.1312713095\H,0,-1.7161284924,-1.1053207688,3.2923921768\H,
 0,-0.3401852327,-1.3007482563,1.2288637866\\Version=ES64L-G09RevE.01\S
 tate=1-A\HF=-1879.6303761\RMSD=7.751e-09\Dipole=0.0798351,-0.2997288,0
 .7670621\Quadrupole=1.495664,5.5747484,-7.0704124,0.4625669,0.3789713,
 3.7772445\PG=C01 [X(C31H28P2)]\\@


 HE THAT RISETH LATE MUST TROT ALL DAY.

                  -- BENJAMIN FRANKLIN
 Job cpu time:       0 days 13 hours 34 minutes 10.6 seconds.
 File lengths (MBytes):  RWF=    843 Int=      0 D2E=      0 Chk=    112 Scr=      1
 Normal termination of Gaussian 09 at Sun Dec  5 03:09:39 2021.
 Initial command:
 /gstore/apps/gaussian/g09.e01-foss-2017a/g09/l1.exe "/local/22791354/Gau-13146.inp" -scrdir="/local/22791354/"
 Entering Link 1 = /gstore/apps/gaussian/g09.e01-foss-2017a/g09/l1.exe PID=     31323.
  
 Copyright (c) 1988,1990,1992,1993,1995,1998,2003,2009,2015,
            Gaussian, Inc.  All Rights Reserved.
  
 This is part of the Gaussian(R) 09 program.  It is based on
 the Gaussian(R) 03 system (copyright 2003, Gaussian, Inc.),
 the Gaussian(R) 98 system (copyright 1998, Gaussian, Inc.),
 the Gaussian(R) 94 system (copyright 1995, Gaussian, Inc.),
 the Gaussian 92(TM) system (copyright 1992, Gaussian, Inc.),
 the Gaussian 90(TM) system (copyright 1990, Gaussian, Inc.),
 the Gaussian 88(TM) system (copyright 1988, Gaussian, Inc.),
 the Gaussian 86(TM) system (copyright 1986, Carnegie Mellon
 University), and the Gaussian 82(TM) system (copyright 1983,
 Carnegie Mellon University). Gaussian is a federally registered
 trademark of Gaussian, Inc.
  
 This software contains proprietary and confidential information,
 including trade secrets, belonging to Gaussian, Inc.
  
 This software is provided under written license and may be
 used, copied, transmitted, or stored only in accord with that
 written license.
  
 The following legend is applicable only to US Government
 contracts under FAR:
  
                    RESTRICTED RIGHTS LEGEND
  
 Use, reproduction and disclosure by the US Government is
 subject to restrictions as set forth in subparagraphs (a)
 and (c) of the Commercial Computer Software - Restricted
 Rights clause in FAR 52.227-19.
  
 Gaussian, Inc.
 340 Quinnipiac St., Bldg. 40, Wallingford CT 06492
  
  
 ---------------------------------------------------------------
 Warning -- This program may not be used in any manner that
 competes with the business of Gaussian, Inc. or will provide
 assistance to any competitor of Gaussian, Inc.  The licensee
 of this program is prohibited from giving any competitor of
 Gaussian, Inc. access to this program.  By using this program,
 the user acknowledges that Gaussian, Inc. is engaged in the
 business of creating and licensing software in the field of
 computational chemistry and represents and warrants to the
 licensee that it is not a competitor of Gaussian, Inc. and that
 it will not use this program in any manner prohibited above.
 ---------------------------------------------------------------
  

 Cite this work as:
 Gaussian 09, Revision E.01,
 M. J. Frisch, G. W. Trucks, H. B. Schlegel, G. E. Scuseria, 
 M. A. Robb, J. R. Cheeseman, G. Scalmani, V. Barone, B. Mennucci, 
 G. A. Petersson, H. Nakatsuji, M. Caricato, X. Li, H. P. Hratchian, 
 A. F. Izmaylov, J. Bloino, G. Zheng, J. L. Sonnenberg, M. Hada, 
 M. Ehara, K. Toyota, R. Fukuda, J. Hasegawa, M. Ishida, T. Nakajima, 
 Y. Honda, O. Kitao, H. Nakai, T. Vreven, J. A. Montgomery, Jr., 
 J. E. Peralta, F. Ogliaro, M. Bearpark, J. J. Heyd, E. Brothers, 
 K. N. Kudin, V. N. Staroverov, T. Keith, R. Kobayashi, J. Normand, 
 K. Raghavachari, A. Rendell, J. C. Burant, S. S. Iyengar, J. Tomasi, 
 M. Cossi, N. Rega, J. M. Millam, M. Klene, J. E. Knox, J. B. Cross, 
 V. Bakken, C. Adamo, J. Jaramillo, R. Gomperts, R. E. Stratmann, 
 O. Yazyev, A. J. Austin, R. Cammi, C. Pomelli, J. W. Ochterski, 
 R. L. Martin, K. Morokuma, V. G. Zakrzewski, G. A. Voth, 
 P. Salvador, J. J. Dannenberg, S. Dapprich, A. D. Daniels, 
 O. Farkas, J. B. Foresman, J. V. Ortiz, J. Cioslowski, 
 and D. J. Fox, Gaussian, Inc., Wallingford CT, 2013.
 
 ******************************************
 Gaussian 09:  ES64L-G09RevE.01 30-Nov-2015
                 5-Dec-2021 
 ******************************************
 %nprocs=14
 Will use up to   14 processors via shared memory.
 %mem=128GB
 %chk=RR_NorPhos_3_SPE_NoPd.chk
 ----------------------------------------------------------------------
 # PBE1PBE/def2TZVP int=(grid=ultrafine) empiricaldispersion=GD3BJ pop=
 nbo guess=read geom=check
 ----------------------------------------------------------------------
 1/29=2,38=1/1;
 2/12=2,40=1/2;
 3/5=44,7=101,11=2,14=-4,16=1,25=1,30=1,74=-13,75=-5,116=-2,124=41/1,2,3;
 4/5=1/1;
 5/5=2,38=6/2;
 6/7=2,8=2,9=2,10=2,28=1,40=1/1,7;
 99/5=1,9=1/99;
 ------------------
 RR_NorPhos_3 title
 ------------------
 Structure from the checkpoint file:  "RR_NorPhos_3_SPE_NoPd.chk"
 Charge =  0 Multiplicity = 1
 Z-Matrix found in file.
 P,0,-1.6432271553,0.1082204355,0.0308762914
 C,0,-2.4220177104,1.7593761586,0.0589338533
 C,0,-3.1054495621,2.1546428292,-1.1123934896
 C,0,-3.7283579676,3.4062763694,-1.1622149067
 C,0,-3.6665214882,4.275553839,-0.0617394389
 C,0,-2.9746467725,3.890478358,1.0941017469
 C,0,-2.3533829969,2.6349287012,1.1589676384
 H,0,-1.807675965,2.3448941039,2.0599885979
 H,0,-2.915091434,4.5681063999,1.9524198765
 H,0,-4.1509938273,5.2562499044,-0.1093462276
 H,0,-4.2564574369,3.7079528373,-2.0723794069
 H,0,-3.1215075107,1.484502007,-1.9801017998
 C,0,-3.0068354294,-1.1006705694,0.1634584939
 C,0,-4.0921282632,-0.8356128496,1.0219392461
 C,0,-5.0811947696,-1.8085151675,1.2137800646
 C,0,-4.9913441167,-3.0416595139,0.5503810698
 C,0,-3.9151763018,-3.3010373336,-0.3105157876
 C,0,-2.922322883,-2.3328436854,-0.5101849663
 H,0,-2.1014256353,-2.5040475589,-1.2133208778
 H,0,-3.8549134074,-4.2550251904,-0.8439653525
 H,0,-5.7693810577,-3.7979277038,0.6969878574
 H,0,-5.9276275835,-1.6002066683,1.8763636544
 H,0,-4.1674441252,0.1341243595,1.5262565924
 C,0,-0.6093990097,-0.2656302008,1.5279039321
 C,0,-0.8990381738,-0.4058523952,3.065828976
 C,0,-0.9493791903,0.9569783279,3.7422849284
 C,0,0.2947864054,1.4842152366,3.7039965774
 H,0,0.6044515212,2.4838918646,4.0217242712
 C,0,1.192949561,0.4844251054,2.973688036
 H,0,2.2771259338,0.6025323936,3.1101482818
 C,0,0.5488197156,-0.839694672,3.4618877443
 H,0,0.9086841991,-1.737691554,2.9319121235
 H,0,0.6630259436,-0.9735573931,4.5493452156
 C,0,0.6846048048,0.5864607171,1.482811326
 P,0,1.6025062684,0.0185217646,-0.0338514159
 C,0,2.3505352391,-1.5824195368,0.4337632083
 C,0,3.46916978,-1.6343909994,1.2893774725
 C,0,3.9504886353,-2.872496998,1.7320229539
 C,0,3.3237070583,-4.0594384888,1.3207737459
 C,0,2.2223259489,-4.010285044,0.4543621533
 C,0,1.7370515091,-2.774749355,0.0047460154
 H,0,0.9001774299,-2.7166886381,-0.7008518529
 H,0,1.7471257027,-4.9359374661,0.1144450736
 H,0,3.704979058,-5.0256078725,1.6668524751
 H,0,4.8210129331,-2.9122138641,2.3948570529
 H,0,3.9663714155,-0.7079562092,1.5959641974
 C,0,3.006537706,1.1707436979,-0.2363682196
 C,0,3.1571123765,2.3028912363,0.5898895964
 C,0,4.2582689648,3.1536635966,0.4230106099
 C,0,5.212434681,2.8830106934,-0.5669257287
 C,0,5.0625290807,1.7596526391,-1.393962074
 C,0,3.9669876215,0.9037940062,-1.2353706283
 H,0,3.8278451967,0.0449867042,-1.8986708711
 H,0,5.7999249444,1.549831795,-2.1752313764
 H,0,6.0706071421,3.5502648664,-0.696880615
 H,0,4.3675070579,4.0305411665,1.0694765469
 H,0,2.4218032365,2.5287999749,1.3673558941
 H,0,0.4307195916,1.6390347303,1.2537369901
 H,0,-1.8575046222,1.4250177777,4.1312713095
 H,0,-1.7161284924,-1.1053207688,3.2923921768
 H,0,-0.3401852327,-1.3007482563,1.2288637866
 Recover connectivity data from disk.
 Stoichiometry    C31H28P2
 Framework group  C1[X(C31H28P2)]
 Deg. of freedom   177
 Full point group                 C1      NOp   1
 Largest Abelian subgroup         C1      NOp   1
 Largest concise Abelian subgroup C1      NOp   1
                         Standard orientation:                         
 ---------------------------------------------------------------------
 Center     Atomic      Atomic             Coordinates (Angstroms)
 Number     Number       Type             X           Y           Z
 ---------------------------------------------------------------------
      1         15           0        1.629694   -0.088439   -0.709575
      2          6           0        2.426018   -1.717241   -0.493962
      3          6           0        3.102858   -2.242301   -1.617136
      4          6           0        3.738406   -3.485121   -1.524614
      5          6           0        3.695746   -4.218207   -0.328254
      6          6           0        3.010430   -3.705182    0.780840
      7          6           0        2.376622   -2.456673    0.702774
      8          1           0        1.836135   -2.066884    1.568623
      9          1           0        2.965828   -4.276696    1.714017
     10          1           0        4.190044   -5.193048   -0.264232
     11          1           0        4.261326   -3.887719   -2.397980
     12          1           0        3.103959   -1.679743   -2.558301
     13          6           0        2.981674    1.140346   -0.735318
     14          6           0        4.077475    0.989197    0.137310
     15          6           0        5.057970    1.987199    0.202243
     16          6           0        4.949119    3.132012   -0.601729
     17          6           0        3.862480    3.277320   -1.476176
     18          6           0        2.878077    2.283029   -1.549401
     19          1           0        2.049049    2.361898   -2.259384
     20          1           0        3.787332    4.160659   -2.118328
     21          1           0        5.720469    3.907578   -0.553849
     22          1           0        5.912552    1.866915    0.876097
     23          1           0        4.167574    0.086904    0.752248
     24          6           0        0.605687    0.450730    0.743134
     25          6           0        0.907847    0.775165    2.250519
     26          6           0        0.978674   -0.497233    3.083238
     27          6           0       -0.260179   -1.036903    3.120552
     28          1           0       -0.556411   -1.994665    3.557742
     29          6           0       -1.175422   -0.139285    2.286141
     30          1           0       -2.257008   -0.250501    2.446802
     31          6           0       -0.540819    1.239378    2.607235
     32          1           0       -0.914919    2.064734    1.978258
     33          1           0       -0.646506    1.500265    3.672268
     34          6           0       -0.679648   -0.412757    0.812723
     35         15           0       -1.617258   -0.037419   -0.751046
     36          6           0       -2.377777    1.600633   -0.468873
     37          6           0       -3.489048    1.743304    0.386020
     38          6           0       -3.979296    3.020632    0.683676
     39          6           0       -3.368799    4.156196    0.128158
     40          6           0       -2.274908    4.014880   -0.737612
     41          6           0       -1.780795    2.739314   -1.042534
     42          1           0       -0.949826    2.605763   -1.744852
     43          1           0       -1.812582    4.898059   -1.189762
     44          1           0       -3.757033    5.152997    0.361146
     45          1           0       -4.844110    3.130579    1.346056
     46          1           0       -3.973669    0.855186    0.805396
     47          6           0       -3.010891   -1.218614   -0.801042
     48          6           0       -3.142018   -2.246072    0.155132
     49          6           0       -4.235649   -3.120898    0.101657
     50          6           0       -5.201593   -2.978567   -0.903506
     51          6           0       -5.071049   -1.959935   -1.859404
     52          6           0       -3.983162   -1.081094   -1.814703
     53          1           0       -3.859107   -0.305803   -2.576551
     54          1           0       -5.817702   -1.851214   -2.652404
     55          1           0       -6.053854   -3.664526   -0.944582
     56          1           0       -4.329766   -3.915849    0.848624
     57          1           0       -2.397317   -2.371237    0.946284
     58          1           0       -0.416813   -1.482656    0.707465
     59          1           0        1.895177   -0.907290    3.515601
     60          1           0        1.719573    1.504189    2.384119
     61          1           0        0.322893    1.440485    0.326259
 ---------------------------------------------------------------------
 Rotational constants (GHZ):      0.1555209      0.0970086      0.0750594
 Standard basis: def2TZVP (5D, 7F)
 There are  1368 symmetry adapted cartesian basis functions of A   symmetry.
 There are  1203 symmetry adapted basis functions of A   symmetry.
  1203 basis functions,  1943 primitive gaussians,  1368 cartesian basis functions
   122 alpha electrons      122 beta electrons
       nuclear repulsion energy      3606.2023277542 Hartrees.
 NAtoms=   61 NActive=   61 NUniq=   61 SFac= 1.00D+00 NAtFMM=   60 NAOKFM=T Big=T
 Integral buffers will be    131072 words long.
 Raffenetti 2 integral format.
 Two-electron integral symmetry is turned on.
 Nuclear repulsion after empirical dispersion term =     3606.1102485850 Hartrees.
 One-electron integrals computed using PRISM.
   1 Symmetry operations used in ECPInt.
 ECPInt:  NShTT=  114960 NPrTT=  355741 LenC2=   93322 LenP2D=  194184.
 LDataN:  DoStor=T MaxTD1= 6 Len=  172
 NBasis=  1203 RedAO= T EigKep=  6.98D-06  NBF=  1203
 NBsUse=  1203 1.00D-06 EigRej= -1.00D+00 NBFU=  1203
 Initial guess from the checkpoint file:  "RR_NorPhos_3_SPE_NoPd.chk"
 B after Tr=     0.000000   -0.000000    0.000000
         Rot=    1.000000   -0.000000    0.000000    0.000000 Ang=   0.00 deg.
 Requested convergence on RMS density matrix=1.00D-08 within 128 cycles.
 Requested convergence on MAX density matrix=1.00D-06.
[...]
   970. RY*(  21) C  48                  0.00000     3.52861   
   971. RY*(  22) C  48                  0.00000     3.30868   
   972. RY*(  23) C  48                  0.00000     3.46983   
   973. RY*(  24) C  48                  0.00001     3.44599   
   974. RY*(  25) C  48                  0.00000     3.36069   
   975. RY*(  26) C  48                  0.00000     3.61577   
   976. RY*(   1) C  49                  0.00501     1.54173   
   977. RY*(   2) C  49                  0.00187     1.46991   
   978. RY*(   3) C  49                  0.00113     0.57681   
   979. RY*(   4) C  49                  0.00072     1.32481   
   980. RY*(   5) C  49                  0.00051     1.73697   
   981. RY*(   6) C  49                  0.00036     3.21709   
   982. RY*(   7) C  49                  0.00016     2.11890   
   983. RY*(   8) C  49                  0.00014     1.75421   
   984. RY*(   9) C  49                  0.00007     3.35165   
   985. RY*(  10) C  49                  0.00005     1.65645   
   986. RY*(  11) C  49                  0.00003     1.39761   
   987. RY*(  12) C  49                  0.00002     2.61697   
   988. RY*(  13) C  49                  0.00000     2.35284   
   989. RY*(  14) C  49                  0.00001     1.70509   
   990. RY*(  15) C  49                  0.00000     3.11268   
   991. RY*(  16) C  49                  0.00000    20.87793   
   992. RY*(  17) C  49                  0.00001     3.12000   
   993. RY*(  18) C  49                  0.00001     2.44907   
   994. RY*(  19) C  49                  0.00001     1.75395   
   995. RY*(  20) C  49                  0.00000     3.41176   
   996. RY*(  21) C  49                  0.00000     3.58814   
   997. RY*(  22) C  49                  0.00000     3.38741   
   998. RY*(  23) C  49                  0.00000     3.53006   
   999. RY*(  24) C  49                  0.00000     3.18299   
  1000. RY*(  25) C  49                  0.00000     3.57627   
  1001. RY*(  26) C  49                  0.00000     3.62084   
  1002. RY*(   1) C  50                  0.00497     1.58398   
  1003. RY*(   2) C  50                  0.00222     1.72834   
  1004. RY*(   3) C  50                  0.00139     0.53011   
  1005. RY*(   4) C  50                  0.00078     1.25600   
  1006. RY*(   5) C  50                  0.00069     1.38353   
  1007. RY*(   6) C  50                  0.00035     3.29561   
  1008. RY*(   7) C  50                  0.00013     2.98028   
  1009. RY*(   8) C  50                  0.00014     1.67683   
  1010. RY*(   9) C  50                  0.00006     2.06992   
  1011. RY*(  10) C  50                  0.00004     2.61007   
  1012. RY*(  11) C  50                  0.00003     2.18592   
  1013. RY*(  12) C  50                  0.00000    21.31213   
  1014. RY*(  13) C  50                  0.00000     3.22176   
  1015. RY*(  14) C  50                  0.00001     1.70081   
  1016. RY*(  15) C  50                  0.00000     3.05609   
  1017. RY*(  16) C  50                  0.00000     1.39324   
  1018. RY*(  17) C  50                  0.00000     2.81149   
  1019. RY*(  18) C  50                  0.00000     1.11072   
  1020. RY*(  19) C  50                  0.00000     1.66030   
  1021. RY*(  20) C  50                  0.00000     3.50950   
  1022. RY*(  21) C  50                  0.00000     3.61804   
  1023. RY*(  22) C  50                  0.00000     3.50121   
  1024. RY*(  23) C  50                  0.00000     3.49519   
  1025. RY*(  24) C  50                  0.00000     3.44725   
  1026. RY*(  25) C  50                  0.00000     3.39378   
  1027. RY*(  26) C  50                  0.00000     3.51694   
  1028. RY*(   1) C  51                  0.00487     1.55628   
  1029. RY*(   2) C  51                  0.00184     1.50765   
  1030. RY*(   3) C  51                  0.00108     0.59033   
  1031. RY*(   4) C  51                  0.00073     1.32103   
  1032. RY*(   5) C  51                  0.00052     1.74667   
  1033. RY*(   6) C  51                  0.00036     3.12043   
  1034. RY*(   7) C  51                  0.00013     2.25424   
  1035. RY*(   8) C  51                  0.00013     1.81007   
  1036. RY*(   9) C  51                  0.00007     3.02536   
  1037. RY*(  10) C  51                  0.00004     1.19155   
  1038. RY*(  11) C  51                  0.00004     2.04774   
  1039. RY*(  12) C  51                  0.00003     2.73983   
  1040. RY*(  13) C  51                  0.00000     1.99695   
  1041. RY*(  14) C  51                  0.00000     3.42618   
  1042. RY*(  15) C  51                  0.00001     1.96071   
  1043. RY*(  16) C  51                  0.00001     2.25168   
  1044. RY*(  17) C  51                  0.00000    21.03638   
  1045. RY*(  18) C  51                  0.00000     1.37856   
  1046. RY*(  19) C  51                  0.00000     3.21801   
  1047. RY*(  20) C  51                  0.00000     3.39655   
  1048. RY*(  21) C  51                  0.00000     3.49627   
  1049. RY*(  22) C  51                  0.00000     3.37596   
  1050. RY*(  23) C  51                  0.00000     3.67844   
  1051. RY*(  24) C  51                  0.00000     3.25510   
  1052. RY*(  25) C  51                  0.00000     3.39310   
  1053. RY*(  26) C  51                  0.00000     3.59283   
  1054. RY*(   1) C  52                  0.00610     1.58516   
  1055. RY*(   2) C  52                  0.00180     1.37087   
  1056. RY*(   3) C  52                  0.00128     0.77773   
  1057. RY*(   4) C  52                  0.00110     1.84182   
  1058. RY*(   5) C  52                  0.00079     1.52510   
  1059. RY*(   6) C  52                  0.00034     2.99523   
  1060. RY*(   7) C  52                  0.00024     1.51678   
  1061. RY*(   8) C  52                  0.00021     2.03798   
  1062. RY*(   9) C  52                  0.00011     1.84432   
  1063. RY*(  10) C  52                  0.00007     2.40218   
  1064. RY*(  11) C  52                  0.00005     1.62365   
  1065. RY*(  12) C  52                  0.00005     1.85706   
  1066. RY*(  13) C  52                  0.00003     2.98217   
  1067. RY*(  14) C  52                  0.00003     2.10700   
  1068. RY*(  15) C  52                  0.00001     1.55460   
  1069. RY*(  16) C  52                  0.00000    20.63966   
  1070. RY*(  17) C  52                  0.00000     3.84289   
  1071. RY*(  18) C  52                  0.00000     3.16710   
  1072. RY*(  19) C  52                  0.00001     2.35291   
  1073. RY*(  20) C  52                  0.00000     3.37037   
  1074. RY*(  21) C  52                  0.00001     3.57168   
  1075. RY*(  22) C  52                  0.00000     3.59725   
  1076. RY*(  23) C  52                  0.00000     3.39413   
  1077. RY*(  24) C  52                  0.00001     3.50529   
  1078. RY*(  25) C  52                  0.00000     3.53296   
  1079. RY*(  26) C  52                  0.00000     3.59546   
  1080. RY*(   1) H  53                  0.00089     0.67792   
  1081. RY*(   2) H  53                  0.00026     2.28474   
  1082. RY*(   3) H  53                  0.00013     2.19862   
  1083. RY*(   4) H  53                  0.00009     2.76359   
  1084. RY*(   5) H  53                  0.00002     3.09230   
  1085. RY*(   1) H  54                  0.00037     0.94569   
  1086. RY*(   2) H  54                  0.00020     1.87775   
  1087. RY*(   3) H  54                  0.00011     2.37203   
  1088. RY*(   4) H  54                  0.00012     2.49614   
  1089. RY*(   5) H  54                  0.00002     3.09815   
  1090. RY*(   1) H  55                  0.00033     0.88677   
  1091. RY*(   2) H  55                  0.00019     1.84113   
  1092. RY*(   3) H  55                  0.00011     2.15629   
  1093. RY*(   4) H  55                  0.00008     2.75260   
  1094. RY*(   5) H  55                  0.00002     3.09982   
  1095. RY*(   1) H  56                  0.00040     0.98371   
  1096. RY*(   2) H  56                  0.00019     1.86468   
  1097. RY*(   3) H  56                  0.00012     2.54881   
  1098. RY*(   4) H  56                  0.00011     2.30038   
  1099. RY*(   5) H  56                  0.00002     3.09166   
  1100. RY*(   1) H  57                  0.00113     0.79642   
  1101. RY*(   2) H  57                  0.00030     2.41664   
  1102. RY*(   3) H  57                  0.00013     2.19568   
  1103. RY*(   4) H  57                  0.00010     2.74765   
  1104. RY*(   5) H  57                  0.00003     3.19302   
  1105. RY*(   1) H  58                  0.00176     0.79434   
  1106. RY*(   2) H  58                  0.00033     2.46920   
  1107. RY*(   3) H  58                  0.00017     2.68374   
  1108. RY*(   4) H  58                  0.00012     2.62729   
  1109. RY*(   5) H  58                  0.00005     3.24177   
  1110. RY*(   1) H  59                  0.00046     1.57821   
  1111. RY*(   2) H  59                  0.00025     1.55353   
  1112. RY*(   3) H  59                  0.00015     2.27009   
  1113. RY*(   4) H  59                  0.00014     2.28794   
  1114. RY*(   5) H  59                  0.00002     2.98837   
  1115. RY*(   1) H  60                  0.00116     0.54299   
  1116. RY*(   2) H  60                  0.00021     2.49784   
  1117. RY*(   3) H  60                  0.00017     2.53542   
  1118. RY*(   4) H  60                  0.00017     2.41291   
  1119. RY*(   5) H  60                  0.00001     3.05756   
  1120. RY*(   1) H  61                  0.00145     0.88763   
  1121. RY*(   2) H  61                  0.00030     2.54115   
  1122. RY*(   3) H  61                  0.00020     2.63542   
  1123. RY*(   4) H  61                  0.00011     2.78516   
  1124. RY*(   5) H  61                  0.00005     3.29164   
  1125. BD*(   1) P   1 - C   2          0.04393     0.24017   
  1126. BD*(   1) P   1 - C  13          0.04335     0.24074   
  1127. BD*(   1) P   1 - C  24          0.04745     0.21300   
  1128. BD*(   1) C   2 - C   3          0.02150     0.51923   
  1129. BD*(   1) C   2 - C   7          0.02901     0.53350   
  1130. BD*(   2) C   2 - C   7          0.37579     0.02763  1137(v),1132(v),1144(r)
                                                    1126(v),1146(r),283(g)
                                                    154(g),179(v)
  1131. BD*(   1) C   3 - C   4          0.01540     0.54714   
  1132. BD*(   2) C   3 - C   4          0.30829     0.03320  1137(v),1130(v),205(g)
                                                    179(g)
  1133. BD*(   1) C   3 - H  12          0.01545     0.40673   
  1134. BD*(   1) C   4 - C   5          0.01471     0.53877   
  1135. BD*(   1) C   4 - H  11          0.01342     0.40759   
  1136. BD*(   1) C   5 - C   6          0.01435     0.54174   
  1137. BD*(   2) C   5 - C   6          0.33076     0.02965  1130(v),1132(v),231(g)
                                                    257(g)
  1138. BD*(   1) C   5 - H  10          0.01304     0.40701   
  1139. BD*(   1) C   6 - C   7          0.01719     0.54478   
  1140. BD*(   1) C   6 - H   9          0.01386     0.40566   
  1141. BD*(   1) C   7 - H   8          0.02015     0.43259   
  1142. BD*(   1) C  13 - C  14          0.03130     0.52577   
  1143. BD*(   1) C  13 - C  18          0.02367     0.52616   
  1144. BD*(   2) C  13 - C  18          0.36097     0.02630  1151(v),1146(v),1130(r)
                                                    464(g),1127(v),1132(r)
  1145. BD*(   1) C  14 - C  15          0.01727     0.54359   
  1146. BD*(   2) C  14 - C  15          0.30949     0.03032  1144(v),1151(v),386(g)
                                                    1130(r)
  1147. BD*(   1) C  14 - H  23          0.01583     0.40947   
  1148. BD*(   1) C  15 - C  16          0.01468     0.53578   
  1149. BD*(   1) C  15 - H  22          0.01402     0.40361   
  1150. BD*(   1) C  16 - C  17          0.01466     0.53640   
  1151. BD*(   2) C  16 - C  17          0.32876     0.02573  1144(v),1146(v),412(g)
                                                    438(g)
  1152. BD*(   1) C  16 - H  21          0.01291     0.40385   
  1153. BD*(   1) C  17 - C  18          0.01622     0.54034   
  1154. BD*(   1) C  17 - H  20          0.01346     0.40316   
  1155. BD*(   1) C  18 - H  19          0.01592     0.40667   
  1156. BD*(   1) C  24 - C  25          0.06544     0.30570   
  1157. BD*(   1) C  24 - C  34          0.02868     0.32055   
  1158. BD*(   1) C  24 - H  61          0.02431     0.35977   
  1159. BD*(   1) C  25 - C  26          0.02142     0.36849   
  1160. BD*(   1) C  25 - C  31          0.01268     0.30584   
  1161. BD*(   1) C  25 - H  60          0.01975     0.38322   
  1162. BD*(   1) C  26 - C  27          0.00952     0.58252   
  1163. BD*(   2) C  26 - C  27          0.06572     0.04387   
  1164. BD*(   1) C  26 - H  59          0.01685     0.42059   
  1165. BD*(   1) C  27 - H  28          0.01661     0.41725   
  1166. BD*(   1) C  27 - C  29          0.01968     0.35951   
  1167. BD*(   1) C  29 - H  30          0.02130     0.37909   
  1168. BD*(   1) C  29 - C  31          0.01360     0.31783   
  1169. BD*(   1) C  29 - C  34          0.05393     0.30047   
  1170. BD*(   1) C  31 - H  32          0.01529     0.38861   
  1171. BD*(   1) C  31 - H  33          0.01261     0.38235   
  1172. BD*(   1) C  34 - P  35          0.04614     0.20863   
  1173. BD*(   1) C  34 - H  58          0.02452     0.37930   
  1174. BD*(   1) P  35 - C  36          0.04084     0.23488   
  1175. BD*(   1) P  35 - C  47          0.03966     0.24360   
  1176. BD*(   1) C  36 - C  37          0.03253     0.52355   
  1177. BD*(   1) C  36 - C  41          0.02399     0.52214   
  1178. BD*(   2) C  36 - C  41          0.36321     0.02175  1185(v),1180(v),1191(r)
                                                    875(g),1172(v),746(g)
  1179. BD*(   1) C  37 - C  38          0.01728     0.54117   
  1180. BD*(   2) C  37 - C  38          0.30588     0.02733  1185(v),1178(v),797(g)
                                                    1191(r),1201(r)
  1181. BD*(   1) C  37 - H  46          0.01599     0.40810   
  1182. BD*(   1) C  38 - C  39          0.01469     0.53109   
  1183. BD*(   1) C  38 - H  45          0.01405     0.40070   
  1184. BD*(   1) C  39 - C  40          0.01463     0.53290   
  1185. BD*(   2) C  39 - C  40          0.32432     0.02239  1178(v),1180(v),823(g)
                                                    849(g)
  1186. BD*(   1) C  39 - H  44          0.01291     0.40127   
  1187. BD*(   1) C  40 - C  41          0.01688     0.53704   
  1188. BD*(   1) C  40 - H  43          0.01355     0.40058   
  1189. BD*(   1) C  41 - H  42          0.01606     0.40505   
  1190. BD*(   1) C  47 - C  48          0.02650     0.52781   
  1191. BD*(   2) C  47 - C  48          0.37990     0.02549  1196(v),1201(v),1178(r)
                                                    952(g),1174(v),1180(r)
                                                    927(g),1056(v)
  1192. BD*(   1) C  47 - C  52          0.02150     0.52330   
  1193. BD*(   1) C  48 - C  49          0.01639     0.54544   
  1194. BD*(   1) C  48 - H  57          0.01556     0.41193   
  1195. BD*(   1) C  49 - C  50          0.01458     0.54102   
  1196. BD*(   2) C  49 - C  50          0.33381     0.02893  1201(v),1191(v),1004(g)
                                                    978(g)
  1197. BD*(   1) C  49 - H  56          0.01364     0.40506   
  1198. BD*(   1) C  50 - C  51          0.01459     0.53942   
  1199. BD*(   1) C  50 - H  55          0.01298     0.40669   
  1200. BD*(   1) C  51 - C  52          0.01508     0.54649   
  1201. BD*(   2) C  51 - C  52          0.31230     0.03217  1196(v),1191(v),1030(g)
                                                    1056(g),1180(r)
  1202. BD*(   1) C  51 - H  54          0.01341     0.40723   
  1203. BD*(   1) C  52 - H  53          0.01555     0.40695   
       -------------------------------
              Total Lewis  238.05764  ( 97.5646%)
        Valence non-Lewis    5.48711  (  2.2488%)
        Rydberg non-Lewis    0.45525  (  0.1866%)
       -------------------------------
            Total unit  1  244.00000  (100.0000%)
           Charge unit  1    0.00000
 1\1\GINC-NC283\SP\RPBE1PBE\def2TZVP\C31H28P2\MACKK4\05-Dec-2021\0\\# P
 BE1PBE/def2TZVP int=(grid=ultrafine) empiricaldispersion=GD3BJ pop=nbo
  guess=read geom=check\\RR_NorPhos_3 title\\0,1\P,0,-1.6432271553,0.10
 82204355,0.0308762914\C,0,-2.4220177104,1.7593761586,0.0589338533\C,0,
 -3.1054495621,2.1546428292,-1.1123934896\C,0,-3.7283579676,3.406276369
 4,-1.1622149067\C,0,-3.6665214882,4.275553839,-0.0617394389\C,0,-2.974
 6467725,3.890478358,1.0941017469\C,0,-2.3533829969,2.6349287012,1.1589
 676384\H,0,-1.807675965,2.3448941039,2.0599885979\H,0,-2.915091434,4.5
 681063999,1.9524198765\H,0,-4.1509938273,5.2562499044,-0.1093462276\H,
 0,-4.2564574369,3.7079528373,-2.0723794069\H,0,-3.1215075107,1.4845020
 07,-1.9801017998\C,0,-3.0068354294,-1.1006705694,0.1634584939\C,0,-4.0
 921282632,-0.8356128496,1.0219392461\C,0,-5.0811947696,-1.8085151675,1
 .2137800646\C,0,-4.9913441167,-3.0416595139,0.5503810698\C,0,-3.915176
 3018,-3.3010373336,-0.3105157876\C,0,-2.922322883,-2.3328436854,-0.510
 1849663\H,0,-2.1014256353,-2.5040475589,-1.2133208778\H,0,-3.854913407
 4,-4.2550251904,-0.8439653525\H,0,-5.7693810577,-3.7979277038,0.696987
 8574\H,0,-5.9276275835,-1.6002066683,1.8763636544\H,0,-4.1674441252,0.
 1341243595,1.5262565924\C,0,-0.6093990097,-0.2656302008,1.5279039321\C
 ,0,-0.8990381738,-0.4058523952,3.065828976\C,0,-0.9493791903,0.9569783
 279,3.7422849284\C,0,0.2947864054,1.4842152366,3.7039965774\H,0,0.6044
 515212,2.4838918646,4.0217242712\C,0,1.192949561,0.4844251054,2.973688
 036\H,0,2.2771259338,0.6025323936,3.1101482818\C,0,0.5488197156,-0.839
 694672,3.4618877443\H,0,0.9086841991,-1.737691554,2.9319121235\H,0,0.6
 630259436,-0.9735573931,4.5493452156\C,0,0.6846048048,0.5864607171,1.4
 82811326\P,0,1.6025062684,0.0185217646,-0.0338514159\C,0,2.3505352391,
 -1.5824195368,0.4337632083\C,0,3.46916978,-1.6343909994,1.2893774725\C
 ,0,3.9504886353,-2.872496998,1.7320229539\C,0,3.3237070583,-4.05943848
 88,1.3207737459\C,0,2.2223259489,-4.010285044,0.4543621533\C,0,1.73705
 15091,-2.774749355,0.0047460154\H,0,0.9001774299,-2.7166886381,-0.7008
 518529\H,0,1.7471257027,-4.9359374661,0.1144450736\H,0,3.704979058,-5.
 0256078725,1.6668524751\H,0,4.8210129331,-2.9122138641,2.3948570529\H,
 0,3.9663714155,-0.7079562092,1.5959641974\C,0,3.006537706,1.1707436979
 ,-0.2363682196\C,0,3.1571123765,2.3028912363,0.5898895964\C,0,4.258268
 9648,3.1536635966,0.4230106099\C,0,5.212434681,2.8830106934,-0.5669257
 287\C,0,5.0625290807,1.7596526391,-1.393962074\C,0,3.9669876215,0.9037
 940062,-1.2353706283\H,0,3.8278451967,0.0449867042,-1.8986708711\H,0,5
 .7999249444,1.549831795,-2.1752313764\H,0,6.0706071421,3.5502648664,-0
 .696880615\H,0,4.3675070579,4.0305411665,1.0694765469\H,0,2.4218032365
 ,2.5287999749,1.3673558941\H,0,0.4307195916,1.6390347303,1.2537369901\
 H,0,-1.8575046222,1.4250177777,4.1312713095\H,0,-1.7161284924,-1.10532
 07688,3.2923921768\H,0,-0.3401852327,-1.3007482563,1.2288637866\\Versi
 on=ES64L-G09RevE.01\State=1-A\HF=-1879.6303761\RMSD=3.917e-09\Dipole=0
 .0798357,-0.2997327,0.7670584\Quadrupole=1.4956713,5.5747289,-7.070400
 1,0.4625489,0.3789857,3.7772454\PG=C01 [X(C31H28P2)]\\@


 TO BEHOLD HARMS OF OUR OWN HANDS DOING,
 WHERE NONE BESIDE US WROUGHT,
 CAUSES SHARP RUING...

                                         SOPHOCLES
 Job cpu time:       0 days  1 hours  5 minutes  5.1 seconds.
 File lengths (MBytes):  RWF=    744 Int=      0 D2E=      0 Chk=    112 Scr=      1
 Normal termination of Gaussian 09 at Sun Dec  5 03:14:26 2021.
