 Entering Gaussian System, Link 0=g09
 Input=RR_NorPhos_1_SPE_NoPd.com
 Output=RR_NorPhos_1_SPE_NoPd.log
 Initial command:
 /gstore/apps/gaussian/g09.e01-foss-2017a/g09/l1.exe "/local/22791350/Gau-28305.inp" -scrdir="/local/22791350/"
 Entering Link 1 = /gstore/apps/gaussian/g09.e01-foss-2017a/g09/l1.exe PID=     28306.
  
 Copyright (c) 1988,1990,1992,1993,1995,1998,2003,2009,2015,
            Gaussian, Inc.  All Rights Reserved.
  
 This is part of the Gaussian(R) 09 program.  It is based on
 the Gaussian(R) 03 system (copyright 2003, Gaussian, Inc.),
 the Gaussian(R) 98 system (copyright 1998, Gaussian, Inc.),
 the Gaussian(R) 94 system (copyright 1995, Gaussian, Inc.),
 the Gaussian 92(TM) system (copyright 1992, Gaussian, Inc.),
 the Gaussian 90(TM) system (copyright 1990, Gaussian, Inc.),
 the Gaussian 88(TM) system (copyright 1988, Gaussian, Inc.),
 the Gaussian 86(TM) system (copyright 1986, Carnegie Mellon
 University), and the Gaussian 82(TM) system (copyright 1983,
 Carnegie Mellon University). Gaussian is a federally registered
 trademark of Gaussian, Inc.
  
 This software contains proprietary and confidential information,
 including trade secrets, belonging to Gaussian, Inc.
  
 This software is provided under written license and may be
 used, copied, transmitted, or stored only in accord with that
 written license.
  
 The following legend is applicable only to US Government
 contracts under FAR:
  
                    RESTRICTED RIGHTS LEGEND
  
 Use, reproduction and disclosure by the US Government is
 subject to restrictions as set forth in subparagraphs (a)
 and (c) of the Commercial Computer Software - Restricted
 Rights clause in FAR 52.227-19.
  
 Gaussian, Inc.
 340 Quinnipiac St., Bldg. 40, Wallingford CT 06492
  
  
 ---------------------------------------------------------------
 Warning -- This program may not be used in any manner that
 competes with the business of Gaussian, Inc. or will provide
 assistance to any competitor of Gaussian, Inc.  The licensee
 of this program is prohibited from giving any competitor of
 Gaussian, Inc. access to this program.  By using this program,
 the user acknowledges that Gaussian, Inc. is engaged in the
 business of creating and licensing software in the field of
 computational chemistry and represents and warrants to the
 licensee that it is not a competitor of Gaussian, Inc. and that
 it will not use this program in any manner prohibited above.
 ---------------------------------------------------------------
  

 Cite this work as:
 Gaussian 09, Revision E.01,
 M. J. Frisch, G. W. Trucks, H. B. Schlegel, G. E. Scuseria, 
 M. A. Robb, J. R. Cheeseman, G. Scalmani, V. Barone, B. Mennucci, 
 G. A. Petersson, H. Nakatsuji, M. Caricato, X. Li, H. P. Hratchian, 
 A. F. Izmaylov, J. Bloino, G. Zheng, J. L. Sonnenberg, M. Hada, 
 M. Ehara, K. Toyota, R. Fukuda, J. Hasegawa, M. Ishida, T. Nakajima, 
 Y. Honda, O. Kitao, H. Nakai, T. Vreven, J. A. Montgomery, Jr., 
 J. E. Peralta, F. Ogliaro, M. Bearpark, J. J. Heyd, E. Brothers, 
 K. N. Kudin, V. N. Staroverov, T. Keith, R. Kobayashi, J. Normand, 
 K. Raghavachari, A. Rendell, J. C. Burant, S. S. Iyengar, J. Tomasi, 
 M. Cossi, N. Rega, J. M. Millam, M. Klene, J. E. Knox, J. B. Cross, 
 V. Bakken, C. Adamo, J. Jaramillo, R. Gomperts, R. E. Stratmann, 
 O. Yazyev, A. J. Austin, R. Cammi, C. Pomelli, J. W. Ochterski, 
 R. L. Martin, K. Morokuma, V. G. Zakrzewski, G. A. Voth, 
 P. Salvador, J. J. Dannenberg, S. Dapprich, A. D. Daniels, 
 O. Farkas, J. B. Foresman, J. V. Ortiz, J. Cioslowski, 
 and D. J. Fox, Gaussian, Inc., Wallingford CT, 2013.
 
 ******************************************
 Gaussian 09:  ES64L-G09RevE.01 30-Nov-2015
                 5-Dec-2021 
 ******************************************
 %nprocs=14
 Will use up to   14 processors via shared memory.
 %mem=128GB
 %chk=RR_NorPhos_1_SPE_NoPd.chk
 ----------------------------------------------------------------------
 # PBE1PBE/def2TZVP int=(grid=ultrafine) empiricaldispersion=GD3BJ nmr=
 giao
 ----------------------------------------------------------------------
 1/38=1/1;
 2/12=2,17=6,18=5,40=1/2;
 3/5=44,7=101,11=2,16=1,25=1,30=1,74=-13,75=-5,124=41/1,2,8,3;
 4//1;
 5/5=2,38=5/2;
 8/6=1,10=90,11=11/1;
 10/13=100,45=16/2;
 6/7=2,8=2,9=2,10=2,28=1/1;
 99/9=1/99;
 ------------------
 RR_NorPhos_1 title
 ------------------
 Symbolic Z-matrix:
 Charge =  0 Multiplicity = 1
 P                    -1.592    -0.02125  -0.02475 
 C                    -2.37004   1.62529   0.10213 
 C                    -1.80044   2.69534  -0.61323 
 C                    -2.32434   3.98751  -0.47017 
 C                    -3.42175   4.21071   0.37317 
 C                    -4.00498   3.14066   1.0707 
 C                    -3.48345   1.84846   0.93676 
 H                    -3.94511   1.00921   1.46777 
 H                    -4.87266   3.31352   1.7159 
 H                    -3.83504   5.21915   0.47794 
 H                    -1.88307   4.81699  -1.03178 
 H                    -0.96589   2.49395  -1.29529 
 C                    -2.95974  -1.22753   0.0004 
 C                    -2.92683  -2.35795   0.84116 
 C                    -3.98108  -3.28055   0.82068 
 C                    -5.07021  -3.08449  -0.03946 
 C                    -5.10161  -1.96538  -0.88479 
 C                    -4.05247  -1.03953  -0.87211 
 H                    -4.06101  -0.18373  -1.5521 
 H                    -5.9437   -1.81594  -1.56787 
 H                    -5.8918   -3.80779  -0.05594 
 H                    -3.94826  -4.15495   1.47869 
 H                    -2.07974  -2.52947   1.51191 
 C                    -0.6077   -0.29751   1.52144 
 C                    -1.01177  -0.19584   3.0335 
 C                    -1.2126    1.26407   3.41968 
 C                    -0.00261   1.86396   3.40525 
 H                     0.21122   2.92896   3.53174 
 C                     1.01968   0.81954   2.95357 
 H                     2.07924   1.04073   3.14506 
 C                     0.4144   -0.4434    3.6141 
 H                     0.8752   -1.38751   3.27524 
 H                     0.43698  -0.38541   4.71423 
 C                     0.62734   0.64123   1.43478 
 P                     1.64876   0.00232   0.02362 
 C                     2.34382  -1.60127   0.55471 
 C                     1.83376  -2.78364  -0.01448 
 C                     2.28636  -4.02914   0.44292 
 C                     3.24754  -4.09643   1.46135 
 C                     3.76779  -2.91793   2.0205 
 C                     3.32199  -1.67034   1.56768 
 H                     3.73883  -0.74954   1.98976 
 H                     4.52752  -2.97205   2.80707 
 H                     3.60248  -5.06982   1.81528 
 H                     1.89415  -4.947    -0.00645 
 H                     1.10218  -2.70803  -0.82761 
 C                     3.07231   1.13086  -0.13614 
 C                     3.09553   2.38058   0.51462 
 C                     4.20008   3.22979   0.36501 
 C                     5.283     2.84017  -0.43491 
 C                     5.25921   1.59972  -1.08996 
 C                     4.16044   0.74525  -0.94717 
 H                     4.12547  -0.20763  -1.48192 
 H                     6.09773   1.29755  -1.72528 
 H                     6.14386   3.50619  -0.55261 
 H                     4.2117    4.19843   0.87523 
 H                     2.25526   2.69908   1.13867 
 H                     0.30199   1.62757   1.04899 
 H                    -2.18237   1.73858   3.58157 
 H                    -1.80421  -0.89846   3.32922 
 H                    -0.25359  -1.33802   1.3735 
 
 Stoichiometry    C31H28P2
 Framework group  C1[X(C31H28P2)]
 Deg. of freedom   177
 Full point group                 C1      NOp   1
 Largest Abelian subgroup         C1      NOp   1
 Largest concise Abelian subgroup C1      NOp   1
                         Standard orientation:                         
 ---------------------------------------------------------------------
 Center     Atomic      Atomic             Coordinates (Angstroms)
 Number     Number       Type             X           Y           Z
 ---------------------------------------------------------------------
      1         15           0        1.598411   -0.005509   -0.737689
      2          6           0        2.311565   -1.666955   -0.485582
      3          6           0        1.711452   -2.762150   -1.134887
      4          6           0        2.183914   -4.059797   -0.895048
      5          6           0        3.260547   -4.264524   -0.020814
      6          6           0        3.874526   -3.171059    0.610917
      7          6           0        3.404313   -1.872837    0.380222
      8          1           0        3.890295   -1.016490    0.859743
      9          1           0        4.726214   -3.330813    1.280359
     10          1           0        3.633788   -5.277881    0.159569
     11          1           0        1.719090   -4.909276   -1.405440
     12          1           0        0.894446   -2.577724   -1.842516
     13          6           0        3.010522    1.148245   -0.773372
     14          6           0        3.009204    2.334574   -0.012824
     15          6           0        4.097924    3.213945   -0.079598
     16          6           0        5.190346    2.918712   -0.906607
     17          6           0        5.190643    1.743400   -1.672508
     18          6           0        4.107008    0.860058   -1.613211
     19          1           0        4.092234   -0.040465   -2.232628
     20          1           0        6.035606    1.516037   -2.330072
     21          1           0        6.038967    3.608286   -0.959456
     22          1           0        4.089447    4.132391    0.516231
     23          1           0        2.160253    2.583283    0.630840
     24          6           0        0.604503    0.413270    0.769839
     25          6           0        0.983949    0.401606    2.291622
     26          6           0        1.123934   -1.034510    2.780286
     27          6           0       -0.107659   -1.588829    2.787583
     28          1           0       -0.363474   -2.633888    2.983405
     29          6           0       -1.083346   -0.541098    2.248874
     30          1           0       -2.153025   -0.709186    2.438004
     31          6           0       -0.439513    0.741283    2.830821
     32          1           0       -0.859497    1.676075    2.420574
     33          1           0       -0.479142    0.760431    3.931826
     34          6           0       -0.664013   -0.482927    0.727944
     35         15           0       -1.641258    0.094126   -0.740009
     36          6           0       -2.282025    1.755213   -0.331502
     37          6           0       -1.719774    2.875697   -0.972221
     38          6           0       -2.130886    4.165741   -0.608738
     39          6           0       -3.102494    4.338817    0.387064
     40          6           0       -3.674638    3.221868    1.017335
     41          6           0       -3.270472    1.930316    0.658455
     42          1           0       -3.727648    1.056964    1.135969
     43          1           0       -4.442327    3.358332    1.785996
     44          1           0       -3.424952    5.346813    0.667585
     45          1           0       -1.698059    5.035180   -1.113669
     46          1           0       -0.980669    2.717024   -1.766357
     47          6           0       -3.104361   -0.989382   -0.844837
     48          6           0       -3.183825   -2.189360   -0.110291
     49          6           0       -4.317709   -3.005478   -0.219033
     50          6           0       -5.374143   -2.632384   -1.061142
     51          6           0       -5.294394   -1.441959   -1.799320
     52          6           0       -4.165998   -0.620852   -1.697846
     53          1           0       -4.087637    0.290794   -2.296106
     54          1           0       -6.112167   -1.153687   -2.467304
     55          1           0       -6.258003   -3.272678   -1.146698
     56          1           0       -4.373016   -3.935395    0.356220
     57          1           0       -2.364776   -2.494758    0.547600
     58          1           0       -0.371183   -1.504944    0.416048
     59          1           0        2.072708   -1.532203    2.989961
     60          1           0        1.798431    1.093229    2.551148
     61          1           0        0.292202    1.453424    0.545145
 ---------------------------------------------------------------------
 Rotational constants (GHZ):      0.1588536      0.0982669      0.0750836
 Standard basis: def2TZVP (5D, 7F)
 There are  1368 symmetry adapted cartesian basis functions of A   symmetry.
 There are  1203 symmetry adapted basis functions of A   symmetry.
  1203 basis functions,  1943 primitive gaussians,  1368 cartesian basis functions
   122 alpha electrons      122 beta electrons
       nuclear repulsion energy      3621.2267745715 Hartrees.
 NAtoms=   61 NActive=   61 NUniq=   61 SFac= 1.00D+00 NAtFMM=   60 NAOKFM=T Big=T
 Integral buffers will be    131072 words long.
 Raffenetti 2 integral format.
 Two-electron integral symmetry is turned on.
 Nuclear repulsion after empirical dispersion term =     3621.1339088909 Hartrees.
 One-electron integrals computed using PRISM.
   1 Symmetry operations used in ECPInt.
 ECPInt:  NShTT=  114960 NPrTT=  355741 LenC2=   93595 LenP2D=  195028.
 LDataN:  DoStor=T MaxTD1= 6 Len=  172
 NBasis=  1203 RedAO= T EigKep=  7.40D-06  NBF=  1203
 NBsUse=  1203 1.00D-06 EigRej= -1.00D+00 NBFU=  1203
 ExpMin= 9.04D-02 ExpMax= 5.24D+04 ExpMxC= 1.79D+03 IAcc=3 IRadAn=         5 AccDes= 0.00D+00
 Harris functional with IExCor= 1009 and IRadAn=       5 diagonalized for initial guess.
 HarFok:  IExCor= 1009 AccDes= 0.00D+00 IRadAn=         5 IDoV= 1 UseB2=F ITyADJ=14
 ICtDFT=  3500011 ScaDFX=  1.000000  1.000000  1.000000  1.000000
 FoFCou: FMM=F IPFlag=           0 FMFlag=      100000 FMFlg1=        2001
         NFxFlg=           0 DoJE=T BraDBF=F KetDBF=T FulRan=T
         wScrn=  0.000000 ICntrl=     500 IOpCl=  0 I1Cent=   200000004 NGrid=           0
         NMat0=    1 NMatS0=      1 NMatT0=    0 NMatD0=    1 NMtDS0=    0 NMtDT0=    0
 Petite list used in FoFCou.
 Requested convergence on RMS density matrix=1.00D-08 within 128 cycles.
 Requested convergence on MAX density matrix=1.00D-06.
 Requested convergence on             energy=1.00D-06.
 No special actions if energy rises.
 Integral accuracy reduced to 1.0D-05 until final iterations.
 Problem detected with inexpensive integrals.
 Switching to full accuracy and repeating last cycle.
 SCF Done:  E(RPBE1PBE) =  -1879.63693578     A.U. after   14 cycles
            NFock= 14  Conv=0.74D-08     -V/T= 2.0046
 DoSCS=F DFT=T ScalE2(SS,OS)=  1.000000  1.000000
 Range of M.O.s used for correlation:     1  1203
 NBasis=  1203 NAE=   122 NBE=   122 NFC=     0 NFV=     0
 NROrb=   1203 NOA=   122 NOB=   122 NVA=  1081 NVB=  1081

 **** Warning!!: The largest alpha MO coefficient is  0.47502685D+02

          Differentiating once with respect to magnetic field using GIAOs.
          Electric field/nuclear overlap derivatives assumed to be zero.
 FoFCou: FMM=F IPFlag=           0 FMFlag=      100000 FMFlg1=        2001
         NFxFlg=           0 DoJE=F BraDBF=F KetDBF=T FulRan=T
         wScrn=  0.000000 ICntrl=    6100 IOpCl=  0 I1Cent=           7 NGrid=          61
         NMat0=    1 NMatS0=      1 NMatT0=    0 NMatD0=    1 NMtDS0=    0 NMtDT0=    0
 Symmetry not used in FoFCou.
   1 Symmetry operations used in ECPInt.
 ECPInt:  NShTT=  114960 NPrTT=  355741 LenC2=  114961 LenP2D=  355741.
 LDataN:  DoStor=T MaxTD1= 7 Len=  274
 FoFJK:  IHMeth= 1 ICntrl=    6127 DoSepK=F KAlg= 0 I1Cent=   0 FoldK=F
 IRaf=         1 NMat=   1 IRICut=       1 DoRegI=T DoRafI=F ISym2E= 0.
          There are     3 degrees of freedom in the 1st order CPHF.  IDoFFX=0 NUNeed=     3.
      3 vectors produced by pass  0 Test12= 4.40D-12 3.33D-08 XBig12= 1.58D+02 2.04D+00.
 AX will form     3 AO Fock derivatives at one time.
      3 vectors produced by pass  1 Test12= 4.40D-12 3.33D-08 XBig12= 7.18D-01 1.70D-01.
      3 vectors produced by pass  2 Test12= 4.40D-12 3.33D-08 XBig12= 2.48D-03 7.25D-03.
      3 vectors produced by pass  3 Test12= 4.40D-12 3.33D-08 XBig12= 6.88D-06 6.63D-04.
      3 vectors produced by pass  4 Test12= 4.40D-12 3.33D-08 XBig12= 3.87D-08 7.91D-05.
      3 vectors produced by pass  5 Test12= 4.40D-12 3.33D-08 XBig12= 2.34D-10 6.64D-06.
      3 vectors produced by pass  6 Test12= 4.40D-12 3.33D-08 XBig12= 1.63D-12 4.34D-07.
 InvSVY:  IOpt=1 It=  1 EMax= 3.55D-15
 Solved reduced A of dimension    21 with     3 vectors.
 Calculating GIAO nuclear magnetic shielding tensors.
 SCF GIAO Magnetic shielding tensor (ppm):
      1  P    Isotropic =   297.2444   Anisotropy =    39.5611
   XX=   308.5043   YX=    27.0422   ZX=     5.3321
   XY=     5.7931   YY=   298.1118   ZY=   -14.7693
   XZ=     0.9923   YZ=    41.9786   ZZ=   285.1170
   Eigenvalues:   275.0998   293.0149   323.6185
      2  C    Isotropic =    41.1350   Anisotropy =   204.6446
   XX=    70.1007   YX=    23.9468   ZX=   -85.5510
   XY=    28.5320   YY=   -44.7102   ZY=   -13.4912
   XZ=   -93.6108   YZ=    -7.6533   ZZ=    98.0145
   Eigenvalues:   -51.3091    -2.8506   177.5647
      3  C    Isotropic =    40.8287   Anisotropy =   185.6828
   XX=    27.9030   YX=    29.9931   ZX=  -116.1517
   XY=    15.9899   YY=    35.6597   ZY=     2.0865
   XZ=  -119.2521   YZ=    -9.2070   ZZ=    58.9233
   Eigenvalues:   -77.3055    35.1744   164.6172
      4  C    Isotropic =    52.6387   Anisotropy =   184.4928
   XX=    79.6609   YX=   -23.3758   ZX=   -84.7478
   XY=   -24.7647   YY=   -18.7707   ZY=   -44.0719
   XZ=   -85.6514   YZ=   -45.9890   ZZ=    97.0261
   Eigenvalues:   -58.0533    40.3356   175.6340
      5  C    Isotropic =    50.0165   Anisotropy =   190.5055
   XX=    82.1179   YX=    35.7997   ZX=   -74.3684
   XY=    37.3216   YY=   -47.7454   ZY=     4.1150
   XZ=   -74.9894   YZ=     6.8119   ZZ=   115.6769
   Eigenvalues:   -61.3978    34.4270   177.0201
      6  C    Isotropic =    51.5237   Anisotropy =   185.7057
   XX=    35.6824   YX=    18.6225   ZX=  -112.4097
   XY=    17.7506   YY=    40.6589   ZY=     0.5543
   XZ=  -117.7393   YZ=    -5.2454   ZZ=    78.2298
   Eigenvalues:   -61.6028    40.8464   175.3275
      7  C    Isotropic =    40.7024   Anisotropy =   194.2865
   XX=    60.0972   YX=   -20.3859   ZX=   -88.0960
   XY=   -26.2672   YY=   -28.6412   ZY=   -40.1082
   XZ=   -93.5262   YZ=   -58.7045   ZZ=    90.6511
   Eigenvalues:   -73.9511    25.8314   170.2267
      8  H    Isotropic =    23.7197   Anisotropy =    11.2118
   XX=    24.7653   YX=    -4.8802   ZX=     2.2598
   XY=    -4.1877   YY=    25.3450   ZY=    -3.3908
   XZ=    -0.1793   YZ=    -5.4292   ZZ=    21.0489
   Eigenvalues:    17.8332    22.1317    31.1943
      9  H    Isotropic =    23.9565   Anisotropy =     6.2722
   XX=    23.1337   YX=    -1.2790   ZX=     1.2742
   XY=    -0.9901   YY=    27.8798   ZY=     0.4968
   XZ=     0.4644   YZ=     0.0552   ZZ=    20.8558
   Eigenvalues:    20.5066    23.2249    28.1379
     10  H    Isotropic =    23.8028   Anisotropy =     3.8730
   XX=    24.3035   YX=    -0.0830   ZX=     2.6277
   XY=     0.1823   YY=    24.4451   ZY=     1.1604
   XZ=     2.3956   YZ=     1.0394   ZZ=    22.6599
   Eigenvalues:    20.6395    24.3841    26.3848
     11  H    Isotropic =    23.8527   Anisotropy =     5.7111
   XX=    23.8120   YX=    -2.5064   ZX=     1.8693
   XY=    -2.3910   YY=    25.7641   ZY=    -0.2545
   XZ=     1.5279   YZ=    -0.1643   ZZ=    21.9820
   Eigenvalues:    20.6722    23.2258    27.6601
     12  H    Isotropic =    23.2393   Anisotropy =     8.9541
   XX=    20.7347   YX=    -1.3149   ZX=    -1.3057
   XY=    -1.0879   YY=    27.3459   ZY=     3.1112
   XZ=    -0.8325   YZ=     3.6811   ZZ=    21.6374
   Eigenvalues:    19.7582    20.7510    29.2088
     13  C    Isotropic =    35.0137   Anisotropy =   201.8135
   XX=     8.3499   YX=   -63.2517   ZX=    66.9427
   XY=   -53.4177   YY=    10.4781   ZY=   -63.9898
   XZ=    63.1812   YZ=   -66.4151   ZZ=    86.2129
   Eigenvalues:   -48.9392   -15.5759   169.5560
     14  C    Isotropic =    51.3433   Anisotropy =   181.8039
   XX=    11.8069   YX=   -14.0078   ZX=    82.1972
   XY=    -5.8793   YY=    70.4388   ZY=   -60.9106
   XZ=    97.5192   YZ=   -71.1946   ZZ=    71.7842
   Eigenvalues:   -61.1384    42.6224   172.5459
     15  C    Isotropic =    52.0528   Anisotropy =   184.0999
   XX=    68.6270   YX=   -28.8083   ZX=    41.9161
   XY=   -30.4203   YY=     2.7541   ZY=   -95.0616
   XZ=    46.0531   YZ=   -97.2505   ZZ=    84.7775
   Eigenvalues:   -60.7729    42.1454   174.7861
     16  C    Isotropic =    55.2717   Anisotropy =   180.5967
   XX=    12.5759   YX=   -74.2483   ZX=    47.6015
   XY=   -74.5720   YY=    34.3860   ZY=   -47.7456
   XZ=    47.1878   YZ=   -44.9494   ZZ=   118.8534
   Eigenvalues:   -51.9418    42.0875   175.6695
     17  C    Isotropic =    51.6649   Anisotropy =   185.5277
   XX=     8.3514   YX=   -12.1762   ZX=    89.8774
   XY=   -14.0844   YY=    68.4218   ZY=   -62.8324
   XZ=    92.0242   YZ=   -64.8529   ZZ=    78.2216
   Eigenvalues:   -59.9560    39.6007   175.3500
     18  C    Isotropic =    48.3852   Anisotropy =   187.2997
   XX=    64.5211   YX=   -19.5991   ZX=    47.9651
   XY=   -38.7012   YY=     1.1593   ZY=   -94.0288
   XZ=    47.1020   YZ=   -99.4968   ZZ=    79.4752
   Eigenvalues:   -64.1190    36.0229   173.2517
     19  H    Isotropic =    23.9824   Anisotropy =    12.0666
   XX=    27.4148   YX=     4.3582   ZX=    -4.4480
   XY=     2.9580   YY=    21.6829   ZY=    -1.6471
   XZ=    -4.4463   YZ=    -3.3627   ZZ=    22.8496
   Eigenvalues:    19.6866    20.2338    32.0269
     20  H    Isotropic =    23.9540   Anisotropy =     5.5628
   XX=    24.4604   YX=     2.9357   ZX=    -0.8934
   XY=     2.4498   YY=    25.3838   ZY=     1.3811
   XZ=    -0.9932   YZ=     0.7575   ZZ=    22.0177
   Eigenvalues:    20.6874    23.5120    27.6625
     21  H    Isotropic =    24.0513   Anisotropy =     3.8417
   XX=    24.6512   YX=     0.4594   ZX=    -2.1036
   XY=     0.0158   YY=    24.2694   ZY=     2.0698
   XZ=    -1.8404   YZ=     2.0034   ZZ=    23.2332
   Eigenvalues:    20.8441    24.6973    26.6124
     22  H    Isotropic =    23.8744   Anisotropy =     6.6482
   XX=    26.6671   YX=     2.3075   ZX=    -2.0900
   XY=     2.3517   YY=    23.6206   ZY=     0.3397
   XZ=    -1.6494   YZ=    -0.1856   ZZ=    21.3354
   Eigenvalues:    20.4960    22.8206    28.3065
     23  H    Isotropic =    23.7140   Anisotropy =    12.0768
   XX=    24.8501   YX=     5.4666   ZX=     0.1242
   XY=     5.7988   YY=    27.0942   ZY=     0.4043
   XZ=     1.1682   YZ=     0.5794   ZZ=    19.1977
   Eigenvalues:    19.1165    20.2603    31.7652
     24  C    Isotropic =   142.3821   Anisotropy =    32.2739
   XX=   146.4798   YX=    -3.7857   ZX=    10.8786
   XY=    -2.7426   YY=   118.8478   ZY=     0.5050
   XZ=    -0.7644   YZ=    11.8130   ZZ=   161.8186
   Eigenvalues:   117.4404   145.8078   163.8980
     25  C    Isotropic =   139.3004   Anisotropy =    18.8350
   XX=   136.6573   YX=    -5.5135   ZX=     0.4170
   XY=   -13.1232   YY=   141.4565   ZY=     5.2095
   XZ=   -17.6061   YZ=    -4.1200   ZZ=   139.7873
   Eigenvalues:   126.0451   139.9990   151.8571
     26  C    Isotropic =    44.5567   Anisotropy =   167.9567
   XX=    25.9653   YX=    25.7280   ZX=   -24.4869
   XY=    51.2398   YY=   -21.3627   ZY=    53.1370
   XZ=   -72.9351   YZ=    54.2355   ZZ=   129.0674
   Eigenvalues:   -68.4321    45.5743   156.5279
     27  C    Isotropic =    39.1933   Anisotropy =   177.8728
   XX=    30.1876   YX=    29.2654   ZX=   -18.0093
   XY=    10.7746   YY=   -44.2745   ZY=    48.5835
   XZ=    19.1007   YZ=    95.3662   ZZ=   131.6668
   Eigenvalues:   -73.3413    33.1461   157.7752
     28  H    Isotropic =    25.2150   Anisotropy =     1.5690
   XX=    25.6074   YX=     0.5696   ZX=    -0.9686
   XY=     0.1760   YY=    24.0482   ZY=    -2.2828
   XZ=     0.5090   YZ=     1.3096   ZZ=    25.9894
   Eigenvalues:    23.8762    25.5079    26.2610
     29  C    Isotropic =   141.9295   Anisotropy =    11.6278
   XX=   142.3068   YX=    -7.1580   ZX=    -4.0763
   XY=     4.5995   YY=   140.5866   ZY=     1.9019
   XZ=    14.3167   YZ=    10.5834   ZZ=   142.8952
   Eigenvalues:   133.2375   142.8696   149.6814
     30  H    Isotropic =    28.5061   Anisotropy =     7.4461
   XX=    32.3803   YX=     1.1956   ZX=    -1.7486
   XY=     2.8140   YY=    24.9175   ZY=    -0.0551
   XZ=    -1.2753   YZ=    -2.2153   ZZ=    28.2207
   Eigenvalues:    24.2643    27.7839    33.4702
     31  C    Isotropic =   131.9879   Anisotropy =    39.1991
   XX=   144.6967   YX=   -18.9864   ZX=   -15.8705
   XY=    -8.9979   YY=   141.5691   ZY=    -6.6257
   XZ=    -4.3617   YZ=     3.4545   ZZ=   109.6979
   Eigenvalues:   106.1341   131.7090   158.1206
     32  H    Isotropic =    30.8414   Anisotropy =     9.7659
   XX=    28.9384   YX=    -6.7959   ZX=     3.1193
   XY=    -4.0194   YY=    33.8296   ZY=     1.2318
   XZ=     1.1039   YZ=     0.3332   ZZ=    29.7562
   Eigenvalues:    24.5223    30.6500    37.3520
     33  H    Isotropic =    30.0960   Anisotropy =    11.4566
   XX=    27.0280   YX=    -1.5914   ZX=    -1.8285
   XY=    -0.2569   YY=    27.1419   ZY=     2.5237
   XZ=    -1.8764   YZ=     4.5360   ZZ=    36.1181
   Eigenvalues:    25.8337    26.7205    37.7337
     34  C    Isotropic =   141.2786   Anisotropy =    35.0463
   XX=   144.2586   YX=    -5.0427   ZX=   -16.4945
   XY=    -3.3890   YY=   120.4268   ZY=    -4.7017
   XZ=    -4.6662   YZ=    -0.0376   ZZ=   159.1504
   Eigenvalues:   119.2304   139.9626   164.6428
     35  P    Isotropic =   294.2357   Anisotropy =    34.1931
   XX=   309.8312   YX=    19.5545   ZX=    -1.3535
   XY=     9.6666   YY=   286.7600   ZY=    10.0619
   XZ=     8.7990   YZ=   -33.6626   ZZ=   286.1157
   Eigenvalues:   270.2136   295.4623   317.0310
     36  C    Isotropic =    40.5570   Anisotropy =   206.1313
   XX=    91.1682   YX=    15.5625   ZX=    88.0893
   XY=    21.8128   YY=   -46.1262   ZY=    -1.7306
   XZ=    98.3120   YZ=    -4.7409   ZZ=    76.6289
   Eigenvalues:   -52.0495    -4.2573   177.9778
     37  C    Isotropic =    40.6497   Anisotropy =   185.0755
   XX=    51.8584   YX=    19.5734   ZX=   118.4917
   XY=     8.6926   YY=    33.9602   ZY=    -6.6879
   XZ=   120.0773   YZ=    -0.0667   ZZ=    36.1303
   Eigenvalues:   -76.8786    34.7942   164.0333
     38  C    Isotropic =    52.1241   Anisotropy =   185.3765
   XX=    95.6657   YX=   -27.1210   ZX=    85.4097
   XY=   -28.3706   YY=   -23.4278   ZY=    38.4443
   XZ=    85.3850   YZ=    39.5117   ZZ=    84.1343
   Eigenvalues:   -59.0778    39.7416   175.7084
     39  C    Isotropic =    49.9099   Anisotropy =   190.5523
   XX=   100.3738   YX=    26.9270   ZX=    77.6782
   XY=    27.9561   YY=   -47.9935   ZY=   -19.0509
   XZ=    78.1487   YZ=   -20.3076   ZZ=    97.3493
   Eigenvalues:   -61.5504    34.3353   176.9447
     40  C    Isotropic =    51.2550   Anisotropy =   186.1041
   XX=    61.3727   YX=    11.4306   ZX=   116.2350
   XY=    10.1586   YY=    39.5255   ZY=    -6.7379
   XZ=   119.6695   YZ=    -1.5912   ZZ=    52.8667
   Eigenvalues:   -61.9945    40.4350   175.3244
     41  C    Isotropic =    40.9371   Anisotropy =   191.1702
   XX=    77.8748   YX=   -23.9995   ZX=    89.8785
   XY=   -31.2617   YY=   -31.4718   ZY=    34.1085
   XZ=    91.5482   YZ=    49.7335   ZZ=    76.4081
   Eigenvalues:   -72.7917    27.2190   168.3839
     42  H    Isotropic =    23.6967   Anisotropy =    11.0032
   XX=    24.3470   YX=    -4.5832   ZX=    -2.7830
   XY=    -3.7692   YY=    24.9644   ZY=     3.7543
   XZ=    -0.7597   YZ=     5.0568   ZZ=    21.7786
   Eigenvalues:    18.4526    21.6053    31.0322
     43  H    Isotropic =    23.9111   Anisotropy =     6.3947
   XX=    22.6554   YX=    -1.1944   ZX=    -1.4696
   XY=    -0.8412   YY=    27.9479   ZY=     0.0168
   XZ=    -1.0005   YZ=     0.5500   ZZ=    21.1301
   Eigenvalues:    20.4325    23.1266    28.1742
     44  H    Isotropic =    23.7476   Anisotropy =     3.9160
   XX=    23.6472   YX=     0.0636   ZX=    -2.7730
   XY=     0.2877   YY=    24.5373   ZY=    -1.0790
   XZ=    -2.5894   YZ=    -0.7400   ZZ=    23.0583
   Eigenvalues:    20.5742    24.3103    26.3583
     45  H    Isotropic =    23.7278   Anisotropy =     5.5900
   XX=    23.1737   YX=    -2.2348   ZX=    -2.0747
   XY=    -2.1071   YY=    25.6899   ZY=     0.7251
   XZ=    -1.7098   YZ=     0.7332   ZZ=    22.3198
   Eigenvalues:    20.6483    23.0806    27.4544
     46  H    Isotropic =    23.0305   Anisotropy =     8.4804
   XX=    20.8035   YX=    -0.8769   ZX=     0.9775
   XY=    -0.8471   YY=    27.5434   ZY=    -2.5753
   XZ=     1.0727   YZ=    -2.9165   ZZ=    20.7445
   Eigenvalues:    19.4054    21.0019    28.6840
     47  C    Isotropic =    34.6580   Anisotropy =   203.2439
   XX=     3.3847   YX=   -61.7416   ZX=   -69.1191
   XY=   -52.5850   YY=    13.7246   ZY=    66.0954
   XZ=   -62.4548   YZ=    65.9583   ZZ=    86.8649
   Eigenvalues:   -49.1103   -17.0696   170.1540
     48  C    Isotropic =    50.8610   Anisotropy =   180.4810
   XX=    15.5902   YX=    -9.1120   ZX=   -80.7915
   XY=    -2.4928   YY=    67.6102   ZY=    64.4711
   XZ=   -94.4833   YZ=    76.2288   ZZ=    69.3827
   Eigenvalues:   -61.6357    43.0371   171.1817
     49  C    Isotropic =    52.0542   Anisotropy =   183.8394
   XX=    66.7560   YX=   -33.8314   ZX=   -37.4017
   XY=   -35.1479   YY=     2.4685   ZY=    94.4625
   XZ=   -41.6837   YZ=    97.4146   ZZ=    86.9382
   Eigenvalues:   -60.5832    42.1321   174.6139
     50  C    Isotropic =    55.0417   Anisotropy =   181.0409
   XX=     5.5949   YX=   -72.9696   ZX=   -48.9719
   XY=   -72.5698   YY=    40.1005   ZY=    47.5018
   XZ=   -47.7620   YZ=    44.5059   ZZ=   119.4297
   Eigenvalues:   -52.5587    41.9482   175.7356
     51  C    Isotropic =    51.5963   Anisotropy =   185.8086
   XX=    10.6856   YX=    -8.1582   ZX=   -88.0989
   XY=    -9.8533   YY=    66.3899   ZY=    67.5538
   XZ=   -90.0884   YZ=    69.4626   ZZ=    77.7135
   Eigenvalues:   -60.2518    39.5721   175.4687
     52  C    Isotropic =    47.9416   Anisotropy =   187.1230
   XX=    63.8649   YX=   -23.5182   ZX=   -42.8218
   XY=   -44.4561   YY=    -0.6753   ZY=    93.2568
   XZ=   -46.0900   YZ=    98.3052   ZZ=    80.6352
   Eigenvalues:   -64.2002    35.3347   172.6902
     53  H    Isotropic =    23.9363   Anisotropy =    11.9641
   XX=    27.4191   YX=     3.9422   ZX=     4.9244
   XY=     2.5922   YY=    21.0074   ZY=     1.4061
   XZ=     4.6719   YZ=     2.3963   ZZ=    23.3825
   Eigenvalues:    19.6232    20.2734    31.9124
     54  H    Isotropic =    23.9366   Anisotropy =     5.6227
   XX=    24.6967   YX=     3.0507   ZX=     1.0191
   XY=     2.5203   YY=    25.0847   ZY=    -1.3312
   XZ=     0.9779   YZ=    -0.8222   ZZ=    22.0284
   Eigenvalues:    20.5976    23.5271    27.6851
     55  H    Isotropic =    24.0280   Anisotropy =     3.9124
   XX=    24.4871   YX=     0.4658   ZX=     2.0566
   XY=     0.0640   YY=    24.3266   ZY=    -2.1749
   XZ=     1.8614   YZ=    -2.1018   ZZ=    23.2703
   Eigenvalues:    20.7706    24.6771    26.6362
     56  H    Isotropic =    23.8439   Anisotropy =     6.6773
   XX=    26.6701   YX=     2.1468   ZX=     2.2842
   XY=     2.2300   YY=    23.4135   ZY=    -0.4177
   XZ=     2.0145   YZ=     0.1980   ZZ=    21.4480
   Eigenvalues:    20.3872    22.8490    28.2954
     57  H    Isotropic =    23.6740   Anisotropy =    12.1952
   XX=    24.9622   YX=     5.7408   ZX=     0.4290
   XY=     6.2529   YY=    26.5442   ZY=    -0.2341
   XZ=    -0.1892   YZ=    -0.4036   ZZ=    19.5155
   Eigenvalues:    19.2938    19.9241    31.8041
     58  H    Isotropic =    29.5012   Anisotropy =     8.0352
   XX=    29.6526   YX=    -4.9222   ZX=    -0.4258
   XY=     0.2474   YY=    31.9759   ZY=     2.4383
   XZ=    -3.0456   YZ=     3.3702   ZZ=    26.8753
   Eigenvalues:    25.4407    28.2049    34.8581
     59  H    Isotropic =    25.7305   Anisotropy =     5.1418
   XX=    25.1926   YX=    -2.8280   ZX=    -1.2642
   XY=     0.7439   YY=    23.8918   ZY=    -1.6117
   XZ=    -2.7760   YZ=     1.2150   ZZ=    28.1072
   Eigenvalues:    22.9905    25.0428    29.1584
     60  H    Isotropic =    28.1168   Anisotropy =     7.8645
   XX=    29.6869   YX=     2.6415   ZX=     1.8991
   XY=     5.5389   YY=    26.6751   ZY=     0.5371
   XZ=     1.6327   YZ=     1.7370   ZZ=    27.9884
   Eigenvalues:    23.8207    27.1698    33.3598
     61  H    Isotropic =    29.0139   Anisotropy =     7.7648
   XX=    30.8629   YX=    -4.6268   ZX=    -0.4394
   XY=    -0.2404   YY=    31.1584   ZY=    -1.7150
   XZ=     2.5625   YZ=    -3.3832   ZZ=    25.0205
   Eigenvalues:    24.0949    28.7565    34.1904
 End of Minotr F.D. properties file   721 does not exist.
 End of Minotr F.D. properties file   722 does not exist.
 End of Minotr F.D. properties file   788 does not exist.

 **********************************************************************

            Population analysis using the SCF density.

 **********************************************************************

 Orbital symmetries:
       Occupied  (A) (A) (A) (A) (A) (A) (A) (A) (A) (A) (A) (A)
                 (A) (A) (A) (A) (A) (A) (A) (A) (A) (A) (A) (A)
                 (A) (A) (A) (A) (A) (A) (A) (A) (A) (A) (A) (A)
                 (A) (A) (A) (A) (A) (A) (A) (A) (A) (A) (A) (A)
                 (A) (A) (A) (A) (A) (A) (A) (A) (A) (A) (A) (A)
                 (A) (A) (A) (A) (A) (A) (A) (A) (A) (A) (A) (A)
                 (A) (A) (A) (A) (A) (A) (A) (A) (A) (A) (A) (A)
                 (A) (A) (A) (A) (A) (A) (A) (A) (A) (A) (A) (A)
                 (A) (A) (A) (A) (A) (A) (A) (A) (A) (A) (A) (A)
                 (A) (A) (A) (A) (A) (A) (A) (A) (A) (A) (A) (A)
                 (A) (A)
       Virtual   (A) (A) (A) (A) (A) (A) (A) (A) (A) (A) (A) (A)
                 (A) (A) (A) (A) (A) (A) (A) (A) (A) (A) (A) (A)
                 (A) (A) (A) (A) (A) (A) (A) (A) (A) (A) (A) (A)
                 (A) (A) (A) (A) (A) (A) (A) (A) (A) (A) (A) (A)
                 (A) (A) (A) (A) (A) (A) (A) (A) (A) (A) (A) (A)
                 (A) (A) (A) (A) (A) (A) (A) (A) (A) (A) (A) (A)
                 (A) (A) (A) (A) (A) (A) (A) (A) (A) (A) (A) (A)
                 (A) (A) (A) (A) (A) (A) (A) (A) (A) (A) (A) (A)
                 (A) (A) (A) (A) (A) (A) (A) (A) (A) (A) (A) (A)
                 (A) (A) (A) (A) (A) (A) (A) (A) (A) (A) (A) (A)
                 (A) (A) (A) (A) (A) (A) (A) (A) (A) (A) (A) (A)
                 (A) (A) (A) (A) (A) (A) (A) (A) (A) (A) (A) (A)
                 (A) (A) (A) (A) (A) (A) (A) (A) (A) (A) (A) (A)
                 (A) (A) (A) (A) (A) (A) (A) (A) (A) (A) (A) (A)
                 (A) (A) (A) (A) (A) (A) (A) (A) (A) (A) (A) (A)
                 (A) (A) (A) (A) (A) (A) (A) (A) (A) (A) (A) (A)
                 (A) (A) (A) (A) (A) (A) (A) (A) (A) (A) (A) (A)
                 (A) (A) (A) (A) (A) (A) (A) (A) (A) (A) (A) (A)
                 (A) (A) (A) (A) (A) (A) (A) (A) (A) (A) (A) (A)
                 (A) (A) (A) (A) (A) (A) (A) (A) (A) (A) (A) (A)
                 (A) (A) (A) (A) (A) (A) (A) (A) (A) (A) (A) (A)
                 (A) (A) (A) (A) (A) (A) (A) (A) (A) (A) (A) (A)
                 (A) (A) (A) (A) (A) (A) (A) (A) (A) (A) (A) (A)
                 (A) (A) (A) (A) (A) (A) (A) (A) (A) (A) (A) (A)
                 (A) (A) (A) (A) (A) (A) (A) (A) (A) (A) (A) (A)
                 (A) (A) (A) (A) (A) (A) (A) (A) (A) (A) (A) (A)
                 (A) (A) (A) (A) (A) (A) (A) (A) (A) (A) (A) (A)
                 (A) (A) (A) (A) (A) (A) (A) (A) (A) (A) (A) (A)
                 (A) (A) (A) (A) (A) (A) (A) (A) (A) (A) (A) (A)
                 (A) (A) (A) (A) (A) (A) (A) (A) (A) (A) (A) (A)
                 (A) (A) (A) (A) (A) (A) (A) (A) (A) (A) (A) (A)
                 (A) (A) (A) (A) (A) (A) (A) (A) (A) (A) (A) (A)
                 (A) (A) (A) (A) (A) (A) (A) (A) (A) (A) (A) (A)
                 (A) (A) (A) (A) (A) (A) (A) (A) (A) (A) (A) (A)
                 (A) (A) (A) (A) (A) (A) (A) (A) (A) (A) (A) (A)
                 (A) (A) (A) (A) (A) (A) (A) (A) (A) (A) (A) (A)
                 (A) (A) (A) (A) (A) (A) (A) (A) (A) (A) (A) (A)
                 (A) (A) (A) (A) (A) (A) (A) (A) (A) (A) (A) (A)
                 (A) (A) (A) (A) (A) (A) (A) (A) (A) (A) (A) (A)
                 (A) (A) (A) (A) (A) (A) (A) (A) (A) (A) (A) (A)
                 (A) (A) (A) (A) (A) (A) (A) (A) (A) (A) (A) (A)
                 (A) (A) (A) (A) (A) (A) (A) (A) (A) (A) (A) (A)
                 (A) (A) (A) (A) (A) (A) (A) (A) (A) (A) (A) (A)
                 (A) (A) (A) (A) (A) (A) (A) (A) (A) (A) (A) (A)
                 (A) (A) (A) (A) (A) (A) (A) (A) (A) (A) (A) (A)
                 (A) (A) (A) (A) (A) (A) (A) (A) (A) (A) (A) (A)
                 (A) (A) (A) (A) (A) (A) (A) (A) (A) (A) (A) (A)
                 (A) (A) (A) (A) (A) (A) (A) (A) (A) (A) (A) (A)
                 (A) (A) (A) (A) (A) (A) (A) (A) (A) (A) (A) (A)
                 (A) (A) (A) (A) (A) (A) (A) (A) (A) (A) (A) (A)
                 (A) (A) (A) (A) (A) (A) (A) (A) (A) (A) (A) (A)
                 (A) (A) (A) (A) (A) (A) (A) (A) (A) (A) (A) (A)
                 (A) (A) (A) (A) (A) (A) (A) (A) (A) (A) (A) (A)
                 (A) (A) (A) (A) (A) (A) (A) (A) (A) (A) (A) (A)
                 (A) (A) (A) (A) (A) (A) (A) (A) (A) (A) (A) (A)
                 (A) (A) (A) (A) (A) (A) (A) (A) (A) (A) (A) (A)
                 (A) (A) (A) (A) (A) (A) (A) (A) (A) (A) (A) (A)
                 (A) (A) (A) (A) (A) (A) (A) (A) (A) (A) (A) (A)
                 (A) (A) (A) (A) (A) (A) (A) (A) (A) (A) (A) (A)
                 (A) (A) (A) (A) (A) (A) (A) (A) (A) (A) (A) (A)
                 (A) (A) (A) (A) (A) (A) (A) (A) (A) (A) (A) (A)
                 (A) (A) (A) (A) (A) (A) (A) (A) (A) (A) (A) (A)
                 (A) (A) (A) (A) (A) (A) (A) (A) (A) (A) (A) (A)
                 (A) (A) (A) (A) (A) (A) (A) (A) (A) (A) (A) (A)
                 (A) (A) (A) (A) (A) (A) (A) (A) (A) (A) (A) (A)
                 (A) (A) (A) (A) (A) (A) (A) (A) (A) (A) (A) (A)
                 (A) (A) (A) (A) (A) (A) (A) (A) (A) (A) (A) (A)
                 (A) (A) (A) (A) (A) (A) (A) (A) (A) (A) (A) (A)
                 (A) (A) (A) (A) (A) (A) (A) (A) (A) (A) (A) (A)
                 (A) (A) (A) (A) (A) (A) (A) (A) (A) (A) (A) (A)
                 (A) (A) (A) (A) (A) (A) (A) (A) (A) (A) (A) (A)
                 (A) (A) (A) (A) (A) (A) (A) (A) (A) (A) (A) (A)
                 (A) (A) (A) (A) (A) (A) (A) (A) (A) (A) (A) (A)
                 (A) (A) (A) (A) (A) (A) (A) (A) (A) (A) (A) (A)
                 (A) (A) (A) (A) (A) (A) (A) (A) (A) (A) (A) (A)
                 (A) (A) (A) (A) (A) (A) (A) (A) (A) (A) (A) (A)
                 (A) (A) (A) (A) (A) (A) (A) (A) (A) (A) (A) (A)
                 (A) (A) (A) (A) (A) (A) (A) (A) (A) (A) (A) (A)
                 (A) (A) (A) (A) (A) (A) (A) (A) (A) (A) (A) (A)
                 (A) (A) (A) (A) (A) (A) (A) (A) (A) (A) (A) (A)
                 (A) (A) (A) (A) (A) (A) (A) (A) (A) (A) (A) (A)
                 (A) (A) (A) (A) (A) (A) (A) (A) (A) (A) (A) (A)
                 (A) (A) (A) (A) (A) (A) (A) (A) (A) (A) (A) (A)
                 (A) (A) (A) (A) (A) (A) (A) (A) (A) (A) (A) (A)
                 (A) (A) (A) (A) (A) (A) (A) (A) (A) (A) (A) (A)
                 (A) (A) (A) (A) (A) (A) (A) (A) (A) (A) (A) (A)
                 (A) (A) (A) (A) (A) (A) (A) (A) (A) (A) (A) (A)
                 (A) (A) (A) (A) (A) (A) (A) (A) (A) (A) (A) (A)
                 (A) (A) (A) (A) (A) (A) (A) (A) (A) (A) (A) (A)
                 (A) (A) (A) (A) (A) (A) (A) (A) (A) (A) (A) (A)
                 (A)
 The electronic state is 1-A.
 Alpha  occ. eigenvalues --  -77.19248 -77.19248 -10.24436 -10.24299 -10.24106
 Alpha  occ. eigenvalues --  -10.24105 -10.24080 -10.23976 -10.23952 -10.23898
 Alpha  occ. eigenvalues --  -10.23861 -10.23832 -10.23772 -10.23763 -10.23717
 Alpha  occ. eigenvalues --  -10.23678 -10.23654 -10.23572 -10.23525 -10.23485
 Alpha  occ. eigenvalues --  -10.23132 -10.23126 -10.23070 -10.23061 -10.23060
 Alpha  occ. eigenvalues --  -10.23039 -10.22995 -10.22960 -10.22849 -10.22811
 Alpha  occ. eigenvalues --  -10.22480 -10.22456 -10.22263  -6.58934  -6.58930
 Alpha  occ. eigenvalues --   -4.72528  -4.72524  -4.72516  -4.72510  -4.72054
 Alpha  occ. eigenvalues --   -4.72051  -0.91449  -0.88397  -0.88240  -0.87591
 Alpha  occ. eigenvalues --   -0.87556  -0.80073  -0.78751  -0.77310  -0.77168
 Alpha  occ. eigenvalues --   -0.76977  -0.76753  -0.76478  -0.76430  -0.76298
 Alpha  occ. eigenvalues --   -0.74182  -0.72352  -0.66633  -0.65087  -0.62768
 Alpha  occ. eigenvalues --   -0.62607  -0.62502  -0.62151  -0.61552  -0.61448
 Alpha  occ. eigenvalues --   -0.60246  -0.59102  -0.56814  -0.56336  -0.53901
 Alpha  occ. eigenvalues --   -0.53314  -0.52839  -0.52675  -0.51647  -0.51010
 Alpha  occ. eigenvalues --   -0.48262  -0.47164  -0.47033  -0.46850  -0.46662
 Alpha  occ. eigenvalues --   -0.46419  -0.46218  -0.45947  -0.45054  -0.43935
 Alpha  occ. eigenvalues --   -0.43826  -0.43656  -0.43424  -0.43257  -0.42351
 Alpha  occ. eigenvalues --   -0.41540  -0.40906  -0.39775  -0.39111  -0.38941
 Alpha  occ. eigenvalues --   -0.38423  -0.38273  -0.38142  -0.37554  -0.36775
 Alpha  occ. eigenvalues --   -0.36353  -0.36208  -0.36049  -0.35868  -0.35614
 Alpha  occ. eigenvalues --   -0.35574  -0.34275  -0.33221  -0.33050  -0.32682
 Alpha  occ. eigenvalues --   -0.30263  -0.28786  -0.27949  -0.27410  -0.27248
 Alpha  occ. eigenvalues --   -0.27060  -0.26981  -0.26486  -0.26434  -0.25792
 Alpha  occ. eigenvalues --   -0.22123  -0.19012
 Alpha virt. eigenvalues --   -0.03206  -0.02804  -0.02085  -0.01948  -0.01658
 Alpha virt. eigenvalues --   -0.01414  -0.00821  -0.00495   0.00893   0.03969
 Alpha virt. eigenvalues --    0.04587   0.05315   0.05815   0.05904   0.06501
 Alpha virt. eigenvalues --    0.06942   0.07645   0.07772   0.07899   0.08407
 Alpha virt. eigenvalues --    0.08655   0.08785   0.09315   0.09610   0.09826
 Alpha virt. eigenvalues --    0.10196   0.10422   0.10901   0.11253   0.11360
 Alpha virt. eigenvalues --    0.11505   0.11877   0.11952   0.12105   0.12447
 Alpha virt. eigenvalues --    0.12828   0.13150   0.13224   0.13404   0.13859
 Alpha virt. eigenvalues --    0.14064   0.14499   0.15214   0.15620   0.16046
 Alpha virt. eigenvalues --    0.16736   0.16952   0.17261   0.17476   0.18028
 Alpha virt. eigenvalues --    0.18386   0.18527   0.19062   0.19427   0.19458
 Alpha virt. eigenvalues --    0.19998   0.20252   0.20978   0.21020   0.21318
 Alpha virt. eigenvalues --    0.21742   0.21893   0.22199   0.22343   0.22709
 Alpha virt. eigenvalues --    0.22914   0.23376   0.23465   0.23709   0.24007
 Alpha virt. eigenvalues --    0.24411   0.24494   0.24684   0.24834   0.25025
 Alpha virt. eigenvalues --    0.25132   0.25206   0.25595   0.25786   0.25993
 Alpha virt. eigenvalues --    0.26355   0.26419   0.27018   0.27116   0.27529
 Alpha virt. eigenvalues --    0.27868   0.28204   0.28589   0.28969   0.29425
 Alpha virt. eigenvalues --    0.29450   0.29816   0.30051   0.30275   0.30793
 Alpha virt. eigenvalues --    0.30920   0.31679   0.31918   0.32704   0.32859
 Alpha virt. eigenvalues --    0.33427   0.33778   0.34042   0.34413   0.34730
 Alpha virt. eigenvalues --    0.35113   0.35373   0.35492   0.35641   0.36097
 Alpha virt. eigenvalues --    0.36398   0.36588   0.36743   0.36914   0.37365
 Alpha virt. eigenvalues --    0.37448   0.37891   0.38150   0.38516   0.38769
 Alpha virt. eigenvalues --    0.38885   0.39332   0.39650   0.39827   0.40131
 Alpha virt. eigenvalues --    0.40276   0.40376   0.40681   0.41098   0.41401
 Alpha virt. eigenvalues --    0.41558   0.41826   0.41905   0.42344   0.42581
 Alpha virt. eigenvalues --    0.42695   0.42968   0.43220   0.43276   0.43535
 Alpha virt. eigenvalues --    0.43742   0.43905   0.44163   0.44515   0.44569
 Alpha virt. eigenvalues --    0.44957   0.45085   0.45540   0.45582   0.45921
 Alpha virt. eigenvalues --    0.46202   0.46452   0.46916   0.47282   0.47437
 Alpha virt. eigenvalues --    0.47699   0.47799   0.47946   0.48280   0.48682
 Alpha virt. eigenvalues --    0.48970   0.49123   0.49440   0.49723   0.49732
 Alpha virt. eigenvalues --    0.49924   0.50119   0.50505   0.50620   0.51057
 Alpha virt. eigenvalues --    0.51194   0.51523   0.52026   0.52281   0.52819
 Alpha virt. eigenvalues --    0.53124   0.53277   0.53670   0.54019   0.54274
 Alpha virt. eigenvalues --    0.54691   0.54771   0.55164   0.55266   0.56060
 Alpha virt. eigenvalues --    0.56461   0.56787   0.57160   0.57434   0.58358
 Alpha virt. eigenvalues --    0.58786   0.59419   0.59835   0.60424   0.60738
 Alpha virt. eigenvalues --    0.61037   0.61405   0.61435   0.61841   0.62536
 Alpha virt. eigenvalues --    0.63224   0.64104   0.64468   0.64986   0.65467
 Alpha virt. eigenvalues --    0.65718   0.65872   0.66368   0.66803   0.67129
 Alpha virt. eigenvalues --    0.67632   0.68005   0.68220   0.68484   0.68750
 Alpha virt. eigenvalues --    0.69011   0.69680   0.69831   0.70095   0.70719
 Alpha virt. eigenvalues --    0.70997   0.71214   0.71512   0.71912   0.72416
 Alpha virt. eigenvalues --    0.72679   0.72991   0.73505   0.73643   0.73987
 Alpha virt. eigenvalues --    0.74418   0.74870   0.75102   0.75625   0.75672
 Alpha virt. eigenvalues --    0.75910   0.76386   0.77183   0.77509   0.77719
 Alpha virt. eigenvalues --    0.78140   0.78318   0.78887   0.79345   0.79499
 Alpha virt. eigenvalues --    0.79534   0.80208   0.80561   0.80831   0.81349
 Alpha virt. eigenvalues --    0.81470   0.81775   0.82027   0.82568   0.83160
 Alpha virt. eigenvalues --    0.83752   0.84274   0.84921   0.85237   0.85774
 Alpha virt. eigenvalues --    0.86372   0.86643   0.87491   0.87909   0.88497
 Alpha virt. eigenvalues --    0.88790   0.89314   0.89755   0.89824   0.90323
 Alpha virt. eigenvalues --    0.90602   0.90805   0.91105   0.91978   0.92165
 Alpha virt. eigenvalues --    0.92917   0.93135   0.94148   0.94536   0.94868
 Alpha virt. eigenvalues --    0.95236   0.95733   0.95806   0.96047   0.96771
 Alpha virt. eigenvalues --    0.97455   0.97747   0.99366   0.99801   1.00640
 Alpha virt. eigenvalues --    1.01493   1.02129   1.02494   1.03035   1.03137
 Alpha virt. eigenvalues --    1.03384   1.04016   1.04088   1.04875   1.05370
 Alpha virt. eigenvalues --    1.06012   1.06484   1.07014   1.07448   1.07947
 Alpha virt. eigenvalues --    1.08050   1.08901   1.09204   1.09562   1.10290
 Alpha virt. eigenvalues --    1.10523   1.10698   1.11145   1.11885   1.12465
 Alpha virt. eigenvalues --    1.13359   1.13615   1.14054   1.14443   1.14904
 Alpha virt. eigenvalues --    1.15649   1.15976   1.16331   1.17288   1.17664
 Alpha virt. eigenvalues --    1.18213   1.18891   1.19379   1.19845   1.20305
 Alpha virt. eigenvalues --    1.20793   1.21011   1.21262   1.21628   1.22204
 Alpha virt. eigenvalues --    1.22509   1.23188   1.23596   1.23767   1.23886
 Alpha virt. eigenvalues --    1.24171   1.24530   1.24679   1.25157   1.25666
 Alpha virt. eigenvalues --    1.25946   1.26412   1.26532   1.26598   1.27352
 Alpha virt. eigenvalues --    1.27636   1.28161   1.28545   1.28820   1.29306
 Alpha virt. eigenvalues --    1.29694   1.29918   1.30042   1.30383   1.30917
 Alpha virt. eigenvalues --    1.31137   1.31565   1.31894   1.32179   1.32744
 Alpha virt. eigenvalues --    1.33116   1.33526   1.33956   1.34176   1.34364
 Alpha virt. eigenvalues --    1.34411   1.36031   1.36274   1.36598   1.37389
 Alpha virt. eigenvalues --    1.37885   1.38757   1.39337   1.40441   1.40898
 Alpha virt. eigenvalues --    1.41421   1.42113   1.42739   1.42991   1.43252
 Alpha virt. eigenvalues --    1.43853   1.44417   1.45854   1.46140   1.46391
 Alpha virt. eigenvalues --    1.46652   1.47126   1.47766   1.48229   1.48581
 Alpha virt. eigenvalues --    1.48804   1.49466   1.49987   1.50084   1.50445
 Alpha virt. eigenvalues --    1.50892   1.51504   1.51964   1.52508   1.53049
 Alpha virt. eigenvalues --    1.53408   1.53933   1.54542   1.54834   1.55195
 Alpha virt. eigenvalues --    1.55282   1.55474   1.56173   1.56794   1.57039
 Alpha virt. eigenvalues --    1.57629   1.58002   1.58426   1.59043   1.59304
 Alpha virt. eigenvalues --    1.60102   1.60173   1.61005   1.61816   1.62117
 Alpha virt. eigenvalues --    1.63041   1.63427   1.63661   1.64050   1.64418
 Alpha virt. eigenvalues --    1.65241   1.65650   1.65969   1.66419   1.66834
 Alpha virt. eigenvalues --    1.66976   1.67575   1.67994   1.68307   1.68412
 Alpha virt. eigenvalues --    1.68897   1.69422   1.69622   1.70453   1.70648
 Alpha virt. eigenvalues --    1.70860   1.71257   1.71455   1.71873   1.72114
 Alpha virt. eigenvalues --    1.72552   1.72771   1.72913   1.73084   1.73187
 Alpha virt. eigenvalues --    1.73413   1.74066   1.74607   1.74782   1.75127
 Alpha virt. eigenvalues --    1.75710   1.75998   1.76221   1.77042   1.78049
 Alpha virt. eigenvalues --    1.78405   1.78839   1.78856   1.80371   1.80969
 Alpha virt. eigenvalues --    1.82031   1.82404   1.82457   1.82898   1.83595
 Alpha virt. eigenvalues --    1.84579   1.85200   1.85349   1.86245   1.86711
 Alpha virt. eigenvalues --    1.87293   1.87459   1.87914   1.88395   1.88974
 Alpha virt. eigenvalues --    1.90087   1.91023   1.91484   1.92125   1.92332
 Alpha virt. eigenvalues --    1.92875   1.93445   1.93729   1.94377   1.95242
 Alpha virt. eigenvalues --    1.96022   1.96485   1.96758   1.97705   1.98512
 Alpha virt. eigenvalues --    1.99366   2.00367   2.01337   2.01914   2.02693
 Alpha virt. eigenvalues --    2.03197   2.03558   2.04015   2.04422   2.05066
 Alpha virt. eigenvalues --    2.05250   2.06003   2.06555   2.06707   2.07074
 Alpha virt. eigenvalues --    2.07853   2.08216   2.09040   2.09533   2.10033
 Alpha virt. eigenvalues --    2.10454   2.10798   2.11206   2.11743   2.12110
 Alpha virt. eigenvalues --    2.12198   2.12593   2.13189   2.13812   2.14313
 Alpha virt. eigenvalues --    2.14558   2.15430   2.15493   2.16707   2.16987
 Alpha virt. eigenvalues --    2.17445   2.17731   2.18372   2.18916   2.19422
 Alpha virt. eigenvalues --    2.19777   2.20033   2.20252   2.20913   2.21824
 Alpha virt. eigenvalues --    2.22199   2.22678   2.23688   2.24060   2.25066
 Alpha virt. eigenvalues --    2.25585   2.26318   2.26746   2.27396   2.27975
 Alpha virt. eigenvalues --    2.29155   2.29573   2.30483   2.30724   2.31622
 Alpha virt. eigenvalues --    2.32526   2.33972   2.35343   2.36686   2.37184
 Alpha virt. eigenvalues --    2.37638   2.39014   2.40115   2.40289   2.40829
 Alpha virt. eigenvalues --    2.41835   2.42200   2.42448   2.42692   2.43491
 Alpha virt. eigenvalues --    2.43920   2.44323   2.45375   2.45852   2.46327
 Alpha virt. eigenvalues --    2.46745   2.46845   2.47489   2.48315   2.49074
 Alpha virt. eigenvalues --    2.50657   2.50768   2.51276   2.51883   2.52890
 Alpha virt. eigenvalues --    2.52903   2.54231   2.54878   2.55088   2.55468
 Alpha virt. eigenvalues --    2.55666   2.56000   2.56192   2.57362   2.57723
 Alpha virt. eigenvalues --    2.58629   2.59998   2.60617   2.60818   2.61225
 Alpha virt. eigenvalues --    2.61398   2.61883   2.62177   2.62443   2.63460
 Alpha virt. eigenvalues --    2.63589   2.63941   2.64085   2.64395   2.64715
 Alpha virt. eigenvalues --    2.64871   2.64993   2.65366   2.65665   2.65821
 Alpha virt. eigenvalues --    2.66175   2.66530   2.66655   2.67199   2.67492
 Alpha virt. eigenvalues --    2.67647   2.67933   2.68308   2.68763   2.69410
 Alpha virt. eigenvalues --    2.69625   2.70322   2.70660   2.71149   2.71375
 Alpha virt. eigenvalues --    2.71495   2.72086   2.72401   2.72868   2.72962
 Alpha virt. eigenvalues --    2.73155   2.73503   2.73780   2.74009   2.74140
 Alpha virt. eigenvalues --    2.74548   2.75690   2.75825   2.76253   2.77095
 Alpha virt. eigenvalues --    2.77325   2.77636   2.77901   2.78162   2.78404
 Alpha virt. eigenvalues --    2.78482   2.78945   2.79335   2.79489   2.79541
 Alpha virt. eigenvalues --    2.79811   2.80069   2.80407   2.80846   2.80983
 Alpha virt. eigenvalues --    2.81836   2.82387   2.83218   2.83817   2.83923
 Alpha virt. eigenvalues --    2.84240   2.84661   2.85107   2.85532   2.85718
 Alpha virt. eigenvalues --    2.86076   2.86240   2.86810   2.87101   2.87369
 Alpha virt. eigenvalues --    2.87730   2.88420   2.88648   2.89193   2.89638
 Alpha virt. eigenvalues --    2.90467   2.90778   2.90917   2.91393   2.92155
 Alpha virt. eigenvalues --    2.92194   2.92595   2.92651   2.94006   2.94221
 Alpha virt. eigenvalues --    2.94739   2.95443   2.95630   2.96051   2.96172
 Alpha virt. eigenvalues --    2.96859   2.96952   2.98194   2.98249   2.98814
 Alpha virt. eigenvalues --    2.99822   3.01197   3.01827   3.02328   3.02600
 Alpha virt. eigenvalues --    3.03599   3.05074   3.05516   3.05943   3.06891
 Alpha virt. eigenvalues --    3.07582   3.07935   3.08816   3.09249   3.09731
 Alpha virt. eigenvalues --    3.10073   3.10586   3.11508   3.11652   3.12154
 Alpha virt. eigenvalues --    3.12704   3.12975   3.13112   3.13462   3.13780
 Alpha virt. eigenvalues --    3.13978   3.14278   3.14535   3.14977   3.15516
 Alpha virt. eigenvalues --    3.15729   3.15921   3.16368   3.16817   3.16935
 Alpha virt. eigenvalues --    3.17111   3.17458   3.17581   3.18340   3.18400
 Alpha virt. eigenvalues --    3.19151   3.19473   3.19898   3.20442   3.21025
 Alpha virt. eigenvalues --    3.21360   3.21632   3.22040   3.22100   3.22869
 Alpha virt. eigenvalues --    3.23745   3.24240   3.24632   3.25299   3.25479
 Alpha virt. eigenvalues --    3.25843   3.26083   3.26841   3.27239   3.27450
 Alpha virt. eigenvalues --    3.28241   3.28627   3.28795   3.29749   3.30138
 Alpha virt. eigenvalues --    3.30629   3.30780   3.31335   3.31819   3.32108
 Alpha virt. eigenvalues --    3.32517   3.32709   3.33080   3.33183   3.34065
 Alpha virt. eigenvalues --    3.34430   3.34892   3.34985   3.35832   3.35942
 Alpha virt. eigenvalues --    3.36434   3.36692   3.36937   3.37528   3.37607
 Alpha virt. eigenvalues --    3.38492   3.38909   3.39320   3.39554   3.39697
 Alpha virt. eigenvalues --    3.39844   3.40198   3.40727   3.41269   3.42001
 Alpha virt. eigenvalues --    3.42244   3.42544   3.42647   3.42889   3.43278
 Alpha virt. eigenvalues --    3.43344   3.43656   3.44189   3.44379   3.44779
 Alpha virt. eigenvalues --    3.45681   3.45835   3.46168   3.46528   3.47024
 Alpha virt. eigenvalues --    3.47799   3.48318   3.48668   3.48886   3.49098
 Alpha virt. eigenvalues --    3.49553   3.50019   3.50371   3.50927   3.51402
 Alpha virt. eigenvalues --    3.51662   3.51835   3.52229   3.52594   3.53165
 Alpha virt. eigenvalues --    3.53430   3.53717   3.53797   3.54170   3.54478
 Alpha virt. eigenvalues --    3.54827   3.55122   3.55798   3.55977   3.56755
 Alpha virt. eigenvalues --    3.57270   3.58070   3.58611   3.58921   3.59501
 Alpha virt. eigenvalues --    3.60113   3.60673   3.61872   3.62359   3.63836
 Alpha virt. eigenvalues --    3.64577   3.65183   3.66603   3.67167   3.68780
 Alpha virt. eigenvalues --    3.69110   3.69632   3.70291   3.70490   3.70894
 Alpha virt. eigenvalues --    3.71531   3.71860   3.72101   3.72567   3.73990
 Alpha virt. eigenvalues --    3.74789   3.75190   3.75586   3.75898   3.76497
 Alpha virt. eigenvalues --    3.77081   3.77804   3.78179   3.79418   3.80002
 Alpha virt. eigenvalues --    3.81514   3.83207   3.83873   3.86024   3.86110
 Alpha virt. eigenvalues --    3.87901   3.88445   3.89088   3.90238   3.91682
 Alpha virt. eigenvalues --    3.91994   3.93094   3.93755   3.94097   3.94502
 Alpha virt. eigenvalues --    3.94688   3.96026   3.96400   3.96564   4.00058
 Alpha virt. eigenvalues --    4.00988   4.01555   4.01796   4.02464   4.03580
 Alpha virt. eigenvalues --    4.03770   4.04279   4.04530   4.05455   4.05786
 Alpha virt. eigenvalues --    4.06732   4.07206   4.08143   4.08560   4.09478
 Alpha virt. eigenvalues --    4.11668   4.11915   4.12401   4.12611   4.12891
 Alpha virt. eigenvalues --    4.13328   4.13503   4.13856   4.15056   4.16654
 Alpha virt. eigenvalues --    4.17044   4.18437   4.19381   4.19659   4.19734
 Alpha virt. eigenvalues --    4.20118   4.20202   4.20411   4.20539   4.20894
 Alpha virt. eigenvalues --    4.21058   4.21466   4.21788   4.22029   4.22279
 Alpha virt. eigenvalues --    4.22330   4.22517   4.23416   4.24264   4.24688
 Alpha virt. eigenvalues --    4.24815   4.25611   4.25865   4.26024   4.26527
 Alpha virt. eigenvalues --    4.27020   4.27156   4.27670   4.27755   4.28428
 Alpha virt. eigenvalues --    4.29183   4.29519   4.30242   4.31234   4.31862
 Alpha virt. eigenvalues --    4.33576   4.34097   4.34677   4.35095   4.35434
 Alpha virt. eigenvalues --    4.35620   4.36083   4.37531   4.39517   4.40267
 Alpha virt. eigenvalues --    4.41330   4.41801   4.43281   4.46893   4.48965
 Alpha virt. eigenvalues --    4.51661   4.52858   4.55660   4.59941   4.60921
 Alpha virt. eigenvalues --    4.61315   4.61603   4.61797   4.62848   4.63133
 Alpha virt. eigenvalues --    4.63507   4.63586   4.64946   4.65267   4.65818
 Alpha virt. eigenvalues --    4.65920   4.67323   4.69678   4.71051   4.71351
 Alpha virt. eigenvalues --    4.72068   4.73038   4.74409   4.75327   4.75551
 Alpha virt. eigenvalues --    4.75967   4.83610   4.84520   4.85076   4.85794
 Alpha virt. eigenvalues --    4.86338   4.89554   4.91267   4.91548   4.92317
 Alpha virt. eigenvalues --    4.93021   4.93766   4.94595   4.95228   4.95463
 Alpha virt. eigenvalues --    4.95984   5.01108   5.03163   5.05447   5.11029
 Alpha virt. eigenvalues --    5.12660   5.12779   5.13191   5.13296   5.14011
 Alpha virt. eigenvalues --    5.14369   5.14578   5.14783   5.15685   5.19946
 Alpha virt. eigenvalues --    5.21154   5.26053   5.26124   5.27166   5.27267
 Alpha virt. eigenvalues --    5.33477   5.33717   5.35662   5.36663   5.40200
 Alpha virt. eigenvalues --    5.40620   5.41847   5.42273   5.57599   5.58083
 Alpha virt. eigenvalues --    5.58823   5.59835   7.74081   7.75597   8.00004
 Alpha virt. eigenvalues --    8.04953   8.06174   8.08742  15.91252  15.96977
 Alpha virt. eigenvalues --   22.10195  22.12014  22.15314  22.16911  22.40846
 Alpha virt. eigenvalues --   22.58297  22.60941  22.61392  22.61948  22.62491
 Alpha virt. eigenvalues --   22.62580  22.62910  22.63612  22.64066  22.69162
 Alpha virt. eigenvalues --   22.72221  22.73910  22.75529  22.76463  22.78345
 Alpha virt. eigenvalues --   22.79937  22.80416  22.80828  22.84132  22.89579
 Alpha virt. eigenvalues --   22.90779  22.98941  23.12068  23.12596  23.15879
 Alpha virt. eigenvalues --   23.16658
          Condensed to atoms (all electrons):
 Mulliken charges:
               1
     1  P    0.079731
     2  C    0.080309
     3  C   -0.187039
     4  C   -0.121440
     5  C   -0.107754
     6  C   -0.110150
     7  C   -0.214269
     8  H    0.145229
     9  H    0.119897
    10  H    0.120435
    11  H    0.121256
    12  H    0.143157
    13  C    0.154818
    14  C   -0.208455
    15  C   -0.151119
    16  C   -0.121485
    17  C   -0.111624
    18  C   -0.214895
    19  H    0.128459
    20  H    0.117373
    21  H    0.116103
    22  H    0.115719
    23  H    0.131266
    24  C   -0.311913
    25  C    0.130643
    26  C   -0.218182
    27  C   -0.224966
    28  H    0.117572
    29  C    0.053489
    30  H    0.126747
    31  C   -0.241850
    32  H    0.130903
    33  H    0.104822
    34  C   -0.219087
    35  P    0.074086
    36  C    0.011847
    37  C   -0.162735
    38  C   -0.124762
    39  C   -0.102192
    40  C   -0.116684
    41  C   -0.166355
    42  H    0.134322
    43  H    0.119699
    44  H    0.121502
    45  H    0.122326
    46  H    0.143706
    47  C    0.144952
    48  C   -0.194397
    49  C   -0.152740
    50  C   -0.118927
    51  C   -0.116364
    52  C   -0.202462
    53  H    0.125031
    54  H    0.116996
    55  H    0.116265
    56  H    0.114611
    57  H    0.130863
    58  H    0.135571
    59  H    0.119944
    60  H    0.118493
    61  H    0.133708
 Sum of Mulliken charges =  -0.00000
 Mulliken charges with hydrogens summed into heavy atoms:
               1
     1  P    0.079731
     2  C    0.080309
     3  C   -0.043883
     4  C   -0.000184
     5  C    0.012681
     6  C    0.009746
     7  C   -0.069040
    13  C    0.154818
    14  C   -0.077188
    15  C   -0.035400
    16  C   -0.005382
    17  C    0.005749
    18  C   -0.086436
    24  C   -0.178205
    25  C    0.249136
    26  C   -0.098238
    27  C   -0.107395
    29  C    0.180236
    31  C   -0.006125
    34  C   -0.083516
    35  P    0.074086
    36  C    0.011847
    37  C   -0.019029
    38  C   -0.002436
    39  C    0.019310
    40  C    0.003015
    41  C   -0.032033
    47  C    0.144952
    48  C   -0.063534
    49  C   -0.038129
    50  C   -0.002662
    51  C    0.000632
    52  C   -0.077431
 Electronic spatial extent (au):  <R**2>=          15069.9505
 Charge=             -0.0000 electrons
 Dipole moment (field-independent basis, Debye):
    X=             -0.0566    Y=              0.0605    Z=              1.8914  Tot=              1.8932
 Quadrupole moment (field-independent basis, Debye-Ang):
   XX=           -195.0199   YY=           -187.5481   ZZ=           -211.1841
   XY=             -1.8728   XZ=             -0.3357   YZ=              0.6708
 Traceless Quadrupole moment (field-independent basis, Debye-Ang):
   XX=              2.8975   YY=             10.3693   ZZ=            -13.2667
   XY=             -1.8728   XZ=             -0.3357   YZ=              0.6708
 Octapole moment (field-independent basis, Debye-Ang**2):
  XXX=              5.8598  YYY=              1.5899  ZZZ=             -2.1888  XYY=              0.4786
  XXY=             -4.9653  XXZ=             -4.5111  XZZ=             -4.9087  YZZ=              4.0139
  YYZ=             15.6841  XYZ=             -8.6784
 Hexadecapole moment (field-independent basis, Debye-Ang**3):
 XXXX=         -11518.5840 YYYY=          -6173.6749 ZZZZ=          -2576.9100 XXXY=            196.9167
 XXXZ=             21.3320 YYYX=           -126.2564 YYYZ=             17.3104 ZZZX=             -6.5043
 ZZZY=             13.0158 XXYY=          -2839.2791 XXZZ=          -2322.1891 YYZZ=          -1570.9247
 XXYZ=             -6.3096 YYXZ=            -14.3066 ZZXY=            -35.8993
 N-N= 3.621133908891D+03 E-N=-1.164389496835D+04  KE= 1.871087932225D+03
 1\1\GINC-NC123\SP\RPBE1PBE\def2TZVP\C31H28P2\MACKK4\05-Dec-2021\0\\# P
 BE1PBE/def2TZVP int=(grid=ultrafine) empiricaldispersion=GD3BJ nmr=gia
 o\\RR_NorPhos_1 title\\0,1\P,0,-1.5919989913,-0.0212480463,-0.02475052
 94\C,0,-2.3700422249,1.625294436,0.1021268446\C,0,-1.8004394321,2.6953
 411708,-0.6132310428\C,0,-2.3243426996,3.987505402,-0.4701651006\C,0,-
 3.4217454903,4.2107136925,0.3731744659\C,0,-4.0049834447,3.1406584123,
 1.070695159\C,0,-3.4834538275,1.848462179,0.9367595257\H,0,-3.94511194
 43,1.0092087657,1.467771836\H,0,-4.8726645236,3.3135191573,1.715904394
 \H,0,-3.8350426816,5.2191513563,0.4779443263\H,0,-1.8830746955,4.81698
 94498,-1.0317821186\H,0,-0.9658857319,2.4939454297,-1.2952943345\C,0,-
 2.9597436841,-1.2275325916,0.0003997643\C,0,-2.9268273351,-2.357952889
 4,0.8411604558\C,0,-3.9810837936,-3.2805502753,0.8206828979\C,0,-5.070
 2116732,-3.0844853365,-0.0394635928\C,0,-5.1016142847,-1.9653761531,-0
 .8847882611\C,0,-4.0524650587,-1.0395269111,-0.872112112\H,0,-4.061011
 315,-0.1837329963,-1.5520992918\H,0,-5.9437047326,-1.8159428226,-1.567
 8695473\H,0,-5.8918040672,-3.8077945466,-0.0559388074\H,0,-3.948262277
 5,-4.1549469828,1.478693932\H,0,-2.0797395174,-2.5294699756,1.51190716
 87\C,0,-0.607698412,-0.2975106588,1.5214386449\C,0,-1.0117740151,-0.19
 5843237,3.0334985161\C,0,-1.2125950555,1.2640709603,3.4196841486\C,0,-
 0.0026096449,1.8639624771,3.4052549966\H,0,0.2112178572,2.9289591666,3
 .5317362403\C,0,1.0196849703,0.8195448792,2.9535725248\H,0,2.079235833
 6,1.040726068,3.1450605165\C,0,0.4144016695,-0.4433953009,3.6141019822
 \H,0,0.8752018219,-1.3875130069,3.2752350987\H,0,0.4369754861,-0.38540
 87514,4.714226976\C,0,0.627336077,0.6412312425,1.4347836226\P,0,1.6487
 554132,0.0023175097,0.0236220729\C,0,2.3438180052,-1.6012728195,0.5547
 123084\C,0,1.8337567544,-2.7836374592,-0.0144820279\C,0,2.2863625922,-
 4.029141282,0.4429169223\C,0,3.2475403141,-4.0964293591,1.4613503645\C
 ,0,3.7677862298,-2.9179298461,2.0205016997\C,0,3.32199118,-1.670342722
 9,1.5676830655\H,0,3.7388255031,-0.7495412179,1.989757891\H,0,4.527516
 2539,-2.9720542534,2.8070693783\H,0,3.6024758402,-5.069816422,1.815280
 1555\H,0,1.894154316,-4.9469988234,-0.0064478628\H,0,1.1021766925,-2.7
 080349866,-0.8276125423\C,0,3.0723095306,1.1308649348,-0.1361389896\C,
 0,3.095527804,2.3805818248,0.5146216173\C,0,4.2000765003,3.2297891611,
 0.3650073121\C,0,5.2830030458,2.8401706653,-0.4349096438\C,0,5.2592061
 222,1.5997179724,-1.0899582873\C,0,4.1604417767,0.7452464612,-0.947174
 1591\H,0,4.125474117,-0.2076297336,-1.4819243589\H,0,6.0977262837,1.29
 75467722,-1.7252788844\H,0,6.1438561913,3.5061914368,-0.5526094477\H,0
 ,4.211703631,4.1984256483,0.8752322312\H,0,2.2552617791,2.6990844804,1
 .1386720079\H,0,0.3019929051,1.6275677857,1.0489884813\H,0,-2.18237004
 09,1.7385844146,3.5815745944\H,0,-1.8042100905,-0.8984574475,3.3292249
 711\H,0,-0.2535874584,-1.3380194344,1.3734981605\\Version=ES64L-G09Rev
 E.01\State=1-A\HF=-1879.6369358\RMSD=7.370e-09\Dipole=0.011145,0.02817
 42,0.7442451\Quadrupole=2.2528807,7.4461097,-9.6989904,-1.5502135,0.57
 07296,-1.7049781\PG=C01 [X(C31H28P2)]\\@


 NOTHING PUZZLES ME MORE THAN TIME AND SPACE; AND YET NOTHING TROUBLES ME LESS
                                                          -- CHARLES LAMB (1810)
 Job cpu time:       0 days 13 hours 45 minutes 20.5 seconds.
 File lengths (MBytes):  RWF=    843 Int=      0 D2E=      0 Chk=    112 Scr=      1
 Normal termination of Gaussian 09 at Sun Dec  5 03:07:11 2021.
 Initial command:
 /gstore/apps/gaussian/g09.e01-foss-2017a/g09/l1.exe "/local/22791350/Gau-28305.inp" -scrdir="/local/22791350/"
 Entering Link 1 = /gstore/apps/gaussian/g09.e01-foss-2017a/g09/l1.exe PID=      9380.
  
 Copyright (c) 1988,1990,1992,1993,1995,1998,2003,2009,2015,
            Gaussian, Inc.  All Rights Reserved.
  
 This is part of the Gaussian(R) 09 program.  It is based on
 the Gaussian(R) 03 system (copyright 2003, Gaussian, Inc.),
 the Gaussian(R) 98 system (copyright 1998, Gaussian, Inc.),
 the Gaussian(R) 94 system (copyright 1995, Gaussian, Inc.),
 the Gaussian 92(TM) system (copyright 1992, Gaussian, Inc.),
 the Gaussian 90(TM) system (copyright 1990, Gaussian, Inc.),
 the Gaussian 88(TM) system (copyright 1988, Gaussian, Inc.),
 the Gaussian 86(TM) system (copyright 1986, Carnegie Mellon
 University), and the Gaussian 82(TM) system (copyright 1983,
 Carnegie Mellon University). Gaussian is a federally registered
 trademark of Gaussian, Inc.
  
 This software contains proprietary and confidential information,
 including trade secrets, belonging to Gaussian, Inc.
  
 This software is provided under written license and may be
 used, copied, transmitted, or stored only in accord with that
 written license.
  
 The following legend is applicable only to US Government
 contracts under FAR:
  
                    RESTRICTED RIGHTS LEGEND
  
 Use, reproduction and disclosure by the US Government is
 subject to restrictions as set forth in subparagraphs (a)
 and (c) of the Commercial Computer Software - Restricted
 Rights clause in FAR 52.227-19.
  
 Gaussian, Inc.
 340 Quinnipiac St., Bldg. 40, Wallingford CT 06492
  
  
 ---------------------------------------------------------------
 Warning -- This program may not be used in any manner that
 competes with the business of Gaussian, Inc. or will provide
 assistance to any competitor of Gaussian, Inc.  The licensee
 of this program is prohibited from giving any competitor of
 Gaussian, Inc. access to this program.  By using this program,
 the user acknowledges that Gaussian, Inc. is engaged in the
 business of creating and licensing software in the field of
 computational chemistry and represents and warrants to the
 licensee that it is not a competitor of Gaussian, Inc. and that
 it will not use this program in any manner prohibited above.
 ---------------------------------------------------------------
  

 Cite this work as:
 Gaussian 09, Revision E.01,
 M. J. Frisch, G. W. Trucks, H. B. Schlegel, G. E. Scuseria, 
 M. A. Robb, J. R. Cheeseman, G. Scalmani, V. Barone, B. Mennucci, 
 G. A. Petersson, H. Nakatsuji, M. Caricato, X. Li, H. P. Hratchian, 
 A. F. Izmaylov, J. Bloino, G. Zheng, J. L. Sonnenberg, M. Hada, 
 M. Ehara, K. Toyota, R. Fukuda, J. Hasegawa, M. Ishida, T. Nakajima, 
 Y. Honda, O. Kitao, H. Nakai, T. Vreven, J. A. Montgomery, Jr., 
 J. E. Peralta, F. Ogliaro, M. Bearpark, J. J. Heyd, E. Brothers, 
 K. N. Kudin, V. N. Staroverov, T. Keith, R. Kobayashi, J. Normand, 
 K. Raghavachari, A. Rendell, J. C. Burant, S. S. Iyengar, J. Tomasi, 
 M. Cossi, N. Rega, J. M. Millam, M. Klene, J. E. Knox, J. B. Cross, 
 V. Bakken, C. Adamo, J. Jaramillo, R. Gomperts, R. E. Stratmann, 
 O. Yazyev, A. J. Austin, R. Cammi, C. Pomelli, J. W. Ochterski, 
 R. L. Martin, K. Morokuma, V. G. Zakrzewski, G. A. Voth, 
 P. Salvador, J. J. Dannenberg, S. Dapprich, A. D. Daniels, 
 O. Farkas, J. B. Foresman, J. V. Ortiz, J. Cioslowski, 
 and D. J. Fox, Gaussian, Inc., Wallingford CT, 2013.
 
 ******************************************
 Gaussian 09:  ES64L-G09RevE.01 30-Nov-2015
                 5-Dec-2021 
 ******************************************
 %nprocs=14
 Will use up to   14 processors via shared memory.
 %mem=128GB
 %chk=RR_NorPhos_1_SPE_NoPd.chk
 ----------------------------------------------------------------------
 # PBE1PBE/def2TZVP int=(grid=ultrafine) empiricaldispersion=GD3BJ pop=
 nbo guess=read geom=check
 ----------------------------------------------------------------------
 1/29=2,38=1/1;
 2/12=2,40=1/2;
 3/5=44,7=101,11=2,14=-4,16=1,25=1,30=1,74=-13,75=-5,116=-2,124=41/1,2,3;
 4/5=1/1;
 5/5=2,38=6/2;
 6/7=2,8=2,9=2,10=2,28=1,40=1/1,7;
 99/5=1,9=1/99;
 ------------------
 RR_NorPhos_1 title
 ------------------
 Structure from the checkpoint file:  "RR_NorPhos_1_SPE_NoPd.chk"
 Charge =  0 Multiplicity = 1
 Z-Matrix found in file.
 P,0,-1.5919989913,-0.0212480463,-0.0247505294
 C,0,-2.3700422249,1.625294436,0.1021268446
 C,0,-1.8004394321,2.6953411708,-0.6132310428
 C,0,-2.3243426996,3.987505402,-0.4701651006
 C,0,-3.4217454903,4.2107136925,0.3731744659
 C,0,-4.0049834447,3.1406584123,1.070695159
 C,0,-3.4834538275,1.848462179,0.9367595257
 H,0,-3.9451119443,1.0092087657,1.467771836
 H,0,-4.8726645236,3.3135191573,1.715904394
 H,0,-3.8350426816,5.2191513563,0.4779443263
 H,0,-1.8830746955,4.8169894498,-1.0317821186
 H,0,-0.9658857319,2.4939454297,-1.2952943345
 C,0,-2.9597436841,-1.2275325916,0.0003997643
 C,0,-2.9268273351,-2.3579528894,0.8411604558
 C,0,-3.9810837936,-3.2805502753,0.8206828979
 C,0,-5.0702116732,-3.0844853365,-0.0394635928
 C,0,-5.1016142847,-1.9653761531,-0.8847882611
 C,0,-4.0524650587,-1.0395269111,-0.872112112
 H,0,-4.061011315,-0.1837329963,-1.5520992918
 H,0,-5.9437047326,-1.8159428226,-1.5678695473
 H,0,-5.8918040672,-3.8077945466,-0.0559388074
 H,0,-3.9482622775,-4.1549469828,1.478693932
 H,0,-2.0797395174,-2.5294699756,1.5119071687
 C,0,-0.607698412,-0.2975106588,1.5214386449
 C,0,-1.0117740151,-0.195843237,3.0334985161
 C,0,-1.2125950555,1.2640709603,3.4196841486
 C,0,-0.0026096449,1.8639624771,3.4052549966
 H,0,0.2112178572,2.9289591666,3.5317362403
 C,0,1.0196849703,0.8195448792,2.9535725248
 H,0,2.0792358336,1.040726068,3.1450605165
 C,0,0.4144016695,-0.4433953009,3.6141019822
 H,0,0.8752018219,-1.3875130069,3.2752350987
 H,0,0.4369754861,-0.3854087514,4.714226976
 C,0,0.627336077,0.6412312425,1.4347836226
 P,0,1.6487554132,0.0023175097,0.0236220729
 C,0,2.3438180052,-1.6012728195,0.5547123084
 C,0,1.8337567544,-2.7836374592,-0.0144820279
 C,0,2.2863625922,-4.029141282,0.4429169223
 C,0,3.2475403141,-4.0964293591,1.4613503645
 C,0,3.7677862298,-2.9179298461,2.0205016997
 C,0,3.32199118,-1.6703427229,1.5676830655
 H,0,3.7388255031,-0.7495412179,1.989757891
 H,0,4.5275162539,-2.9720542534,2.8070693783
 H,0,3.6024758402,-5.069816422,1.8152801555
 H,0,1.894154316,-4.9469988234,-0.0064478628
 H,0,1.1021766925,-2.7080349866,-0.8276125423
 C,0,3.0723095306,1.1308649348,-0.1361389896
 C,0,3.095527804,2.3805818248,0.5146216173
 C,0,4.2000765003,3.2297891611,0.3650073121
 C,0,5.2830030458,2.8401706653,-0.4349096438
 C,0,5.2592061222,1.5997179724,-1.0899582873
 C,0,4.1604417767,0.7452464612,-0.9471741591
 H,0,4.125474117,-0.2076297336,-1.4819243589
 H,0,6.0977262837,1.2975467722,-1.7252788844
 H,0,6.1438561913,3.5061914368,-0.5526094477
 H,0,4.211703631,4.1984256483,0.8752322312
 H,0,2.2552617791,2.6990844804,1.1386720079
 H,0,0.3019929051,1.6275677857,1.0489884813
 H,0,-2.1823700409,1.7385844146,3.5815745944
 H,0,-1.8042100905,-0.8984574475,3.3292249711
 H,0,-0.2535874584,-1.3380194344,1.3734981605
 Recover connectivity data from disk.
 Stoichiometry    C31H28P2
 Framework group  C1[X(C31H28P2)]
 Deg. of freedom   177
 Full point group                 C1      NOp   1
 Largest Abelian subgroup         C1      NOp   1
 Largest concise Abelian subgroup C1      NOp   1
                         Standard orientation:                         
 ---------------------------------------------------------------------
 Center     Atomic      Atomic             Coordinates (Angstroms)
 Number     Number       Type             X           Y           Z
 ---------------------------------------------------------------------
      1         15           0        1.598411   -0.005509   -0.737689
      2          6           0        2.311565   -1.666955   -0.485582
      3          6           0        1.711452   -2.762150   -1.134887
      4          6           0        2.183914   -4.059797   -0.895048
      5          6           0        3.260547   -4.264524   -0.020814
      6          6           0        3.874526   -3.171059    0.610917
      7          6           0        3.404313   -1.872837    0.380222
      8          1           0        3.890295   -1.016490    0.859743
      9          1           0        4.726214   -3.330813    1.280359
     10          1           0        3.633788   -5.277881    0.159569
     11          1           0        1.719090   -4.909276   -1.405440
     12          1           0        0.894446   -2.577724   -1.842516
     13          6           0        3.010522    1.148245   -0.773372
     14          6           0        3.009204    2.334574   -0.012824
     15          6           0        4.097924    3.213945   -0.079598
     16          6           0        5.190346    2.918712   -0.906607
     17          6           0        5.190643    1.743400   -1.672508
     18          6           0        4.107008    0.860058   -1.613211
     19          1           0        4.092234   -0.040465   -2.232628
     20          1           0        6.035606    1.516037   -2.330072
     21          1           0        6.038967    3.608286   -0.959456
     22          1           0        4.089447    4.132391    0.516231
     23          1           0        2.160253    2.583283    0.630840
     24          6           0        0.604503    0.413270    0.769839
     25          6           0        0.983949    0.401606    2.291622
     26          6           0        1.123934   -1.034510    2.780286
     27          6           0       -0.107659   -1.588829    2.787583
     28          1           0       -0.363474   -2.633888    2.983405
     29          6           0       -1.083346   -0.541098    2.248874
     30          1           0       -2.153025   -0.709186    2.438004
     31          6           0       -0.439513    0.741283    2.830821
     32          1           0       -0.859497    1.676075    2.420574
     33          1           0       -0.479142    0.760431    3.931826
     34          6           0       -0.664013   -0.482927    0.727944
     35         15           0       -1.641258    0.094126   -0.740009
     36          6           0       -2.282025    1.755213   -0.331502
     37          6           0       -1.719774    2.875697   -0.972221
     38          6           0       -2.130886    4.165741   -0.608738
     39          6           0       -3.102494    4.338817    0.387064
     40          6           0       -3.674638    3.221868    1.017335
     41          6           0       -3.270472    1.930316    0.658455
     42          1           0       -3.727648    1.056964    1.135969
     43          1           0       -4.442327    3.358332    1.785996
     44          1           0       -3.424952    5.346813    0.667585
     45          1           0       -1.698059    5.035180   -1.113669
     46          1           0       -0.980669    2.717024   -1.766357
     47          6           0       -3.104361   -0.989382   -0.844837
     48          6           0       -3.183825   -2.189360   -0.110291
     49          6           0       -4.317709   -3.005478   -0.219033
     50          6           0       -5.374143   -2.632384   -1.061142
     51          6           0       -5.294394   -1.441959   -1.799320
     52          6           0       -4.165998   -0.620852   -1.697846
     53          1           0       -4.087637    0.290794   -2.296106
     54          1           0       -6.112167   -1.153687   -2.467304
     55          1           0       -6.258003   -3.272678   -1.146698
     56          1           0       -4.373016   -3.935395    0.356220
     57          1           0       -2.364776   -2.494758    0.547600
     58          1           0       -0.371183   -1.504944    0.416048
     59          1           0        2.072708   -1.532203    2.989961
     60          1           0        1.798431    1.093229    2.551148
     61          1           0        0.292202    1.453424    0.545145
 ---------------------------------------------------------------------
 Rotational constants (GHZ):      0.1588536      0.0982669      0.0750836
 Standard basis: def2TZVP (5D, 7F)
 There are  1368 symmetry adapted cartesian basis functions of A   symmetry.
 There are  1203 symmetry adapted basis functions of A   symmetry.
  1203 basis functions,  1943 primitive gaussians,  1368 cartesian basis functions
   122 alpha electrons      122 beta electrons
       nuclear repulsion energy      3621.2267745715 Hartrees.
 NAtoms=   61 NActive=   61 NUniq=   61 SFac= 1.00D+00 NAtFMM=   60 NAOKFM=T Big=T
 Integral buffers will be    131072 words long.
 Raffenetti 2 integral format.
 Two-electron integral symmetry is turned on.
 Nuclear repulsion after empirical dispersion term =     3621.1339088909 Hartrees.
 One-electron integrals computed using PRISM.
   1 Symmetry operations used in ECPInt.
 ECPInt:  NShTT=  114960 NPrTT=  355741 LenC2=   93595 LenP2D=  195028.
 LDataN:  DoStor=T MaxTD1= 6 Len=  172
 NBasis=  1203 RedAO= T EigKep=  7.40D-06  NBF=  1203
 NBsUse=  1203 1.00D-06 EigRej= -1.00D+00 NBFU=  1203
 Initial guess from the checkpoint file:  "RR_NorPhos_1_SPE_NoPd.chk"
 B after Tr=     0.000000   -0.000000    0.000000
         Rot=    1.000000   -0.000000    0.000000   -0.000000 Ang=   0.00 deg.
 Requested convergence on RMS density matrix=1.00D-08 within 128 cycles.
[...]
   972. RY*(  23) C  48                  0.00000     3.50134   
   973. RY*(  24) C  48                  0.00000     3.61159   
   974. RY*(  25) C  48                  0.00000     3.36399   
   975. RY*(  26) C  48                  0.00000     3.61599   
   976. RY*(   1) C  49                  0.00499     1.54529   
   977. RY*(   2) C  49                  0.00187     1.47290   
   978. RY*(   3) C  49                  0.00111     0.57671   
   979. RY*(   4) C  49                  0.00072     1.33170   
   980. RY*(   5) C  49                  0.00050     1.74510   
   981. RY*(   6) C  49                  0.00037     3.19660   
   982. RY*(   7) C  49                  0.00015     2.12412   
   983. RY*(   8) C  49                  0.00014     1.76046   
   984. RY*(   9) C  49                  0.00007     3.35519   
   985. RY*(  10) C  49                  0.00004     1.68848   
   986. RY*(  11) C  49                  0.00003     1.48203   
   987. RY*(  12) C  49                  0.00004     2.39458   
   988. RY*(  13) C  49                  0.00002     2.71291   
   989. RY*(  14) C  49                  0.00000    20.98120   
   990. RY*(  15) C  49                  0.00000     3.31861   
   991. RY*(  16) C  49                  0.00001     1.58789   
   992. RY*(  17) C  49                  0.00000     2.61150   
   993. RY*(  18) C  49                  0.00000     1.20430   
   994. RY*(  19) C  49                  0.00000     3.10510   
   995. RY*(  20) C  49                  0.00000     3.53288   
   996. RY*(  21) C  49                  0.00000     3.39181   
   997. RY*(  22) C  49                  0.00000     3.31766   
   998. RY*(  23) C  49                  0.00000     3.49670   
   999. RY*(  24) C  49                  0.00000     3.37627   
  1000. RY*(  25) C  49                  0.00000     3.56605   
  1001. RY*(  26) C  49                  0.00000     3.55208   
  1002. RY*(   1) C  50                  0.00498     1.58396   
  1003. RY*(   2) C  50                  0.00221     1.72869   
  1004. RY*(   3) C  50                  0.00144     0.52878   
  1005. RY*(   4) C  50                  0.00078     1.25822   
  1006. RY*(   5) C  50                  0.00069     1.38448   
  1007. RY*(   6) C  50                  0.00035     3.29570   
  1008. RY*(   7) C  50                  0.00013     2.39820   
  1009. RY*(   8) C  50                  0.00014     2.28402   
  1010. RY*(   9) C  50                  0.00006     2.07433   
  1011. RY*(  10) C  50                  0.00004     2.58965   
  1012. RY*(  11) C  50                  0.00003     2.21824   
  1013. RY*(  12) C  50                  0.00000     1.26477   
  1014. RY*(  13) C  50                  0.00000    21.32981   
  1015. RY*(  14) C  50                  0.00001     1.46427   
  1016. RY*(  15) C  50                  0.00000     3.11237   
  1017. RY*(  16) C  50                  0.00000     1.87650   
  1018. RY*(  17) C  50                  0.00000     2.93588   
  1019. RY*(  18) C  50                  0.00000     1.39554   
  1020. RY*(  19) C  50                  0.00000     2.87619   
  1021. RY*(  20) C  50                  0.00000     3.50186   
  1022. RY*(  21) C  50                  0.00000     3.51802   
  1023. RY*(  22) C  50                  0.00000     3.46160   
  1024. RY*(  23) C  50                  0.00000     3.44318   
  1025. RY*(  24) C  50                  0.00000     3.39402   
  1026. RY*(  25) C  50                  0.00000     3.47106   
  1027. RY*(  26) C  50                  0.00000     3.67207   
  1028. RY*(   1) C  51                  0.00488     1.55682   
  1029. RY*(   2) C  51                  0.00185     1.49999   
  1030. RY*(   3) C  51                  0.00106     0.59547   
  1031. RY*(   4) C  51                  0.00073     1.32243   
  1032. RY*(   5) C  51                  0.00052     1.74870   
  1033. RY*(   6) C  51                  0.00037     3.09191   
  1034. RY*(   7) C  51                  0.00013     2.24485   
  1035. RY*(   8) C  51                  0.00013     1.81861   
  1036. RY*(   9) C  51                  0.00007     3.06492   
  1037. RY*(  10) C  51                  0.00005     1.22863   
  1038. RY*(  11) C  51                  0.00004     1.93572   
  1039. RY*(  12) C  51                  0.00002     2.21298   
  1040. RY*(  13) C  51                  0.00001     3.51934   
  1041. RY*(  14) C  51                  0.00000    20.78458   
  1042. RY*(  15) C  51                  0.00001     1.70415   
  1043. RY*(  16) C  51                  0.00001     3.15008   
  1044. RY*(  17) C  51                  0.00000     1.95644   
  1045. RY*(  18) C  51                  0.00000     1.56087   
  1046. RY*(  19) C  51                  0.00000     2.99236   
  1047. RY*(  20) C  51                  0.00000     3.42127   
  1048. RY*(  21) C  51                  0.00000     3.38917   
  1049. RY*(  22) C  51                  0.00000     3.21082   
  1050. RY*(  23) C  51                  0.00000     3.74196   
  1051. RY*(  24) C  51                  0.00000     3.35058   
  1052. RY*(  25) C  51                  0.00001     3.60078   
  1053. RY*(  26) C  51                  0.00000     3.67381   
  1054. RY*(   1) C  52                  0.00601     1.59118   
  1055. RY*(   2) C  52                  0.00179     1.39112   
  1056. RY*(   3) C  52                  0.00129     0.78774   
  1057. RY*(   4) C  52                  0.00112     1.84477   
  1058. RY*(   5) C  52                  0.00079     1.52814   
  1059. RY*(   6) C  52                  0.00035     2.94402   
  1060. RY*(   7) C  52                  0.00028     1.44989   
  1061. RY*(   8) C  52                  0.00021     2.05609   
  1062. RY*(   9) C  52                  0.00012     1.75043   
  1063. RY*(  10) C  52                  0.00007     1.76197   
  1064. RY*(  11) C  52                  0.00007     2.50763   
  1065. RY*(  12) C  52                  0.00004     1.78817   
  1066. RY*(  13) C  52                  0.00003     3.00565   
  1067. RY*(  14) C  52                  0.00002     2.08481   
  1068. RY*(  15) C  52                  0.00002     3.18705   
  1069. RY*(  16) C  52                  0.00002     1.73721   
  1070. RY*(  17) C  52                  0.00000     3.45180   
  1071. RY*(  18) C  52                  0.00000    20.86418   
  1072. RY*(  19) C  52                  0.00000     3.30729   
  1073. RY*(  20) C  52                  0.00000     3.25332   
  1074. RY*(  21) C  52                  0.00000     3.36605   
  1075. RY*(  22) C  52                  0.00000     3.33074   
  1076. RY*(  23) C  52                  0.00000     3.42928   
  1077. RY*(  24) C  52                  0.00000     3.20271   
  1078. RY*(  25) C  52                  0.00000     3.46868   
  1079. RY*(  26) C  52                  0.00000     3.57609   
  1080. RY*(   1) H  53                  0.00089     0.68631   
  1081. RY*(   2) H  53                  0.00025     2.28517   
  1082. RY*(   3) H  53                  0.00013     2.20046   
  1083. RY*(   4) H  53                  0.00009     2.76864   
  1084. RY*(   5) H  53                  0.00002     3.10161   
  1085. RY*(   1) H  54                  0.00037     0.94971   
  1086. RY*(   2) H  54                  0.00020     1.87690   
  1087. RY*(   3) H  54                  0.00012     2.65539   
  1088. RY*(   4) H  54                  0.00011     2.21270   
  1089. RY*(   5) H  54                  0.00002     3.09821   
  1090. RY*(   1) H  55                  0.00033     0.88709   
  1091. RY*(   2) H  55                  0.00019     1.84080   
  1092. RY*(   3) H  55                  0.00011     2.15643   
  1093. RY*(   4) H  55                  0.00008     2.75479   
  1094. RY*(   5) H  55                  0.00002     3.10067   
  1095. RY*(   1) H  56                  0.00039     0.97769   
  1096. RY*(   2) H  56                  0.00019     1.86894   
  1097. RY*(   3) H  56                  0.00012     2.60148   
  1098. RY*(   4) H  56                  0.00011     2.25199   
  1099. RY*(   5) H  56                  0.00002     3.09182   
  1100. RY*(   1) H  57                  0.00108     0.80490   
  1101. RY*(   2) H  57                  0.00028     2.40751   
  1102. RY*(   3) H  57                  0.00013     2.19480   
  1103. RY*(   4) H  57                  0.00010     2.74886   
  1104. RY*(   5) H  57                  0.00003     3.19300   
  1105. RY*(   1) H  58                  0.00172     0.86240   
  1106. RY*(   2) H  58                  0.00033     2.51444   
  1107. RY*(   3) H  58                  0.00018     2.70068   
  1108. RY*(   4) H  58                  0.00013     2.71067   
  1109. RY*(   5) H  58                  0.00005     3.27454   
  1110. RY*(   1) H  59                  0.00052     1.46239   
  1111. RY*(   2) H  59                  0.00024     1.52628   
  1112. RY*(   3) H  59                  0.00016     2.23783   
  1113. RY*(   4) H  59                  0.00011     2.46403   
  1114. RY*(   5) H  59                  0.00003     3.03498   
  1115. RY*(   1) H  60                  0.00095     0.74879   
  1116. RY*(   2) H  60                  0.00026     2.38636   
  1117. RY*(   3) H  60                  0.00017     2.56750   
  1118. RY*(   4) H  60                  0.00012     2.55262   
  1119. RY*(   5) H  60                  0.00002     3.09199   
  1120. RY*(   1) H  61                  0.00154     0.84571   
  1121. RY*(   2) H  61                  0.00034     2.52564   
  1122. RY*(   3) H  61                  0.00022     2.69306   
  1123. RY*(   4) H  61                  0.00012     2.77113   
  1124. RY*(   5) H  61                  0.00004     3.28878   
  1125. BD*(   1) P   1 - C   2          0.04038     0.23654   
  1126. BD*(   1) P   1 - C  13          0.03980     0.24592   
  1127. BD*(   1) P   1 - C  24          0.04721     0.21329   
  1128. BD*(   1) C   2 - C   3          0.02375     0.52378   
  1129. BD*(   2) C   2 - C   3          0.35857     0.02415  1134(v),1139(v),1143(r)
                                                    179(g),1127(v),154(g)
                                                    1126(v)
  1130. BD*(   1) C   2 - C   7          0.03261     0.52511   
  1131. BD*(   1) C   3 - C   4          0.01674     0.53868   
  1132. BD*(   1) C   3 - H  12          0.01553     0.40802   
  1133. BD*(   1) C   4 - C   5          0.01462     0.53491   
  1134. BD*(   2) C   4 - C   5          0.32265     0.02409  1129(v),1139(v),231(g)
                                                    205(g)
  1135. BD*(   1) C   4 - H  11          0.01349     0.40228   
  1136. BD*(   1) C   5 - C   6          0.01477     0.53206   
  1137. BD*(   1) C   5 - H  10          0.01290     0.40205   
  1138. BD*(   1) C   6 - C   7          0.01720     0.54262   
  1139. BD*(   2) C   6 - C   7          0.30598     0.02863  1129(v),1134(v),1153(r)
                                                    257(g)
  1140. BD*(   1) C   6 - H   9          0.01407     0.40063   
  1141. BD*(   1) C   7 - H   8          0.01561     0.40897   
  1142. BD*(   1) C  13 - C  14          0.02487     0.52900   
  1143. BD*(   2) C  13 - C  14          0.38622     0.02559  1148(v),1153(v),1129(r)
                                                    360(g),1125(v),335(g)
                                                    1139(r),464(v),1191(r)
  1144. BD*(   1) C  13 - C  18          0.02164     0.52450   
  1145. BD*(   1) C  14 - C  15          0.01595     0.54596   
  1146. BD*(   1) C  14 - H  23          0.01547     0.40833   
  1147. BD*(   1) C  15 - C  16          0.01456     0.54151   
  1148. BD*(   2) C  15 - C  16          0.33801     0.02942  1153(v),1143(v),412(g)
                                                    386(g)
  1149. BD*(   1) C  15 - H  22          0.01346     0.40591   
  1150. BD*(   1) C  16 - C  17          0.01459     0.54057   
  1151. BD*(   1) C  16 - H  21          0.01300     0.40748   
  1152. BD*(   1) C  17 - C  18          0.01510     0.54777   
  1153. BD*(   2) C  17 - C  18          0.31571     0.03271  1148(v),1143(v),1139(r)
                                                    438(g),464(g)
  1154. BD*(   1) C  17 - H  20          0.01342     0.40789   
  1155. BD*(   1) C  18 - H  19          0.01525     0.41024   
  1156. BD*(   1) C  24 - C  25          0.06139     0.30762   
  1157. BD*(   1) C  24 - C  34          0.02686     0.31871   
  1158. BD*(   1) C  24 - H  61          0.02554     0.36685   
  1159. BD*(   1) C  25 - C  26          0.02123     0.37224   
  1160. BD*(   1) C  25 - C  31          0.01334     0.30888   
  1161. BD*(   1) C  25 - H  60          0.02069     0.37665   
  1162. BD*(   1) C  26 - C  27          0.00948     0.59036   
  1163. BD*(   2) C  26 - C  27          0.06027     0.05117   
  1164. BD*(   1) C  26 - H  59          0.01646     0.42831   
  1165. BD*(   1) C  27 - H  28          0.01650     0.42109   
  1166. BD*(   1) C  27 - C  29          0.01935     0.36116   
  1167. BD*(   1) C  29 - H  30          0.02126     0.37897   
  1168. BD*(   1) C  29 - C  31          0.01353     0.32147   
  1169. BD*(   1) C  29 - C  34          0.05853     0.30079   
  1170. BD*(   1) C  31 - H  32          0.01556     0.38421   
  1171. BD*(   1) C  31 - H  33          0.01291     0.38172   
  1172. BD*(   1) C  34 - P  35          0.04815     0.21230   
  1173. BD*(   1) C  34 - H  58          0.02527     0.37649   
  1174. BD*(   1) P  35 - C  36          0.04111     0.23477   
  1175. BD*(   1) P  35 - C  47          0.04181     0.24552   
  1176. BD*(   1) C  36 - C  37          0.02400     0.52166   
  1177. BD*(   2) C  36 - C  37          0.35884     0.02166  1182(v),1187(v),1191(r)
                                                    771(g),1172(v),746(g)
                                                    1175(v)
  1178. BD*(   1) C  36 - C  41          0.03299     0.52213   
  1179. BD*(   1) C  37 - C  38          0.01680     0.53641   
  1180. BD*(   1) C  37 - H  46          0.01553     0.40757   
  1181. BD*(   1) C  38 - C  39          0.01463     0.53293   
  1182. BD*(   2) C  38 - C  39          0.32190     0.02212  1177(v),1187(v),823(g)
                                                    797(g)
  1183. BD*(   1) C  38 - H  45          0.01350     0.40090   
  1184. BD*(   1) C  39 - C  40          0.01471     0.52986   
  1185. BD*(   1) C  39 - H  44          0.01289     0.40060   
  1186. BD*(   1) C  40 - C  41          0.01723     0.54000   
  1187. BD*(   2) C  40 - C  41          0.30479     0.02652  1182(v),1177(v),1191(r)
                                                    849(g),1201(r)
  1188. BD*(   1) C  40 - H  43          0.01399     0.39984   
  1189. BD*(   1) C  41 - H  42          0.01569     0.40616   
  1190. BD*(   1) C  47 - C  48          0.02542     0.52877   
  1191. BD*(   2) C  47 - C  48          0.38433     0.02562  1196(v),1201(v),1177(r)
                                                    1187(r),952(g),1174(v)
                                                    927(g),1143(r),1056(v)
  1192. BD*(   1) C  47 - C  52          0.02157     0.52452   
  1193. BD*(   1) C  48 - C  49          0.01608     0.54594   
  1194. BD*(   1) C  48 - H  57          0.01537     0.41091   
  1195. BD*(   1) C  49 - C  50          0.01456     0.54135   
  1196. BD*(   2) C  49 - C  50          0.33654     0.02929  1201(v),1191(v),1004(g)
                                                    978(g)
  1197. BD*(   1) C  49 - H  56          0.01354     0.40559   
  1198. BD*(   1) C  50 - C  51          0.01458     0.54010   
  1199. BD*(   1) C  50 - H  55          0.01299     0.40726   
  1200. BD*(   1) C  51 - C  52          0.01504     0.54733   
  1201. BD*(   2) C  51 - C  52          0.31390     0.03266  1196(v),1191(v),1030(g)
                                                    1056(g),1187(r)
  1202. BD*(   1) C  51 - H  54          0.01340     0.40774   
  1203. BD*(   1) C  52 - H  53          0.01538     0.40876   
       -------------------------------
              Total Lewis  238.06317  ( 97.5669%)
        Valence non-Lewis    5.48261  (  2.2470%)
        Rydberg non-Lewis    0.45422  (  0.1862%)
       -------------------------------
            Total unit  1  244.00000  (100.0000%)
           Charge unit  1    0.00000
 1\1\GINC-NC123\SP\RPBE1PBE\def2TZVP\C31H28P2\MACKK4\05-Dec-2021\0\\# P
 BE1PBE/def2TZVP int=(grid=ultrafine) empiricaldispersion=GD3BJ pop=nbo
  guess=read geom=check\\RR_NorPhos_1 title\\0,1\P,0,-1.5919989913,-0.0
 212480463,-0.0247505294\C,0,-2.3700422249,1.625294436,0.1021268446\C,0
 ,-1.8004394321,2.6953411708,-0.6132310428\C,0,-2.3243426996,3.98750540
 2,-0.4701651006\C,0,-3.4217454903,4.2107136925,0.3731744659\C,0,-4.004
 9834447,3.1406584123,1.070695159\C,0,-3.4834538275,1.848462179,0.93675
 95257\H,0,-3.9451119443,1.0092087657,1.467771836\H,0,-4.8726645236,3.3
 135191573,1.715904394\H,0,-3.8350426816,5.2191513563,0.4779443263\H,0,
 -1.8830746955,4.8169894498,-1.0317821186\H,0,-0.9658857319,2.493945429
 7,-1.2952943345\C,0,-2.9597436841,-1.2275325916,0.0003997643\C,0,-2.92
 68273351,-2.3579528894,0.8411604558\C,0,-3.9810837936,-3.2805502753,0.
 8206828979\C,0,-5.0702116732,-3.0844853365,-0.0394635928\C,0,-5.101614
 2847,-1.9653761531,-0.8847882611\C,0,-4.0524650587,-1.0395269111,-0.87
 2112112\H,0,-4.061011315,-0.1837329963,-1.5520992918\H,0,-5.9437047326
 ,-1.8159428226,-1.5678695473\H,0,-5.8918040672,-3.8077945466,-0.055938
 8074\H,0,-3.9482622775,-4.1549469828,1.478693932\H,0,-2.0797395174,-2.
 5294699756,1.5119071687\C,0,-0.607698412,-0.2975106588,1.5214386449\C,
 0,-1.0117740151,-0.195843237,3.0334985161\C,0,-1.2125950555,1.26407096
 03,3.4196841486\C,0,-0.0026096449,1.8639624771,3.4052549966\H,0,0.2112
 178572,2.9289591666,3.5317362403\C,0,1.0196849703,0.8195448792,2.95357
 25248\H,0,2.0792358336,1.040726068,3.1450605165\C,0,0.4144016695,-0.44
 33953009,3.6141019822\H,0,0.8752018219,-1.3875130069,3.2752350987\H,0,
 0.4369754861,-0.3854087514,4.714226976\C,0,0.627336077,0.6412312425,1.
 4347836226\P,0,1.6487554132,0.0023175097,0.0236220729\C,0,2.3438180052
 ,-1.6012728195,0.5547123084\C,0,1.8337567544,-2.7836374592,-0.01448202
 79\C,0,2.2863625922,-4.029141282,0.4429169223\C,0,3.2475403141,-4.0964
 293591,1.4613503645\C,0,3.7677862298,-2.9179298461,2.0205016997\C,0,3.
 32199118,-1.6703427229,1.5676830655\H,0,3.7388255031,-0.7495412179,1.9
 89757891\H,0,4.5275162539,-2.9720542534,2.8070693783\H,0,3.6024758402,
 -5.069816422,1.8152801555\H,0,1.894154316,-4.9469988234,-0.0064478628\
 H,0,1.1021766925,-2.7080349866,-0.8276125423\C,0,3.0723095306,1.130864
 9348,-0.1361389896\C,0,3.095527804,2.3805818248,0.5146216173\C,0,4.200
 0765003,3.2297891611,0.3650073121\C,0,5.2830030458,2.8401706653,-0.434
 9096438\C,0,5.2592061222,1.5997179724,-1.0899582873\C,0,4.1604417767,0
 .7452464612,-0.9471741591\H,0,4.125474117,-0.2076297336,-1.4819243589\
 H,0,6.0977262837,1.2975467722,-1.7252788844\H,0,6.1438561913,3.5061914
 368,-0.5526094477\H,0,4.211703631,4.1984256483,0.8752322312\H,0,2.2552
 617791,2.6990844804,1.1386720079\H,0,0.3019929051,1.6275677857,1.04898
 84813\H,0,-2.1823700409,1.7385844146,3.5815745944\H,0,-1.8042100905,-0
 .8984574475,3.3292249711\H,0,-0.2535874584,-1.3380194344,1.3734981605\
 \Version=ES64L-G09RevE.01\State=1-A\HF=-1879.6369358\RMSD=4.537e-09\Di
 pole=0.0111446,0.0281703,0.7442429\Quadrupole=2.2528904,7.4460781,-9.6
 989684,-1.5502445,0.5706966,-1.7049743\PG=C01 [X(C31H28P2)]\\@


 The arm of the moral universe is long, but it bends toward justice.
 -- Martin Luther King, Jr.
 Job cpu time:       0 days  1 hours  5 minutes  9.7 seconds.
 File lengths (MBytes):  RWF=    744 Int=      0 D2E=      0 Chk=    112 Scr=      1
 Normal termination of Gaussian 09 at Sun Dec  5 03:11:53 2021.
