 Entering Gaussian System, Link 0=g09
 Input=RR_NorPhos_2_SPE.com
 Output=RR_NorPhos_2_SPE.log
 Initial command:
 /gstore/apps/gaussian/g09.e01-foss-2017a/g09/l1.exe "/local/22791351/Gau-18992.inp" -scrdir="/local/22791351/"
 Entering Link 1 = /gstore/apps/gaussian/g09.e01-foss-2017a/g09/l1.exe PID=     18993.
  
 Copyright (c) 1988,1990,1992,1993,1995,1998,2003,2009,2015,
            Gaussian, Inc.  All Rights Reserved.
  
 This is part of the Gaussian(R) 09 program.  It is based on
 the Gaussian(R) 03 system (copyright 2003, Gaussian, Inc.),
 the Gaussian(R) 98 system (copyright 1998, Gaussian, Inc.),
 the Gaussian(R) 94 system (copyright 1995, Gaussian, Inc.),
 the Gaussian 92(TM) system (copyright 1992, Gaussian, Inc.),
 the Gaussian 90(TM) system (copyright 1990, Gaussian, Inc.),
 the Gaussian 88(TM) system (copyright 1988, Gaussian, Inc.),
 the Gaussian 86(TM) system (copyright 1986, Carnegie Mellon
 University), and the Gaussian 82(TM) system (copyright 1983,
 Carnegie Mellon University). Gaussian is a federally registered
 trademark of Gaussian, Inc.
  
 This software contains proprietary and confidential information,
 including trade secrets, belonging to Gaussian, Inc.
  
 This software is provided under written license and may be
 used, copied, transmitted, or stored only in accord with that
 written license.
  
 The following legend is applicable only to US Government
 contracts under FAR:
  
                    RESTRICTED RIGHTS LEGEND
  
 Use, reproduction and disclosure by the US Government is
 subject to restrictions as set forth in subparagraphs (a)
 and (c) of the Commercial Computer Software - Restricted
 Rights clause in FAR 52.227-19.
  
 Gaussian, Inc.
 340 Quinnipiac St., Bldg. 40, Wallingford CT 06492
  
  
 ---------------------------------------------------------------
 Warning -- This program may not be used in any manner that
 competes with the business of Gaussian, Inc. or will provide
 assistance to any competitor of Gaussian, Inc.  The licensee
 of this program is prohibited from giving any competitor of
 Gaussian, Inc. access to this program.  By using this program,
 the user acknowledges that Gaussian, Inc. is engaged in the
 business of creating and licensing software in the field of
 computational chemistry and represents and warrants to the
 licensee that it is not a competitor of Gaussian, Inc. and that
 it will not use this program in any manner prohibited above.
 ---------------------------------------------------------------
  

 Cite this work as:
 Gaussian 09, Revision E.01,
 M. J. Frisch, G. W. Trucks, H. B. Schlegel, G. E. Scuseria, 
 M. A. Robb, J. R. Cheeseman, G. Scalmani, V. Barone, B. Mennucci, 
 G. A. Petersson, H. Nakatsuji, M. Caricato, X. Li, H. P. Hratchian, 
 A. F. Izmaylov, J. Bloino, G. Zheng, J. L. Sonnenberg, M. Hada, 
 M. Ehara, K. Toyota, R. Fukuda, J. Hasegawa, M. Ishida, T. Nakajima, 
 Y. Honda, O. Kitao, H. Nakai, T. Vreven, J. A. Montgomery, Jr., 
 J. E. Peralta, F. Ogliaro, M. Bearpark, J. J. Heyd, E. Brothers, 
 K. N. Kudin, V. N. Staroverov, T. Keith, R. Kobayashi, J. Normand, 
 K. Raghavachari, A. Rendell, J. C. Burant, S. S. Iyengar, J. Tomasi, 
 M. Cossi, N. Rega, J. M. Millam, M. Klene, J. E. Knox, J. B. Cross, 
 V. Bakken, C. Adamo, J. Jaramillo, R. Gomperts, R. E. Stratmann, 
 O. Yazyev, A. J. Austin, R. Cammi, C. Pomelli, J. W. Ochterski, 
 R. L. Martin, K. Morokuma, V. G. Zakrzewski, G. A. Voth, 
 P. Salvador, J. J. Dannenberg, S. Dapprich, A. D. Daniels, 
 O. Farkas, J. B. Foresman, J. V. Ortiz, J. Cioslowski, 
 and D. J. Fox, Gaussian, Inc., Wallingford CT, 2013.
 
 ******************************************
 Gaussian 09:  ES64L-G09RevE.01 30-Nov-2015
                 5-Dec-2021 
 ******************************************
 %nprocs=14
 Will use up to   14 processors via shared memory.
 %mem=128GB
 %chk=RR_NorPhos_2_SPE.chk
 ----------------------------------------------------------------------
 # PBE1PBE gen pseudo=read int=(grid=ultrafine) empiricaldispersion=GD3
 BJ nmr=giao
 ----------------------------------------------------------------------
 1/38=1/1;
 2/12=2,17=6,18=5,40=1/2;
 3/5=7,11=2,16=1,17=8,25=1,30=1,74=-13,75=-5,124=41/1,2,8,3;
 4//1;
 5/5=2,38=5/2;
 8/6=1,10=90,11=11/1;
 10/13=100,45=16/2;
 6/7=2,8=2,9=2,10=2,28=1/1;
 99/9=1/99;
 ------------------
 RR_NorPhos_2 title
 ------------------
 Symbolic Z-matrix:
 Charge =  0 Multiplicity = 1
 P                    -1.62376   0.02057  -0.0167 
 C                    -2.4173    1.66278   0.1384 
 C                    -1.79763   2.74634  -0.51488 
 C                    -2.3043    4.04309  -0.35657 
 C                    -3.43848   4.26193   0.43741 
 C                    -4.07536   3.18043   1.06557 
 C                    -3.56973   1.88311   0.91728 
 H                    -4.08429   1.04165   1.39088 
 H                    -4.97558   3.3466    1.66642 
 H                    -3.83943   5.27405   0.55372 
 H                    -1.82103   4.87984  -0.87089 
 H                    -0.93834   2.55272  -1.168 
 C                    -2.92305  -1.27061  -0.00544 
 C                    -3.63232  -1.57349   1.17747 
 C                    -4.60825  -2.57794   1.17745 
 C                    -4.87933  -3.2931    0.002 
 C                    -4.17307  -2.99946  -1.17247 
 C                    -3.19718  -1.99374  -1.18287 
 H                    -2.6558   -1.74431  -2.10173 
 H                    -4.38077  -3.55435  -2.09297 
 H                    -5.6403   -4.08036   0.00424 
 H                    -5.15352  -2.80443   2.09955 
 H                    -3.42614  -1.02936   2.10331 
 C                    -0.6269   -0.26593   1.53201 
 C                    -0.99242  -0.15455   3.05602 
 C                    -1.19093   1.30761   3.43275 
 C                     0.01804   1.90856   3.39119 
 H                     0.23165   2.97563   3.49909 
 C                     1.03472   0.86092   2.93398 
 H                     2.097     1.08716   3.10316 
 C                     0.44362  -0.39706   3.61129 
 H                     0.89631  -1.34315   3.26784 
 H                     0.48287  -0.33563   4.71084 
 C                     0.61705   0.66206   1.42711 
 P                     1.62254   0.00342   0.01643 
 C                     2.28124  -1.62226   0.52175 
 C                     1.75041  -2.78277  -0.07239 
 C                     2.17888  -4.04564   0.35944 
 C                     3.1364   -4.15186   1.37797 
 C                     3.6767   -2.99522   1.96304 
 C                     3.25528  -1.7304    1.53545 
 H                     3.68758  -0.82665   1.97817 
 H                     4.43265  -3.07981   2.75054 
 H                     3.47198  -5.13884   1.7125 
 H                     1.76965  -4.94666  -0.10831 
 H                     1.02007  -2.67651  -0.88297 
 C                     3.07137   1.09956  -0.13729 
 C                     3.08557   2.37815   0.45491 
 C                     4.20643   3.20642   0.31072 
 C                     5.31501   2.76706  -0.42584 
 C                     5.30073   1.4976   -1.02286 
 C                     4.18523   0.66428  -0.88526 
 H                     4.16106  -0.31338  -1.37346 
 H                     6.15981   1.15616  -1.60886 
 H                     6.18867   3.41681  -0.53973 
 H                     4.2107    4.19787   0.77508 
 H                     2.22509   2.73574   1.02832 
 Pd                    0.02756  -0.06651  -1.62285 
 Cl                    1.8269   -0.39007  -3.14811 
 Cl                   -1.6417    0.19035  -3.30617 
 H                     0.2945    1.64528   1.031 
 H                    -2.15922   1.78492   3.59767 
 H                    -1.76287  -0.86536   3.38542 
 H                    -0.30618  -1.3163    1.37868 
 
 Stoichiometry    C31H28Cl2P2Pd
 Framework group  C1[X(C31H28Cl2P2Pd)]
 Deg. of freedom   186
 Full point group                 C1      NOp   1
 Largest Abelian subgroup         C1      NOp   1
 Largest concise Abelian subgroup C1      NOp   1
                         Standard orientation:                         
 ---------------------------------------------------------------------
 Center     Atomic      Atomic             Coordinates (Angstroms)
 Number     Number       Type             X           Y           Z
 ---------------------------------------------------------------------
      1         15           0       -1.632098    0.038745   -0.035401
      2          6           0       -2.377710    1.710203   -0.005747
      3          6           0       -1.712866    2.729164   -0.716079
      4          6           0       -2.182452    4.047890   -0.654396
      5          6           0       -3.324199    4.352342    0.099516
      6          6           0       -4.005705    3.334267    0.784291
      7          6           0       -3.537369    2.015677    0.732617
      8          1           0       -4.086344    1.223113    1.249911
      9          1           0       -4.911605    3.566453    1.353896
     10          1           0       -3.696066    5.381292    0.140306
     11          1           0       -1.664113    4.833957   -1.212655
     12          1           0       -0.847727    2.467321   -1.336875
     13          6           0       -2.970342   -1.210146    0.033965
     14          6           0       -3.710804   -1.412568    1.219208
     15          6           0       -4.716901   -2.385728    1.265143
     16          6           0       -4.987503   -3.169388    0.134084
     17          6           0       -4.250480   -2.975529   -1.042193
     18          6           0       -3.244202   -2.001794   -1.098602
     19          1           0       -2.678146   -1.830151   -2.020417
     20          1           0       -4.457654   -3.584203   -1.928167
     21          1           0       -5.772155   -3.932085    0.172415
     22          1           0       -5.286199   -2.534153    2.188584
     23          1           0       -3.505592   -0.814222    2.111186
     24          6           0       -0.673961   -0.173010    1.549346
     25          6           0       -1.064642    0.050380    3.054701
     26          6           0       -1.225323    1.539591    3.329786
     27          6           0        0.002075    2.100707    3.273902
     28          1           0        0.246218    3.165873    3.315520
     29          6           0        0.994615    0.995548    2.908245
     30          1           0        2.059944    1.201305    3.084282
     31          6           0        0.352523   -0.196604    3.654670
     32          1           0        0.782416   -1.176358    3.384010
     33          1           0        0.372843   -0.063204    4.748341
     34          6           0        0.599625    0.709034    1.409403
     35         15           0        1.610941   -0.071382    0.066637
     36          6           0        2.209824   -1.678385    0.691907
     37          6           0        1.654988   -2.859845    0.164749
     38          6           0        2.036301   -4.103152    0.687923
     39          6           0        2.970682   -4.169288    1.731036
     40          6           0        3.535030   -2.992574    2.249593
     41          6           0        3.160747   -1.747246    1.730676
     42          1           0        3.612093   -0.829071    2.121668
     43          1           0        4.273001   -3.046618    3.056585
     44          1           0        3.269455   -5.141188    2.136977
     45          1           0        1.608564   -5.020947    0.272256
     46          1           0        0.943712   -2.786473   -0.666168
     47          6           0        3.095342    0.969102   -0.128836
     48          6           0        3.137533    2.283345    0.377782
     49          6           0        4.285780    3.066934    0.202658
     50          6           0        5.394108    2.547125   -0.479933
     51          6           0        5.352203    1.241657   -0.991964
     52          6           0        4.209278    0.452442   -0.822968
     53          1           0        4.164389   -0.554453   -1.245915
     54          1           0        6.211345    0.836859   -1.536047
     55          1           0        6.289275    3.161932   -0.618208
     56          1           0        4.311670    4.086579    0.600497
     57          1           0        2.277733    2.703452    0.908202
     58         46           0        0.045856   -0.203604   -1.597419
     59         17           0        1.862948   -0.680759   -3.060031
     60         17           0       -1.582616   -0.010659   -3.328561
     61          1           0        0.314908    1.672695    0.942556
     62          1           0       -2.181468    2.055031    3.442546
     63          1           0       -1.862613   -0.613987    3.414150
     64          1           0       -0.382745   -1.240221    1.472476
 ---------------------------------------------------------------------
 Rotational constants (GHZ):      0.1121671      0.0775694      0.0731847
 General basis read from cards:  (5D, 7F)
 ======================================================================================================
                                       Pseudopotential Parameters
 ======================================================================================================
  Center     Atomic      Valence      Angular      Power
  Number     Number     Electrons     Momentum     of R      Exponent        Coefficient   SO-Coeffient
 ======================================================================================================
    1         15
                                   No pseudopotential on this center.
    2          6
                                   No pseudopotential on this center.
    3          6
                                   No pseudopotential on this center.
    4          6
                                   No pseudopotential on this center.
    5          6
                                   No pseudopotential on this center.
    6          6
                                   No pseudopotential on this center.
    7          6
                                   No pseudopotential on this center.
    8          1
                                   No pseudopotential on this center.
    9          1
                                   No pseudopotential on this center.
   10          1
                                   No pseudopotential on this center.
   11          1
                                   No pseudopotential on this center.
   12          1
                                   No pseudopotential on this center.
   13          6
                                   No pseudopotential on this center.
   14          6
                                   No pseudopotential on this center.
   15          6
                                   No pseudopotential on this center.
   16          6
                                   No pseudopotential on this center.
   17          6
                                   No pseudopotential on this center.
   18          6
                                   No pseudopotential on this center.
   19          1
                                   No pseudopotential on this center.
   20          1
                                   No pseudopotential on this center.
   21          1
                                   No pseudopotential on this center.
   22          1
                                   No pseudopotential on this center.
   23          1
                                   No pseudopotential on this center.
   24          6
                                   No pseudopotential on this center.
   25          6
                                   No pseudopotential on this center.
   26          6
                                   No pseudopotential on this center.
   27          6
                                   No pseudopotential on this center.
   28          1
                                   No pseudopotential on this center.
   29          6
                                   No pseudopotential on this center.
   30          1
                                   No pseudopotential on this center.
   31          6
                                   No pseudopotential on this center.
   32          1
                                   No pseudopotential on this center.
   33          1
                                   No pseudopotential on this center.
   34          6
                                   No pseudopotential on this center.
   35         15
                                   No pseudopotential on this center.
   36          6
                                   No pseudopotential on this center.
   37          6
                                   No pseudopotential on this center.
   38          6
                                   No pseudopotential on this center.
   39          6
                                   No pseudopotential on this center.
   40          6
                                   No pseudopotential on this center.
   41          6
                                   No pseudopotential on this center.
   42          1
                                   No pseudopotential on this center.
   43          1
                                   No pseudopotential on this center.
   44          1
                                   No pseudopotential on this center.
   45          1
                                   No pseudopotential on this center.
   46          1
                                   No pseudopotential on this center.
   47          6
                                   No pseudopotential on this center.
   48          6
                                   No pseudopotential on this center.
   49          6
                                   No pseudopotential on this center.
   50          6
                                   No pseudopotential on this center.
   51          6
                                   No pseudopotential on this center.
   52          6
                                   No pseudopotential on this center.
   53          1
                                   No pseudopotential on this center.
   54          1
                                   No pseudopotential on this center.
   55          1
                                   No pseudopotential on this center.
   56          1
                                   No pseudopotential on this center.
   57          1
                                   No pseudopotential on this center.
   58         46           18
                                      G and up 
                                                     2        1.0000000        0.00000000    0.00000000
                                      S - G
                                                     2       12.4300000      240.22904000    0.00000000
                                                     2        6.1707590       35.17194300    0.00000000
                                      P - G
                                                     2       11.0800000      170.41727600    0.00000000
                                                     2        5.8295540       28.47213300    0.00000000
                                      D - G
                                                     2        9.5100000       69.01384500    0.00000000
                                                     2        4.1397810       11.75086200    0.00000000
                                      F - G
                                                     2       13.2700000      -31.92955400    0.00000000
                                                     2        6.6300000       -5.39821700    0.00000000
   59         17
                                   No pseudopotential on this center.
   60         17
                                   No pseudopotential on this center.
   61          1
                                   No pseudopotential on this center.
   62          1
                                   No pseudopotential on this center.
   63          1
                                   No pseudopotential on this center.
   64          1
                                   No pseudopotential on this center.
 ======================================================================================================
 There are  1491 symmetry adapted cartesian basis functions of A   symmetry.
 There are  1313 symmetry adapted basis functions of A   symmetry.
  1313 basis functions,  2146 primitive gaussians,  1491 cartesian basis functions
   148 alpha electrons      148 beta electrons
       nuclear repulsion energy      5179.9420687644 Hartrees.
 NAtoms=   64 NActive=   64 NUniq=   64 SFac= 1.00D+00 NAtFMM=   60 NAOKFM=T Big=T
 Integral buffers will be    131072 words long.
 Raffenetti 2 integral format.
 Two-electron integral symmetry is turned on.
 Nuclear repulsion after empirical dispersion term =     5179.8264731509 Hartrees.
 One-electron integrals computed using PRISM.
   1 Symmetry operations used in ECPInt.
 ECPInt:  NShTT=  134940 NPrTT=  421824 LenC2=  111438 LenP2D=  233937.
 LDataN:  DoStor=T MaxTD1= 7 Len=  274
 NBasis=  1313 RedAO= T EigKep=  6.52D-06  NBF=  1313
 NBsUse=  1313 1.00D-06 EigRej= -1.00D+00 NBFU=  1313
 Defaulting to unpruned grid for atomic number  46.
 ExpMin= 1.60D-02 ExpMax= 6.95D+04 ExpMxC= 2.37D+03 IAcc=3 IRadAn=         5 AccDes= 0.00D+00
 Harris functional with IExCor= 1009 and IRadAn=       5 diagonalized for initial guess.
 HarFok:  IExCor= 1009 AccDes= 0.00D+00 IRadAn=         5 IDoV= 1 UseB2=F ITyADJ=14
 ICtDFT=  3500011 ScaDFX=  1.000000  1.000000  1.000000  1.000000
 Defaulting to unpruned grid for atomic number  46.
 Defaulting to unpruned grid for atomic number  46.
 Defaulting to unpruned grid for atomic number  46.
 Defaulting to unpruned grid for atomic number  46.
 Defaulting to unpruned grid for atomic number  46.
 Defaulting to unpruned grid for atomic number  46.
 Defaulting to unpruned grid for atomic number  46.
 Defaulting to unpruned grid for atomic number  46.
 Defaulting to unpruned grid for atomic number  46.
 Defaulting to unpruned grid for atomic number  46.
 Defaulting to unpruned grid for atomic number  46.
 Defaulting to unpruned grid for atomic number  46.
 Defaulting to unpruned grid for atomic number  46.
 Defaulting to unpruned grid for atomic number  46.
 FoFCou: FMM=F IPFlag=           0 FMFlag=      100000 FMFlg1=        2001
         NFxFlg=           0 DoJE=T BraDBF=F KetDBF=T FulRan=T
         wScrn=  0.000000 ICntrl=     500 IOpCl=  0 I1Cent=   200000004 NGrid=           0
         NMat0=    1 NMatS0=      1 NMatT0=    0 NMatD0=    1 NMtDS0=    0 NMtDT0=    0
 Petite list used in FoFCou.
 Requested convergence on RMS density matrix=1.00D-08 within 128 cycles.
 Requested convergence on MAX density matrix=1.00D-06.
 Requested convergence on             energy=1.00D-06.
 No special actions if energy rises.
 Defaulting to unpruned grid for atomic number  46.
 Defaulting to unpruned grid for atomic number  46.
 Defaulting to unpruned grid for atomic number  46.
 Defaulting to unpruned grid for atomic number  46.
 Defaulting to unpruned grid for atomic number  46.
 Defaulting to unpruned grid for atomic number  46.
 Defaulting to unpruned grid for atomic number  46.
 Defaulting to unpruned grid for atomic number  46.
 Defaulting to unpruned grid for atomic number  46.
 Defaulting to unpruned grid for atomic number  46.
 Defaulting to unpruned grid for atomic number  46.
 Defaulting to unpruned grid for atomic number  46.
 Defaulting to unpruned grid for atomic number  46.
 Defaulting to unpruned grid for atomic number  46.
 EnCoef did     6 forward-backward iterations
 EnCoef did   100 forward-backward iterations
 EnCoef did   100 forward-backward iterations
 EnCoef did     7 forward-backward iterations
 SCF Done:  E(RPBE1PBE) =  -2927.82953254     A.U. after   20 cycles
            NFock= 20  Conv=0.66D-08     -V/T= 2.0318
 DoSCS=F DFT=T ScalE2(SS,OS)=  1.000000  1.000000
 Range of M.O.s used for correlation:     1  1313
 NBasis=  1313 NAE=   148 NBE=   148 NFC=     0 NFV=     0
 NROrb=   1313 NOA=   148 NOB=   148 NVA=  1165 NVB=  1165

 **** Warning!!: The largest alpha MO coefficient is  0.54071656D+02

          Differentiating once with respect to magnetic field using GIAOs.
          Electric field/nuclear overlap derivatives assumed to be zero.
 Defaulting to unpruned grid for atomic number  46.
 FoFCou: FMM=F IPFlag=           0 FMFlag=      100000 FMFlg1=        2001
         NFxFlg=           0 DoJE=F BraDBF=F KetDBF=T FulRan=T
         wScrn=  0.000000 ICntrl=    6100 IOpCl=  0 I1Cent=           7 NGrid=          64
         NMat0=    1 NMatS0=      1 NMatT0=    0 NMatD0=    1 NMtDS0=    0 NMtDT0=    0
 Symmetry not used in FoFCou.
   1 Symmetry operations used in ECPInt.
 ECPInt:  NShTT=  134940 NPrTT=  421824 LenC2=  134941 LenP2D=  421824.
 LDataN:  DoStor=T MaxTD1= 8 Len=  415
 FoFJK:  IHMeth= 1 ICntrl=    6127 DoSepK=F KAlg= 0 I1Cent=   0 FoldK=F
 IRaf=         1 NMat=   1 IRICut=       1 DoRegI=T DoRafI=F ISym2E= 0.
 Defaulting to unpruned grid for atomic number  46.
 Defaulting to unpruned grid for atomic number  46.
 Defaulting to unpruned grid for atomic number  46.
 Defaulting to unpruned grid for atomic number  46.
 Defaulting to unpruned grid for atomic number  46.
 Defaulting to unpruned grid for atomic number  46.
 Defaulting to unpruned grid for atomic number  46.
 Defaulting to unpruned grid for atomic number  46.
 Defaulting to unpruned grid for atomic number  46.
 Defaulting to unpruned grid for atomic number  46.
 Defaulting to unpruned grid for atomic number  46.
 Defaulting to unpruned grid for atomic number  46.
 Defaulting to unpruned grid for atomic number  46.
 Defaulting to unpruned grid for atomic number  46.
          There are     3 degrees of freedom in the 1st order CPHF.  IDoFFX=0 NUNeed=     3.
      3 vectors produced by pass  0 Test12= 5.75D-12 3.33D-08 XBig12= 1.38D+02 1.48D+00.
 AX will form     3 AO Fock derivatives at one time.
      3 vectors produced by pass  1 Test12= 5.75D-12 3.33D-08 XBig12= 6.56D-01 1.33D-01.
      3 vectors produced by pass  2 Test12= 5.75D-12 3.33D-08 XBig12= 7.98D-03 3.50D-02.
      3 vectors produced by pass  3 Test12= 5.75D-12 3.33D-08 XBig12= 1.66D-04 4.44D-03.
      3 vectors produced by pass  4 Test12= 5.75D-12 3.33D-08 XBig12= 6.85D-07 1.57D-04.
      3 vectors produced by pass  5 Test12= 5.75D-12 3.33D-08 XBig12= 4.39D-09 1.94D-05.
      3 vectors produced by pass  6 Test12= 5.75D-12 3.33D-08 XBig12= 4.37D-11 2.50D-06.
      3 vectors produced by pass  7 Test12= 5.75D-12 3.33D-08 XBig12= 4.76D-13 1.74D-07.
 InvSVY:  IOpt=1 It=  1 EMax= 1.78D-15
 Solved reduced A of dimension    24 with     3 vectors.
 Calculating GIAO nuclear magnetic shielding tensors.
 SCF GIAO Magnetic shielding tensor (ppm):
      1  P    Isotropic =   242.7475   Anisotropy =   130.2747
   XX=   263.2572   YX=    -2.0511   ZX=   -64.1883
   XY=     6.4145   YY=   203.4942   ZY=    31.0519
   XZ=   -65.1530   YZ=    23.7224   ZZ=   261.4912
   Eigenvalues:   178.4338   220.2115   329.5973
      2  C    Isotropic =    50.7322   Anisotropy =   176.8152
   XX=    66.8185   YX=    30.9212   ZX=    62.2743
   XY=    41.3822   YY=   -33.9353   ZY=    25.7449
   XZ=    65.2301   YZ=    13.2795   ZZ=   119.3134
   Eigenvalues:   -45.5716    29.1593   168.6090
      3  C    Isotropic =    37.0896   Anisotropy =   190.2605
   XX=    10.4656   YX=    35.7020   ZX=   106.7932
   XY=    26.0610   YY=    26.1770   ZY=     9.0099
   XZ=   112.9072   YZ=    21.7166   ZZ=    74.6262
   Eigenvalues:   -74.3812    21.7201   163.9299
      4  C    Isotropic =    51.2049   Anisotropy =   186.6452
   XX=    61.4728   YX=   -18.1187   ZX=    87.0106
   XY=   -19.8255   YY=    -8.9852   ZY=    53.7096
   XZ=    85.9454   YZ=    55.8627   ZZ=   101.1272
   Eigenvalues:   -59.3631    37.3429   175.6351
      5  C    Isotropic =    48.0760   Anisotropy =   192.8145
   XX=    68.0260   YX=    41.5001   ZX=    67.8063
   XY=    42.5413   YY=   -49.4548   ZY=    17.3469
   XZ=    67.7616   YZ=    15.4042   ZZ=   125.6567
   Eigenvalues:   -63.1061    30.7150   176.6190
      6  C    Isotropic =    52.9010   Anisotropy =   184.4632
   XX=    16.4628   YX=    29.8993   ZX=   103.9847
   XY=    30.3586   YY=    40.8255   ZY=     6.2730
   XZ=   105.3527   YZ=     8.6505   ZZ=   101.4146
   Eigenvalues:   -58.4897    41.3162   175.8765
      7  C    Isotropic =    46.1687   Anisotropy =   197.0079
   XX=    47.9905   YX=   -19.8607   ZX=    91.9419
   XY=   -22.4424   YY=   -14.8462   ZY=    52.0064
   XZ=    89.7925   YZ=    57.3141   ZZ=   105.3619
   Eigenvalues:   -68.1790    29.1778   177.5073
      8  H    Isotropic =    23.3412   Anisotropy =    11.6764
   XX=    24.5401   YX=    -5.4126   ZX=    -3.5565
   XY=    -3.8331   YY=    26.6481   ZY=     2.9538
   XZ=    -1.7100   YZ=     0.7914   ZZ=    18.8353
   Eigenvalues:    17.8050    21.0931    31.1255
      9  H    Isotropic =    23.8343   Anisotropy =     6.3761
   XX=    23.2663   YX=    -1.7391   ZX=    -1.5903
   XY=    -1.0083   YY=    27.6038   ZY=    -0.9161
   XZ=    -1.0144   YZ=    -1.4222   ZZ=    20.6329
   Eigenvalues:    19.7625    23.6554    28.0851
     10  H    Isotropic =    23.6594   Anisotropy =     4.0463
   XX=    24.5161   YX=    -0.6447   ZX=    -2.7393
   XY=    -0.1448   YY=    24.2577   ZY=    -0.9932
   XZ=    -2.6788   YZ=    -1.3238   ZZ=    22.2043
   Eigenvalues:    20.0781    24.5431    26.3569
     11  H    Isotropic =    23.6280   Anisotropy =     7.2852
   XX=    23.2999   YX=    -3.3314   ZX=    -1.6318
   XY=    -2.8638   YY=    26.5031   ZY=     0.2451
   XZ=    -1.5345   YZ=    -0.2317   ZZ=    21.0811
   Eigenvalues:    19.8429    22.5563    28.4848
     12  H    Isotropic =    22.1091   Anisotropy =    12.3016
   XX=    17.2582   YX=    -3.2686   ZX=     0.7121
   XY=    -1.5310   YY=    29.7528   ZY=    -0.8923
   XZ=     0.0520   YZ=    -1.2263   ZZ=    19.3164
   Eigenvalues:    16.7994    19.2178    30.3102
     13  C    Isotropic =    47.7459   Anisotropy =   173.9316
   XX=    51.7910   YX=   -96.9308   ZX=    34.0121
   XY=   -99.0585   YY=    54.5712   ZY=   -24.1444
   XZ=    28.4302   YZ=   -26.1407   ZZ=    36.8756
   Eigenvalues:   -45.1074    24.6447   163.7003
     14  C    Isotropic =    46.7879   Anisotropy =   181.1785
   XX=    96.3676   YX=   -66.0144   ZX=    11.0217
   XY=   -68.7987   YY=    69.1284   ZY=   -69.9691
   XZ=    17.5835   YZ=   -65.1236   ZZ=   -25.1324
   Eigenvalues:   -62.9377    35.7279   167.5736
     15  C    Isotropic =    53.4121   Anisotropy =   182.9265
   XX=    75.6109   YX=   -66.4862   ZX=    72.9551
   XY=   -67.2452   YY=   100.5741   ZY=   -17.7543
   XZ=    70.7920   YZ=   -15.2149   ZZ=   -15.9485
   Eigenvalues:   -57.7481    42.6214   175.3631
     16  C    Isotropic =    47.7942   Anisotropy =   193.6053
   XX=    47.3400   YX=  -114.5007   ZX=    31.9739
   XY=  -112.6039   YY=    51.3895   ZY=   -29.5288
   XZ=    31.2922   YZ=   -28.6253   ZZ=    44.6531
   Eigenvalues:   -64.2532    30.7714   176.8644
     17  C    Isotropic =    49.8803   Anisotropy =   189.8458
   XX=    95.4957   YX=   -74.9230   ZX=    13.0775
   XY=   -73.9707   YY=    69.6801   ZY=   -72.5834
   XZ=    14.8983   YZ=   -72.0944   ZZ=   -15.5348
   Eigenvalues:   -61.7034    34.9002   176.4442
     18  C    Isotropic =    36.2295   Anisotropy =   205.7698
   XX=    65.4935   YX=   -76.2488   ZX=    67.8971
   XY=   -80.6251   YY=    80.1031   ZY=   -29.1103
   XZ=    67.2340   YZ=   -28.8539   ZZ=   -36.9080
   Eigenvalues:   -71.2046     6.4838   173.4094
     19  H    Isotropic =    21.0043   Anisotropy =    14.8140
   XX=    21.1607   YX=     9.3919   ZX=     0.2400
   XY=     8.2205   YY=    22.8997   ZY=    -0.5825
   XZ=    -0.7934   YZ=     0.7717   ZZ=    18.9527
   Eigenvalues:    13.1687    18.9640    30.8804
     20  H    Isotropic =    23.4811   Anisotropy =     7.2120
   XX=    24.6620   YX=     4.1592   ZX=    -1.6717
   XY=     3.7533   YY=    23.0881   ZY=    -0.3043
   XZ=    -1.8631   YZ=     0.0642   ZZ=    22.6933
   Eigenvalues:    19.4843    22.6700    28.2891
     21  H    Isotropic =    23.5757   Anisotropy =     4.1673
   XX=    22.7616   YX=     1.7714   ZX=    -1.1772
   XY=     1.6249   YY=    22.3425   ZY=     1.4199
   XZ=    -1.4403   YZ=     1.6236   ZZ=    25.6229
   Eigenvalues:    20.1103    24.2628    26.3539
     22  H    Isotropic =    23.6631   Anisotropy =     6.5460
   XX=    24.3484   YX=     3.7542   ZX=    -0.1273
   XY=     3.6735   YY=    24.0496   ZY=     1.3136
   XZ=    -0.5178   YZ=     1.5593   ZZ=    22.5914
   Eigenvalues:    19.8809    23.0813    28.0271
     23  H    Isotropic =    23.0175   Anisotropy =    11.0253
   XX=    26.8996   YX=     3.9520   ZX=    -2.7752
   XY=     4.3519   YY=    20.8056   ZY=    -1.7690
   XZ=    -3.4315   YZ=    -1.5088   ZZ=    21.3472
   Eigenvalues:    18.7001    19.9846    30.3677
     24  C    Isotropic =   130.2447   Anisotropy =    43.5159
   XX=   138.8338   YX=    -4.0764   ZX=    -3.0642
   XY=     0.5822   YY=    92.6497   ZY=    -0.5471
   XZ=     3.5073   YZ=    -0.1869   ZZ=   159.2507
   Eigenvalues:    92.5817   138.8971   159.2553
     25  C    Isotropic =   136.8131   Anisotropy =    14.2360
   XX=   134.0099   YX=    -0.4535   ZX=     0.0035
   XY=     1.3535   YY=   136.1407   ZY=    -4.7103
   XZ=    16.7107   YZ=     0.4163   ZZ=   140.2888
   Eigenvalues:   127.9092   136.2263   146.3038
     26  C    Isotropic =    44.1247   Anisotropy =   170.9030
   XX=    24.0193   YX=    30.6512   ZX=    17.8748
   XY=    62.5589   YY=   -36.4117   ZY=   -26.8755
   XZ=    63.1184   YZ=   -28.7601   ZZ=   144.7665
   Eigenvalues:   -70.8038    45.1178   158.0600
     27  C    Isotropic =    36.9470   Anisotropy =   181.2624
   XX=    29.4779   YX=    36.5506   ZX=    12.9034
   XY=     5.2279   YY=   -67.7666   ZY=   -20.4235
   XZ=   -20.6701   YZ=   -65.4319   ZZ=   149.1299
   Eigenvalues:   -79.5548    32.6073   157.7886
     28  H    Isotropic =    24.9843   Anisotropy =     2.5617
   XX=    25.3635   YX=     1.0912   ZX=     0.7724
   XY=    -0.2433   YY=    23.3674   ZY=     2.7640
   XZ=    -0.6127   YZ=    -0.3786   ZZ=    26.2220
   Eigenvalues:    22.8789    25.3819    26.6920
     29  C    Isotropic =   141.1180   Anisotropy =    11.4296
   XX=   141.8027   YX=    -4.0179   ZX=     4.7974
   XY=    -3.3879   YY=   136.0513   ZY=    -0.1105
   XZ=   -14.1915   YZ=    -6.4605   ZZ=   145.5001
   Eigenvalues:   132.2392   142.3771   148.7377
     30  H    Isotropic =    28.7405   Anisotropy =     7.4464
   XX=    32.0768   YX=     1.7886   ZX=     1.9684
   XY=     2.8828   YY=    25.2747   ZY=     0.8343
   XZ=     1.1337   YZ=     2.9733   ZZ=    28.8699
   Eigenvalues:    24.1177    28.3990    33.7047
     31  C    Isotropic =   131.5465   Anisotropy =    35.2768
   XX=   144.5400   YX=   -13.4889   ZX=    18.3113
   XY=    -5.7346   YY=   138.0736   ZY=    -1.0572
   XZ=     5.6297   YZ=    -8.1669   ZZ=   112.0258
   Eigenvalues:   108.0241   131.5510   155.0643
     32  H    Isotropic =    30.6595   Anisotropy =     8.4973
   XX=    28.8495   YX=    -7.0657   ZX=    -1.9689
   XY=    -4.3838   YY=    31.9207   ZY=    -1.7813
   XZ=    -0.5758   YZ=    -0.7823   ZZ=    31.2082
   Eigenvalues:    24.0126    31.6415    36.3244
     33  H    Isotropic =    29.9387   Anisotropy =    12.5188
   XX=    26.8215   YX=    -0.9834   ZX=     2.0048
   XY=    -0.0620   YY=    25.3649   ZY=    -1.3420
   XZ=     1.5535   YZ=    -2.9152   ZZ=    37.6298
   Eigenvalues:    24.9756    26.5560    38.2846
     34  C    Isotropic =   130.8658   Anisotropy =    63.8929
   XX=   134.0833   YX=     1.0157   ZX=    13.2550
   XY=     4.8736   YY=    93.3184   ZY=    23.4563
   XZ=     9.4966   YZ=    14.7389   ZZ=   165.1957
   Eigenvalues:    88.5590   130.5773   173.4610
     35  P    Isotropic =   238.4404   Anisotropy =    75.6795
   XX=   235.6080   YX=    14.0394   ZX=    43.8835
   XY=    17.7377   YY=   224.2910   ZY=   -10.7694
   XZ=    40.3521   YZ=   -20.9238   ZZ=   255.4221
   Eigenvalues:   188.3816   238.0462   288.8934
     36  C    Isotropic =    46.7178   Anisotropy =   180.8884
   XX=   101.3180   YX=     9.0740   ZX=   -73.4629
   XY=    13.4989   YY=   -34.4744   ZY=    22.7940
   XZ=   -83.6146   YZ=    24.6429   ZZ=    73.3100
   Eigenvalues:   -46.6185    19.4620   167.3101
     37  C    Isotropic =    36.2170   Anisotropy =   194.3245
   XX=    60.6597   YX=     1.5443   ZX=  -119.9854
   XY=    -7.2606   YY=    20.9146   ZY=     4.8925
   XZ=  -121.3290   YZ=    -1.1931   ZZ=    27.0768
   Eigenvalues:   -77.9541    20.8385   165.7667
     38  C    Isotropic =    50.7894   Anisotropy =   187.9464
   XX=    98.7369   YX=   -36.5763   ZX=   -84.3925
   XY=   -37.7899   YY=   -31.6446   ZY=   -24.8900
   XZ=   -82.2243   YZ=   -26.4925   ZZ=    85.2760
   Eigenvalues:   -60.3373    36.6186   176.0870
     39  C    Isotropic =    47.5979   Anisotropy =   194.2241
   XX=   105.0246   YX=    14.2386   ZX=   -81.1774
   XY=    14.9431   YY=   -45.0734   ZY=    35.5491
   XZ=   -82.0745   YZ=    36.9162   ZZ=    82.8426
   Eigenvalues:   -63.8142    29.5273   177.0806
     40  C    Isotropic =    52.3159   Anisotropy =   185.7439
   XX=    69.7415   YX=    -3.2680   ZX=  -116.6798
   XY=    -4.2397   YY=    39.9218   ZY=     8.5765
   XZ=  -116.5937   YZ=     6.6042   ZZ=    47.2844
   Eigenvalues:   -58.7603    39.5628   176.1451
     41  C    Isotropic =    45.1950   Anisotropy =   194.0766
   XX=    85.3145   YX=   -38.4135   ZX=   -92.0763
   XY=   -40.5071   YY=   -35.1074   ZY=   -21.9197
   XZ=   -85.3981   YZ=   -28.9602   ZZ=    85.3781
   Eigenvalues:   -68.0742    29.0799   174.5794
     42  H    Isotropic =    24.0600   Anisotropy =    11.5271
   XX=    24.7143   YX=    -4.1001   ZX=     4.0810
   XY=    -3.2853   YY=    23.4357   ZY=    -3.9881
   XZ=     2.0908   YZ=    -5.5000   ZZ=    24.0301
   Eigenvalues:    18.8826    21.5527    31.7448
     43  H    Isotropic =    23.9219   Anisotropy =     6.3546
   XX=    22.4599   YX=    -1.1303   ZX=     1.8687
   XY=    -0.8535   YY=    27.4948   ZY=    -0.9782
   XZ=     1.8532   YZ=    -1.7309   ZZ=    21.8111
   Eigenvalues:    20.2224    23.3851    28.1583
     44  H    Isotropic =    23.6863   Anisotropy =     3.9443
   XX=    23.3836   YX=     0.1367   ZX=     2.9468
   XY=     0.2996   YY=    24.6526   ZY=     0.6823
   XZ=     2.9805   YZ=     0.2774   ZZ=    23.0228
   Eigenvalues:    20.2249    24.5182    26.3159
     45  H    Isotropic =    23.6471   Anisotropy =     7.2984
   XX=    22.6514   YX=    -2.3160   ZX=     2.3804
   XY=    -2.3288   YY=    25.8843   ZY=    -1.7072
   XZ=     2.7762   YZ=    -2.0788   ZZ=    22.4057
   Eigenvalues:    19.9345    22.4942    28.5127
     46  H    Isotropic =    22.0178   Anisotropy =    11.8971
   XX=    18.4273   YX=    -2.2173   ZX=    -0.4906
   XY=    -1.9213   YY=    29.4135   ZY=    -1.2221
   XZ=     0.6583   YZ=    -1.5232   ZZ=    18.2127
   Eigenvalues:    17.8898    18.2145    29.9492
     47  C    Isotropic =    45.4682   Anisotropy =   174.4848
   XX=    -0.1923   YX=   -50.5294   ZX=    53.5335
   XY=   -46.4002   YY=    16.2039   ZY=   -36.0169
   XZ=    54.5681   YZ=   -42.3200   ZZ=   120.3931
   Eigenvalues:   -43.2497    17.8630   161.7914
     48  C    Isotropic =    49.2956   Anisotropy =   185.9793
   XX=    -4.5596   YX=    13.3908   ZX=    80.0600
   XY=    18.9037   YY=    37.6705   ZY=   -62.0835
   XZ=    74.9835   YZ=   -67.1502   ZZ=   114.7760
   Eigenvalues:   -63.4700    38.0751   173.2819
     49  C    Isotropic =    53.3368   Anisotropy =   183.1838
   XX=    60.0565   YX=   -18.4573   ZX=    41.4167
   XY=   -19.9484   YY=   -29.4257   ZY=   -74.0304
   XZ=    40.8164   YZ=   -71.5243   ZZ=   129.3796
   Eigenvalues:   -57.8151    42.3662   175.4594
     50  C    Isotropic =    48.3617   Anisotropy =   191.9656
   XX=    -8.9599   YX=   -60.2872   ZX=    55.2419
   XY=   -64.4312   YY=    17.2301   ZY=   -36.4968
   XZ=    59.8864   YZ=   -34.1048   ZZ=   136.8149
   Eigenvalues:   -62.5769    31.3232   176.3388
     51  C    Isotropic =    51.1269   Anisotropy =   188.5452
   XX=    -1.5299   YX=    10.8843   ZX=    81.7047
   XY=     8.2948   YY=    39.7006   ZY=   -59.5121
   XZ=    84.0826   YZ=   -61.7206   ZZ=   115.2099
   Eigenvalues:   -59.6053    36.1622   176.8237
     52  C    Isotropic =    38.7618   Anisotropy =   203.6932
   XX=    33.1862   YX=   -19.1337   ZX=    54.3877
   XY=   -10.5609   YY=   -38.0667   ZY=   -77.5999
   XZ=    45.1857   YZ=   -85.9350   ZZ=   121.1658
   Eigenvalues:   -72.9177    14.6458   174.5572
     53  H    Isotropic =    22.9620   Anisotropy =    12.0901
   XX=    30.1840   YX=     3.1991   ZX=    -3.1539
   XY=     0.7428   YY=    17.7290   ZY=     0.4921
   XZ=    -1.3428   YZ=    -1.7119   ZZ=    20.9729
   Eigenvalues:    17.4033    20.4606    31.0220
     54  H    Isotropic =    23.7068   Anisotropy =     6.6982
   XX=    25.3835   YX=     3.2376   ZX=    -1.0868
   XY=     2.7331   YY=    24.9633   ZY=     1.1201
   XZ=    -1.0482   YZ=     0.5595   ZZ=    20.7735
   Eigenvalues:    19.9578    22.9903    28.1722
     55  H    Isotropic =    23.6372   Anisotropy =     4.0558
   XX=    24.5113   YX=     0.0554   ZX=    -1.8894
   XY=    -0.4176   YY=    24.7174   ZY=     2.1229
   XZ=    -1.4765   YZ=     2.0135   ZZ=    21.6829
   Eigenvalues:    20.1559    24.4148    26.3411
     56  H    Isotropic =    23.7114   Anisotropy =     6.9158
   XX=    26.8876   YX=     2.2706   ZX=    -2.1423
   XY=     2.2341   YY=    23.3656   ZY=     0.5549
   XZ=    -1.8287   YZ=     0.5183   ZZ=    20.8811
   Eigenvalues:    19.8347    22.9776    28.3220
     57  H    Isotropic =    23.5225   Anisotropy =    12.2480
   XX=    24.3577   YX=     6.0226   ZX=    -0.6671
   XY=     6.1157   YY=    26.6577   ZY=     0.5116
   XZ=    -0.1862   YZ=     0.6917   ZZ=    19.5521
   Eigenvalues:    18.7192    20.1604    31.6878
     58  Pd   Isotropic =  -157.6359   Anisotropy =   276.2035
   XX=    -3.5454   YX=   -30.1253   ZX=     1.2102
   XY=   -55.9690   YY=  -490.7786   ZY=    43.5033
   XZ=     9.3321   YZ=    58.6573   ZZ=    21.4164
   Eigenvalues:  -499.6125     0.2051    26.4998
     59  Cl   Isotropic =   921.4587   Anisotropy =   525.5737
   XX=   752.0409   YX=    61.0698   ZX=  -170.6275
   XY=    93.6769   YY=  1260.0761   ZY=    30.5021
   XZ=  -183.8779   YZ=    43.6066   ZZ=   752.2592
   Eigenvalues:   565.4401   927.0949  1271.8412
     60  Cl   Isotropic =   972.4187   Anisotropy =   605.3848
   XX=   724.9474   YX=    17.3856   ZX=   105.1634
   XY=   126.4225   YY=  1360.3197   ZY=    -4.7047
   XZ=   119.0010   YZ=  -147.5732   ZZ=   831.9890
   Eigenvalues:   639.9293   901.3182  1376.0085
     61  H    Isotropic =    28.6074   Anisotropy =     4.0437
   XX=    27.6258   YX=    -3.6030   ZX=     1.0406
   XY=     1.0411   YY=    28.3390   ZY=    -0.0875
   XZ=     2.9618   YZ=    -0.4138   ZZ=    29.8575
   Eigenvalues:    26.0116    28.5074    31.3032
     62  H    Isotropic =    25.5403   Anisotropy =     5.3698
   XX=    24.9179   YX=    -2.0976   ZX=     1.0932
   XY=     1.3697   YY=    23.1546   ZY=     2.3053
   XZ=     1.7669   YZ=    -0.6372   ZZ=    28.5486
   Eigenvalues:    22.8416    24.6592    29.1202
     63  H    Isotropic =    28.2826   Anisotropy =     9.4109
   XX=    30.9076   YX=     3.4056   ZX=    -1.2263
   XY=     4.3856   YY=    25.1669   ZY=    -1.8732
   XZ=    -4.0296   YZ=    -1.5383   ZZ=    28.7734
   Eigenvalues:    23.1737    27.1176    34.5566
     64  H    Isotropic =    28.9260   Anisotropy =     6.1087
   XX=    30.4723   YX=    -3.7964   ZX=     0.0927
   XY=    -1.8988   YY=    27.4302   ZY=     0.7170
   XZ=    -2.5545   YZ=     2.2728   ZZ=    28.8754
   Eigenvalues:    25.5724    28.2072    32.9984
 End of Minotr F.D. properties file   721 does not exist.
 End of Minotr F.D. properties file   722 does not exist.
 End of Minotr F.D. properties file   788 does not exist.

 **********************************************************************

            Population analysis using the SCF density.

 **********************************************************************

 Orbital symmetries:
       Occupied  (A) (A) (A) (A) (A) (A) (A) (A) (A) (A) (A) (A)
                 (A) (A) (A) (A) (A) (A) (A) (A) (A) (A) (A) (A)
                 (A) (A) (A) (A) (A) (A) (A) (A) (A) (A) (A) (A)
                 (A) (A) (A) (A) (A) (A) (A) (A) (A) (A) (A) (A)
                 (A) (A) (A) (A) (A) (A) (A) (A) (A) (A) (A) (A)
                 (A) (A) (A) (A) (A) (A) (A) (A) (A) (A) (A) (A)
                 (A) (A) (A) (A) (A) (A) (A) (A) (A) (A) (A) (A)
                 (A) (A) (A) (A) (A) (A) (A) (A) (A) (A) (A) (A)
                 (A) (A) (A) (A) (A) (A) (A) (A) (A) (A) (A) (A)
                 (A) (A) (A) (A) (A) (A) (A) (A) (A) (A) (A) (A)
                 (A) (A) (A) (A) (A) (A) (A) (A) (A) (A) (A) (A)
                 (A) (A) (A) (A) (A) (A) (A) (A) (A) (A) (A) (A)
                 (A) (A) (A) (A)
       Virtual   (A) (A) (A) (A) (A) (A) (A) (A) (A) (A) (A) (A)
                 (A) (A) (A) (A) (A) (A) (A) (A) (A) (A) (A) (A)
                 (A) (A) (A) (A) (A) (A) (A) (A) (A) (A) (A) (A)
                 (A) (A) (A) (A) (A) (A) (A) (A) (A) (A) (A) (A)
                 (A) (A) (A) (A) (A) (A) (A) (A) (A) (A) (A) (A)
                 (A) (A) (A) (A) (A) (A) (A) (A) (A) (A) (A) (A)
                 (A) (A) (A) (A) (A) (A) (A) (A) (A) (A) (A) (A)
                 (A) (A) (A) (A) (A) (A) (A) (A) (A) (A) (A) (A)
                 (A) (A) (A) (A) (A) (A) (A) (A) (A) (A) (A) (A)
                 (A) (A) (A) (A) (A) (A) (A) (A) (A) (A) (A) (A)
                 (A) (A) (A) (A) (A) (A) (A) (A) (A) (A) (A) (A)
                 (A) (A) (A) (A) (A) (A) (A) (A) (A) (A) (A) (A)
                 (A) (A) (A) (A) (A) (A) (A) (A) (A) (A) (A) (A)
                 (A) (A) (A) (A) (A) (A) (A) (A) (A) (A) (A) (A)
                 (A) (A) (A) (A) (A) (A) (A) (A) (A) (A) (A) (A)
                 (A) (A) (A) (A) (A) (A) (A) (A) (A) (A) (A) (A)
                 (A) (A) (A) (A) (A) (A) (A) (A) (A) (A) (A) (A)
                 (A) (A) (A) (A) (A) (A) (A) (A) (A) (A) (A) (A)
                 (A) (A) (A) (A) (A) (A) (A) (A) (A) (A) (A) (A)
                 (A) (A) (A) (A) (A) (A) (A) (A) (A) (A) (A) (A)
                 (A) (A) (A) (A) (A) (A) (A) (A) (A) (A) (A) (A)
                 (A) (A) (A) (A) (A) (A) (A) (A) (A) (A) (A) (A)
                 (A) (A) (A) (A) (A) (A) (A) (A) (A) (A) (A) (A)
                 (A) (A) (A) (A) (A) (A) (A) (A) (A) (A) (A) (A)
                 (A) (A) (A) (A) (A) (A) (A) (A) (A) (A) (A) (A)
                 (A) (A) (A) (A) (A) (A) (A) (A) (A) (A) (A) (A)
                 (A) (A) (A) (A) (A) (A) (A) (A) (A) (A) (A) (A)
                 (A) (A) (A) (A) (A) (A) (A) (A) (A) (A) (A) (A)
                 (A) (A) (A) (A) (A) (A) (A) (A) (A) (A) (A) (A)
                 (A) (A) (A) (A) (A) (A) (A) (A) (A) (A) (A) (A)
                 (A) (A) (A) (A) (A) (A) (A) (A) (A) (A) (A) (A)
                 (A) (A) (A) (A) (A) (A) (A) (A) (A) (A) (A) (A)
                 (A) (A) (A) (A) (A) (A) (A) (A) (A) (A) (A) (A)
                 (A) (A) (A) (A) (A) (A) (A) (A) (A) (A) (A) (A)
                 (A) (A) (A) (A) (A) (A) (A) (A) (A) (A) (A) (A)
                 (A) (A) (A) (A) (A) (A) (A) (A) (A) (A) (A) (A)
                 (A) (A) (A) (A) (A) (A) (A) (A) (A) (A) (A) (A)
                 (A) (A) (A) (A) (A) (A) (A) (A) (A) (A) (A) (A)
                 (A) (A) (A) (A) (A) (A) (A) (A) (A) (A) (A) (A)
                 (A) (A) (A) (A) (A) (A) (A) (A) (A) (A) (A) (A)
                 (A) (A) (A) (A) (A) (A) (A) (A) (A) (A) (A) (A)
                 (A) (A) (A) (A) (A) (A) (A) (A) (A) (A) (A) (A)
                 (A) (A) (A) (A) (A) (A) (A) (A) (A) (A) (A) (A)
                 (A) (A) (A) (A) (A) (A) (A) (A) (A) (A) (A) (A)
                 (A) (A) (A) (A) (A) (A) (A) (A) (A) (A) (A) (A)
                 (A) (A) (A) (A) (A) (A) (A) (A) (A) (A) (A) (A)
                 (A) (A) (A) (A) (A) (A) (A) (A) (A) (A) (A) (A)
                 (A) (A) (A) (A) (A) (A) (A) (A) (A) (A) (A) (A)
                 (A) (A) (A) (A) (A) (A) (A) (A) (A) (A) (A) (A)
                 (A) (A) (A) (A) (A) (A) (A) (A) (A) (A) (A) (A)
                 (A) (A) (A) (A) (A) (A) (A) (A) (A) (A) (A) (A)
                 (A) (A) (A) (A) (A) (A) (A) (A) (A) (A) (A) (A)
                 (A) (A) (A) (A) (A) (A) (A) (A) (A) (A) (A) (A)
                 (A) (A) (A) (A) (A) (A) (A) (A) (A) (A) (A) (A)
                 (A) (A) (A) (A) (A) (A) (A) (A) (A) (A) (A) (A)
                 (A) (A) (A) (A) (A) (A) (A) (A) (A) (A) (A) (A)
                 (A) (A) (A) (A) (A) (A) (A) (A) (A) (A) (A) (A)
                 (A) (A) (A) (A) (A) (A) (A) (A) (A) (A) (A) (A)
                 (A) (A) (A) (A) (A) (A) (A) (A) (A) (A) (A) (A)
                 (A) (A) (A) (A) (A) (A) (A) (A) (A) (A) (A) (A)
                 (A) (A) (A) (A) (A) (A) (A) (A) (A) (A) (A) (A)
                 (A) (A) (A) (A) (A) (A) (A) (A) (A) (A) (A) (A)
                 (A) (A) (A) (A) (A) (A) (A) (A) (A) (A) (A) (A)
                 (A) (A) (A) (A) (A) (A) (A) (A) (A) (A) (A) (A)
                 (A) (A) (A) (A) (A) (A) (A) (A) (A) (A) (A) (A)
                 (A) (A) (A) (A) (A) (A) (A) (A) (A) (A) (A) (A)
                 (A) (A) (A) (A) (A) (A) (A) (A) (A) (A) (A) (A)
                 (A) (A) (A) (A) (A) (A) (A) (A) (A) (A) (A) (A)
                 (A) (A) (A) (A) (A) (A) (A) (A) (A) (A) (A) (A)
                 (A) (A) (A) (A) (A) (A) (A) (A) (A) (A) (A) (A)
                 (A) (A) (A) (A) (A) (A) (A) (A) (A) (A) (A) (A)
                 (A) (A) (A) (A) (A) (A) (A) (A) (A) (A) (A) (A)
                 (A) (A) (A) (A) (A) (A) (A) (A) (A) (A) (A) (A)
                 (A) (A) (A) (A) (A) (A) (A) (A) (A) (A) (A) (A)
                 (A) (A) (A) (A) (A) (A) (A) (A) (A) (A) (A) (A)
                 (A) (A) (A) (A) (A) (A) (A) (A) (A) (A) (A) (A)
                 (A) (A) (A) (A) (A) (A) (A) (A) (A) (A) (A) (A)
                 (A) (A) (A) (A) (A) (A) (A) (A) (A) (A) (A) (A)
                 (A) (A) (A) (A) (A) (A) (A) (A) (A) (A) (A) (A)
                 (A) (A) (A) (A) (A) (A) (A) (A) (A) (A) (A) (A)
                 (A) (A) (A) (A) (A) (A) (A) (A) (A) (A) (A) (A)
                 (A) (A) (A) (A) (A) (A) (A) (A) (A) (A) (A) (A)
                 (A) (A) (A) (A) (A) (A) (A) (A) (A) (A) (A) (A)
                 (A) (A) (A) (A) (A) (A) (A) (A) (A) (A) (A) (A)
                 (A) (A) (A) (A) (A) (A) (A) (A) (A) (A) (A) (A)
                 (A) (A) (A) (A) (A) (A) (A) (A) (A) (A) (A) (A)
                 (A) (A) (A) (A) (A) (A) (A) (A) (A) (A) (A) (A)
                 (A) (A) (A) (A) (A) (A) (A) (A) (A) (A) (A) (A)
                 (A) (A) (A) (A) (A) (A) (A) (A) (A) (A) (A) (A)
                 (A) (A) (A) (A) (A) (A) (A) (A) (A) (A) (A) (A)
                 (A) (A) (A) (A) (A) (A) (A) (A) (A) (A) (A) (A)
                 (A) (A) (A) (A) (A) (A) (A) (A) (A) (A) (A) (A)
                 (A) (A) (A) (A) (A) (A) (A) (A) (A) (A) (A) (A)
                 (A) (A) (A) (A) (A) (A) (A) (A) (A) (A) (A) (A)
                 (A) (A) (A) (A) (A) (A) (A) (A) (A) (A) (A) (A)
                 (A) (A) (A) (A) (A) (A) (A) (A) (A) (A) (A) (A)
                 (A) (A) (A) (A) (A) (A) (A) (A) (A) (A) (A) (A)
                 (A)
 The electronic state is 1-A.
 Alpha  occ. eigenvalues -- -101.61121-101.60999 -77.26522 -77.26455 -10.27127
 Alpha  occ. eigenvalues --  -10.26981 -10.26653 -10.26504 -10.26351 -10.26150
 Alpha  occ. eigenvalues --  -10.26128 -10.26084 -10.25809 -10.25577 -10.25436
 Alpha  occ. eigenvalues --  -10.25411 -10.25338 -10.25296 -10.25257 -10.24989
 Alpha  occ. eigenvalues --  -10.24973 -10.24896 -10.24874 -10.24840 -10.24817
 Alpha  occ. eigenvalues --  -10.24749 -10.24667 -10.24639 -10.24634 -10.24605
 Alpha  occ. eigenvalues --  -10.24581 -10.24461 -10.24314 -10.24272 -10.24171
 Alpha  occ. eigenvalues --   -9.43621  -9.43511  -7.16805  -7.16684  -7.16345
 Alpha  occ. eigenvalues --   -7.16313  -7.16250  -7.16196  -6.65781  -6.65682
 Alpha  occ. eigenvalues --   -4.79370  -4.79343  -4.79270  -4.79236  -4.79117
 Alpha  occ. eigenvalues --   -4.79032  -3.51776  -2.19460  -2.19342  -2.16153
 Alpha  occ. eigenvalues --   -0.93945  -0.90181  -0.89834  -0.89367  -0.89264
 Alpha  occ. eigenvalues --   -0.82898  -0.81044  -0.78986  -0.78822  -0.78509
 Alpha  occ. eigenvalues --   -0.78465  -0.78226  -0.78136  -0.78126  -0.76624
 Alpha  occ. eigenvalues --   -0.74736  -0.73829  -0.73239  -0.69705  -0.67784
 Alpha  occ. eigenvalues --   -0.64440  -0.64311  -0.64072  -0.63640  -0.63273
 Alpha  occ. eigenvalues --   -0.63158  -0.62357  -0.61503  -0.59192  -0.58693
 Alpha  occ. eigenvalues --   -0.56076  -0.55327  -0.54643  -0.54534  -0.53706
 Alpha  occ. eigenvalues --   -0.53137  -0.50551  -0.48891  -0.48766  -0.48705
 Alpha  occ. eigenvalues --   -0.48468  -0.48051  -0.47894  -0.47638  -0.47032
 Alpha  occ. eigenvalues --   -0.46211  -0.45324  -0.45209  -0.45017  -0.44615
 Alpha  occ. eigenvalues --   -0.44537  -0.43839  -0.43066  -0.42229  -0.41641
 Alpha  occ. eigenvalues --   -0.41330  -0.40616  -0.40310  -0.39707  -0.39622
 Alpha  occ. eigenvalues --   -0.39174  -0.38747  -0.38493  -0.37949  -0.37724
 Alpha  occ. eigenvalues --   -0.37277  -0.37002  -0.36978  -0.36719  -0.36284
 Alpha  occ. eigenvalues --   -0.35934  -0.35578  -0.34878  -0.34538  -0.32178
 Alpha  occ. eigenvalues --   -0.31322  -0.31049  -0.30215  -0.29385  -0.29095
 Alpha  occ. eigenvalues --   -0.28874  -0.28589  -0.28258  -0.28160  -0.28107
 Alpha  occ. eigenvalues --   -0.28013  -0.27225  -0.26338  -0.25623  -0.24832
 Alpha  occ. eigenvalues --   -0.23712  -0.23586  -0.23203
 Alpha virt. eigenvalues --   -0.07241  -0.05118  -0.04864  -0.03644  -0.03421
 Alpha virt. eigenvalues --   -0.02922  -0.02794  -0.02465  -0.02111  -0.01161
 Alpha virt. eigenvalues --    0.00552   0.00704   0.03333   0.03521   0.03991
 Alpha virt. eigenvalues --    0.04767   0.04873   0.05350   0.05948   0.06159
 Alpha virt. eigenvalues --    0.06489   0.06746   0.06914   0.07376   0.07479
 Alpha virt. eigenvalues --    0.07830   0.08085   0.08630   0.08868   0.09083
 Alpha virt. eigenvalues --    0.09202   0.09629   0.09875   0.10273   0.10468
 Alpha virt. eigenvalues --    0.10835   0.10891   0.11071   0.11360   0.11809
 Alpha virt. eigenvalues --    0.12099   0.12558   0.12704   0.12819   0.13094
 Alpha virt. eigenvalues --    0.13353   0.13920   0.14320   0.14377   0.15210
 Alpha virt. eigenvalues --    0.15328   0.15546   0.16227   0.16297   0.16563
 Alpha virt. eigenvalues --    0.17016   0.17437   0.17703   0.18142   0.18562
 Alpha virt. eigenvalues --    0.19107   0.19114   0.19460   0.19795   0.20035
 Alpha virt. eigenvalues --    0.20319   0.20464   0.20917   0.21211   0.21452
 Alpha virt. eigenvalues --    0.21954   0.22163   0.22240   0.22403   0.22624
 Alpha virt. eigenvalues --    0.22863   0.22938   0.23122   0.23483   0.23581
 Alpha virt. eigenvalues --    0.23856   0.24083   0.24369   0.24473   0.24639
 Alpha virt. eigenvalues --    0.24837   0.24936   0.25366   0.25776   0.26059
 Alpha virt. eigenvalues --    0.26373   0.26491   0.26644   0.26855   0.27085
 Alpha virt. eigenvalues --    0.27519   0.27726   0.27884   0.28278   0.28402
 Alpha virt. eigenvalues --    0.29018   0.29390   0.29717   0.29837   0.30236
 Alpha virt. eigenvalues --    0.30499   0.30642   0.31016   0.31313   0.31437
 Alpha virt. eigenvalues --    0.31988   0.32448   0.32625   0.33097   0.33409
 Alpha virt. eigenvalues --    0.33669   0.33923   0.34242   0.34556   0.34877
 Alpha virt. eigenvalues --    0.34890   0.35041   0.35195   0.35593   0.36369
 Alpha virt. eigenvalues --    0.36459   0.36627   0.36968   0.37211   0.37408
 Alpha virt. eigenvalues --    0.37513   0.37895   0.38165   0.38408   0.38538
 Alpha virt. eigenvalues --    0.38987   0.39152   0.39462   0.39585   0.39712
 Alpha virt. eigenvalues --    0.39813   0.40088   0.40608   0.40706   0.41005
 Alpha virt. eigenvalues --    0.41079   0.41384   0.41639   0.41840   0.41996
 Alpha virt. eigenvalues --    0.42133   0.42342   0.42649   0.42791   0.43023
 Alpha virt. eigenvalues --    0.43215   0.43340   0.43579   0.43677   0.43941
 Alpha virt. eigenvalues --    0.44084   0.44640   0.44750   0.44933   0.45295
 Alpha virt. eigenvalues --    0.45361   0.45595   0.45957   0.46174   0.46227
 Alpha virt. eigenvalues --    0.46582   0.46828   0.46929   0.47191   0.47374
 Alpha virt. eigenvalues --    0.47588   0.47833   0.48115   0.48704   0.48844
 Alpha virt. eigenvalues --    0.49103   0.49179   0.49325   0.49545   0.49673
 Alpha virt. eigenvalues --    0.50006   0.50322   0.50670   0.50935   0.51402
 Alpha virt. eigenvalues --    0.51774   0.51847   0.52113   0.52181   0.52712
 Alpha virt. eigenvalues --    0.52921   0.53159   0.53380   0.54167   0.54348
 Alpha virt. eigenvalues --    0.54630   0.54818   0.54941   0.55369   0.56105
 Alpha virt. eigenvalues --    0.56455   0.56509   0.57276   0.57514   0.57612
 Alpha virt. eigenvalues --    0.58182   0.58508   0.59025   0.59326   0.59874
 Alpha virt. eigenvalues --    0.60257   0.60621   0.60984   0.61585   0.62099
 Alpha virt. eigenvalues --    0.62452   0.62693   0.62857   0.64066   0.64222
 Alpha virt. eigenvalues --    0.64606   0.64899   0.65062   0.65523   0.65809
 Alpha virt. eigenvalues --    0.66179   0.66589   0.66763   0.67147   0.67406
 Alpha virt. eigenvalues --    0.67696   0.67981   0.68176   0.68507   0.68719
 Alpha virt. eigenvalues --    0.68843   0.69422   0.69837   0.69840   0.70282
 Alpha virt. eigenvalues --    0.70693   0.71127   0.71485   0.71583   0.72079
 Alpha virt. eigenvalues --    0.72267   0.72484   0.72624   0.72877   0.73470
 Alpha virt. eigenvalues --    0.73739   0.74131   0.74461   0.74750   0.75117
 Alpha virt. eigenvalues --    0.75535   0.75747   0.75927   0.76389   0.76616
 Alpha virt. eigenvalues --    0.76745   0.77299   0.77726   0.78153   0.78594
 Alpha virt. eigenvalues --    0.78937   0.79093   0.79246   0.79578   0.80358
 Alpha virt. eigenvalues --    0.80450   0.80688   0.80744   0.80883   0.81576
 Alpha virt. eigenvalues --    0.81868   0.82156   0.82557   0.82849   0.83643
 Alpha virt. eigenvalues --    0.84005   0.84395   0.85113   0.85619   0.85790
 Alpha virt. eigenvalues --    0.86155   0.86589   0.86764   0.87402   0.88006
 Alpha virt. eigenvalues --    0.88172   0.88965   0.89263   0.89430   0.89575
 Alpha virt. eigenvalues --    0.89898   0.90581   0.91065   0.91667   0.91840
 Alpha virt. eigenvalues --    0.92212   0.92514   0.92835   0.93100   0.93932
 Alpha virt. eigenvalues --    0.94278   0.94600   0.95020   0.95513   0.96034
 Alpha virt. eigenvalues --    0.96555   0.97174   0.97429   0.97721   0.98871
 Alpha virt. eigenvalues --    0.98978   0.99330   1.00165   1.00809   1.01110
 Alpha virt. eigenvalues --    1.01505   1.01773   1.02385   1.02918   1.03380
 Alpha virt. eigenvalues --    1.03688   1.04070   1.04503   1.04694   1.05135
 Alpha virt. eigenvalues --    1.05993   1.06565   1.06923   1.07358   1.07572
 Alpha virt. eigenvalues --    1.07849   1.08533   1.08903   1.09303   1.09672
 Alpha virt. eigenvalues --    1.10052   1.10418   1.10498   1.10951   1.11623
 Alpha virt. eigenvalues --    1.12393   1.13350   1.13754   1.14624   1.14862
 Alpha virt. eigenvalues --    1.15217   1.15624   1.16006   1.16641   1.16858
 Alpha virt. eigenvalues --    1.17600   1.17903   1.18330   1.18889   1.19484
 Alpha virt. eigenvalues --    1.19905   1.20362   1.20940   1.21051   1.21496
 Alpha virt. eigenvalues --    1.21871   1.22195   1.22338   1.22896   1.23196
 Alpha virt. eigenvalues --    1.23374   1.23559   1.23862   1.24473   1.24683
 Alpha virt. eigenvalues --    1.24715   1.25216   1.25445   1.25619   1.26001
 Alpha virt. eigenvalues --    1.26084   1.27221   1.27381   1.27961   1.28183
 Alpha virt. eigenvalues --    1.28290   1.28644   1.29047   1.29555   1.30030
 Alpha virt. eigenvalues --    1.30353   1.30518   1.30634   1.30960   1.31736
 Alpha virt. eigenvalues --    1.31844   1.32074   1.32756   1.33366   1.33685
 Alpha virt. eigenvalues --    1.34055   1.34489   1.34588   1.34918   1.35609
 Alpha virt. eigenvalues --    1.35851   1.36447   1.37120   1.37467   1.38050
 Alpha virt. eigenvalues --    1.38728   1.39641   1.39951   1.41287   1.41394
 Alpha virt. eigenvalues --    1.42198   1.42350   1.43043   1.43300   1.43907
 Alpha virt. eigenvalues --    1.44121   1.44783   1.44829   1.45347   1.45965
 Alpha virt. eigenvalues --    1.46330   1.46628   1.46968   1.47467   1.47641
 Alpha virt. eigenvalues --    1.48241   1.48666   1.49854   1.50536   1.50713
 Alpha virt. eigenvalues --    1.51628   1.51745   1.52556   1.52748   1.52955
 Alpha virt. eigenvalues --    1.53501   1.53655   1.54185   1.54771   1.55038
 Alpha virt. eigenvalues --    1.55360   1.55651   1.56166   1.56619   1.56826
 Alpha virt. eigenvalues --    1.57487   1.58144   1.58362   1.58813   1.59027
 Alpha virt. eigenvalues --    1.60051   1.60200   1.60602   1.60941   1.61752
 Alpha virt. eigenvalues --    1.61978   1.62493   1.62904   1.63529   1.64103
 Alpha virt. eigenvalues --    1.64294   1.64715   1.64860   1.65716   1.66288
 Alpha virt. eigenvalues --    1.66467   1.66703   1.67238   1.67812   1.67961
 Alpha virt. eigenvalues --    1.68380   1.69113   1.69630   1.69689   1.69877
 Alpha virt. eigenvalues --    1.70400   1.70480   1.71299   1.71306   1.71389
 Alpha virt. eigenvalues --    1.71744   1.72570   1.72907   1.73053   1.73374
 Alpha virt. eigenvalues --    1.73490   1.73918   1.74103   1.74737   1.75263
 Alpha virt. eigenvalues --    1.75649   1.75841   1.76182   1.77054   1.77553
 Alpha virt. eigenvalues --    1.77759   1.78588   1.78784   1.79904   1.80182
 Alpha virt. eigenvalues --    1.80909   1.81173   1.81689   1.82015   1.82420
 Alpha virt. eigenvalues --    1.83352   1.83733   1.84294   1.84951   1.85444
 Alpha virt. eigenvalues --    1.86123   1.86437   1.86943   1.87760   1.88867
 Alpha virt. eigenvalues --    1.89778   1.90481   1.91126   1.91499   1.91755
 Alpha virt. eigenvalues --    1.92272   1.92529   1.93205   1.93764   1.94003
 Alpha virt. eigenvalues --    1.94121   1.94905   1.95254   1.95487   1.96026
 Alpha virt. eigenvalues --    1.96358   1.97171   1.97502   1.97962   1.99162
 Alpha virt. eigenvalues --    1.99529   1.99706   2.00467   2.00715   2.01360
 Alpha virt. eigenvalues --    2.01696   2.01916   2.02804   2.03008   2.03385
 Alpha virt. eigenvalues --    2.03568   2.03789   2.04857   2.05251   2.05613
 Alpha virt. eigenvalues --    2.06043   2.06361   2.06764   2.07579   2.07859
 Alpha virt. eigenvalues --    2.08170   2.08623   2.08899   2.09061   2.09608
 Alpha virt. eigenvalues --    2.09877   2.10045   2.10846   2.11019   2.11614
 Alpha virt. eigenvalues --    2.12004   2.12182   2.12758   2.12804   2.13314
 Alpha virt. eigenvalues --    2.13522   2.13962   2.15245   2.15511   2.15675
 Alpha virt. eigenvalues --    2.16339   2.16662   2.16924   2.17219   2.18009
 Alpha virt. eigenvalues --    2.18142   2.18426   2.18734   2.19263   2.19677
 Alpha virt. eigenvalues --    2.20330   2.20498   2.20790   2.21117   2.21287
 Alpha virt. eigenvalues --    2.22336   2.22740   2.23185   2.23560   2.23695
 Alpha virt. eigenvalues --    2.24243   2.24642   2.24959   2.26164   2.26545
 Alpha virt. eigenvalues --    2.27129   2.27597   2.27732   2.27827   2.28808
 Alpha virt. eigenvalues --    2.29872   2.29925   2.30690   2.31440   2.32196
 Alpha virt. eigenvalues --    2.32982   2.33461   2.34178   2.34506   2.35674
 Alpha virt. eigenvalues --    2.36265   2.36648   2.37825   2.38482   2.38762
 Alpha virt. eigenvalues --    2.39443   2.40078   2.40278   2.40733   2.40887
 Alpha virt. eigenvalues --    2.41586   2.41876   2.42471   2.42914   2.43426
 Alpha virt. eigenvalues --    2.44173   2.44571   2.44923   2.45391   2.45826
 Alpha virt. eigenvalues --    2.46172   2.46335   2.47327   2.48158   2.48296
 Alpha virt. eigenvalues --    2.48737   2.48972   2.49827   2.50182   2.50531
 Alpha virt. eigenvalues --    2.51393   2.51646   2.52256   2.53017   2.53702
 Alpha virt. eigenvalues --    2.54285   2.54510   2.54844   2.55708   2.55748
 Alpha virt. eigenvalues --    2.55999   2.56129   2.57473   2.57661   2.58244
 Alpha virt. eigenvalues --    2.59246   2.59409   2.59760   2.60283   2.60905
 Alpha virt. eigenvalues --    2.61608   2.61895   2.62327   2.62557   2.62698
 Alpha virt. eigenvalues --    2.62929   2.63216   2.63543   2.63696   2.64304
 Alpha virt. eigenvalues --    2.64445   2.64817   2.65238   2.65349   2.65703
 Alpha virt. eigenvalues --    2.65960   2.66214   2.66487   2.66832   2.66932
 Alpha virt. eigenvalues --    2.67186   2.67607   2.68048   2.68612   2.68799
 Alpha virt. eigenvalues --    2.69329   2.69697   2.70011   2.70505   2.70641
 Alpha virt. eigenvalues --    2.71058   2.71448   2.71601   2.72112   2.72360
 Alpha virt. eigenvalues --    2.72593   2.72856   2.73589   2.73816   2.74014
 Alpha virt. eigenvalues --    2.74540   2.74861   2.75198   2.75582   2.76193
 Alpha virt. eigenvalues --    2.76379   2.76807   2.77012   2.77218   2.77439
 Alpha virt. eigenvalues --    2.77837   2.78060   2.78691   2.78833   2.79018
 Alpha virt. eigenvalues --    2.79165   2.79481   2.80151   2.80392   2.80611
 Alpha virt. eigenvalues --    2.80954   2.81487   2.82025   2.82705   2.83569
 Alpha virt. eigenvalues --    2.83721   2.84280   2.84625   2.84915   2.85834
 Alpha virt. eigenvalues --    2.85933   2.86177   2.86246   2.86488   2.86788
 Alpha virt. eigenvalues --    2.87141   2.87439   2.87901   2.88237   2.89015
 Alpha virt. eigenvalues --    2.89215   2.89648   2.90528   2.90971   2.91093
 Alpha virt. eigenvalues --    2.91617   2.91984   2.92318   2.92680   2.92879
 Alpha virt. eigenvalues --    2.93348   2.94486   2.94835   2.95546   2.95658
 Alpha virt. eigenvalues --    2.96329   2.96874   2.97136   2.97625   2.98605
 Alpha virt. eigenvalues --    2.99166   2.99463   2.99728   3.00887   3.01134
 Alpha virt. eigenvalues --    3.02835   3.03346   3.04099   3.04665   3.05378
 Alpha virt. eigenvalues --    3.06020   3.06725   3.07050   3.07751   3.08596
 Alpha virt. eigenvalues --    3.08962   3.09347   3.09803   3.10693   3.11199
 Alpha virt. eigenvalues --    3.11628   3.11909   3.12282   3.12499   3.12657
 Alpha virt. eigenvalues --    3.12883   3.13102   3.13633   3.14447   3.14658
 Alpha virt. eigenvalues --    3.15344   3.15512   3.15597   3.16061   3.16200
 Alpha virt. eigenvalues --    3.16354   3.16432   3.17052   3.17357   3.17500
 Alpha virt. eigenvalues --    3.18221   3.18642   3.18969   3.19541   3.20040
 Alpha virt. eigenvalues --    3.20216   3.20499   3.20972   3.21548   3.21948
 Alpha virt. eigenvalues --    3.22623   3.23184   3.23360   3.23897   3.24657
 Alpha virt. eigenvalues --    3.24924   3.25568   3.25852   3.26536   3.27036
 Alpha virt. eigenvalues --    3.27114   3.27285   3.27751   3.28764   3.29065
 Alpha virt. eigenvalues --    3.29511   3.29723   3.30018   3.30565   3.31165
 Alpha virt. eigenvalues --    3.31573   3.31993   3.32596   3.32950   3.33088
 Alpha virt. eigenvalues --    3.33338   3.33757   3.34469   3.34871   3.34946
 Alpha virt. eigenvalues --    3.35218   3.35825   3.36044   3.36179   3.36527
 Alpha virt. eigenvalues --    3.36808   3.37327   3.37836   3.38049   3.38396
 Alpha virt. eigenvalues --    3.38944   3.39255   3.39407   3.39718   3.39913
 Alpha virt. eigenvalues --    3.40422   3.40510   3.40635   3.41529   3.41675
 Alpha virt. eigenvalues --    3.41825   3.42101   3.42425   3.43109   3.43556
 Alpha virt. eigenvalues --    3.43968   3.44708   3.44964   3.45144   3.45486
 Alpha virt. eigenvalues --    3.46254   3.46734   3.46835   3.47603   3.47854
 Alpha virt. eigenvalues --    3.48042   3.48374   3.48954   3.49127   3.49502
 Alpha virt. eigenvalues --    3.50133   3.50714   3.51107   3.51485   3.51671
 Alpha virt. eigenvalues --    3.52041   3.52186   3.52240   3.52719   3.53123
 Alpha virt. eigenvalues --    3.53386   3.53870   3.53983   3.54735   3.54923
 Alpha virt. eigenvalues --    3.56046   3.56325   3.56571   3.57542   3.57981
 Alpha virt. eigenvalues --    3.59030   3.59347   3.59613   3.60437   3.60894
 Alpha virt. eigenvalues --    3.61875   3.62477   3.63306   3.63863   3.64799
 Alpha virt. eigenvalues --    3.66323   3.67393   3.68332   3.69210   3.69302
 Alpha virt. eigenvalues --    3.69561   3.70044   3.70317   3.70402   3.70614
 Alpha virt. eigenvalues --    3.71199   3.72319   3.73430   3.73866   3.74319
 Alpha virt. eigenvalues --    3.75125   3.75580   3.75697   3.75738   3.76989
 Alpha virt. eigenvalues --    3.77820   3.78609   3.80840   3.81805   3.83870
 Alpha virt. eigenvalues --    3.85648   3.86251   3.87407   3.88123   3.88935
 Alpha virt. eigenvalues --    3.89783   3.90762   3.91268   3.91654   3.92705
 Alpha virt. eigenvalues --    3.93419   3.94007   3.94107   3.94411   3.94860
 Alpha virt. eigenvalues --    3.96662   3.99252   4.00379   4.01027   4.01692
 Alpha virt. eigenvalues --    4.02015   4.02414   4.02721   4.02938   4.03649
 Alpha virt. eigenvalues --    4.04254   4.04701   4.05549   4.06245   4.07219
 Alpha virt. eigenvalues --    4.07608   4.08898   4.10395   4.10987   4.11388
 Alpha virt. eigenvalues --    4.11700   4.12052   4.12819   4.13137   4.13919
 Alpha virt. eigenvalues --    4.14603   4.14786   4.15290   4.17429   4.17945
 Alpha virt. eigenvalues --    4.18050   4.18250   4.18514   4.18608   4.18833
 Alpha virt. eigenvalues --    4.18901   4.19420   4.19549   4.19974   4.20413
 Alpha virt. eigenvalues --    4.20661   4.20861   4.20914   4.21051   4.21813
 Alpha virt. eigenvalues --    4.22608   4.23281   4.23889   4.24157   4.24574
 Alpha virt. eigenvalues --    4.25311   4.25478   4.25772   4.25961   4.26320
 Alpha virt. eigenvalues --    4.26626   4.27029   4.28063   4.28425   4.29664
 Alpha virt. eigenvalues --    4.29866   4.30791   4.31320   4.31705   4.32779
 Alpha virt. eigenvalues --    4.33279   4.34057   4.34898   4.36322   4.37525
 Alpha virt. eigenvalues --    4.38723   4.39310   4.39946   4.40328   4.42559
 Alpha virt. eigenvalues --    4.45303   4.47120   4.50543   4.51628   4.53767
 Alpha virt. eigenvalues --    4.58185   4.59357   4.59993   4.60399   4.60603
 Alpha virt. eigenvalues --    4.61425   4.61517   4.62085   4.62204   4.63339
 Alpha virt. eigenvalues --    4.63956   4.64450   4.64890   4.65140   4.68674
 Alpha virt. eigenvalues --    4.70248   4.70889   4.71897   4.72264   4.72874
 Alpha virt. eigenvalues --    4.74874   4.75566   4.75766   4.82507   4.83591
 Alpha virt. eigenvalues --    4.84031   4.84447   4.84754   4.88085   4.90412
 Alpha virt. eigenvalues --    4.90778   4.91356   4.92008   4.92798   4.93551
 Alpha virt. eigenvalues --    4.93708   4.95375   4.95785   5.00759   5.02334
 Alpha virt. eigenvalues --    5.04230   5.07945   5.11014   5.11675   5.11756
 Alpha virt. eigenvalues --    5.12042   5.12452   5.12687   5.12970   5.13594
 Alpha virt. eigenvalues --    5.13880   5.17657   5.19616   5.24623   5.25181
 Alpha virt. eigenvalues --    5.25422   5.25758   5.32269   5.32707   5.33706
 Alpha virt. eigenvalues --    5.34851   5.38368   5.39218   5.40822   5.42033
 Alpha virt. eigenvalues --    5.56281   5.57121   5.57614   5.58181   7.84003
 Alpha virt. eigenvalues --    7.87283   7.94978   8.02731   8.03982   8.06094
 Alpha virt. eigenvalues --   10.92812  10.95304  10.96709  11.01505  11.03871
 Alpha virt. eigenvalues --   11.09297  16.05314  16.16587  22.12647  22.14566
 Alpha virt. eigenvalues --   22.17098  22.19737  22.40315  22.56662  22.59700
 Alpha virt. eigenvalues --   22.60743  22.60932  22.61539  22.61787  22.62160
 Alpha virt. eigenvalues --   22.62363  22.63012  22.67120  22.72588  22.73466
 Alpha virt. eigenvalues --   22.76005  22.76518  22.78276  22.79496  22.80437
 Alpha virt. eigenvalues --   22.81714  22.86517  22.89412  22.91580  22.97765
 Alpha virt. eigenvalues --   23.11728  23.12528  23.14864  23.16331  25.46259
 Alpha virt. eigenvalues --   25.60433  40.33821  40.95394  40.98351  52.08523
          Condensed to atoms (all electrons):
 Mulliken charges:
               1
     1  P    0.170248
     2  C    0.153653
     3  C   -0.133015
     4  C   -0.135305
     5  C   -0.102231
     6  C   -0.128086
     7  C   -0.223239
     8  H    0.123389
     9  H    0.125079
    10  H    0.125389
    11  H    0.130677
    12  H    0.217935
    13  C    0.103951
    14  C   -0.207362
    15  C   -0.157598
    16  C   -0.098881
    17  C   -0.138745
    18  C   -0.164097
    19  H    0.169850
    20  H    0.132129
    21  H    0.124995
    22  H    0.122475
    23  H    0.143610
    24  C   -0.265912
    25  C    0.117386
    26  C   -0.203673
    27  C   -0.232779
    28  H    0.126466
    29  C    0.079948
    30  H    0.137498
    31  C   -0.249731
    32  H    0.138457
    33  H    0.114368
    34  C   -0.243480
    35  P    0.205319
    36  C   -0.030075
    37  C   -0.096562
    38  C   -0.128666
    39  C   -0.093631
    40  C   -0.116353
    41  C   -0.183467
    42  H    0.137475
    43  H    0.126204
    44  H    0.127476
    45  H    0.131329
    46  H    0.208133
    47  C    0.139354
    48  C   -0.178564
    49  C   -0.154245
    50  C   -0.097945
    51  C   -0.118603
    52  C   -0.190208
    53  H    0.157036
    54  H    0.127991
    55  H    0.125130
    56  H    0.121599
    57  H    0.132816
    58  Pd   0.057057
    59  Cl  -0.421420
    60  Cl  -0.422874
    61  H    0.155941
    62  H    0.128374
    63  H    0.115340
    64  H    0.162667
 Sum of Mulliken charges =  -0.00000
 Mulliken charges with hydrogens summed into heavy atoms:
               1
     1  P    0.170248
     2  C    0.153653
     3  C    0.084921
     4  C   -0.004628
     5  C    0.023158
     6  C   -0.003007
     7  C   -0.099850
    13  C    0.103951
    14  C   -0.063751
    15  C   -0.035123
    16  C    0.026113
    17  C   -0.006615
    18  C    0.005753
    24  C   -0.103245
    25  C    0.232726
    26  C   -0.075299
    27  C   -0.106313
    29  C    0.217447
    31  C    0.003094
    34  C   -0.087538
    35  P    0.205319
    36  C   -0.030075
    37  C    0.111571
    38  C    0.002662
    39  C    0.033845
    40  C    0.009851
    41  C   -0.045991
    47  C    0.139354
    48  C   -0.045748
    49  C   -0.032646
    50  C    0.027185
    51  C    0.009388
    52  C   -0.033172
    58  Pd   0.057057
    59  Cl  -0.421420
    60  Cl  -0.422874
 Electronic spatial extent (au):  <R**2>=          17418.5002
 Charge=             -0.0000 electrons
 Dipole moment (field-independent basis, Debye):
    X=             -0.0289    Y=              0.8329    Z=             11.7316  Tot=             11.7612
 Quadrupole moment (field-independent basis, Debye-Ang):
   XX=           -223.2241   YY=           -219.8526   ZZ=           -280.8084
   XY=              5.6723   XZ=             -2.1848   YZ=             -3.2680
 Traceless Quadrupole moment (field-independent basis, Debye-Ang):
   XX=             18.0709   YY=             21.4424   ZZ=            -39.5133
   XY=              5.6723   XZ=             -2.1848   YZ=             -3.2680
 Octapole moment (field-independent basis, Debye-Ang**2):
  XXX=             30.5965  YYY=              0.7274  ZZZ=             15.3880  XYY=            -14.2658
  XXY=             -6.6641  XXZ=             21.4533  XZZ=             -1.2463  YZZ=            -16.1757
  YYZ=            -27.2426  XYZ=            -32.9479
 Hexadecapole moment (field-independent basis, Debye-Ang**3):
 XXXX=         -11264.7454 YYYY=          -6146.4624 ZZZZ=          -5665.4160 XXXY=            363.6044
 XXXZ=           -305.4843 YYYX=           -118.4646 YYYZ=            -17.8295 ZZZX=             22.2566
 ZZZY=            -46.2333 XXYY=          -2656.4208 XXZZ=          -2848.4158 YYZZ=          -2008.1345
 XXYZ=            -23.6249 YYXZ=            114.0328 ZZXY=              9.5859
 N-N= 5.179826473151D+03 E-N=-1.722252380723D+04  KE= 2.837723992729D+03
 1\1\GINC-NC108\SP\RPBE1PBE\Gen\C31H28Cl2P2Pd1\MACKK4\05-Dec-2021\0\\# 
 PBE1PBE gen pseudo=read int=(grid=ultrafine) empiricaldispersion=GD3BJ
  nmr=giao\\RR_NorPhos_2 title\\0,1\P,0,-1.6237586781,0.0205740054,-0.0
 166977021\C,0,-2.4172988131,1.662776569,0.1383955062\C,0,-1.7976255493
 ,2.7463370897,-0.5148846032\C,0,-2.3043014718,4.04309057,-0.3565702836
 \C,0,-3.4384782602,4.2619302329,0.4374138415\C,0,-4.0753626464,3.18043
 20059,1.0655721418\C,0,-3.5697310007,1.883114487,0.9172757787\H,0,-4.0
 842871405,1.0416535105,1.3908808719\H,0,-4.9755792537,3.3466027547,1.6
 664157977\H,0,-3.8394348964,5.2740539142,0.5537225099\H,0,-1.821027600
 8,4.879838148,-0.8708947942\H,0,-0.9383434742,2.5527190818,-1.16800145
 56\C,0,-2.9230493124,-1.2706095082,-0.0054353377\C,0,-3.6323158807,-1.
 5734878145,1.1774693135\C,0,-4.6082533251,-2.5779421414,1.17745484\C,0
 ,-4.8793349375,-3.2931037039,0.0019964472\C,0,-4.1730654902,-2.9994633
 875,-1.1724699938\C,0,-3.1971834546,-1.9937384551,-1.1828693251\H,0,-2
 .6558001063,-1.7443054478,-2.1017327877\H,0,-4.3807702641,-3.554348348
 6,-2.0929677052\H,0,-5.64030316,-4.0803626945,0.0042367018\H,0,-5.1535
 241977,-2.8044255997,2.0995492503\H,0,-3.4261431781,-1.029359906,2.103
 3055744\C,0,-0.6269047346,-0.2659272363,1.5320078314\C,0,-0.992417109,
 -0.154545881,3.056022927\C,0,-1.1909287823,1.307613646,3.4327481967\C,
 0,0.0180444943,1.9085601595,3.3911879596\H,0,0.2316530688,2.9756331916
 ,3.4990871526\C,0,1.0347157501,0.8609180976,2.9339767952\H,0,2.0969977
 643,1.0871601575,3.1031585604\C,0,0.4436151779,-0.3970602408,3.6112879
 714\H,0,0.896311658,-1.343153718,3.2678439864\H,0,0.4828710604,-0.3356
 34992,4.7108384159\C,0,0.617054899,0.6620635004,1.4271080092\P,0,1.622
 5392724,0.0034221261,0.0164260045\C,0,2.2812447735,-1.6222571896,0.521
 7547724\C,0,1.7504061207,-2.7827674015,-0.0723934678\C,0,2.178879602,-
 4.045642133,0.3594404281\C,0,3.1364001551,-4.1518613938,1.3779679398\C
 ,0,3.6767030233,-2.995224045,1.9630401157\C,0,3.2552847042,-1.73040010
 68,1.5354547396\H,0,3.687576907,-0.826652763,1.978172313\H,0,4.4326500
 413,-3.0798078128,2.7505350431\H,0,3.4719751965,-5.138836557,1.7125022
 801\H,0,1.769654514,-4.9466557222,-0.1083144689\H,0,1.0200705855,-2.67
 65083859,-0.8829723288\C,0,3.0713688146,1.09956375,-0.1372947511\C,0,3
 .0855695262,2.378145032,0.454907726\C,0,4.2064251901,3.2064234304,0.31
 07203312\C,0,5.3150133308,2.7670627761,-0.42583783\C,0,5.3007271631,1.
 497599596,-1.0228602962\C,0,4.1852275914,0.6642774287,-0.885261988\H,0
 ,4.1610628887,-0.3133813667,-1.3734572868\H,0,6.1598127524,1.156155543
 8,-1.6088643936\H,0,6.1886739214,3.416814364,-0.5397282757\H,0,4.21070
 38993,4.1978748437,0.7750769201\H,0,2.2250925707,2.7357394324,1.028315
 0397\Pd,0,0.0275634303,-0.0665079054,-1.6228469611\Cl,0,1.8268985929,-
 0.3900736559,-3.148111721\Cl,0,-1.6416997626,0.1903526042,-3.306173115
 4\H,0,0.2944959867,1.6452751559,1.0309999176\H,0,-2.1592159674,1.78492
 39692,3.5976748835\H,0,-1.7628680706,-0.8653564032,3.3854152411\H,0,-0
 .3061779087,-1.316299257,1.3786807967\\Version=ES64L-G09RevE.01\State=
 1-A\HF=-2927.8295325\RMSD=6.614e-09\Dipole=0.0755166,0.0215674,4.62653
 52\Quadrupole=13.1065987,16.3264008,-29.4329995,4.2360916,-2.1654966,0
 .4585106\PG=C01 [X(C31H28Cl2P2Pd1)]\\@


 KINETICS       FACT
 ---------  =  -------
 MECHANISM     FICTION
 Job cpu time:       1 days  1 hours 21 minutes 13.5 seconds.
 File lengths (MBytes):  RWF=    964 Int=      0 D2E=      0 Chk=    128 Scr=      1
 Normal termination of Gaussian 09 at Sun Dec  5 03:59:54 2021.
 Initial command:
[...]
  1200. RY*(  18)Cl  60                  0.00000    10.51488   
  1201. RY*(  19)Cl  60                  0.00001     1.97434   
  1202. RY*(  20)Cl  60                  0.00001     2.66311   
  1203. RY*(  21)Cl  60                  0.00000     2.71011   
  1204. RY*(  22)Cl  60                  0.00000     2.17486   
  1205. RY*(  23)Cl  60                  0.00000     2.18574   
  1206. RY*(  24)Cl  60                  0.00000     2.18225   
  1207. RY*(  25)Cl  60                  0.00000     2.17026   
  1208. RY*(  26)Cl  60                  0.00000     2.17340   
  1209. RY*(  27)Cl  60                  0.00000     2.17562   
  1210. RY*(  28)Cl  60                  0.00000     2.18390   
  1211. RY*(   1) H  61                  0.00177     0.94031   
  1212. RY*(   2) H  61                  0.00032     2.42105   
  1213. RY*(   3) H  61                  0.00014     2.67383   
  1214. RY*(   4) H  61                  0.00011     2.74165   
  1215. RY*(   5) H  61                  0.00003     3.32547   
  1216. RY*(   1) H  62                  0.00050     1.56945   
  1217. RY*(   2) H  62                  0.00020     1.45207   
  1218. RY*(   3) H  62                  0.00017     2.15816   
  1219. RY*(   4) H  62                  0.00013     2.49814   
  1220. RY*(   5) H  62                  0.00002     3.00369   
  1221. RY*(   1) H  63                  0.00080     0.66245   
  1222. RY*(   2) H  63                  0.00022     2.33769   
  1223. RY*(   3) H  63                  0.00015     2.47407   
  1224. RY*(   4) H  63                  0.00015     2.53644   
  1225. RY*(   5) H  63                  0.00001     3.01514   
  1226. RY*(   1) H  64                  0.00146     0.86766   
  1227. RY*(   2) H  64                  0.00031     2.35693   
  1228. RY*(   3) H  64                  0.00017     2.63514   
  1229. RY*(   4) H  64                  0.00011     2.75856   
  1230. RY*(   5) H  64                  0.00002     3.27385   
  1231. BD*(   1) P   1 - C   2          0.07765     0.20015   
  1232. BD*(   1) P   1 - C  13          0.06688     0.20257   
  1233. BD*(   1) P   1 - C  24          0.07927     0.17870   
  1234. BD*(   1) P   1 -Pd  58          0.16852     0.63780  1283(g),1147(g),1149(g)
                                                    1148(g),150(g),1144(g)
                                                    1133(g),1137(g),1138(g)
                                                    1139(g),742(v),1221(r)
                                                    1140(g),1141(g),1146(g)
                                                    1145(g),1142(g),1187(v)
                                                    540(v),716(r),1158(v)
                                                    1226(r),1143(g),1136(g)
                                                    159(g),952(r),749(v),744(v)
                                                    752(v),181(v),1186(v),360(v)
                                                    157(g),771(r),542(v),1211(r)
                                                    160(g),719(r),158(g),1313(g)
                                                    754(v),750(v),1160(v),179(v)
                                                    798(r),951(r),751(v),1162(v)
                                                    180(v),366(v),164(g),161(g)
                                                    1127(r),1190(v),162(g)
                                                    359(v),1151(g),954(r),167(g)
                                                    361(v),770(r),178(v),1107(r)
                                                    334(r),748(v),926(r),389(r)
                                                    904(r),723(r),365(v),545(v)
                                                    363(v),312(r),800(r),761(v)
                                                    386(r),1191(v),778(r),493(r)
                                                    1189(v),544(v),1239(r)
                                                    962(r),208(r),491(r),182(v)
                                                    1192(v),205(r),541(v),156(g)
                                                    745(v),756(v),535(r),706(r)
                                                    772(r),724(r),955(r),207(r)
                                                    1185(v),797(r),958(r),152(g)
                                                    1188(v),550(v),722(r),166(g)
                                                    901(r),168(g),490(r),762(v)
                                                    775(r),760(v),217(r),1083(r)
                                                    497(r),1197(v),354(r)
                                                    1153(g),547(v),956(r)
                                                    1238(r),310(r),516(r),779(r)
                                                    496(r),1184(v),373(v),368(v)
                                                    187(v),1179(v),163(g),495(r)
                                                    596(r),1084(r),1169(v)
                                                    189(v),1250(v),774(r),784(r)
                                                    1135(g),941(r),309(r)
                                                    1235(v)
  1235. BD*(   1) C   2 - C   3          0.02278     0.50506   
  1236. BD*(   2) C   2 - C   3          0.36213     0.01115  1246(v),1241(v),1233(v)
                                                    1251(r),206(g),1232(v)
                                                    181(g)
  1237. BD*(   1) C   2 - C   7          0.02689     0.50789   
  1238. BD*(   1) C   3 - C   4          0.01649     0.53439   
  1239. BD*(   1) C   3 - H  12          0.01502     0.42396   
  1240. BD*(   1) C   4 - C   5          0.01434     0.52473   
  1241. BD*(   2) C   4 - C   5          0.31353     0.01503  1246(v),1236(v),258(g)
                                                    232(g)
  1242. BD*(   1) C   4 - H  11          0.01333     0.39388   
  1243. BD*(   1) C   5 - C   6          0.01447     0.52058   
  1244. BD*(   1) C   5 - H  10          0.01278     0.39258   
  1245. BD*(   1) C   6 - C   7          0.01516     0.52669   
  1246. BD*(   2) C   6 - C   7          0.31210     0.01316  1241(v),1236(v),1251(r)
                                                    284(g)
  1247. BD*(   1) C   6 - H   9          0.01332     0.38899   
  1248. BD*(   1) C   7 - H   8          0.01606     0.39145   
  1249. BD*(   1) C  13 - C  14          0.02589     0.49732   
  1250. BD*(   1) C  13 - C  18          0.02263     0.50967   
  1251. BD*(   2) C  13 - C  18          0.35203     0.01431  1258(v),1253(v),1246(r)
                                                    1231(v),491(g),1236(r)
                                                    1233(v)
  1252. BD*(   1) C  14 - C  15          0.01582     0.52596   
  1253. BD*(   2) C  14 - C  15          0.32564     0.01029  1251(v),1258(v),413(g)
                                                    387(g)
  1254. BD*(   1) C  14 - H  23          0.01589     0.38847   
  1255. BD*(   1) C  15 - C  16          0.01448     0.52229   
  1256. BD*(   1) C  15 - H  22          0.01338     0.38727   
  1257. BD*(   1) C  16 - C  17          0.01439     0.52699   
  1258. BD*(   2) C  16 - C  17          0.31171     0.01692  1251(v),1253(v),465(g)
                                                    439(g)
  1259. BD*(   1) C  16 - H  21          0.01295     0.39344   
  1260. BD*(   1) C  17 - C  18          0.01547     0.53537   
  1261. BD*(   1) C  17 - H  20          0.01330     0.39875   
  1262. BD*(   1) C  18 - H  19          0.02205     0.42754   
  1263. BD*(   1) C  24 - C  25          0.05055     0.28343   
  1264. BD*(   1) C  24 - C  34          0.02524     0.28745   
  1265. BD*(   1) C  24 - H  64          0.02431     0.35206   
  1266. BD*(   1) C  25 - C  26          0.02108     0.34895   
  1267. BD*(   1) C  25 - C  31          0.01360     0.28930   
  1268. BD*(   1) C  25 - H  63          0.02052     0.36083   
  1269. BD*(   1) C  26 - C  27          0.00947     0.56842   
  1270. BD*(   2) C  26 - C  27          0.05416     0.03054   
  1271. BD*(   1) C  26 - H  62          0.01616     0.40773   
  1272. BD*(   1) C  27 - H  28          0.01605     0.40167   
  1273. BD*(   1) C  27 - C  29          0.01886     0.33847   
  1274. BD*(   1) C  29 - H  30          0.02063     0.36177   
  1275. BD*(   1) C  29 - C  31          0.01320     0.30170   
  1276. BD*(   1) C  29 - C  34          0.04953     0.28173   
  1277. BD*(   1) C  31 - H  32          0.01532     0.36405   
  1278. BD*(   1) C  31 - H  33          0.01245     0.36129   
  1279. BD*(   1) C  34 - P  35          0.07907     0.18679   
  1280. BD*(   1) C  34 - H  61          0.02525     0.35673   
  1281. BD*(   1) P  35 - C  36          0.07191     0.20246   
  1282. BD*(   1) P  35 - C  47          0.06986     0.20695   
  1283. BD*(   1) P  35 -Pd  58          0.17569     0.63264  1234(g),1147(g),1149(g)
                                                    1148(g),1137(g),1144(g)
                                                    742(g),1138(g),150(v)
                                                    1133(g),1139(g),1141(g)
                                                    1146(g),1140(g),1142(g)
                                                    1221(r),716(v),1143(g)
                                                    1145(g),1187(v),1158(v)
                                                    540(r),1226(r),952(v),752(g)
                                                    749(g),159(v),1186(v),360(r)
                                                    771(v),157(v),744(g),1211(r)
                                                    719(v),160(v),542(r),750(g)
                                                    158(v),1312(g),751(g),754(g)
                                                    180(r),181(r),1190(v),179(r)
                                                    161(v),1127(r),359(r),951(v)
                                                    164(v),178(r),1188(v),167(v)
                                                    1162(v),162(v),366(r),904(r)
                                                    798(r),334(r),954(v),748(g)
                                                    770(v),365(r),1107(r)
                                                    1192(v),723(v),1160(v)
                                                    545(r),778(v),1191(v),361(r)
                                                    955(v),493(r),363(r),152(v)
                                                    544(r),800(r),389(r),761(g)
                                                    208(r),962(v),1151(g),386(r)
                                                    312(r),756(g),207(r),1288(r)
                                                    706(r),958(v),797(r),1189(v)
                                                    926(r),182(r),535(r),491(r)
                                                    901(r),205(r),724(v),166(v)
                                                    168(v),217(r),1084(r)
                                                    1153(g),497(r),550(r),496(r)
                                                    722(v),1197(v),547(r),541(r)
                                                    368(r),1136(g),310(r),490(r)
                                                    774(v),953(v),772(v),775(v)
                                                    1287(r),745(g),773(v),187(r)
                                                    956(v),760(g),189(r),354(r)
                                                    1284(v),946(r),373(r),757(g)
                                                    779(v),516(r),495(r),596(r)
                                                    784(v),151(v),552(r),1169(v)
                                                    762(g),515(r),156(v)
  1284. BD*(   1) C  36 - C  37          0.02365     0.50413   
  1285. BD*(   2) C  36 - C  37          0.36304     0.00587  1295(v),1290(v),1299(r)
                                                    1279(v),798(g),1282(v)
                                                    773(g)
  1286. BD*(   1) C  36 - C  41          0.02739     0.50062   
  1287. BD*(   1) C  37 - C  38          0.01613     0.52887   
  1288. BD*(   1) C  37 - H  46          0.01474     0.41942   
  1289. BD*(   1) C  38 - C  39          0.01430     0.52013   
  1290. BD*(   2) C  38 - C  39          0.31060     0.01068  1295(v),1285(v),850(g)
                                                    824(g)
  1291. BD*(   1) C  38 - H  45          0.01326     0.39090   
  1292. BD*(   1) C  39 - C  40          0.01449     0.51538   
  1293. BD*(   1) C  39 - H  44          0.01271     0.38919   
  1294. BD*(   1) C  40 - C  41          0.01512     0.52269   
  1295. BD*(   2) C  40 - C  41          0.30835     0.00910  1290(v),1285(v),876(g)
  1296. BD*(   1) C  40 - H  43          0.01334     0.38575   
  1297. BD*(   1) C  41 - H  42          0.01515     0.38600   
  1298. BD*(   1) C  47 - C  48          0.02462     0.50524   
  1299. BD*(   2) C  47 - C  48          0.38797     0.00436  1304(v),1309(v),1285(r)
                                                    979(g),1281(v)
  1300. BD*(   1) C  47 - C  52          0.02235     0.50635   
  1301. BD*(   1) C  48 - C  49          0.01492     0.52742   
  1302. BD*(   1) C  48 - H  57          0.01473     0.38981   
  1303. BD*(   1) C  49 - C  50          0.01436     0.52470   
  1304. BD*(   2) C  49 - C  50          0.32336     0.01438  1299(v),1309(v),1031(g)
                                                    1005(g)
  1305. BD*(   1) C  49 - H  56          0.01318     0.38987   
  1306. BD*(   1) C  50 - C  51          0.01443     0.52556   
  1307. BD*(   1) C  50 - H  55          0.01274     0.39455   
  1308. BD*(   1) C  51 - C  52          0.01499     0.53612   
  1309. BD*(   2) C  51 - C  52          0.29102     0.02375  1304(v),1299(v),1057(g)
                                                    1083(g)
  1310. BD*(   1) C  51 - H  54          0.01319     0.39635   
  1311. BD*(   1) C  52 - H  53          0.01400     0.41285   
  1312. BD*(   1)Pd  58 -Cl  59          0.18614     0.16769  1313(g),1283(g),1142(g)
                                                    1141(g),742(v),1139(g)
                                                    1148(g),1149(g),1138(g)
                                                    1147(g),1137(g),1146(g)
                                                    1143(g),1140(g),716(r)
                                                    150(v),1144(g),1158(g)
                                                    1279(v),752(v),1282(v)
                                                    1133(g),1136(g),1154(g)
                                                    952(r),159(v),1288(r),157(v)
                                                    540(r),749(v),771(r)
  1313. BD*(   1)Pd  58 -Cl  60          0.18251     0.17186  1312(g),1234(g),1233(v)
                                                    1136(g),1141(g),150(v)
                                                    1139(g),1147(g),1140(g)
                                                    1145(g),1149(g),1148(g)
                                                    1146(g),1142(g),1138(g)
                                                    1144(g),1137(g),742(v)
                                                    1187(g),159(v),1133(g)
                                                    1183(g),540(r),143(g),749(v)
                                                    1262(r),1232(v),1151(g)
                                                    160(v),1282(v)
       -------------------------------
              Total Lewis  317.13397  ( 97.8809%)
        Valence non-Lewis    6.34299  (  1.9577%)
        Rydberg non-Lewis    0.52303  (  0.1614%)
       -------------------------------
            Total unit  1  324.00000  (100.0000%)
           Charge unit  1    0.00000
 1\1\GINC-NC108\SP\RPBE1PBE\Gen\C31H28Cl2P2Pd1\MACKK4\05-Dec-2021\0\\# 
 PBE1PBE gen pseudo=read int=(grid=ultrafine) empiricaldispersion=GD3BJ
  pop=nbo guess=read geom=check\\RR_NorPhos_2 title\\0,1\P,0,-1.6237586
 781,0.0205740054,-0.0166977021\C,0,-2.4172988131,1.662776569,0.1383955
 062\C,0,-1.7976255493,2.7463370897,-0.5148846032\C,0,-2.3043014718,4.0
 4309057,-0.3565702836\C,0,-3.4384782602,4.2619302329,0.4374138415\C,0,
 -4.0753626464,3.1804320059,1.0655721418\C,0,-3.5697310007,1.883114487,
 0.9172757787\H,0,-4.0842871405,1.0416535105,1.3908808719\H,0,-4.975579
 2537,3.3466027547,1.6664157977\H,0,-3.8394348964,5.2740539142,0.553722
 5099\H,0,-1.8210276008,4.879838148,-0.8708947942\H,0,-0.9383434742,2.5
 527190818,-1.1680014556\C,0,-2.9230493124,-1.2706095082,-0.0054353377\
 C,0,-3.6323158807,-1.5734878145,1.1774693135\C,0,-4.6082533251,-2.5779
 421414,1.17745484\C,0,-4.8793349375,-3.2931037039,0.0019964472\C,0,-4.
 1730654902,-2.9994633875,-1.1724699938\C,0,-3.1971834546,-1.9937384551
 ,-1.1828693251\H,0,-2.6558001063,-1.7443054478,-2.1017327877\H,0,-4.38
 07702641,-3.5543483486,-2.0929677052\H,0,-5.64030316,-4.0803626945,0.0
 042367018\H,0,-5.1535241977,-2.8044255997,2.0995492503\H,0,-3.42614317
 81,-1.029359906,2.1033055744\C,0,-0.6269047346,-0.2659272363,1.5320078
 314\C,0,-0.992417109,-0.154545881,3.056022927\C,0,-1.1909287823,1.3076
 13646,3.4327481967\C,0,0.0180444943,1.9085601595,3.3911879596\H,0,0.23
 16530688,2.9756331916,3.4990871526\C,0,1.0347157501,0.8609180976,2.933
 9767952\H,0,2.0969977643,1.0871601575,3.1031585604\C,0,0.4436151779,-0
 .3970602408,3.6112879714\H,0,0.896311658,-1.343153718,3.2678439864\H,0
 ,0.4828710604,-0.335634992,4.7108384159\C,0,0.617054899,0.6620635004,1
 .4271080092\P,0,1.6225392724,0.0034221261,0.0164260045\C,0,2.281244773
 5,-1.6222571896,0.5217547724\C,0,1.7504061207,-2.7827674015,-0.0723934
 678\C,0,2.178879602,-4.045642133,0.3594404281\C,0,3.1364001551,-4.1518
 613938,1.3779679398\C,0,3.6767030233,-2.995224045,1.9630401157\C,0,3.2
 552847042,-1.7304001068,1.5354547396\H,0,3.687576907,-0.826652763,1.97
 8172313\H,0,4.4326500413,-3.0798078128,2.7505350431\H,0,3.4719751965,-
 5.138836557,1.7125022801\H,0,1.769654514,-4.9466557222,-0.1083144689\H
 ,0,1.0200705855,-2.6765083859,-0.8829723288\C,0,3.0713688146,1.0995637
 5,-0.1372947511\C,0,3.0855695262,2.378145032,0.454907726\C,0,4.2064251
 901,3.2064234304,0.3107203312\C,0,5.3150133308,2.7670627761,-0.4258378
 3\C,0,5.3007271631,1.497599596,-1.0228602962\C,0,4.1852275914,0.664277
 4287,-0.885261988\H,0,4.1610628887,-0.3133813667,-1.3734572868\H,0,6.1
 598127524,1.1561555438,-1.6088643936\H,0,6.1886739214,3.416814364,-0.5
 397282757\H,0,4.2107038993,4.1978748437,0.7750769201\H,0,2.2250925707,
 2.7357394324,1.0283150397\Pd,0,0.0275634303,-0.0665079054,-1.622846961
 1\Cl,0,1.8268985929,-0.3900736559,-3.148111721\Cl,0,-1.6416997626,0.19
 03526042,-3.3061731154\H,0,0.2944959867,1.6452751559,1.0309999176\H,0,
 -2.1592159674,1.7849239692,3.5976748835\H,0,-1.7628680706,-0.865356403
 2,3.3854152411\H,0,-0.3061779087,-1.316299257,1.3786807967\\Version=ES
 64L-G09RevE.01\State=1-A\HF=-2927.8295325\RMSD=4.830e-09\Dipole=0.0755
 185,0.0215648,4.6265379\Quadrupole=13.1066157,16.3263852,-29.433001,4.
 2360845,-2.1654933,0.4585094\PG=C01 [X(C31H28Cl2P2Pd1)]\\@


 Human beings, who are almost unique in having the
 ability to learn from the experience of others, are
 also remarkable for their apparent disinclination to do so.
                               -- Douglas Adams,
                                Last Chance to See
 Job cpu time:       0 days  1 hours 30 minutes 60.0 seconds.
 File lengths (MBytes):  RWF=    885 Int=      0 D2E=      0 Chk=    128 Scr=      1
 Normal termination of Gaussian 09 at Sun Dec  5 04:06:34 2021.
