 Entering Gaussian System, Link 0=g09
 Input=M003_1_2_SPE.com
 Output=M003_1_2_SPE.log
 Initial command:
 /gstore/apps/gaussian/g09.e01-foss-2017a/g09/l1.exe "/local/22791164/Gau-1494.inp" -scrdir="/local/22791164/"
 Entering Link 1 = /gstore/apps/gaussian/g09.e01-foss-2017a/g09/l1.exe PID=      1495.
  
 Copyright (c) 1988,1990,1992,1993,1995,1998,2003,2009,2015,
            Gaussian, Inc.  All Rights Reserved.
  
 This is part of the Gaussian(R) 09 program.  It is based on
 the Gaussian(R) 03 system (copyright 2003, Gaussian, Inc.),
 the Gaussian(R) 98 system (copyright 1998, Gaussian, Inc.),
 the Gaussian(R) 94 system (copyright 1995, Gaussian, Inc.),
 the Gaussian 92(TM) system (copyright 1992, Gaussian, Inc.),
 the Gaussian 90(TM) system (copyright 1990, Gaussian, Inc.),
 the Gaussian 88(TM) system (copyright 1988, Gaussian, Inc.),
 the Gaussian 86(TM) system (copyright 1986, Carnegie Mellon
 University), and the Gaussian 82(TM) system (copyright 1983,
 Carnegie Mellon University). Gaussian is a federally registered
 trademark of Gaussian, Inc.
  
 This software contains proprietary and confidential information,
 including trade secrets, belonging to Gaussian, Inc.
  
 This software is provided under written license and may be
 used, copied, transmitted, or stored only in accord with that
 written license.
  
 The following legend is applicable only to US Government
 contracts under FAR:
  
                    RESTRICTED RIGHTS LEGEND
  
 Use, reproduction and disclosure by the US Government is
 subject to restrictions as set forth in subparagraphs (a)
 and (c) of the Commercial Computer Software - Restricted
 Rights clause in FAR 52.227-19.
  
 Gaussian, Inc.
 340 Quinnipiac St., Bldg. 40, Wallingford CT 06492
  
  
 ---------------------------------------------------------------
 Warning -- This program may not be used in any manner that
 competes with the business of Gaussian, Inc. or will provide
 assistance to any competitor of Gaussian, Inc.  The licensee
 of this program is prohibited from giving any competitor of
 Gaussian, Inc. access to this program.  By using this program,
 the user acknowledges that Gaussian, Inc. is engaged in the
 business of creating and licensing software in the field of
 computational chemistry and represents and warrants to the
 licensee that it is not a competitor of Gaussian, Inc. and that
 it will not use this program in any manner prohibited above.
 ---------------------------------------------------------------
  

 Cite this work as:
 Gaussian 09, Revision E.01,
 M. J. Frisch, G. W. Trucks, H. B. Schlegel, G. E. Scuseria, 
 M. A. Robb, J. R. Cheeseman, G. Scalmani, V. Barone, B. Mennucci, 
 G. A. Petersson, H. Nakatsuji, M. Caricato, X. Li, H. P. Hratchian, 
 A. F. Izmaylov, J. Bloino, G. Zheng, J. L. Sonnenberg, M. Hada, 
 M. Ehara, K. Toyota, R. Fukuda, J. Hasegawa, M. Ishida, T. Nakajima, 
 Y. Honda, O. Kitao, H. Nakai, T. Vreven, J. A. Montgomery, Jr., 
 J. E. Peralta, F. Ogliaro, M. Bearpark, J. J. Heyd, E. Brothers, 
 K. N. Kudin, V. N. Staroverov, T. Keith, R. Kobayashi, J. Normand, 
 K. Raghavachari, A. Rendell, J. C. Burant, S. S. Iyengar, J. Tomasi, 
 M. Cossi, N. Rega, J. M. Millam, M. Klene, J. E. Knox, J. B. Cross, 
 V. Bakken, C. Adamo, J. Jaramillo, R. Gomperts, R. E. Stratmann, 
 O. Yazyev, A. J. Austin, R. Cammi, C. Pomelli, J. W. Ochterski, 
 R. L. Martin, K. Morokuma, V. G. Zakrzewski, G. A. Voth, 
 P. Salvador, J. J. Dannenberg, S. Dapprich, A. D. Daniels, 
 O. Farkas, J. B. Foresman, J. V. Ortiz, J. Cioslowski, 
 and D. J. Fox, Gaussian, Inc., Wallingford CT, 2013.
 
 ******************************************
 Gaussian 09:  ES64L-G09RevE.01 30-Nov-2015
                 1-Dec-2021 
 ******************************************
 %nprocs=14
 Will use up to   14 processors via shared memory.
 %mem=128GB
 %chk=M003_1_2_SPE.chk
 ----------------------------------------------------------------------
 # PBE1PBE gen pseudo=read int=(grid=ultrafine) empiricaldispersion=GD3
 BJ nmr=giao
 ----------------------------------------------------------------------
 1/38=1/1;
 2/12=2,17=6,18=5,40=1/2;
 3/5=7,11=2,16=1,17=8,25=1,30=1,74=-13,75=-5,124=41/1,2,8,3;
 4//1;
 5/5=2,38=5/2;
 8/6=1,10=90,11=11/1;
 10/13=100,45=16/2;
 6/7=2,8=2,9=2,10=2,28=1/1;
 99/9=1/99;
 --------------
 M003_1_2 title
 --------------
 Symbolic Z-matrix:
 Charge =  0 Multiplicity = 1
 Fe                   -0.00624  -1.48204   1.68275 
 P                     1.79312  -0.05964  -0.79146 
 P                    -1.78983   0.29776  -0.54605 
 C                     1.50483  -1.40785   0.39058 
 C                     0.56378  -2.44192  -0.00551 
 C                     0.47635  -3.40266   1.0465 
 C                     1.33869  -2.97863   2.10112 
 C                     2.00452  -1.75592   1.72043 
 C                    -1.52101  -0.26865   1.17765 
 C                    -2.02879  -1.36611   2.00353 
 C                    -1.31793  -1.30395   3.25606 
 C                    -0.41553  -0.19815   3.24 
 C                    -0.53045   0.44325   1.96836 
 C                     3.34516  -0.59775  -1.61574 
 C                     4.24666   0.34141  -2.14697 
 C                     5.43186  -0.09529  -2.75058 
 C                     5.72203  -1.46285  -2.85029 
 C                     4.80896  -2.39415  -2.3428 
 C                     3.62237  -1.96738  -1.73028 
 C                     2.27389   1.52003   0.02768 
 C                     3.50874   1.70092   0.67923 
 C                     3.82307   2.95494   1.22487 
 C                     2.92419   4.02857   1.1326 
 C                     1.70756   3.84745   0.46893 
 C                     1.39052   2.6045   -0.0962 
 C                    -2.47307   1.98329  -0.21101 
 C                    -3.13999   2.21431   1.00324 
 C                    -3.68049   3.47639   1.286 
 C                    -3.54101   4.52391   0.37098 
 C                    -2.86594   4.29371  -0.83693 
 C                    -2.33745   3.03315  -1.13894 
 C                    -3.21711  -0.6621   -1.19686 
 C                    -4.53957  -0.3226   -0.88553 
 C                    -5.59737  -1.09725  -1.38797 
 C                    -5.34442  -2.20059  -2.20892 
 C                    -4.01805  -2.51989  -2.54005 
 C                    -2.95813  -1.75485  -2.04223 
 H                    -0.00207  -2.44038  -0.93857 
 H                     0.04293   1.30753   1.63424 
 H                     4.02548   1.40967  -2.10495 
 H                     6.6432   -1.7976   -3.33313 
 H                     2.92033  -2.71117  -1.34556 
 H                     4.20872   0.85841   0.75281 
 H                     3.18243   5.00279   1.55373 
 H                     0.46089   2.47932  -0.66296 
 H                    -3.24196   1.41312   1.73842 
 H                    -3.94692   5.51321   0.59794 
 H                    -1.83471   2.85836  -2.09489 
 H                    -4.75995   0.54951  -0.2636 
 H                    -6.17165  -2.79163  -2.60841 
 H                    -1.93185  -1.97659  -2.34742 
 Cl                    1.50227   0.8138   -3.81113 
 Cl                   -1.82874   0.85128  -3.63074 
 Pd                   -0.06491   0.37498  -2.09979 
 C                     3.07031  -1.02764   2.51123 
 H                     0.29465   0.05807   4.02626 
 H                    -1.44506  -2.01181   4.0732 
 C                    -3.2004   -2.31473   1.78022 
 H                     2.84844   0.05484   2.44084 
 N                     4.39539  -1.1801    1.84251 
 C                     5.47516  -0.57286   2.62632 
 C                     4.77521  -2.53405   1.44008 
 H                     6.36025  -0.44829   1.97937 
 H                     5.16996   0.41798   2.99368 
 H                     5.76627  -1.18531   3.50757 
 H                     5.61684  -2.47019   0.73081 
 H                     5.10115  -3.17375   2.29079 
 H                     3.94178  -3.03326   0.92478 
 C                     3.10786  -1.81877   6.79697 
 C                     3.37292  -2.86391   5.9004 
 C                     3.35154  -2.63477   4.5175 
 C                     3.06023  -1.35415   4.00386 
 C                     2.82906  -0.30897   4.91858 
 C                     2.84106  -0.535     6.30142 
 H                     3.12194  -2.00188   7.876 
 H                     3.6008   -3.86594   6.27864 
 H                     3.56747  -3.46243   3.83611 
 H                     2.65526   0.70444   4.5349 
 H                     2.65186   0.29396   6.9912 
 N                    -4.18034  -2.13425   2.883 
 H                    -3.66451  -2.06477   0.80419 
 C                    -5.36336  -2.97477   2.65256 
 C                    -4.61373  -0.74036   3.01852 
 H                    -5.91199  -2.69899   1.72348 
 H                    -5.07091  -4.03353   2.58802 
 H                    -6.05309  -2.85549   3.50485 
 H                    -5.12563  -0.34777   2.10919 
 H                    -5.32856  -0.67212   3.85549 
 H                    -3.75778  -0.09092   3.25896 
 C                    -1.86206  -6.44207   1.48679 
 C                    -1.89511  -5.80368   2.7382 
 C                    -2.34525  -4.48134   2.84713 
 C                    -2.75698  -3.77281   1.7032 
 C                    -2.75238  -4.42953   0.46292 
 C                    -2.30452  -5.75335   0.34831 
 H                    -1.50868  -7.47497   1.40511 
 H                    -2.40907  -3.99878   3.82692 
 H                    -3.10756  -3.90251  -0.42518 
 C                    -4.34844   3.6893    2.62236 
 F                    -3.42801   3.87603   3.60877 
 F                    -5.16737   4.77071   2.61685 
 F                    -5.09339   2.60223   2.97835 
 C                    -2.72429   5.44264  -1.81004 
 F                    -3.93328   5.78212  -2.33681 
 F                    -2.24321   6.55028  -1.17667 
 F                    -1.89083   5.15057  -2.83391 
 C                    -7.00584  -0.73132  -0.98808 
 F                    -7.23847   0.59602  -1.15692 
 F                    -7.93681  -1.41707  -1.69547 
 F                    -7.21973  -1.00055   0.33766 
 C                    -3.73184  -3.72946  -3.39802 
 F                    -3.68992  -4.86886  -2.6338 
 F                    -4.69698  -3.92075  -4.33159 
 F                    -2.53869  -3.63228  -4.03106 
 C                     6.4343    0.92287  -3.23996 
 F                     7.30019   1.26726  -2.24268 
 F                     7.17972   0.43926  -4.26825 
 F                     5.83043   2.06393  -3.65766 
 C                     5.13741  -3.86581  -2.36535 
 F                     5.95351  -4.18953  -3.39988 
 F                     5.78045  -4.24057  -1.21586 
 F                     4.0178   -4.63156  -2.4559 
 C                     5.12215   3.14543   1.97113 
 F                     6.12362   2.39919   1.44073 
 F                     5.52055   4.44178   1.97469 
 F                     4.98557   2.76656   3.28169 
 C                     0.69527   4.9635    0.36201 
 F                     0.24945   5.09552  -0.91429 
 F                    -0.39189   4.69531   1.14393 
 F                     1.20069   6.15678   0.75854 
 H                    -1.57611  -6.3434    3.63625 
 H                    -2.312    -6.2393   -0.63256 
 H                    -0.1855   -4.26619   1.06817 
 H                     1.42402  -3.45622   3.07567 
 
 Stoichiometry    C60H42Cl2F24FeN2P2Pd
 Framework group  C1[X(C60H42Cl2F24FeN2P2Pd)]
 Deg. of freedom   396
 Full point group                 C1      NOp   1
 Largest Abelian subgroup         C1      NOp   1
 Largest concise Abelian subgroup C1      NOp   1
                         Standard orientation:                         
 ---------------------------------------------------------------------
 Center     Atomic      Atomic             Coordinates (Angstroms)
 Number     Number       Type             X           Y           Z
 ---------------------------------------------------------------------
      1         26           0       -0.005884   -1.507511    1.659823
      2         15           0        1.782194   -0.049154   -0.801604
      3         15           0       -1.800590    0.297772   -0.539357
      4          6           0        1.500610   -1.413336    0.363610
      5          6           0        0.560250   -2.444008   -0.042816
      6          6           0        0.478314   -3.418638    0.996793
      7          6           0        1.343416   -3.006741    2.053945
      8          6           0        2.005525   -1.777807    1.687079
      9          6           0       -1.524759   -0.290658    1.175835
     10          6           0       -2.027544   -1.399872    1.988959
     11          6           0       -1.312533   -1.352716    3.239783
     12          6           0       -0.412374   -0.244981    3.235171
     13          6           0       -0.532902    0.412806    1.972451
     14          6           0        3.332463   -0.573279   -1.638134
     15          6           0        4.230289    0.374586   -2.160058
     16          6           0        5.414271   -0.051774   -2.773369
     17          6           0        5.706792   -1.417324   -2.891993
     18          6           0        4.797308   -2.357039   -2.393679
     19          6           0        3.611975   -1.940727   -1.771579
     20          6           0        2.262654    1.520600    0.036558
     21          6           0        3.499363    1.695412    0.686229
     22          6           0        3.813087    2.942799    1.247214
     23          6           0        2.911784    4.015740    1.172090
     24          6           0        1.693247    3.840889    0.510231
     25          6           0        1.376723    2.604814   -0.070082
     26          6           0       -2.486002    1.977384   -0.179908
     27          6           0       -3.149214    2.191116    1.039527
     28          6           0       -3.691236    3.448286    1.340654
     29          6           0       -3.556946    4.507991    0.438994
     30          6           0       -2.885560    4.295020   -0.774120
     31          6           0       -2.355628    3.039595   -1.094441
     32          6           0       -3.228197   -0.656343   -1.197859
     33          6           0       -4.550253   -0.323620   -0.877613
     34          6           0       -5.608238   -1.093749   -1.386581
     35          6           0       -5.355918   -2.185711   -2.222796
     36          6           0       -4.030069   -2.497963   -2.562589
     37          6           0       -2.969959   -1.737385   -2.058377
     38          1           0       -0.008789   -2.431371   -0.973848
     39          1           0        0.037619    1.282554    1.647757
     40          1           0        4.007147    1.441746   -2.103273
     41          1           0        6.626963   -1.743854   -3.382310
     42          1           0        2.912726   -2.690911   -1.394275
     43          1           0        4.201246    0.853428    0.746368
     44          1           0        3.169546    4.984866    1.605090
     45          1           0        0.445415    2.485207   -0.635277
     46          1           0       -3.247090    1.380141    1.764468
     47          1           0       -3.964024    5.493407    0.680292
     48          1           0       -1.855817    2.878368   -2.054304
     49          1           0       -4.770223    0.539810   -0.243548
     50          1           0       -6.183342   -2.773123   -2.627200
     51          1           0       -1.944291   -1.953037   -2.369929
     52         17           0        1.479290    0.863227   -3.808548
     53         17           0       -1.851142    0.891622   -3.616373
     54         46           0       -0.081152    0.398845   -2.097797
     55          6           0        3.072581   -1.057820    2.483742
     56          1           0        0.299990    0.002332    4.022305
     57          1           0       -1.435472   -2.071485    4.047984
     58          6           0       -3.198045   -2.347838    1.757204
     59          1           0        2.848337    0.025048    2.428322
     60          7           0        4.395661   -1.198820    1.808582
     61          6           0        5.476911   -0.599743    2.596630
     62          6           0        4.776773   -2.546607    1.387133
     63          1           0        6.359534   -0.464912    1.948364
     64          1           0        5.171019    0.385585    2.977988
     65          1           0        5.772243   -1.223110    3.468775
     66          1           0        5.615839   -2.471755    0.675912
     67          1           0        5.106886   -3.196753    2.228266
     68          1           0        3.942569   -3.040691    0.868164
     69          6           0        3.126352   -1.905013    6.758578
     70          6           0        3.390403   -2.937771    5.847482
     71          6           0        3.363840   -2.690554    4.467784
     72          6           0        3.068255   -1.403896    3.971992
     73          6           0        2.838153   -0.371274    4.901120
     74          6           0        2.855334   -0.615392    6.280829
     75          1           0        3.144490   -2.102233    7.835065
     76          1           0        3.621546   -3.944213    6.211757
     77          1           0        3.579065   -3.508770    3.774865
     78          1           0        2.661050    0.646733    4.531366
     79          1           0        2.666860    0.204062    6.982069
     80          7           0       -4.174557   -2.183813    2.865575
     81          1           0       -3.665982   -2.086033    0.786117
     82          6           0       -5.356699   -3.023624    2.628147
     83          6           0       -4.610226   -0.792698    3.020848
     84          1           0       -5.909049   -2.736790    1.704634
     85          1           0       -5.062385   -4.080860    2.548722
     86          1           0       -6.043749   -2.916929    3.484260
     87          1           0       -5.126006   -0.389252    2.118488
     88          1           0       -5.322322   -0.736883    3.861063
     89          1           0       -3.754747   -0.144743    3.266884
     90          6           0       -1.852587   -6.468268    1.405095
     91          6           0       -1.882609   -5.846421    2.664875
     92          6           0       -2.334981   -4.526532    2.792681
     93          6           0       -2.752013   -3.803886    1.659546
     94          6           0       -2.750371   -4.444278    0.410748
     95          6           0       -2.300291   -5.765572    0.277253
     96          1           0       -1.497452   -7.499302    1.308663
     97          1           0       -2.396395   -4.056990    3.778923
     98          1           0       -3.109621   -3.906367   -0.469144
     99          6           0       -4.355028    3.642296    2.681952
    100          9           0       -3.431600    3.817931    3.667593
    101          9           0       -5.176095    4.722039    2.693413
    102          9           0       -5.096607    2.549151    3.026171
    103          6           0       -2.749506    5.456899   -1.732544
    104          9           0       -3.960955    5.800813   -2.250712
    105          9           0       -2.268452    6.557095   -1.086336
    106          9           0       -1.918979    5.179956   -2.762980
    107          6           0       -7.016049   -0.735931   -0.977149
    108          9           0       -7.251871    0.593034   -1.127762
    109          9           0       -7.948073   -1.414219   -1.690309
    110          9           0       -7.224873   -1.022955    0.345671
    111          6           0       -3.744413   -3.695604   -3.437325
    112          9           0       -3.697625   -4.844834   -2.688271
    113          9           0       -4.712363   -3.876571   -4.370043
    114          9           0       -2.553624   -3.587720   -4.073081
    115          6           0        6.413025    0.974733   -3.252739
    116          9           0        7.281646    1.307755   -2.253972
    117          9           0        7.155870    0.506160   -4.289816
    118          9           0        5.805481    2.119954   -3.653381
    119          6           0        5.128570   -3.827604   -2.436651
    120          9           0        5.941764   -4.136086   -3.478101
    121          9           0        5.776278   -4.216117   -1.294364
    122          9           0        4.010169   -4.594358   -2.533443
    123          6           0        5.114339    3.126110    1.991495
    124          9           0        6.115452    2.388908    1.447947
    125          9           0        5.510191    4.423097    2.010711
    126          9           0        4.982984    2.729801    3.297420
    127          6           0        0.678398    4.956196    0.421408
    128          9           0        0.227954    5.104054   -0.851534
    129          9           0       -0.405548    4.675590    1.203424
    130          9           0        1.182823    6.145195    0.831846
    131          1           0       -1.559481   -6.397226    3.554677
    132          1           0       -2.310172   -6.238626   -0.709876
    133          1           0       -0.181761   -4.283713    1.009376
    134          1           0        1.433017   -3.496900    3.021853
 ---------------------------------------------------------------------
 Rotational constants (GHZ):      0.0212266      0.0156900      0.0139096
 General basis read from cards:  (5D, 7F)
 ======================================================================================================
                                       Pseudopotential Parameters
 ======================================================================================================
  Center     Atomic      Valence      Angular      Power
  Number     Number     Electrons     Momentum     of R      Exponent        Coefficient   SO-Coeffient
 ======================================================================================================
    1         26           16
                                      F and up 
                                                     2        1.0000000        0.00000000    0.00000000
                                      S - F
                                                     2       20.9300000      253.74958800    0.00000000
                                                     2        9.4450000       37.92284500    0.00000000
                                      P - F
                                                     2       21.7600000      161.03681200    0.00000000
                                                     2        9.1780000       27.65129800    0.00000000
                                      D - F
                                                     2       25.9000000      -24.43127600    0.00000000
                                                     2        8.8350000       -1.43425100    0.00000000
    2         15
                                   No pseudopotential on this center.
    3         15
                                   No pseudopotential on this center.
    4          6
                                   No pseudopotential on this center.
    5          6
                                   No pseudopotential on this center.
    6          6
                                   No pseudopotential on this center.
    7          6
                                   No pseudopotential on this center.
    8          6
                                   No pseudopotential on this center.
    9          6
                                   No pseudopotential on this center.
   10          6
                                   No pseudopotential on this center.
   11          6
                                   No pseudopotential on this center.
   12          6
                                   No pseudopotential on this center.
   13          6
                                   No pseudopotential on this center.
   14          6
                                   No pseudopotential on this center.
   15          6
                                   No pseudopotential on this center.
   16          6
                                   No pseudopotential on this center.
   17          6
                                   No pseudopotential on this center.
   18          6
                                   No pseudopotential on this center.
   19          6
                                   No pseudopotential on this center.
   20          6
                                   No pseudopotential on this center.
   21          6
                                   No pseudopotential on this center.
   22          6
                                   No pseudopotential on this center.
   23          6
                                   No pseudopotential on this center.
   24          6
                                   No pseudopotential on this center.
   25          6
                                   No pseudopotential on this center.
   26          6
                                   No pseudopotential on this center.
   27          6
                                   No pseudopotential on this center.
   28          6
                                   No pseudopotential on this center.
   29          6
                                   No pseudopotential on this center.
   30          6
                                   No pseudopotential on this center.
   31          6
                                   No pseudopotential on this center.
   32          6
                                   No pseudopotential on this center.
   33          6
                                   No pseudopotential on this center.
   34          6
                                   No pseudopotential on this center.
   35          6
                                   No pseudopotential on this center.
   36          6
                                   No pseudopotential on this center.
   37          6
                                   No pseudopotential on this center.
   38          1
                                   No pseudopotential on this center.
   39          1
                                   No pseudopotential on this center.
   40          1
                                   No pseudopotential on this center.
   41          1
                                   No pseudopotential on this center.
   42          1
                                   No pseudopotential on this center.
   43          1
                                   No pseudopotential on this center.
   44          1
                                   No pseudopotential on this center.
   45          1
                                   No pseudopotential on this center.
   46          1
                                   No pseudopotential on this center.
   47          1
                                   No pseudopotential on this center.
   48          1
                                   No pseudopotential on this center.
   49          1
                                   No pseudopotential on this center.
   50          1
                                   No pseudopotential on this center.
   51          1
                                   No pseudopotential on this center.
   52         17
                                   No pseudopotential on this center.
   53         17
                                   No pseudopotential on this center.
   54         46           18
                                      G and up 
                                                     2        1.0000000        0.00000000    0.00000000
                                      S - G
                                                     2       12.4300000      240.22904000    0.00000000
                                                     2        6.1707590       35.17194300    0.00000000
                                      P - G
                                                     2       11.0800000      170.41727600    0.00000000
                                                     2        5.8295540       28.47213300    0.00000000
                                      D - G
                                                     2        9.5100000       69.01384500    0.00000000
                                                     2        4.1397810       11.75086200    0.00000000
                                      F - G
                                                     2       13.2700000      -31.92955400    0.00000000
                                                     2        6.6300000       -5.39821700    0.00000000
   55          6
                                   No pseudopotential on this center.
   56          1
                                   No pseudopotential on this center.
   57          1
                                   No pseudopotential on this center.
   58          6
                                   No pseudopotential on this center.
   59          1
                                   No pseudopotential on this center.
   60          7
                                   No pseudopotential on this center.
   61          6
                                   No pseudopotential on this center.
   62          6
                                   No pseudopotential on this center.
   63          1
                                   No pseudopotential on this center.
   64          1
                                   No pseudopotential on this center.
   65          1
                                   No pseudopotential on this center.
   66          1
                                   No pseudopotential on this center.
   67          1
                                   No pseudopotential on this center.
   68          1
                                   No pseudopotential on this center.
   69          6
                                   No pseudopotential on this center.
   70          6
                                   No pseudopotential on this center.
   71          6
                                   No pseudopotential on this center.
   72          6
                                   No pseudopotential on this center.
   73          6
                                   No pseudopotential on this center.
   74          6
                                   No pseudopotential on this center.
   75          1
                                   No pseudopotential on this center.
   76          1
                                   No pseudopotential on this center.
   77          1
                                   No pseudopotential on this center.
   78          1
                                   No pseudopotential on this center.
   79          1
                                   No pseudopotential on this center.
   80          7
                                   No pseudopotential on this center.
   81          1
                                   No pseudopotential on this center.
   82          6
                                   No pseudopotential on this center.
   83          6
                                   No pseudopotential on this center.
   84          1
                                   No pseudopotential on this center.
   85          1
                                   No pseudopotential on this center.
   86          1
                                   No pseudopotential on this center.
   87          1
                                   No pseudopotential on this center.
   88          1
                                   No pseudopotential on this center.
   89          1
                                   No pseudopotential on this center.
   90          6
                                   No pseudopotential on this center.
   91          6
                                   No pseudopotential on this center.
   92          6
                                   No pseudopotential on this center.
   93          6
                                   No pseudopotential on this center.
   94          6
                                   No pseudopotential on this center.
   95          6
                                   No pseudopotential on this center.
   96          1
                                   No pseudopotential on this center.
   97          1
                                   No pseudopotential on this center.
   98          1
                                   No pseudopotential on this center.
   99          6
                                   No pseudopotential on this center.
  100          9
                                   No pseudopotential on this center.
  101          9
                                   No pseudopotential on this center.
  102          9
                                   No pseudopotential on this center.
  103          6
                                   No pseudopotential on this center.
  104          9
                                   No pseudopotential on this center.
  105          9
                                   No pseudopotential on this center.
  106          9
                                   No pseudopotential on this center.
  107          6
                                   No pseudopotential on this center.
  108          9
                                   No pseudopotential on this center.
  109          9
                                   No pseudopotential on this center.
  110          9
                                   No pseudopotential on this center.
  111          6
                                   No pseudopotential on this center.
  112          9
                                   No pseudopotential on this center.
  113          9
                                   No pseudopotential on this center.
  114          9
                                   No pseudopotential on this center.
  115          6
                                   No pseudopotential on this center.
  116          9
                                   No pseudopotential on this center.
  117          9
                                   No pseudopotential on this center.
  118          9
                                   No pseudopotential on this center.
  119          6
                                   No pseudopotential on this center.
  120          9
                                   No pseudopotential on this center.
  121          9
                                   No pseudopotential on this center.
  122          9
                                   No pseudopotential on this center.
  123          6
                                   No pseudopotential on this center.
  124          9
                                   No pseudopotential on this center.
  125          9
                                   No pseudopotential on this center.
  126          9
                                   No pseudopotential on this center.
  127          6
                                   No pseudopotential on this center.
  128          9
                                   No pseudopotential on this center.
  129          9
                                   No pseudopotential on this center.
  130          9
                                   No pseudopotential on this center.
  131          1
                                   No pseudopotential on this center.
  132          1
                                   No pseudopotential on this center.
  133          1
                                   No pseudopotential on this center.
  134          1
                                   No pseudopotential on this center.
 ======================================================================================================
 There are  3604 symmetry adapted cartesian basis functions of A   symmetry.
 There are  3145 symmetry adapted basis functions of A   symmetry.
  3145 basis functions,  5138 primitive gaussians,  3604 cartesian basis functions
   365 alpha electrons      365 beta electrons
       nuclear repulsion energy     23401.3762725616 Hartrees.
 NAtoms=  134 NActive=  134 NUniq=  134 SFac= 1.00D+00 NAtFMM=   60 NAOKFM=T Big=T
 Integral buffers will be    131072 words long.
 Raffenetti 2 integral format.
 Two-electron integral symmetry is turned on.
 Nuclear repulsion after empirical dispersion term =    23401.1248492714 Hartrees.
 One-electron integrals computed using PRISM.
   1 Symmetry operations used in ECPInt.
 ECPInt:  NShTT=  714610 NPrTT= 2256810 LenC2=  450072 LenP2D=  876102.
 LDataN:  DoStor=T MaxTD1= 7 Len=  274
 NBasis=  3145 RedAO= T EigKep=  3.04D-06  NBF=  3145
 NBsUse=  3145 1.00D-06 EigRej= -1.00D+00 NBFU=  3145
 Defaulting to unpruned grid for atomic number  46.
 ExpMin= 1.00D-02 ExpMax= 6.95D+04 ExpMxC= 2.37D+03 IAcc=3 IRadAn=         5 AccDes= 0.00D+00
 Harris functional with IExCor= 1009 and IRadAn=       5 diagonalized for initial guess.
 HarFok:  IExCor= 1009 AccDes= 0.00D+00 IRadAn=         5 IDoV= 1 UseB2=F ITyADJ=14
 ICtDFT=  3500011 ScaDFX=  1.000000  1.000000  1.000000  1.000000
 Defaulting to unpruned grid for atomic number  46.
 Defaulting to unpruned grid for atomic number  46.
 Defaulting to unpruned grid for atomic number  46.
 Defaulting to unpruned grid for atomic number  46.
 Defaulting to unpruned grid for atomic number  46.
 Defaulting to unpruned grid for atomic number  46.
 Defaulting to unpruned grid for atomic number  46.
 Defaulting to unpruned grid for atomic number  46.
 Defaulting to unpruned grid for atomic number  46.
 Defaulting to unpruned grid for atomic number  46.
 Defaulting to unpruned grid for atomic number  46.
 Defaulting to unpruned grid for atomic number  46.
 Defaulting to unpruned grid for atomic number  46.
 Defaulting to unpruned grid for atomic number  46.
 FoFCou: FMM=F IPFlag=           0 FMFlag=      100000 FMFlg1=        2001
         NFxFlg=           0 DoJE=T BraDBF=F KetDBF=T FulRan=T
         wScrn=  0.000000 ICntrl=     500 IOpCl=  0 I1Cent=   200000004 NGrid=           0
         NMat0=    1 NMatS0=      1 NMatT0=    0 NMatD0=    1 NMtDS0=    0 NMtDT0=    0
 Petite list used in FoFCou.
 Requested convergence on RMS density matrix=1.00D-08 within 128 cycles.
 Requested convergence on MAX density matrix=1.00D-06.
 Requested convergence on             energy=1.00D-06.
 No special actions if energy rises.
 Defaulting to unpruned grid for atomic number  46.
 Defaulting to unpruned grid for atomic number  46.
 Defaulting to unpruned grid for atomic number  46.
 Defaulting to unpruned grid for atomic number  46.
 Defaulting to unpruned grid for atomic number  46.
 Defaulting to unpruned grid for atomic number  46.
 Defaulting to unpruned grid for atomic number  46.
 Defaulting to unpruned grid for atomic number  46.
 Defaulting to unpruned grid for atomic number  46.
 Defaulting to unpruned grid for atomic number  46.
 Defaulting to unpruned grid for atomic number  46.
 Defaulting to unpruned grid for atomic number  46.
 Defaulting to unpruned grid for atomic number  46.
 Defaulting to unpruned grid for atomic number  46.
 EnCoef did     2 forward-backward iterations
 EnCoef did     2 forward-backward iterations
 EnCoef did     6 forward-backward iterations
 EnCoef did     3 forward-backward iterations
 EnCoef did   100 forward-backward iterations
 EnCoef did   100 forward-backward iterations
 EnCoef did    10 forward-backward iterations
 Restarting incremental Fock formation.
 SCF Done:  E(RPBE1PBE) =  -6669.04779831     A.U. after   32 cycles
            NFock= 32  Conv=0.51D-08     -V/T= 2.0242
 DoSCS=F DFT=T ScalE2(SS,OS)=  1.000000  1.000000
 Range of M.O.s used for correlation:     1  3145
 NBasis=  3145 NAE=   365 NBE=   365 NFC=     0 NFV=     0
 NROrb=   3145 NOA=   365 NOB=   365 NVA=  2780 NVB=  2780

 **** Warning!!: The largest alpha MO coefficient is  0.41118563D+02

          Differentiating once with respect to magnetic field using GIAOs.
          Electric field/nuclear overlap derivatives assumed to be zero.
 Defaulting to unpruned grid for atomic number  46.
 FoFCou: FMM=F IPFlag=           0 FMFlag=      100000 FMFlg1=        2001
         NFxFlg=           0 DoJE=F BraDBF=F KetDBF=T FulRan=T
         wScrn=  0.000000 ICntrl=    6100 IOpCl=  0 I1Cent=           7 NGrid=         134
         NMat0=    1 NMatS0=      1 NMatT0=    0 NMatD0=    1 NMtDS0=    0 NMtDT0=    0
 Symmetry not used in FoFCou.
   1 Symmetry operations used in ECPInt.
 ECPInt:  NShTT=  714610 NPrTT= 2256810 LenC2=  714611 LenP2D= 2256810.
 LDataN:  DoStor=T MaxTD1= 8 Len=  415
 FoFJK:  IHMeth= 1 ICntrl=    6127 DoSepK=F KAlg= 0 I1Cent=   0 FoldK=F
 IRaf=         1 NMat=   1 IRICut=       1 DoRegI=T DoRafI=F ISym2E= 0.
 Defaulting to unpruned grid for atomic number  46.
 Defaulting to unpruned grid for atomic number  46.
 Defaulting to unpruned grid for atomic number  46.
 Defaulting to unpruned grid for atomic number  46.
 Defaulting to unpruned grid for atomic number  46.
 Defaulting to unpruned grid for atomic number  46.
 Defaulting to unpruned grid for atomic number  46.
 Defaulting to unpruned grid for atomic number  46.
 Defaulting to unpruned grid for atomic number  46.
 Defaulting to unpruned grid for atomic number  46.
 Defaulting to unpruned grid for atomic number  46.
 Defaulting to unpruned grid for atomic number  46.
 Defaulting to unpruned grid for atomic number  46.
 Defaulting to unpruned grid for atomic number  46.
          There are     3 degrees of freedom in the 1st order CPHF.  IDoFFX=0 NUNeed=     3.
      3 vectors produced by pass  0 Test12= 3.38D-11 3.33D-08 XBig12= 5.68D+02 2.78D+00.
 AX will form     3 AO Fock derivatives at one time.
      3 vectors produced by pass  1 Test12= 3.38D-11 3.33D-08 XBig12= 3.00D+00 2.99D-01.
      3 vectors produced by pass  2 Test12= 3.38D-11 3.33D-08 XBig12= 6.95D-02 7.33D-02.
      3 vectors produced by pass  3 Test12= 3.38D-11 3.33D-08 XBig12= 1.77D-03 9.15D-03.
      3 vectors produced by pass  4 Test12= 3.38D-11 3.33D-08 XBig12= 2.56D-05 1.93D-03.
      3 vectors produced by pass  5 Test12= 3.38D-11 3.33D-08 XBig12= 1.04D-06 3.15D-04.
      3 vectors produced by pass  6 Test12= 3.38D-11 3.33D-08 XBig12= 1.24D-08 3.62D-05.
      3 vectors produced by pass  7 Test12= 3.38D-11 3.33D-08 XBig12= 2.86D-10 5.22D-06.
      3 vectors produced by pass  8 Test12= 3.38D-11 3.33D-08 XBig12= 2.77D-12 6.44D-07.
      3 vectors produced by pass  9 Test12= 3.38D-11 3.33D-08 XBig12= 1.49D-13 8.05D-08.
      1 vectors produced by pass 10 Test12= 3.38D-11 3.33D-08 XBig12= 1.16D-13 5.02D-08.
 InvSVY:  IOpt=1 It=  1 EMax= 1.42D-14
 Solved reduced A of dimension    31 with     3 vectors.
 Calculating GIAO nuclear magnetic shielding tensors.
 SCF GIAO Magnetic shielding tensor (ppm):
      1  Fe   Isotropic = -6105.6047   Anisotropy =  7685.2172
   XX= -4323.3879   YX= -3190.3825   ZX= -2205.3362
   XY= -3076.7332   YY= -6481.4257   ZY=  1584.5659
   XZ= -2128.0223   YZ=  1596.4188   ZZ= -7512.0005
   Eigenvalues: -8727.1118 -8607.5758  -982.1266
      2  P    Isotropic =   219.6210   Anisotropy =   109.5805
   XX=   254.7245   YX=   -33.1464   ZX=    35.4492
   XY=   -20.6531   YY=   165.1365   ZY=     7.3886
   XZ=    46.9015   YZ=   -11.4999   ZZ=   239.0021
   Eigenvalues:   156.4704   209.7180   292.6747
      3  P    Isotropic =   236.8107   Anisotropy =   148.8831
   XX=   277.1257   YX=   -24.8657   ZX=   -79.6139
   XY=   -37.2873   YY=   172.0647   ZY=    -7.6044
   XZ=   -48.4333   YZ=    -4.0773   ZZ=   261.2417
   Eigenvalues:   156.8966   217.4695   336.0661
      4  C    Isotropic =   111.4591   Anisotropy =    83.4202
   XX=   130.0523   YX=   -40.0627   ZX=    19.8343
   XY=   -46.1823   YY=   116.4072   ZY=    11.3786
   XZ=     0.9275   YZ=    24.3210   ZZ=    87.9178
   Eigenvalues:    62.9527   104.3520   167.0726
      5  C    Isotropic =    95.3662   Anisotropy =    80.0833
   XX=   120.0781   YX=   -24.3195   ZX=   -33.5300
   XY=   -29.1687   YY=   119.3825   ZY=   -25.4014
   XZ=   -35.6189   YZ=    -6.3596   ZZ=    46.6378
   Eigenvalues:    26.1745   111.1689   148.7550
      6  C    Isotropic =   100.1789   Anisotropy =   107.6969
   XX=   135.4785   YX=   -39.5192   ZX=   -32.7188
   XY=   -48.7653   YY=    64.5577   ZY=    11.5471
   XZ=   -33.0658   YZ=     3.9775   ZZ=   100.5005
   Eigenvalues:    42.3253    86.2345   171.9768
      7  C    Isotropic =   105.9065   Anisotropy =    85.2513
   XX=   130.1094   YX=    -6.5760   ZX=   -39.3569
   XY=    -5.2446   YY=    91.7659   ZY=    59.0640
   XZ=   -23.2479   YZ=    31.1309   ZZ=    95.8442
   Eigenvalues:    44.7869   110.1918   162.7407
      8  C    Isotropic =    86.3987   Anisotropy =    81.2776
   XX=    76.6577   YX=   -31.9237   ZX=   -36.5109
   XY=   -21.7438   YY=    93.4252   ZY=    26.2432
   XZ=   -34.6214   YZ=    11.3444   ZZ=    89.1134
   Eigenvalues:    44.7458    73.8666   140.5838
      9  C    Isotropic =   110.6239   Anisotropy =    77.3607
   XX=   114.3698   YX=    -2.2149   ZX=   -42.3239
   XY=    -8.8304   YY=   107.5365   ZY=    42.9300
   XZ=   -19.9765   YZ=    32.9603   ZZ=   109.9655
   Eigenvalues:    63.4414   106.2326   162.1977
     10  C    Isotropic =    77.1352   Anisotropy =    95.7863
   XX=    65.7241   YX=   -44.3124   ZX=   -14.0574
   XY=   -35.8711   YY=    98.5989   ZY=    29.7795
   XZ=    -7.3624   YZ=    36.8609   ZZ=    67.0825
   Eigenvalues:    34.2553    56.1574   140.9927
     11  C    Isotropic =   108.1287   Anisotropy =    93.4923
   XX=   129.7226   YX=   -42.3701   ZX=     4.3741
   XY=   -31.2793   YY=   129.2976   ZY=    17.9392
   XZ=    -1.0459   YZ=    42.5649   ZZ=    65.3660
   Eigenvalues:    49.9102   104.0191   170.4569
     12  C    Isotropic =   105.1204   Anisotropy =    99.8672
   XX=   134.2891   YX=   -41.1517   ZX=   -25.2876
   XY=   -43.0252   YY=   113.7475   ZY=   -11.8506
   XZ=   -40.2126   YZ=    -5.1914   ZZ=    67.3247
   Eigenvalues:    44.1004    99.5624   171.6985
     13  C    Isotropic =   107.9152   Anisotropy =    81.2724
   XX=   136.6425   YX=   -37.4513   ZX=    -9.1370
   XY=   -41.9903   YY=    63.2191   ZY=    19.8016
   XZ=   -20.8818   YZ=    -0.8175   ZZ=   123.8842
   Eigenvalues:    45.7475   115.9013   162.0969
     14  C    Isotropic =    39.7485   Anisotropy =   181.0847
   XX=    10.1003   YX=    11.3091   ZX=    86.6700
   XY=    10.3365   YY=    -0.4198   ZY=    -9.1569
   XZ=    88.3006   YZ=    -5.7109   ZZ=   109.5650
   Eigenvalues:   -44.6744     3.4483   160.4716
     15  C    Isotropic =    41.3465   Anisotropy =   203.7130
   XX=    39.0709   YX=     6.9913   ZX=    73.8517
   XY=    12.4739   YY=   -59.9528   ZY=    -1.8093
   XZ=    59.3641   YZ=     2.3362   ZZ=   144.9215
   Eigenvalues:   -61.1361     8.0205   177.1552
     16  C    Isotropic =    48.5308   Anisotropy =   159.6583
   XX=    27.5784   YX=   -29.0501   ZX=    65.3955
   XY=   -28.7371   YY=    -1.9167   ZY=    17.3151
   XZ=    67.6855   YZ=    25.9113   ZZ=   119.9305
   Eigenvalues:   -40.3765    30.9991   154.9696
     17  C    Isotropic =    54.0316   Anisotropy =   190.5940
   XX=    10.8900   YX=    18.6391   ZX=    89.8702
   XY=    18.0561   YY=    15.5259   ZY=    -5.8704
   XZ=    85.7646   YZ=    -4.7431   ZZ=   135.6789
   Eigenvalues:   -40.6939    21.6945   181.0943
     18  C    Isotropic =    48.2306   Anisotropy =   160.1386
   XX=    54.9709   YX=    15.3792   ZX=    49.8788
   XY=    16.5313   YY=   -40.4262   ZY=     0.2798
   XZ=    49.6751   YZ=    -8.8219   ZZ=   130.1470
   Eigenvalues:   -44.0117    33.7138   154.9896
     19  C    Isotropic =    46.2282   Anisotropy =   200.5821
   XX=    22.5079   YX=   -22.0776   ZX=    80.7200
   XY=   -34.3301   YY=   -21.8716   ZY=    21.4109
   XZ=    80.3716   YZ=    30.8330   ZZ=   138.0482
   Eigenvalues:   -57.6453    16.3803   179.9496
     20  C    Isotropic =    42.7143   Anisotropy =   180.7942
   XX=    45.4330   YX=     6.0355   ZX=   -59.9273
   XY=    13.5405   YY=   -26.2966   ZY=   -56.2682
   XZ=   -67.8116   YZ=   -54.7935   ZZ=   109.0065
   Eigenvalues:   -48.3004    13.1996   163.2437
     21  C    Isotropic =    40.2701   Anisotropy =   210.0666
   XX=     4.0705   YX=    51.9955   ZX=   -64.5203
   XY=    48.3853   YY=   -18.0507   ZY=   -45.7536
   XZ=   -67.6293   YZ=   -40.2237   ZZ=   134.7906
   Eigenvalues:   -58.8481    -0.6561   180.3145
     22  C    Isotropic =    46.1882   Anisotropy =   161.2239
   XX=    -6.8313   YX=    10.6093   ZX=   -75.0247
   XY=     4.5205   YY=    39.8993   ZY=   -36.8677
   XZ=   -75.2062   YZ=   -32.9059   ZZ=   105.4966
   Eigenvalues:   -45.4520    30.3458   153.6708
     23  C    Isotropic =    52.5557   Anisotropy =   193.4455
   XX=    47.0451   YX=    11.9754   ZX=   -62.2574
   XY=     7.7111   YY=   -16.0108   ZY=   -60.8193
   XZ=   -67.0804   YZ=   -66.5571   ZZ=   126.6328
   Eigenvalues:   -43.0869    19.2347   181.5193
     24  C    Isotropic =    45.9479   Anisotropy =   160.9249
   XX=    23.7789   YX=    48.7966   ZX=   -49.0309
   XY=    55.8369   YY=    -3.8043   ZY=   -27.2139
   XZ=   -50.1019   YZ=   -27.0913   ZZ=   117.8692
   Eigenvalues:   -44.6880    29.3006   153.2312
     25  C    Isotropic =    32.8195   Anisotropy =   191.2779
   XX=   -14.8919   YX=     8.0319   ZX=   -93.4484
   XY=    17.8406   YY=    14.9305   ZY=   -39.4339
   XZ=   -90.6576   YZ=   -35.4919   ZZ=    98.4198
   Eigenvalues:   -66.9776     5.0979   160.3381
     26  C    Isotropic =    42.7213   Anisotropy =   180.9541
   XX=   112.5148   YX=    48.1887   ZX=    75.0915
   XY=    48.9325   YY=   -24.0352   ZY=    10.5335
   XZ=    57.9522   YZ=     6.1463   ZZ=    39.6842
   Eigenvalues:   -42.2228     7.0293   163.3573
     27  C    Isotropic =    41.4254   Anisotropy =   200.5837
   XX=   144.7177   YX=    21.9246   ZX=    51.9023
   XY=    36.9956   YY=   -17.8162   ZY=    45.6733
   XZ=    64.4992   YZ=    50.7170   ZZ=    -2.6253
   Eigenvalues:   -60.4554     9.5837   175.1479
     28  C    Isotropic =    47.0693   Anisotropy =   161.0690
   XX=   105.7521   YX=    31.5770   ZX=    82.3535
   XY=    34.0358   YY=    38.4857   ZY=     2.1949
   XZ=    72.8503   YZ=     5.9192   ZZ=    -3.0298
   Eigenvalues:   -45.0997    31.8590   154.4487
     29  C    Isotropic =    50.5606   Anisotropy =   196.7716
   XX=   134.1793   YX=    59.7368   ZX=    62.8567
   XY=    57.0891   YY=   -23.1722   ZY=     7.1581
   XZ=    65.8192   YZ=     4.4728   ZZ=    40.6747
   Eigenvalues:   -45.7233    15.6634   181.7416
     30  C    Isotropic =    43.1603   Anisotropy =   167.8660
   XX=   123.1452   YX=    19.7316   ZX=    53.0884
   XY=    21.9476   YY=   -10.1528   ZY=    50.3768
   XZ=    55.1244   YZ=    47.6138   ZZ=    16.4884
   Eigenvalues:   -49.4689    23.8788   155.0709
     31  C    Isotropic =    37.8640   Anisotropy =   206.9909
   XX=   119.0778   YX=    39.2575   ZX=    90.2401
   XY=    43.0579   YY=    10.0701   ZY=    18.0722
   XZ=    89.8829   YZ=    13.8739   ZZ=   -15.5558
   Eigenvalues:   -60.9549    -1.3109   175.8580
     32  C    Isotropic =    42.1290   Anisotropy =   189.3721
   XX=   -21.9187   YX=   -20.8793   ZX=   -11.1581
   XY=   -29.4814   YY=    44.2643   ZY=   -96.5349
   XZ=   -13.1702   YZ=   -81.9167   ZZ=   104.0415
   Eigenvalues:   -48.5492     6.5592   168.3771
     33  C    Isotropic =    42.4308   Anisotropy =   204.4310
   XX=     6.8757   YX=     7.9349   ZX=    15.9737
   XY=     5.4793   YY=    26.8978   ZY=  -110.3677
   XZ=     7.3010   YZ=  -116.7550   ZZ=    93.5188
   Eigenvalues:   -60.4064     8.9806   178.7181
     34  C    Isotropic =    46.8281   Anisotropy =   161.6196
   XX=   -35.0642   YX=    12.7779   ZX=    24.2017
   XY=     8.4212   YY=    70.8137   ZY=   -63.4369
   XZ=    21.4339   YZ=   -64.2818   ZZ=   104.7347
   Eigenvalues:   -43.3971    29.3068   154.5745
     35  C    Isotropic =    53.4916   Anisotropy =   192.1273
   XX=   -14.4857   YX=   -28.9572   ZX=    -9.5469
   XY=   -31.3233   YY=    57.4197   ZY=   -92.0633
   XZ=    -5.6090   YZ=   -84.8375   ZZ=   117.5407
   Eigenvalues:   -39.7802    18.6785   181.5764
     36  C    Isotropic =    46.8445   Anisotropy =   161.9498
   XX=    26.1540   YX=     7.5000   ZX=    15.2727
   XY=     7.2770   YY=    33.6590   ZY=   -91.8552
   XZ=    17.5324   YZ=   -96.4939   ZZ=    80.7206
   Eigenvalues:   -43.5348    29.2573   154.8110
     37  C    Isotropic =    36.4179   Anisotropy =   199.6384
   XX=   -55.2109   YX=     6.9880   ZX=    22.6585
   XY=    14.5137   YY=    70.2721   ZY=   -80.3889
   XZ=    26.5975   YZ=   -91.3095   ZZ=    94.1927
   Eigenvalues:   -65.4407     5.1843   169.5102
     38  H    Isotropic =    26.4921   Anisotropy =     5.8933
   XX=    26.8793   YX=     3.6526   ZX=     0.6119
   XY=     0.5432   YY=    28.8727   ZY=    -2.6528
   XZ=     4.0729   YZ=    -2.6308   ZZ=    23.7243
   Eigenvalues:    21.0594    27.9959    30.4210
     39  H    Isotropic =    27.9677   Anisotropy =     8.5073
   XX=    29.4435   YX=     1.4344   ZX=     0.5488
   XY=     4.6957   YY=    26.6339   ZY=    -1.6869
   XZ=    -4.3251   YZ=    -5.2825   ZZ=    27.8258
   Eigenvalues:    23.4095    26.8544    33.6393
     40  H    Isotropic =    23.5793   Anisotropy =    15.4356
   XX=    30.0054   YX=     1.4154   ZX=    -6.3207
   XY=     3.4118   YY=    16.4917   ZY=    -1.5767
   XZ=    -5.2849   YZ=     1.2026   ZZ=    24.2408
   Eigenvalues:    15.9650    20.9031    33.8697
     41  H    Isotropic =    23.2262   Anisotropy =     9.4752
   XX=    21.2767   YX=     2.0272   ZX=    -3.0385
   XY=     1.9439   YY=    28.7030   ZY=    -1.1991
   XZ=    -2.9754   YZ=    -0.9214   ZZ=    19.6989
   Eigenvalues:    17.3658    22.7697    29.5430
     42  H    Isotropic =    23.5591   Anisotropy =    17.6603
   XX=    26.1845   YX=    -5.7302   ZX=    -7.5269
   XY=    -7.0479   YY=    22.5328   ZY=     5.5137
   XZ=    -4.5359   YZ=     3.7638   ZZ=    21.9600
   Eigenvalues:    17.5977    17.7470    35.3326
     43  H    Isotropic =    22.2171   Anisotropy =    10.6035
   XX=    21.4427   YX=     5.6879   ZX=     5.2363
   XY=     3.9121   YY=    23.1067   ZY=     0.7076
   XZ=     3.3680   YZ=     1.9361   ZZ=    22.1018
   Eigenvalues:    16.1291    21.2361    29.2860
     44  H    Isotropic =    22.9745   Anisotropy =    10.9605
   XX=    28.1421   YX=    -2.1095   ZX=     4.0811
   XY=    -2.6221   YY=    22.6189   ZY=    -0.1618
   XZ=     3.9896   YZ=    -0.4526   ZZ=    18.1626
   Eigenvalues:    16.6897    21.9523    30.2815
     45  H    Isotropic =    21.0481   Anisotropy =    13.5651
   XX=    18.7203   YX=    -0.4141   ZX=    -0.6919
   XY=     0.5045   YY=    28.9290   ZY=     4.0857
   XZ=     2.4972   YZ=     4.1249   ZZ=    15.4951
   Eigenvalues:    14.1781    18.8747    30.0915
     46  H    Isotropic =    23.1424   Anisotropy =    15.5040
   XX=    24.2551   YX=    -6.5029   ZX=    -1.5760
   XY=    -6.2237   YY=    25.8998   ZY=     2.2852
   XZ=    -6.0502   YZ=     5.1451   ZZ=    19.2723
   Eigenvalues:    17.1883    18.7606    33.4784
     47  H    Isotropic =    22.9395   Anisotropy =     8.9109
   XX=    21.1209   YX=    -0.4565   ZX=    -3.6649
   XY=    -0.0348   YY=    22.0152   ZY=    -2.9842
   XZ=    -4.3442   YZ=    -2.8390   ZZ=    25.6824
   Eigenvalues:    17.9821    21.9562    28.8801
     48  H    Isotropic =    20.7545   Anisotropy =    17.5694
   XX=    14.6353   YX=    -4.5846   ZX=     0.8533
   XY=    -3.4057   YY=    31.4405   ZY=     2.1182
   XZ=    -0.1138   YZ=     0.9771   ZZ=    16.1877
   Eigenvalues:    13.5401    16.2559    32.4674
     49  H    Isotropic =    23.5116   Anisotropy =    15.3129
   XX=    31.4729   YX=     6.5499   ZX=     2.2837
   XY=     2.8468   YY=    21.0322   ZY=    -0.1647
   XZ=     2.6584   YZ=     2.0270   ZZ=    18.0297
   Eigenvalues:    17.5851    19.2294    33.7202
     50  H    Isotropic =    22.9815   Anisotropy =     9.2863
   XX=    25.6269   YX=    -2.8973   ZX=    -1.3260
   XY=    -3.3028   YY=    21.7479   ZY=     4.0829
   XZ=    -1.7583   YZ=     4.6529   ZZ=    21.5698
   Eigenvalues:    17.1332    22.6390    29.1724
     51  H    Isotropic =    21.6469   Anisotropy =    15.2774
   XX=    18.7020   YX=     7.8915   ZX=     3.0673
   XY=     6.0213   YY=    25.5471   ZY=     2.8667
   XZ=     2.4277   YZ=     4.7024   ZZ=    20.6916
   Eigenvalues:    14.3494    18.7595    31.8319
     52  Cl   Isotropic =   794.4747   Anisotropy =   406.3251
   XX=   627.4241   YX=    10.1203   ZX=  -160.6150
   XY=    55.5363   YY=  1062.4325   ZY=    29.2378
   XZ=  -118.6346   YZ=   -32.9675   ZZ=   693.5674
   Eigenvalues:   515.8977   802.1683  1065.3580
     53  Cl   Isotropic =   841.0611   Anisotropy =   549.2919
   XX=   647.4451   YX=   138.9197   ZX=   128.6429
   XY=    81.0413   YY=  1162.5959   ZY=     2.0280
   XZ=    69.7014   YZ=   168.6316   ZZ=   713.1423
   Eigenvalues:   572.7838   743.1437  1207.2557
     54  Pd   Isotropic =  -153.6513   Anisotropy =   241.0568
   XX=    -2.0376   YX=   -45.3751   ZX=   -20.0329
   XY=   -37.4400   YY=  -433.7391   ZY=  -106.7886
   XZ=    -6.3951   YZ=  -128.2047   ZZ=   -25.1772
   Eigenvalues:  -469.1544     1.1473     7.0533
     55  C    Isotropic =   116.0836   Anisotropy =    30.0383
   XX=   127.3217   YX=    -4.0371   ZX=    -8.8188
   XY=    -8.4244   YY=   102.6471   ZY=     4.0732
   XZ=   -13.2787   YZ=     1.6401   ZZ=   118.2819
   Eigenvalues:   101.1591   110.9825   136.1091
     56  H    Isotropic =    27.5830   Anisotropy =    10.3554
   XX=    30.5836   YX=    -1.6738   ZX=     5.6803
   XY=     1.2062   YY=    22.5416   ZY=     0.1436
   XZ=     2.9986   YZ=    -0.9720   ZZ=    29.6239
   Eigenvalues:    22.5174    25.7450    34.4866
     57  H    Isotropic =    27.3489   Anisotropy =     4.5535
   XX=    27.1685   YX=     3.1146   ZX=     3.0772
   XY=     2.1644   YY=    27.0923   ZY=    -2.5277
   XZ=     1.1608   YZ=    -3.2778   ZZ=    27.7859
   Eigenvalues:    22.2095    29.4527    30.3846
     58  C    Isotropic =   117.3827   Anisotropy =    41.8757
   XX=   123.0248   YX=    -7.5941   ZX=   -17.7683
   XY=   -15.4812   YY=   105.5826   ZY=     7.0539
   XZ=   -18.1267   YZ=     5.7389   ZZ=   123.5407
   Eigenvalues:    99.4094   107.4389   145.2998
     59  H    Isotropic =    27.1897   Anisotropy =     5.4046
   XX=    25.4078   YX=     1.0159   ZX=     1.7803
   XY=    -1.2804   YY=    28.7592   ZY=    -0.5606
   XZ=     1.6866   YZ=    -4.1506   ZZ=    27.4021
   Eigenvalues:    24.0934    26.6829    30.7927
     60  N    Isotropic =   201.8871   Anisotropy =    60.6031
   XX=   238.6185   YX=    20.2789   ZX=   -11.7139
   XY=     0.7677   YY=   184.1073   ZY=    10.4515
   XZ=    -9.9863   YZ=    -3.5302   ZZ=   182.9355
   Eigenvalues:   176.3536   187.0186   242.2891
     61  C    Isotropic =   141.0300   Anisotropy =    54.1202
   XX=   147.8503   YX=    24.1480   ZX=    22.7152
   XY=    18.6840   YY=   141.7888   ZY=     9.6490
   XZ=    17.5518   YZ=     9.2757   ZZ=   133.4510
   Eigenvalues:   117.5609   128.4190   177.1101
     62  C    Isotropic =   144.7111   Anisotropy =    47.4956
   XX=   126.1638   YX=   -15.3055   ZX=    -1.6250
   XY=    -9.7679   YY=   166.6580   ZY=    16.4181
   XZ=    -0.2785   YZ=    13.4929   ZZ=   141.3114
   Eigenvalues:   121.9214   135.8370   176.3748
     63  H    Isotropic =    29.6076   Anisotropy =     9.3595
   XX=    34.8052   YX=     3.0662   ZX=    -0.7970
   XY=     3.0414   YY=    26.8698   ZY=    -0.9480
   XZ=     0.9375   YZ=    -0.4602   ZZ=    27.1478
   Eigenvalues:    25.5356    27.4399    35.8473
     64  H    Isotropic =    29.2905   Anisotropy =    11.0094
   XX=    26.2654   YX=     6.0497   ZX=     0.9116
   XY=     1.2751   YY=    34.7411   ZY=     1.3710
   XZ=     3.1632   YZ=     1.9096   ZZ=    26.8650
   Eigenvalues:    24.1293    27.1121    36.6301
     65  H    Isotropic =    30.4377   Anisotropy =     8.0315
   XX=    33.6394   YX=     0.2474   ZX=     1.6597
   XY=     0.8100   YY=    25.9553   ZY=    -2.1136
   XZ=     3.9952   YZ=    -3.0134   ZZ=    31.7186
   Eigenvalues:    24.7052    30.8159    35.7921
     66  H    Isotropic =    30.2528   Anisotropy =     9.7516
   XX=    30.7550   YX=    -3.9668   ZX=    -2.6103
   XY=    -4.4597   YY=    26.7775   ZY=     2.9972
   XZ=    -3.4224   YZ=     0.2795   ZZ=    33.2259
   Eigenvalues:    24.1004    29.9041    36.7539
     67  H    Isotropic =    29.7468   Anisotropy =    10.0132
   XX=    28.7376   YX=    -5.0026   ZX=     0.0992
   XY=    -4.9976   YY=    31.4758   ZY=    -4.1561
   XZ=    -0.1933   YZ=    -2.9819   ZZ=    29.0271
   Eigenvalues:    23.8434    28.9748    36.4223
     68  H    Isotropic =    29.8083   Anisotropy =     6.9921
   XX=    32.2986   YX=    -3.5966   ZX=     1.0695
   XY=    -2.8328   YY=    28.5199   ZY=     3.2311
   XZ=    -1.7749   YZ=     0.9811   ZZ=    28.6063
   Eigenvalues:    25.6745    29.2806    34.4697
     69  C    Isotropic =    51.0333   Anisotropy =   189.3624
   XX=   169.6872   YX=    33.2057   ZX=     0.4510
   XY=    30.7629   YY=    40.0593   ZY=    14.7246
   XZ=     3.3308   YZ=    16.6109   ZZ=   -56.6465
   Eigenvalues:   -59.1661    34.9911   177.2749
     70  C    Isotropic =    51.7515   Anisotropy =   187.3978
   XX=   164.6506   YX=    51.4404   ZX=    -3.3027
   XY=    49.3934   YY=   -36.7440   ZY=    30.2500
   XZ=    -2.7772   YZ=    31.2396   ZZ=    27.3479
   Eigenvalues:   -59.4685    38.0397   176.6834
     71  C    Isotropic =    50.7966   Anisotropy =   183.1607
   XX=   163.0074   YX=    38.5270   ZX=    26.6172
   XY=    44.3354   YY=   -15.5899   ZY=   -37.9976
   XZ=    14.8336   YZ=   -48.9751   ZZ=     4.9725
   Eigenvalues:   -59.2842    38.7703   172.9038
     72  C    Isotropic =    40.4842   Anisotropy =   191.6522
   XX=   159.1461   YX=    40.6647   ZX=     9.2829
   XY=    32.4491   YY=    17.4812   ZY=    13.2263
   XZ=    -2.0637   YZ=    17.4926   ZZ=   -55.1747
   Eigenvalues:   -58.3575    11.5577   168.2523
     73  C    Isotropic =    48.0107   Anisotropy =   165.7531
   XX=   151.7328   YX=    35.9514   ZX=    -5.8978
   XY=    37.9766   YY=   -44.4306   ZY=    33.0636
   XZ=    -0.6554   YZ=    28.7787   ZZ=    36.7299
   Eigenvalues:   -61.0048    46.5241   158.5128
     74  C    Isotropic =    50.4019   Anisotropy =   187.1848
   XX=   166.3981   YX=    39.4705   ZX=    12.6703
   XY=    41.3360   YY=   -12.3502   ZY=   -47.7271
   XZ=    15.8557   YZ=   -48.9831   ZZ=    -2.8423
   Eigenvalues:   -63.0679    39.0817   175.1917
     75  H    Isotropic =    23.7732   Anisotropy =     3.5366
   XX=    20.5347   YX=    -1.1688   ZX=     0.6253
   XY=    -1.3415   YY=    25.8056   ZY=    -0.0265
   XZ=     0.5603   YZ=    -0.1442   ZZ=    24.9793
   Eigenvalues:    20.1857    25.0030    26.1309
     76  H    Isotropic =    23.7535   Anisotropy =     6.5886
   XX=    20.4986   YX=    -1.0497   ZX=     1.2483
   XY=    -0.8986   YY=    22.7571   ZY=    -0.2442
   XZ=     0.4757   YZ=    -0.4983   ZZ=    28.0047
   Eigenvalues:    20.0774    23.0372    28.1458
     77  H    Isotropic =    23.9072   Anisotropy =    11.4223
   XX=    21.8161   YX=    -0.3657   ZX=     2.4518
   XY=    -0.9052   YY=    23.6393   ZY=    -6.1060
   XZ=     1.3577   YZ=    -6.0190   ZZ=    26.2661
   Eigenvalues:    18.5830    21.6165    31.5220
     78  H    Isotropic =    24.3990   Anisotropy =     9.6930
   XX=    21.3259   YX=     1.5381   ZX=     0.3546
   XY=     0.4653   YY=    21.2995   ZY=     1.6050
   XZ=     0.5111   YZ=     1.4987   ZZ=    30.5715
   Eigenvalues:    20.2426    22.0933    30.8610
     79  H    Isotropic =    23.8234   Anisotropy =     7.7910
   XX=    20.0905   YX=    -0.4379   ZX=     1.1312
   XY=    -0.5010   YY=    23.2522   ZY=    -1.8049
   XZ=     1.2014   YZ=    -2.1877   ZZ=    28.1275
   Eigenvalues:    19.9128    22.5400    29.0174
     80  N    Isotropic =   189.8858   Anisotropy =    59.6529
   XX=   211.1259   YX=     0.5739   ZX=   -25.7138
   XY=    -4.4305   YY=   167.7316   ZY=    -0.8186
   XZ=   -27.9424   YZ=    -6.2473   ZZ=   190.7998
   Eigenvalues:   165.3984   174.6045   229.6543
     81  H    Isotropic =    28.9614   Anisotropy =    14.5900
   XX=    24.8542   YX=     1.8270   ZX=     1.0662
   XY=    -0.8670   YY=    25.4691   ZY=    -7.4997
   XZ=     2.2919   YZ=    -2.6952   ZZ=    36.5608
   Eigenvalues:    22.8790    25.3170    38.6880
     82  C    Isotropic =   139.4578   Anisotropy =    61.7933
   XX=   158.2123   YX=    32.1486   ZX=     7.1866
   XY=    29.5771   YY=   137.0535   ZY=    -1.4023
   XZ=     4.9745   YZ=     0.7460   ZZ=   123.1077
   Eigenvalues:   113.4556   124.2646   180.6534
     83  C    Isotropic =   139.6284   Anisotropy =    54.9990
   XX=   122.5678   YX=   -18.2729   ZX=    -0.8978
   XY=   -13.3376   YY=   170.7933   ZY=     5.7822
   XZ=    -1.3639   YZ=     6.6994   ZZ=   125.5241
   Eigenvalues:   117.7798   124.8111   176.2944
     84  H    Isotropic =    30.0760   Anisotropy =     8.0486
   XX=    33.5499   YX=    -0.5096   ZX=     4.5202
   XY=     2.8000   YY=    25.9434   ZY=    -1.9519
   XZ=     1.4464   YZ=    -1.9691   ZZ=    30.7348
   Eigenvalues:    24.7002    30.0860    35.4418
     85  H    Isotropic =    29.5949   Anisotropy =     7.2477
   XX=    32.5760   YX=     0.4841   ZX=    -2.6329
   XY=     2.4001   YY=    31.2913   ZY=    -2.4090
   XZ=    -2.1750   YZ=    -1.0134   ZZ=    24.9173
   Eigenvalues:    24.0010    30.3569    34.4267
     86  H    Isotropic =    29.5198   Anisotropy =    12.6350
   XX=    33.3001   YX=     1.9003   ZX=    -5.5194
   XY=     4.1046   YY=    25.8170   ZY=    -2.9862
   XZ=    -4.6216   YZ=    -1.4436   ZZ=    29.4422
   Eigenvalues:    24.6601    25.9561    37.9431
     87  H    Isotropic =    29.5649   Anisotropy =     5.4455
   XX=    30.3657   YX=    -1.3291   ZX=     1.0382
   XY=    -3.7247   YY=    29.4401   ZY=    -4.7334
   XZ=    -0.5949   YZ=     0.0591   ZZ=    28.8888
   Eigenvalues:    26.1468    29.3526    33.1952
     88  H    Isotropic =    29.2373   Anisotropy =    10.7227
   XX=    29.1807   YX=    -1.4523   ZX=    -5.1721
   XY=    -3.2776   YY=    28.0861   ZY=     2.1896
   XZ=    -5.5607   YZ=     1.9357   ZZ=    30.4450
   Eigenvalues:    24.3539    26.9722    36.3857
     89  H    Isotropic =    29.3062   Anisotropy =     7.8761
   XX=    31.8802   YX=    -1.0819   ZX=    -3.0383
   XY=    -1.8681   YY=    30.1552   ZY=     2.2771
   XZ=    -3.5836   YZ=     2.1813   ZZ=    25.8833
   Eigenvalues:    24.0426    29.3192    34.5570
     90  C    Isotropic =    51.5632   Anisotropy =   187.5013
   XX=   147.2424   YX=    71.6916   ZX=   -16.2287
   XY=    73.8325   YY=   -29.8078   ZY=   -17.7385
   XZ=   -16.2930   YZ=   -17.5430   ZZ=    37.2550
   Eigenvalues:   -57.2109    35.3364   176.5640
     91  C    Isotropic =    50.4750   Anisotropy =   189.4175
   XX=   150.1675   YX=    55.7460   ZX=   -40.4083
   XY=    59.3293   YY=    28.7967   ZY=    30.8479
   XZ=   -41.8168   YZ=    32.2621   ZZ=   -27.5393
   Eigenvalues:   -60.4581    35.1298   176.7533
     92  C    Isotropic =    52.3933   Anisotropy =   191.3625
   XX=   162.5757   YX=    42.3387   ZX=   -15.7042
   XY=    49.2477   YY=    30.5144   ZY=   -41.1195
   XZ=   -12.0239   YZ=   -39.7092   ZZ=   -35.9101
   Eigenvalues:   -55.2598    32.4715   179.9683
     93  C    Isotropic =    30.4892   Anisotropy =   205.8373
   XX=   136.3866   YX=    78.5624   ZX=   -25.1631
   XY=    68.1619   YY=   -39.2215   ZY=   -17.7738
   XZ=   -23.3598   YZ=   -16.0143   ZZ=    -5.6975
   Eigenvalues:   -66.8406    -9.4058   167.7141
     94  C    Isotropic =    49.1465   Anisotropy =   173.2023
   XX=   137.4837   YX=    52.8242   ZX=   -46.3961
   XY=    53.0892   YY=    30.2464   ZY=    26.8572
   XZ=   -42.7321   YZ=    29.4133   ZZ=   -20.2906
   Eigenvalues:   -54.1220    36.9468   164.6147
     95  C    Isotropic =    50.7387   Anisotropy =   190.5101
   XX=   157.3623   YX=    43.6763   ZX=   -23.8099
   XY=    45.4446   YY=    31.8535   ZY=   -47.9446
   XZ=   -20.5728   YZ=   -47.2661   ZZ=   -36.9997
   Eigenvalues:   -61.3236    35.7942   177.7454
     96  H    Isotropic =    23.7626   Anisotropy =     3.9101
   XX=    20.3131   YX=    -0.1904   ZX=     1.1802
   XY=    -0.1246   YY=    25.4187   ZY=    -0.5694
   XZ=     1.2803   YZ=    -0.8272   ZZ=    25.5560
   Eigenvalues:    20.0388    24.8797    26.3693
     97  H    Isotropic =    23.6355   Anisotropy =     9.7783
   XX=    22.0332   YX=    -0.6961   ZX=     0.4174
   XY=    -1.6740   YY=    27.1099   ZY=    -5.2284
   XZ=     1.1136   YZ=    -4.3231   ZZ=    21.7633
   Eigenvalues:    18.9623    21.7899    30.1543
     98  H    Isotropic =    24.4870   Anisotropy =     6.5662
   XX=    19.5162   YX=     0.0801   ZX=     1.8340
   XY=    -1.7679   YY=    28.7800   ZY=     1.9310
   XZ=     3.2947   YZ=    -1.7834   ZZ=    25.1647
   Eigenvalues:    18.4615    26.1350    28.8644
     99  C    Isotropic =    48.5037   Anisotropy =    15.8356
   XX=    47.0654   YX=    -3.3971   ZX=     0.6578
   XY=    -3.2762   YY=    58.0475   ZY=    -1.7333
   XZ=    -0.9785   YZ=    -0.8762   ZZ=    40.3981
   Eigenvalues:    40.2757    46.1746    59.0607
    100  F    Isotropic =   221.5938   Anisotropy =   147.8076
   XX=   185.7519   YX=     8.2161   ZX=    84.0441
   XY=     7.8134   YY=   213.9307   ZY=    12.2640
   XZ=    83.4546   YZ=    12.3938   ZZ=   265.0987
   Eigenvalues:   132.7538   211.8953   320.1322
    101  F    Isotropic =   251.0756   Anisotropy =   133.2602
   XX=   283.2759   YX=   -54.0318   ZX=    22.7888
   XY=   -47.0793   YY=   293.4510   ZY=    20.9377
   XZ=     5.1274   YZ=    33.2612   ZZ=   176.4999
   Eigenvalues:   164.6713   248.6398   339.9157
    102  F    Isotropic =   237.9203   Anisotropy =   146.3195
   XX=   255.8548   YX=    62.7600   ZX=    -3.1216
   XY=    52.1412   YY=   270.5105   ZY=   -47.2300
   XZ=   -14.6545   YZ=   -57.5185   ZZ=   187.3957
   Eigenvalues:   158.2536   220.0407   335.4667
    103  C    Isotropic =    49.0089   Anisotropy =    14.5249
   XX=    50.2893   YX=    -4.2614   ZX=    -3.1559
   XY=    -4.0835   YY=    47.3984   ZY=     7.0881
   XZ=    -3.6016   YZ=     6.7291   ZZ=    49.3389
   Eigenvalues:    41.2687    47.0657    58.6921
    104  F    Isotropic =   224.0650   Anisotropy =   152.1159
   XX=   263.3598   YX=   -63.8801   ZX=    55.6840
   XY=   -68.1644   YY=   190.4339   ZY=     1.8548
   XZ=    58.5560   YZ=     0.6012   ZZ=   218.4011
   Eigenvalues:   137.8115   208.9078   325.4755
    105  F    Isotropic =   231.7756   Anisotropy =   149.1962
   XX=   223.5231   YX=    32.7332   ZX=    12.8627
   XY=    36.4930   YY=   290.4593   ZY=    69.6032
   XZ=     6.2886   YZ=    57.2144   ZZ=   181.3442
   Eigenvalues:   151.7418   212.3452   331.2397
    106  F    Isotropic =   252.9974   Anisotropy =   115.5663
   XX=   283.1164   YX=     2.2684   ZX=   -34.1039
   XY=    14.1581   YY=   181.3827   ZY=    25.6976
   XZ=   -42.6280   YZ=    37.3497   ZZ=   294.4931
   Eigenvalues:   170.2017   258.7489   330.0416
    107  C    Isotropic =    48.8525   Anisotropy =    15.1614
   XX=    46.9799   YX=     4.6521   ZX=     6.9143
   XY=     4.3903   YY=    51.5898   ZY=     3.5370
   XZ=     6.0955   YZ=     4.5367   ZZ=    47.9878
   Eigenvalues:    40.9174    46.6800    58.9601
    108  F    Isotropic =   234.9318   Anisotropy =   143.6013
   XX=   175.6870   YX=   -49.1109   ZX=    26.5858
   XY=   -35.9825   YY=   318.0737   ZY=    -6.1489
   XZ=    20.8794   YZ=    -1.3884   ZZ=   211.0346
   Eigenvalues:   155.2733   218.8561   330.6660
    109  F    Isotropic =   254.9141   Anisotropy =   127.9568
   XX=   262.2965   YX=    65.5618   ZX=    71.3566
   XY=    53.4958   YY=   245.2150   ZY=   -10.3728
   XZ=    54.1726   YZ=    -5.3692   ZZ=   257.2309
   Eigenvalues:   165.7393   258.7844   340.2187
    110  F    Isotropic =   216.0506   Anisotropy =   142.9660
   XX=   154.4373   YX=    30.5163   ZX=   -39.8921
   XY=    33.4605   YY=   193.7942   ZY=    -6.4346
   XZ=   -36.9066   YZ=    -8.0460   ZZ=   299.9204
   Eigenvalues:   130.9795   205.8111   311.3613
    111  C    Isotropic =    48.4020   Anisotropy =    13.8228
   XX=    56.5452   YX=     4.0256   ZX=     1.8558
   XY=     3.4056   YY=    41.5068   ZY=    -0.4191
   XZ=     1.4922   YZ=    -1.1127   ZZ=    47.1539
   Eigenvalues:    40.4460    47.1427    57.6172
    112  F    Isotropic =   217.4298   Anisotropy =   151.4495
   XX=   206.2618   YX=     1.9161   ZX=    14.2243
   XY=     0.4488   YY=   289.4681   ZY=   -67.9410
   XZ=    12.1518   YZ=   -68.4952   ZZ=   156.5596
   Eigenvalues:   125.7994   208.0938   318.3962
    113  F    Isotropic =   242.8656   Anisotropy =   140.7555
   XX=   251.0613   YX=    39.1426   ZX=    59.1545
   XY=    45.8363   YY=   198.2078   ZY=     2.3197
   XZ=    72.5907   YZ=   -11.5551   ZZ=   279.3277
   Eigenvalues:   160.4882   231.4060   336.7026
    114  F    Isotropic =   248.1746   Anisotropy =   127.3541
   XX=   300.0985   YX=    -8.3645   ZX=   -45.1774
   XY=   -19.4067   YY=   188.4939   ZY=   -27.5223
   XZ=   -54.8673   YZ=   -41.1684   ZZ=   255.9312
   Eigenvalues:   165.3832   246.0632   333.0773
    115  C    Isotropic =    48.9544   Anisotropy =    14.0790
   XX=    48.9645   YX=    -7.4840   ZX=    -4.1828
   XY=    -7.4358   YY=    49.3370   ZY=     1.8210
   XZ=    -3.0733   YZ=     2.5435   ZZ=    48.5618
   Eigenvalues:    41.4951    47.0278    58.3404
    116  F    Isotropic =   218.7289   Anisotropy =   150.9694
   XX=   257.8468   YX=    14.3538   ZX=    65.0548
   XY=    14.0991   YY=   193.9953   ZY=    59.1998
   XZ=    66.1845   YZ=    58.7777   ZZ=   204.3447
   Eigenvalues:   128.8434   207.9682   319.3752
    117  F    Isotropic =   247.6194   Anisotropy =   139.6867
   XX=   257.8977   YX=   -44.9478   ZX=   -47.7060
   XY=   -37.0735   YY=   181.7684   ZY=    14.1529
   XZ=   -39.4967   YZ=    32.6865   ZZ=   303.1921
   Eigenvalues:   163.7414   238.3729   340.7439
    118  F    Isotropic =   246.6517   Anisotropy =   133.4631
   XX=   191.8287   YX=   -44.4764   ZX=    24.0177
   XY=   -60.3569   YY=   300.8869   ZY=   -23.7515
   XZ=    37.6527   YZ=   -25.2795   ZZ=   247.2396
   Eigenvalues:   165.6190   238.7090   335.6271
    119  C    Isotropic =    48.4094   Anisotropy =    15.1437
   XX=    54.3516   YX=     1.8342   ZX=    -7.2908
   XY=     2.6029   YY=    42.7312   ZY=     2.8849
   XZ=    -5.7613   YZ=     1.5945   ZZ=    48.1454
   Eigenvalues:    40.2161    46.5068    58.5052
    120  F    Isotropic =   247.7657   Anisotropy =   137.7681
   XX=   269.9520   YX=   -23.9068   ZX=   -39.5450
   XY=   -29.7366   YY=   179.5887   ZY=    55.0682
   XZ=   -39.2491   YZ=    33.3992   ZZ=   293.7565
   Eigenvalues:   162.7379   240.9482   339.6111
    121  F    Isotropic =   216.7654   Anisotropy =   147.7362
   XX=   234.0521   YX=   -26.4832   ZX=    37.6297
   XY=   -25.0171   YY=   166.5674   ZY=   -68.1112
   XZ=    39.3006   YZ=   -70.6512   ZZ=   249.6767
   Eigenvalues:   127.1224   207.9176   315.2562
    122  F    Isotropic =   246.5321   Anisotropy =   137.6693
   XX=   269.5947   YX=    73.8528   ZX=     9.4620
   XY=    93.6363   YY=   231.5220   ZY=     7.5777
   XZ=    18.3964   YZ=     1.3183   ZZ=   238.4798
   Eigenvalues:   164.3055   236.9792   338.3117
    123  C    Isotropic =    48.5866   Anisotropy =    14.8979
   XX=    44.8887   YX=    -0.4407   ZX=    -3.3391
   XY=    -1.4863   YY=    57.9682   ZY=     2.0553
   XZ=    -2.5989   YZ=     2.8982   ZZ=    42.9029
   Eigenvalues:    40.6386    46.6026    58.5185
    124  F    Isotropic =   240.8015   Anisotropy =   130.8897
   XX=   268.1380   YX=   -58.6699   ZX=   -64.4228
   XY=   -51.0062   YY=   242.8057   ZY=    -4.6295
   XZ=   -48.9090   YZ=    -5.0629   ZZ=   211.4609
   Eigenvalues:   160.6052   233.7380   328.0613
    125  F    Isotropic =   246.3249   Anisotropy =   135.4692
   XX=   199.4138   YX=    66.1385   ZX=   -33.7886
   XY=    45.0338   YY=   314.1201   ZY=     8.7214
   XZ=   -22.9226   YZ=    14.8968   ZZ=   225.4408
   Eigenvalues:   162.0213   240.3157   336.6377
    126  F    Isotropic =   214.9431   Anisotropy =   147.5671
   XX=   131.6691   YX=   -22.1993   ZX=    10.6554
   XY=   -21.8851   YY=   207.4554   ZY=   -25.9885
   XZ=    11.9405   YZ=   -24.6895   ZZ=   305.7049
   Eigenvalues:   125.6162   205.8920   313.3212
    127  C    Isotropic =    49.8261   Anisotropy =    18.6613
   XX=    49.3850   YX=     8.7922   ZX=     4.6392
   XY=     8.8224   YY=    51.5023   ZY=     3.2717
   XZ=     5.3201   YZ=     4.8507   ZZ=    48.5910
   Eigenvalues:    41.3602    45.8512    62.2670
    128  F    Isotropic =   228.9017   Anisotropy =   131.6687
   XX=   215.3548   YX=    19.5281   ZX=    55.7883
   XY=    16.6573   YY=   188.8979   ZY=   -42.0923
   XZ=    51.6406   YZ=   -30.6295   ZZ=   282.4525
   Eigenvalues:   152.1248   217.8995   316.6809
    129  F    Isotropic =   222.2874   Anisotropy =   148.6900
   XX=   291.1910   YX=    30.4443   ZX=   -57.3438
   XY=    23.8151   YY=   159.6939   ZY=    25.3812
   XZ=   -53.5898   YZ=    29.4671   ZZ=   215.9772
   Eigenvalues:   133.3815   212.0666   321.4141
    130  F    Isotropic =   255.5699   Anisotropy =   127.7289
   XX=   196.8562   YX=    46.4268   ZX=   -14.5123
   XY=    66.7814   YY=   312.7556   ZY=    30.1934
   XZ=   -14.4334   YZ=    24.4634   ZZ=   257.0978
   Eigenvalues:   167.3643   258.6228   340.7225
    131  H    Isotropic =    23.7511   Anisotropy =     5.1426
   XX=    20.5168   YX=    -0.1439   ZX=    -0.0697
   XY=    -0.6883   YY=    27.1535   ZY=     0.0513
   XZ=    -0.1787   YZ=    -0.0616   ZZ=    23.5829
   Eigenvalues:    20.4858    23.5878    27.1795
    132  H    Isotropic =    23.6387   Anisotropy =     8.2312
   XX=    20.3434   YX=    -1.3871   ZX=     2.0788
   XY=    -1.7368   YY=    27.9860   ZY=    -1.4256
   XZ=     2.5285   YZ=    -2.2798   ZZ=    22.5867
   Eigenvalues:    18.8882    22.9018    29.1262
    133  H    Isotropic =    29.7596   Anisotropy =    17.9827
   XX=    36.1347   YX=     8.4351   ZX=    -1.4522
   XY=     7.0592   YY=    30.1750   ZY=    -1.9830
   XZ=    -0.8735   YZ=    -2.8899   ZZ=    22.9690
   Eigenvalues:    22.0399    25.4908    41.7480
    134  H    Isotropic =    27.6277   Anisotropy =     8.5489
   XX=    27.9123   YX=     4.7491   ZX=     7.2667
   XY=     2.4948   YY=    26.1876   ZY=    -0.7457
   XZ=     2.4620   YZ=    -3.9509   ZZ=    28.7832
   Eigenvalues:    20.3420    29.2141    33.3269
 End of Minotr F.D. properties file   721 does not exist.
 End of Minotr F.D. properties file   722 does not exist.
 End of Minotr F.D. properties file   788 does not exist.
 Hyperfine terms turned off by default for NAtoms > 100.

 **********************************************************************

            Population analysis using the SCF density.

 **********************************************************************

 Orbital symmetries:
       Occupied  (A) (A) (A) (A) (A) (A) (A) (A) (A) (A) (A) (A)
                 (A) (A) (A) (A) (A) (A) (A) (A) (A) (A) (A) (A)
                 (A) (A) (A) (A) (A) (A) (A) (A) (A) (A) (A) (A)
                 (A) (A) (A) (A) (A) (A) (A) (A) (A) (A) (A) (A)
                 (A) (A) (A) (A) (A) (A) (A) (A) (A) (A) (A) (A)
                 (A) (A) (A) (A) (A) (A) (A) (A) (A) (A) (A) (A)
                 (A) (A) (A) (A) (A) (A) (A) (A) (A) (A) (A) (A)
                 (A) (A) (A) (A) (A) (A) (A) (A) (A) (A) (A) (A)
                 (A) (A) (A) (A) (A) (A) (A) (A) (A) (A) (A) (A)
                 (A) (A) (A) (A) (A) (A) (A) (A) (A) (A) (A) (A)
                 (A) (A) (A) (A) (A) (A) (A) (A) (A) (A) (A) (A)
[...]
                                                    591(r),408(r),407(r),702(r)
                                                    1014(r),420(r),882(r),416(r)
                                                    887(r),878(r),419(r),433(r)
                                                    393(r),411(r),299(r),1444(r)
                                                    468(r),1875(r),720(r),618(r)
                                                    903(r),1058(r),1456(r)
                                                    1032(r),473(r),1326(r)
                                                    593(r),519(r),1450(r),728(r)
                                                    881(r),1217(r),379(r),378(r)
                                                    891(r),436(r),696(r),1010(r)
                                                    2980(r),474(r),602(r),853(r)
                                                    885(r),600(r),1043(r)
                                                    1036(r),902(r),428(r),438(r)
                                                    494(r),477(r),1380(r)
                                                    2990(r),435(r),2988(r)
                                                    1041(r),907(r),1349(r)
                                                    418(r),1063(r),697(r)
                                                    1194(r),748(r),1045(r)
                                                    1463(r),857(r),732(r),855(r)
                                                    700(r),1066(r),1321(r)
                                                    1322(r),1061(r),467(r)
                                                    465(r),726(r),452(r),1191(r)
                                                    603(r),1034(r),676(r),884(r)
                                                    862(r),449(r),616(r),1464(r)
                                                    1200(r),380(r),605(r),564(r)
                                                    621(r),384(r),3018(r),377(r)
                                                    1169(r),1215(r),1496(r)
                                                    1399(r),759(r),1165(r)
                                                    619(r),860(r),466(r),1196(r)
                                                    754(r),520(r),390(r),624(r)
                                                    1555(r),545(r),1201(r)
                                                    1168(r),1017(r),1012(r)
                                                    909(r),566(r),451(r),396(r)
                                                    1197(r),1381(r)
  1414. RY*(   1)Cl  52                  0.00124     0.85441   
  1415. RY*(   2)Cl  52                  0.00115     0.77340   
  1416. RY*(   3)Cl  52                  0.00095     0.92600   
  1417. RY*(   4)Cl  52                  0.00031     0.99613   
  1418. RY*(   5)Cl  52                  0.00012     1.57448   
  1419. RY*(   6)Cl  52                  0.00010     1.24526   
  1420. RY*(   7)Cl  52                  0.00005     1.58575   
  1421. RY*(   8)Cl  52                  0.00005     1.02201   
  1422. RY*(   9)Cl  52                  0.00004     2.15827   
  1423. RY*(  10)Cl  52                  0.00003     1.68114   
  1424. RY*(  11)Cl  52                  0.00000    10.60802   
  1425. RY*(  12)Cl  52                  0.00000    10.62753   
  1426. RY*(  13)Cl  52                  0.00001     1.94948   
  1427. RY*(  14)Cl  52                  0.00000    25.02417   
  1428. RY*(  15)Cl  52                  0.00001     1.99094   
  1429. RY*(  16)Cl  52                  0.00000     2.72289   
  1430. RY*(  17)Cl  52                  0.00001     1.95792   
  1431. RY*(  18)Cl  52                  0.00000    10.58608   
  1432. RY*(  19)Cl  52                  0.00001     1.92414   
  1433. RY*(  20)Cl  52                  0.00001     2.83806   
  1434. RY*(  21)Cl  52                  0.00001     2.68564   
  1435. RY*(  22)Cl  52                  0.00000     2.11618   
  1436. RY*(  23)Cl  52                  0.00000     2.23905   
  1437. RY*(  24)Cl  52                  0.00000     2.14346   
  1438. RY*(  25)Cl  52                  0.00000     2.16146   
  1439. RY*(  26)Cl  52                  0.00000     2.15787   
  1440. RY*(  27)Cl  52                  0.00000     2.18326   
  1441. RY*(  28)Cl  52                  0.00000     2.17652   
       -------------------------------
              Total Lewis   17.35618  ( 99.9763%)
        Valence non-Lewis    0.00000  (  0.0000%)
        Rydberg non-Lewis    0.00411  (  0.0237%)
       -------------------------------
            Total unit  2   17.36029  (100.0000%)
           Charge unit  2   -0.36029

 Molecular unit  3  (Cl)
   215. CR (   1)Cl  53                  2.00000   -99.99277  298(r),297(r)
   216. CR (   2)Cl  53                  1.99971   -10.71611  298(r),297(r),1470(r)
                                                    2990(r),1472(r),2989(r)
                                                    1473(r)
   217. CR (   3)Cl  53                  1.99994    -7.19596  297(r),298(r),2989(r)
   218. CR (   4)Cl  53                  1.99999    -7.19438  299(r)
   219. CR (   5)Cl  53                  1.99996    -7.19617  298(r),2989(r)
   289. LP (   1)Cl  53                  1.95753    -0.28053  297(r),2990(r),3059(r)
                                                    299(r),3069(r),1483(r)
                                                    2992(r),1471(r),1482(r)
                                                    432(r),1489(r),1479(r)
                                                    404(r),298(r),1486(r)
                                                    1484(r),1477(r),1491(r)
                                                    1488(r),1487(r),2991(r)
                                                    2989(r),3055(r),3058(r)
                                                    460(r),1417(r)
   290. LP (   2)Cl  53                  1.95305    -0.92080  298(r),297(r),1490(r)
                                                    1470(r),1472(r),1474(r)
                                                    2990(r),1491(r),1476(r)
                                                    1477(r),1478(r),1473(r)
                                                    1471(r),3059(r),1475(r)
                                                    1489(r),1488(r),405(r)
                                                    404(r),3055(r),280(r)
                                                    1492(r),1008(r),460(r)
                                                    3057(r),390(r),1485(r)
                                                    417(r),423(r),1009(r)
                                                    1483(r),283(r),3071(r)
   291. LP (   3)Cl  53                  1.94118    -0.31472  298(r),299(r),297(r),3057(r)
                                                    3069(r),1474(r),3055(r)
                                                    3054(r),1486(r),1491(r)
                                                    2991(r),1475(r),1472(r)
                                                    2990(r),1484(r),1480(r)
                                                    1492(r),1487(r),3071(r)
   292. LP (   4)Cl  53                  1.53354    -0.39769  298(r),297(r),2989(r)
                                                    1487(r),404(r),1479(r)
                                                    1486(r),1483(r),1488(r)
                                                    1482(r),432(r),2990(r)
                                                    1484(r),1477(r),1481(r)
                                                    1489(r),1447(g),460(r)
                                                    2993(r),590(r),1448(g)
                                                    440(r),1033(r),877(r)
                                                    1476(r),1379(r),441(r)
                                                    1480(r),1471(r),412(r)
                                                    414(r),439(r),1470(r)
                                                    1478(r),1189(r),443(r)
                                                    442(r),1472(r),1218(r)
                                                    721(r),410(r),444(r),1419(r)
                                                    1037(r),417(r),722(r)
                                                    1475(r),1450(g),1009(r)
                                                    1485(r),876(r),405(r)
                                                    1418(r),591(r),601(r),604(r)
                                                    1490(r),411(r),1008(r)
                                                    488(r),1344(r),406(r),463(r)
                                                    1059(r),462(r),434(r),720(r)
                                                    385(r),702(r),906(r),447(r)
                                                    1428(r),593(r),471(r)
                                                    1326(r),725(r),393(r),408(r)
                                                    1415(r),903(r),3059(r)
                                                    882(r),1188(r),602(r)
                                                    1014(r),902(r),420(r),618(r)
                                                    1420(r),1875(r),728(r)
                                                    887(r),891(r),696(r),519(r)
                                                    418(r),473(r),1041(r)
                                                    3071(r),1191(r),1058(r)
                                                    438(r),1380(r),1043(r)
                                                    1036(r),907(r),474(r)
                                                    1032(r),2980(r),494(r)
                                                    1417(r),881(r),700(r),419(r)
                                                    1474(r),723(r),855(r),726(r)
                                                    378(r),1190(r),468(r)
                                                    2986(r),1491(r),605(r)
                                                    3069(r),676(r),600(r),697(r)
                                                    384(r),424(r),1349(r),380(r)
                                                    477(r),878(r),379(r),750(r)
                                                    407(r),1066(r),1217(r)
                                                    1045(r),857(r),2992(r)
                                                    3043(r),1320(r),732(r)
                                                    1063(r),616(r),1035(r)
                                                    1416(r),1436(r),598(r)
                                                    466(r),433(r),566(r),748(r)
                                                    621(r),603(r)
  1442. RY*(   1)Cl  53                  0.00149     0.85241   
  1443. RY*(   2)Cl  53                  0.00127     0.66476   
  1444. RY*(   3)Cl  53                  0.00125     0.78298   
  1445. RY*(   4)Cl  53                  0.00047     0.89622   
  1446. RY*(   5)Cl  53                  0.00025     1.12099   
  1447. RY*(   6)Cl  53                  0.00015     1.67352   
  1448. RY*(   7)Cl  53                  0.00011     1.54796   
  1449. RY*(   8)Cl  53                  0.00008     1.41416   
  1450. RY*(   9)Cl  53                  0.00007     2.00147   
  1451. RY*(  10)Cl  53                  0.00005     1.68160   
  1452. RY*(  11)Cl  53                  0.00002     2.76344   
  1453. RY*(  12)Cl  53                  0.00000    10.46337   
  1454. RY*(  13)Cl  53                  0.00000     1.93948   
  1455. RY*(  14)Cl  53                  0.00001     2.65123   
  1456. RY*(  15)Cl  53                  0.00001     2.04415   
  1457. RY*(  16)Cl  53                  0.00000    10.50339   
  1458. RY*(  17)Cl  53                  0.00001     2.01819   
  1459. RY*(  18)Cl  53                  0.00000    25.24582   
  1460. RY*(  19)Cl  53                  0.00000     1.96320   
  1461. RY*(  20)Cl  53                  0.00000    10.55311   
  1462. RY*(  21)Cl  53                  0.00000     2.30411   
  1463. RY*(  22)Cl  53                  0.00000     2.23978   
  1464. RY*(  23)Cl  53                  0.00000     2.22893   
  1465. RY*(  24)Cl  53                  0.00000     2.18351   
  1466. RY*(  25)Cl  53                  0.00000     2.15681   
  1467. RY*(  26)Cl  53                  0.00000     2.14111   
  1468. RY*(  27)Cl  53                  0.00001     2.15672   
  1469. RY*(  28)Cl  53                  0.00000     2.12990   
       -------------------------------
              Total Lewis   17.38490  ( 99.9697%)
        Valence non-Lewis    0.00000  (  0.0000%)
        Rydberg non-Lewis    0.00527  (  0.0303%)
       -------------------------------
            Total unit  3   17.39017  (100.0000%)
           Charge unit  3   -0.39017
 1\1\GINC-NC208\SP\RPBE1PBE\Gen\C60H42Cl2F24Fe1N2P2Pd1\MACKK4\02-Dec-20
 21\0\\# PBE1PBE gen pseudo=read int=(grid=ultrafine) empiricaldispersi
 on=GD3BJ pop=nbo guess=read geom=check\\M003_1_2 title\\0,1\Fe,0,-0.00
 62403935,-1.4820415156,1.682749451\P,0,1.7931195319,-0.0596371444,-0.7
 91460811\P,0,-1.7898273307,0.29775939,-0.5460468326\C,0,1.5048323527,-
 1.407853469,0.3905751188\C,0,0.5637822107,-2.4419150158,-0.0055125036\
 C,0,0.4763529415,-3.4026550887,1.0465034313\C,0,1.3386888691,-2.978626
 6443,2.1011165119\C,0,2.0045156965,-1.7559193306,1.7204303548\C,0,-1.5
 210086732,-0.2686540076,1.1776498452\C,0,-2.0287852142,-1.3661087504,2
 .0035274901\C,0,-1.3179322759,-1.3039511662,3.2560634033\C,0,-0.415531
 3129,-0.1981487936,3.2400033097\C,0,-0.5304463622,0.4432476102,1.96835
 94369\C,0,3.3451606431,-0.5977483326,-1.6157360258\C,0,4.2466620311,0.
 3414144378,-2.146972269\C,0,5.4318576128,-0.0952894572,-2.7505841069\C
 ,0,5.7220270248,-1.4628521165,-2.8502858778\C,0,4.8089645444,-2.394153
 6104,-2.3428032796\C,0,3.6223679041,-1.9673785581,-1.7302767532\C,0,2.
 2738940083,1.5200308167,0.0276784927\C,0,3.5087395945,1.7009163662,0.6
 792287483\C,0,3.8230706346,2.9549364433,1.2248740224\C,0,2.9241920769,
 4.028572921,1.1326007314\C,0,1.7075585936,3.8474534339,0.4689271818\C,
 0,1.3905170925,2.604495787,-0.0962028946\C,0,-2.4730695389,1.983291937
 3,-0.2110052664\C,0,-3.1399857208,2.2143144271,1.0032445242\C,0,-3.680
 4926225,3.47639371,1.2860006085\C,0,-3.5410065364,4.5239084128,0.37098
 37997\C,0,-2.8659367576,4.2937129878,-0.8369287314\C,0,-2.3374506996,3
 .033151217,-1.1389401204\C,0,-3.2171108066,-0.6620997871,-1.1968587798
 \C,0,-4.5395732559,-0.3225973502,-0.8855291509\C,0,-5.5973735435,-1.09
 72534835,-1.3879688372\C,0,-5.3444178043,-2.2005898015,-2.2089218688\C
 ,0,-4.0180547994,-2.5198864285,-2.5400514545\C,0,-2.9581312084,-1.7548
 471649,-2.0422345741\H,0,-0.0020653438,-2.4403752516,-0.9385718192\H,0
 ,0.0429262525,1.3075342992,1.6342389403\H,0,4.0254791917,1.4096653446,
 -2.1049527528\H,0,6.6431974201,-1.7976011081,-3.3331261144\H,0,2.92033
 15134,-2.7111668425,-1.345560662\H,0,4.2087157583,0.8584121908,0.75280
 63122\H,0,3.182434479,5.002788011,1.5537313186\H,0,0.4608934041,2.4793
 174802,-0.662963765\H,0,-3.2419568688,1.413116408,1.7384214582\H,0,-3.
 9469153465,5.5132057289,0.5979417391\H,0,-1.8347101556,2.8583565592,-2
 .0948904468\H,0,-4.7599540982,0.5495102807,-0.2635992297\H,0,-6.171645
 5127,-2.7916264895,-2.6084147247\H,0,-1.9318483107,-1.9765899541,-2.34
 74206163\Cl,0,1.502266104,0.8138007113,-3.8111319889\Cl,0,-1.828735422
 7,0.8512782044,-3.6307423939\Pd,0,-0.0649077395,0.3749846667,-2.099786
 3714\C,0,3.0703087905,-1.0276439211,2.5112274501\H,0,0.2946522342,0.05
 80683096,4.0262579009\H,0,-1.4450622548,-2.0118088474,4.0731975049\C,0
 ,-3.2004005206,-2.3147256151,1.7802221313\H,0,2.8484374767,0.054843367
 ,2.4408420322\N,0,4.3953866839,-1.1800988395,1.842506211\C,0,5.4751606
 674,-0.5728641909,2.6263226868\C,0,4.775210836,-2.5340493536,1.4400774
 46\H,0,6.3602496197,-0.4482911199,1.9793680491\H,0,5.1699616368,0.4179
 84586,2.9936758551\H,0,5.766272521,-1.1853130624,3.5075746061\H,0,5.61
 68362955,-2.4701899636,0.7308108648\H,0,5.1011547838,-3.1737506256,2.2
 907894506\H,0,3.9417796961,-3.0332562496,0.9247820403\C,0,3.1078583477
 ,-1.8187699458,6.7969666022\C,0,3.3729196234,-2.8639140527,5.900403129
 4\C,0,3.3515396738,-2.6347723625,4.5174991177\C,0,3.0602330998,-1.3541
 513328,4.0038648099\C,0,2.8290595376,-0.3089739969,4.9185767371\C,0,2.
 8410639084,-0.5349987724,6.301419682\H,0,3.1219435814,-2.0018825107,7.
 8760037463\H,0,3.6007954065,-3.8659422386,6.2786365097\H,0,3.567465699
 1,-3.4624329164,3.8361116742\H,0,2.6552649602,0.7044405695,4.534898236
 5\H,0,2.6518617313,0.2939568558,6.9912018004\N,0,-4.1803378113,-2.1342
 46125,2.8829986115\H,0,-3.6645093618,-2.0647651504,0.804189142\C,0,-5.
 3633569,-2.9747696079,2.6525628343\C,0,-4.6137272747,-0.7403573861,3.0
 185213487\H,0,-5.9119895524,-2.6989913756,1.7234833224\H,0,-5.07090647
 09,-4.033534756,2.5880188739\H,0,-6.0530932967,-2.8554948707,3.5048470
 235\H,0,-5.1256265064,-0.3477718345,2.1091880672\H,0,-5.3285581135,-0.
 6721176759,3.8554908346\H,0,-3.7577840228,-0.0909169727,3.2589623353\C
 ,0,-1.8620620164,-6.4420650142,1.4867926898\C,0,-1.8951077468,-5.80368
 13681,2.738197886\C,0,-2.3452502918,-4.4813403679,2.8471328706\C,0,-2.
 7569756217,-3.772806095,1.7031962951\C,0,-2.7523838678,-4.4295330753,0
 .462918174\C,0,-2.3045174194,-5.7533489637,0.3483062255\H,0,-1.5086803
 622,-7.4749738059,1.405108126\H,0,-2.4090663376,-3.9987766212,3.826915
 5122\H,0,-3.1075591174,-3.9025082083,-0.4251765218\C,0,-4.3484424937,3
 .6892959974,2.6223595748\F,0,-3.4280144405,3.8760300767,3.6087661298\F
 ,0,-5.1673656679,4.7707121249,2.6168483932\F,0,-5.0933872794,2.6022259
 151,2.9783474216\C,0,-2.7242874796,5.4426449549,-1.8100380799\F,0,-3.9
 332751145,5.7821159574,-2.3368136744\F,0,-2.2432143326,6.5502760608,-1
 .1766736791\F,0,-1.8908271342,5.1505672182,-2.8339051451\C,0,-7.005842
 4267,-0.7313197902,-0.9880841333\F,0,-7.2384731566,0.5960162911,-1.156
 9207401\F,0,-7.9368056859,-1.4170697978,-1.6954711946\F,0,-7.219734589
 2,-1.0005472256,0.3376639478\C,0,-3.7318438589,-3.7294631642,-3.398021
 7023\F,0,-3.6899155287,-4.8688553116,-2.6338028561\F,0,-4.6969843287,-
 3.9207470478,-4.3315920043\F,0,-2.5386888277,-3.6322789887,-4.03106039
 89\C,0,6.434300028,0.92286785,-3.2399562484\F,0,7.3001947804,1.2672557
 304,-2.242677496\F,0,7.1797159401,0.4392626833,-4.2682512247\F,0,5.830
 4292082,2.0639279835,-3.6576609227\C,0,5.1374060711,-3.8658058966,-2.3
 653498871\F,0,5.9535081089,-4.1895297826,-3.3998759978\F,0,5.780447889
 8,-4.2405703146,-1.2158567153\F,0,4.0177967767,-4.6315585435,-2.455903
 036\C,0,5.1221542288,3.1454338978,1.9711346404\F,0,6.1236199818,2.3991
 911289,1.4407309037\F,0,5.5205523985,4.4417788628,1.9746919297\F,0,4.9
 855684338,2.7665567661,3.2816881585\C,0,0.6952668852,4.9634968221,0.36
 20114301\F,0,0.2494462667,5.0955244714,-0.9142940399\F,0,-0.3918905804
 ,4.6953138561,1.1439272543\F,0,1.2006905859,6.1567828817,0.7585423897\
 H,0,-1.5761136938,-6.3433978928,3.6362485768\H,0,-2.3119993157,-6.2392
 96437,-0.6325616664\H,0,-0.1855029598,-4.2661876347,1.0681737358\H,0,1
 .4240155358,-3.45621732,3.0756712234\\Version=ES64L-G09RevE.01\State=1
 -A\HF=-6669.0477983\RMSD=2.926e-09\Dipole=0.3323292,-2.2514114,4.72107
 56\Quadrupole=-4.1679134,9.8527408,-5.6848274,3.3070491,8.8668039,-2.5
 211024\PG=C01 [X(C60H42Cl2F24Fe1N2P2Pd1)]\\@


 THE REAL VOYAGE OF DISCOVERY CONSISTS NOT IN SEEKING NEW LANDSCAPES 
 BUT IN HAVING NEW EYES.
                                                    -- MARCEL PROUST
 Job cpu time:       1 days  2 hours 27 minutes 27.1 seconds.
 File lengths (MBytes):  RWF=   5064 Int=      0 D2E=      0 Chk=    696 Scr=      1
 Normal termination of Gaussian 09 at Thu Dec  2 15:47:39 2021.
