 Entering Gaussian System, Link 0=g09
 Input=M003_1_3_SPE.com
 Output=M003_1_3_SPE.log
 Initial command:
 /gstore/apps/gaussian/g09.e01-foss-2017a/g09/l1.exe "/local/22791166/Gau-28066.inp" -scrdir="/local/22791166/"
 Entering Link 1 = /gstore/apps/gaussian/g09.e01-foss-2017a/g09/l1.exe PID=     28070.
  
 Copyright (c) 1988,1990,1992,1993,1995,1998,2003,2009,2015,
            Gaussian, Inc.  All Rights Reserved.
  
 This is part of the Gaussian(R) 09 program.  It is based on
 the Gaussian(R) 03 system (copyright 2003, Gaussian, Inc.),
 the Gaussian(R) 98 system (copyright 1998, Gaussian, Inc.),
 the Gaussian(R) 94 system (copyright 1995, Gaussian, Inc.),
 the Gaussian 92(TM) system (copyright 1992, Gaussian, Inc.),
 the Gaussian 90(TM) system (copyright 1990, Gaussian, Inc.),
 the Gaussian 88(TM) system (copyright 1988, Gaussian, Inc.),
 the Gaussian 86(TM) system (copyright 1986, Carnegie Mellon
 University), and the Gaussian 82(TM) system (copyright 1983,
 Carnegie Mellon University). Gaussian is a federally registered
 trademark of Gaussian, Inc.
  
 This software contains proprietary and confidential information,
 including trade secrets, belonging to Gaussian, Inc.
  
 This software is provided under written license and may be
 used, copied, transmitted, or stored only in accord with that
 written license.
  
 The following legend is applicable only to US Government
 contracts under FAR:
  
                    RESTRICTED RIGHTS LEGEND
  
 Use, reproduction and disclosure by the US Government is
 subject to restrictions as set forth in subparagraphs (a)
 and (c) of the Commercial Computer Software - Restricted
 Rights clause in FAR 52.227-19.
  
 Gaussian, Inc.
 340 Quinnipiac St., Bldg. 40, Wallingford CT 06492
  
  
 ---------------------------------------------------------------
 Warning -- This program may not be used in any manner that
 competes with the business of Gaussian, Inc. or will provide
 assistance to any competitor of Gaussian, Inc.  The licensee
 of this program is prohibited from giving any competitor of
 Gaussian, Inc. access to this program.  By using this program,
 the user acknowledges that Gaussian, Inc. is engaged in the
 business of creating and licensing software in the field of
 computational chemistry and represents and warrants to the
 licensee that it is not a competitor of Gaussian, Inc. and that
 it will not use this program in any manner prohibited above.
 ---------------------------------------------------------------
  

 Cite this work as:
 Gaussian 09, Revision E.01,
 M. J. Frisch, G. W. Trucks, H. B. Schlegel, G. E. Scuseria, 
 M. A. Robb, J. R. Cheeseman, G. Scalmani, V. Barone, B. Mennucci, 
 G. A. Petersson, H. Nakatsuji, M. Caricato, X. Li, H. P. Hratchian, 
 A. F. Izmaylov, J. Bloino, G. Zheng, J. L. Sonnenberg, M. Hada, 
 M. Ehara, K. Toyota, R. Fukuda, J. Hasegawa, M. Ishida, T. Nakajima, 
 Y. Honda, O. Kitao, H. Nakai, T. Vreven, J. A. Montgomery, Jr., 
 J. E. Peralta, F. Ogliaro, M. Bearpark, J. J. Heyd, E. Brothers, 
 K. N. Kudin, V. N. Staroverov, T. Keith, R. Kobayashi, J. Normand, 
 K. Raghavachari, A. Rendell, J. C. Burant, S. S. Iyengar, J. Tomasi, 
 M. Cossi, N. Rega, J. M. Millam, M. Klene, J. E. Knox, J. B. Cross, 
 V. Bakken, C. Adamo, J. Jaramillo, R. Gomperts, R. E. Stratmann, 
 O. Yazyev, A. J. Austin, R. Cammi, C. Pomelli, J. W. Ochterski, 
 R. L. Martin, K. Morokuma, V. G. Zakrzewski, G. A. Voth, 
 P. Salvador, J. J. Dannenberg, S. Dapprich, A. D. Daniels, 
 O. Farkas, J. B. Foresman, J. V. Ortiz, J. Cioslowski, 
 and D. J. Fox, Gaussian, Inc., Wallingford CT, 2013.
 
 ******************************************
 Gaussian 09:  ES64L-G09RevE.01 30-Nov-2015
                 1-Dec-2021 
 ******************************************
 %nprocs=14
 Will use up to   14 processors via shared memory.
 %mem=128GB
 %chk=M003_1_3_SPE.chk
 ----------------------------------------------------------------------
 # PBE1PBE gen pseudo=read int=(grid=ultrafine) empiricaldispersion=GD3
 BJ nmr=giao
 ----------------------------------------------------------------------
 1/38=1/1;
 2/12=2,17=6,18=5,40=1/2;
 3/5=7,11=2,16=1,17=8,25=1,30=1,74=-13,75=-5,124=41/1,2,8,3;
 4//1;
 5/5=2,38=5/2;
 8/6=1,10=90,11=11/1;
 10/13=100,45=16/2;
 6/7=2,8=2,9=2,10=2,28=1/1;
 99/9=1/99;
 --------------
 M003_1_3 title
 --------------
 Symbolic Z-matrix:
 Charge =  0 Multiplicity = 1
 Fe                   -0.00785  -1.49744   1.67688 
 P                     1.79845  -0.07352  -0.78942 
 P                    -1.7839    0.29831  -0.54524 
 C                     1.50838  -1.4256    0.38771 
 C                     0.5656   -2.45594  -0.01293 
 C                     0.47144  -3.41778   1.0373 
 C                     1.33041  -2.99751   2.09624 
 C                     2.00076  -1.7756    1.72035 
 C                    -1.5194   -0.27867   1.1753 
 C                    -2.03092  -1.37958   1.99437 
 C                    -1.32261  -1.32486   3.24866 
 C                    -0.41845  -0.22055   3.24049 
 C                    -0.52954   0.42737   1.97198 
 C                     3.35933  -0.58598  -1.61159 
 C                     4.20185   0.3702   -2.20509 
 C                     5.39745  -0.03561  -2.81143 
 C                     5.75869  -1.38851  -2.84147 
 C                     4.90814  -2.33817  -2.26152 
 C                     3.70834  -1.94344  -1.65528 
 C                     2.27807   1.50227   0.03913 
 C                     3.52015   1.67922   0.67826 
 C                     3.83867   2.92816   1.23248 
 C                     2.93801   4.0019    1.15817 
 C                     1.71534   3.82571   0.50465 
 C                     1.393     2.58681  -0.0669 
 C                    -2.46593   1.98255  -0.20157 
 C                    -3.13671   2.20627   1.01194 
 C                    -3.67617   3.46721   1.3016 
 C                    -3.53157   4.52091   0.39452 
 C                    -2.85228   4.2981   -0.81241 
 C                    -2.32488   3.03876  -1.12137 
 C                    -3.21099  -0.65774  -1.20275 
 C                    -4.53365  -0.31802  -0.89272 
 C                    -5.59134  -1.08942  -1.40049 
 C                    -5.33805  -2.1894   -2.22576 
 C                    -4.01133  -2.50897  -2.55535 
 C                    -2.95153  -1.74767  -2.05172 
 H                     0.00394  -2.45175  -0.94846 
 H                     0.04511   1.2933    1.64464 
 H                     3.93557   1.42878  -2.19495 
 H                     6.69655  -1.69793  -3.3097 
 H                     3.05603  -2.69919  -1.21265 
 H                     4.22448   0.8397    0.73428 
 H                     3.19971   4.97266   1.58513 
 H                     0.45789   2.46552  -0.62535 
 H                    -3.24251   1.40023   1.74124 
 H                    -3.93661   5.50928   0.62697 
 H                    -1.8189    2.86974  -2.07661 
 H                    -4.75441   0.55188  -0.26787 
 H                    -6.16518  -2.77752  -2.62975 
 H                    -1.92487  -1.96971  -2.35553 
 Cl                    1.48641   0.7529   -3.84262 
 Cl                   -1.82712   0.86803  -3.62029 
 Pd                   -0.05909   0.3674   -2.10135 
 C                     3.06817  -1.05195   2.51281 
 H                     0.29082   0.03041   4.02931 
 H                    -1.45287  -2.03637   4.06216 
 C                    -3.2034   -2.32559   1.76448 
 H                     2.86731   0.03203   2.41568 
 N                     4.39803  -1.24288   1.86409 
 C                     5.47535  -0.61784   2.63723 
 C                     4.76712  -2.61848   1.52858 
 H                     6.36909  -0.52642   1.99655 
 H                     5.17685   0.38841   2.96567 
 H                     5.75067  -1.20052   3.54363 
 H                     5.61257  -2.59869   0.82139 
 H                     5.08245  -3.21818   2.41176 
 H                     3.93007  -3.13523   1.03581 
 C                     3.03938  -1.73295   6.81828 
 C                     3.28657  -2.80798   5.95266 
 C                     3.28615  -2.61556   4.56391 
 C                     3.03344  -1.34231   4.01279 
 C                     2.82077  -0.26729   4.89744 
 C                     2.81223  -0.45632   6.2858 
 H                     3.03704  -1.88749   7.90186 
 H                     3.48431  -3.8051    6.35975 
 H                     3.48963  -3.46675   3.90843 
 H                     2.67847   0.73986   4.48525 
 H                     2.63805   0.39562   6.95111 
 N                    -4.18479  -2.14929   2.8667 
 H                    -3.66558  -2.07014   0.78899 
 C                    -5.36855  -2.98711   2.63036 
 C                    -4.61651  -0.75553   3.00845 
 H                    -5.91555  -2.706     1.70193 
 H                    -5.07738  -4.04591   2.56091 
 H                    -6.05933  -2.87125   3.48228 
 H                    -5.12596  -0.35762   2.10008 
 H                    -5.33296  -0.69052   3.84429 
 H                    -3.76015  -0.10853   3.25398 
 C                    -1.87203  -6.45405   1.45312 
 C                    -1.90538  -5.82151   2.70748 
 C                    -2.35306  -4.49881   2.82213 
 C                    -2.76216  -3.78403   1.68112 
 C                    -2.75747  -4.43503   0.43786 
 C                    -2.31192  -5.75911   0.31744 
 H                    -1.5205   -7.48723   1.36695 
 H                    -2.41727  -4.02094   3.80417 
 H                    -3.1108   -3.90323  -0.44807 
 C                    -4.34836   3.67204   2.63711 
 F                    -5.16546   4.75484   2.63621 
 F                    -5.09632   2.58383   2.98311 
 F                    -3.43097   3.85049   3.62787 
 C                    -2.70494   5.45349  -1.77696 
 F                    -1.8646    5.16837  -2.7973 
 F                    -3.91047   5.79598  -2.30948 
 F                    -2.22832   6.55707  -1.13327 
 C                    -7.00022  -0.72362  -1.00195 
 F                    -7.93047  -1.4044   -1.71505 
 F                    -7.21761  -0.9995    0.32188 
 F                    -7.23068   0.6049   -1.16435 
 C                    -3.72521  -3.71477  -3.41867 
 F                    -3.6917   -4.85866  -2.66073 
 F                    -4.68635  -3.89699  -4.35816 
 F                    -2.52851  -3.61865  -4.04506 
 C                     6.27064   0.99298  -3.49065 
 F                     6.19772   2.19795  -2.86197 
 F                     7.57718   0.60887  -3.49894 
 F                     5.89724   1.18568  -4.78137 
 C                     5.34044  -3.78166  -2.21056 
 F                     6.26122  -3.98082  -1.21643 
 F                     4.29933  -4.61915  -1.96099 
 F                     5.92711  -4.17351  -3.37036 
 C                     5.14287   3.11314   1.97089 
 F                     6.13817   2.3616    1.43629 
 F                     5.54726   4.40751   1.97154 
 F                     5.01094   2.73566   3.28242 
 C                     0.70269   4.9428    0.41356 
 F                     1.20597   6.12969   0.83123 
 F                     0.2607    5.09575  -0.86185 
 F                    -0.38662   4.66065   1.18738 
 H                    -1.58857  -6.3661    3.60337 
 H                    -2.31924  -6.24031  -0.66576 
 H                    -0.19285  -4.27949   1.05509 
 H                     1.40905  -3.47666   3.0705 
 
 Stoichiometry    C60H42Cl2F24FeN2P2Pd
 Framework group  C1[X(C60H42Cl2F24FeN2P2Pd)]
 Deg. of freedom   396
 Full point group                 C1      NOp   1
 Largest Abelian subgroup         C1      NOp   1
 Largest concise Abelian subgroup C1      NOp   1
                         Standard orientation:                         
 ---------------------------------------------------------------------
 Center     Atomic      Atomic             Coordinates (Angstroms)
 Number     Number       Type             X           Y           Z
 ---------------------------------------------------------------------
      1         26           0       -0.019588   -1.550250    1.632757
      2         15           0        1.788094   -0.053941   -0.789269
      3         15           0       -1.795306    0.304543   -0.540590
      4          6           0        1.498575   -1.439298    0.348651
      5          6           0        0.558294   -2.459542   -0.082547
      6          6           0        0.464188   -3.450882    0.939890
      7          6           0        1.320697   -3.059236    2.011723
      8          6           0        1.989450   -1.826003    1.671665
      9          6           0       -1.532526   -0.320437    1.163368
     10          6           0       -2.043371   -1.444983    1.950111
     11          6           0       -1.337175   -1.424533    3.206621
     12          6           0       -0.434996   -0.318850    3.231192
     13          6           0       -0.545216    0.364518    1.981346
     14          6           0        3.351207   -0.540186   -1.623032
     15          6           0        4.192953    0.433885   -2.187844
     16          6           0        5.390261    0.047502   -2.803439
     17          6           0        5.753986   -1.303369   -2.871154
     18          6           0        4.904219   -2.270561   -2.319713
     19          6           0        3.702731   -1.895250   -1.704536
     20          6           0        2.263540    1.498616    0.084326
     21          6           0        3.504274    1.659580    0.730266
     22          6           0        3.819652    2.892899    1.320134
     23          6           0        2.917185    3.966730    1.274741
     24          6           0        1.695877    3.806957    0.614483
     25          6           0        1.376688    2.584166    0.007564
     26          6           0       -2.480920    1.977182   -0.150527
     27          6           0       -3.154049    2.165290    1.067713
     28          6           0       -3.696248    3.416581    1.392051
     29          6           0       -3.552086    4.495774    0.515384
     30          6           0       -2.870464    4.308407   -0.696243
     31          6           0       -2.340299    3.059239   -1.039842
     32          6           0       -3.219619   -0.635026   -1.227245
     33          6           0       -4.543382   -0.306542   -0.909919
     34          6           0       -5.598863   -1.065115   -1.441063
     35          6           0       -5.342273   -2.140854   -2.296706
     36          6           0       -4.014449   -2.448637   -2.633007
     37          6           0       -2.956830   -1.700036   -2.106288
     38          1           0       -0.001872   -2.429867   -1.018504
     39          1           0        0.028388    1.240370    1.679587
     40          1           0        3.924750    1.491284   -2.148187
     41          1           0        6.693145   -1.597773   -3.346403
     42          1           0        3.051077   -2.664371   -1.284542
     43          1           0        4.210023    0.820050    0.763676
     44          1           0        3.176445    4.925470    1.729431
     45          1           0        0.442695    2.477086   -0.555640
     46          1           0       -3.259568    1.338748    1.773742
     47          1           0       -3.959284    5.476457    0.775041
     48          1           0       -1.832492    2.918207   -1.998641
     49          1           0       -4.766708    0.544940   -0.261066
     50          1           0       -6.167690   -2.718755   -2.718541
     51          1           0       -1.929287   -1.911591   -2.414561
     52         17           0        1.479455    0.858007   -3.818372
     53         17           0       -1.834623    0.960973   -3.598357
     54         46           0       -0.068129    0.420663   -2.091263
     55          6           0        3.054281   -1.123199    2.486049
     56          1           0        0.272556   -0.089063    4.027971
     57          1           0       -1.467456   -2.159009    3.999444
     58          6           0       -3.213777   -2.386160    1.691610
     59          1           0        2.851616   -0.037258    2.419299
     60          7           0        4.385520   -1.293355    1.834383
     61          6           0        5.460471   -0.688554    2.626678
     62          6           0        4.757627   -2.658258    1.460692
     63          1           0        6.355066   -0.577474    1.990325
     64          1           0        5.159635    0.307474    2.982967
     65          1           0        5.735389   -1.296163    3.516683
     66          1           0        5.604171   -2.616975    0.755743
     67          1           0        5.072616   -3.282160    2.327071
     68          1           0        3.922300   -3.162325    0.952114
     69          6           0        3.019812   -1.925818    6.770467
     70          6           0        3.270328   -2.975478    5.875189
     71          6           0        3.271789   -2.743842    4.492435
     72          6           0        3.017667   -1.455949    3.977150
     73          6           0        2.801637   -0.406769    4.891513
     74          6           0        2.791218   -0.635025    6.273952
     75          1           0        3.016012   -2.110959    7.849236
     76          1           0        3.469213   -3.983372    6.254225
     77          1           0        3.477850   -3.575783    3.813476
     78          1           0        2.658189    0.611385    4.507758
     79          1           0        2.614432    0.197439    6.962814
     80          7           0       -4.197248   -2.242846    2.796750
     81          1           0       -3.674848   -2.104022    0.722974
     82          6           0       -5.379116   -3.075719    2.534842
     83          6           0       -4.631710   -0.854416    2.977173
     84          1           0       -5.925136   -2.769414    1.613836
     85          1           0       -5.085927   -4.131617    2.435942
     86          1           0       -6.071468   -2.985235    3.388552
     87          1           0       -5.140420   -0.431856    2.079583
     88          1           0       -5.349613   -0.814346    3.813328
     89          1           0       -3.776912   -0.213126    3.242327
     90          6           0       -1.874469   -6.501818    1.265752
     91          6           0       -1.910972   -5.905088    2.537458
     92          6           0       -2.361218   -4.586943    2.688743
     93          6           0       -2.769773   -3.840882    1.567739
     94          6           0       -2.761919   -4.456424    0.306568
     95          6           0       -2.313788   -5.775784    0.149466
     96          1           0       -1.520942   -7.531523    1.150966
     97          1           0       -2.427860   -4.137168    3.683810
     98          1           0       -3.114784   -3.900388   -0.564539
     99          6           0       -4.370944    3.582347    2.731711
    100          9           0       -5.189992    4.663309    2.760092
    101          9           0       -5.117492    2.483474    3.045537
    102          9           0       -3.455468    3.734297    3.728636
    103          6           0       -2.723660    5.490889   -1.627464
    104          9           0       -1.881178    5.236235   -2.654072
    105          9           0       -3.928954    5.846191   -2.152076
    106          9           0       -2.250064    6.576641   -0.952020
    107          6           0       -7.009037   -0.713219   -1.034654
    108          9           0       -7.936919   -1.375174   -1.768277
    109          9           0       -7.228050   -1.026835    0.280477
    110          9           0       -7.241634    0.618957   -1.159783
    111          6           0       -3.724771   -3.629018   -3.529631
    112          9           0       -3.690418   -4.793842   -2.804310
    113          9           0       -4.684079   -3.786266   -4.475490
    114          9           0       -2.527249   -3.513111   -4.151069
    115          6           0        6.262679    1.096429   -3.451835
    116          9           0        6.186578    2.282999   -2.789432
    117          9           0        7.569920    0.715003   -3.468833
    118          9           0        5.891000    1.324919   -4.737201
    119          6           0        5.339038   -3.714150   -2.308909
    120          9           0        6.258576   -3.939749   -1.319292
    121          9           0        4.299038   -4.560191   -2.084858
    122          9           0        5.928269   -4.071987   -3.478363
    123          6           0        5.122338    3.059203    2.065633
    124          9           0        6.119845    2.324835    1.511625
    125          9           0        5.524388    4.353737    2.103578
    126          9           0        4.988981    2.644521    3.365734
    127          6           0        0.681370    4.924393    0.553357
    128          9           0        1.181833    6.099869    1.005275
    129          9           0        0.241146    5.112598   -0.717943
    130          9           0       -0.408670    4.618543    1.317080
    131          1           0       -1.594620   -6.474253    3.418098
    132          1           0       -2.318667   -6.228983   -0.846966
    133          1           0       -0.198581   -4.313911    0.932196
    134          1           0        1.398637   -3.565627    2.972162
 ---------------------------------------------------------------------
 Rotational constants (GHZ):      0.0211956      0.0156382      0.0139480
 General basis read from cards:  (5D, 7F)
 ======================================================================================================
                                       Pseudopotential Parameters
 ======================================================================================================
  Center     Atomic      Valence      Angular      Power
  Number     Number     Electrons     Momentum     of R      Exponent        Coefficient   SO-Coeffient
 ======================================================================================================
    1         26           16
                                      F and up 
                                                     2        1.0000000        0.00000000    0.00000000
                                      S - F
                                                     2       20.9300000      253.74958800    0.00000000
                                                     2        9.4450000       37.92284500    0.00000000
                                      P - F
                                                     2       21.7600000      161.03681200    0.00000000
                                                     2        9.1780000       27.65129800    0.00000000
                                      D - F
                                                     2       25.9000000      -24.43127600    0.00000000
                                                     2        8.8350000       -1.43425100    0.00000000
    2         15
                                   No pseudopotential on this center.
    3         15
                                   No pseudopotential on this center.
    4          6
                                   No pseudopotential on this center.
    5          6
                                   No pseudopotential on this center.
    6          6
                                   No pseudopotential on this center.
    7          6
                                   No pseudopotential on this center.
    8          6
                                   No pseudopotential on this center.
    9          6
                                   No pseudopotential on this center.
   10          6
                                   No pseudopotential on this center.
   11          6
                                   No pseudopotential on this center.
   12          6
                                   No pseudopotential on this center.
   13          6
                                   No pseudopotential on this center.
   14          6
                                   No pseudopotential on this center.
   15          6
                                   No pseudopotential on this center.
   16          6
                                   No pseudopotential on this center.
   17          6
                                   No pseudopotential on this center.
   18          6
                                   No pseudopotential on this center.
   19          6
                                   No pseudopotential on this center.
   20          6
                                   No pseudopotential on this center.
   21          6
                                   No pseudopotential on this center.
   22          6
                                   No pseudopotential on this center.
   23          6
                                   No pseudopotential on this center.
   24          6
                                   No pseudopotential on this center.
   25          6
                                   No pseudopotential on this center.
   26          6
                                   No pseudopotential on this center.
   27          6
                                   No pseudopotential on this center.
   28          6
                                   No pseudopotential on this center.
   29          6
                                   No pseudopotential on this center.
   30          6
                                   No pseudopotential on this center.
   31          6
                                   No pseudopotential on this center.
   32          6
                                   No pseudopotential on this center.
   33          6
                                   No pseudopotential on this center.
   34          6
                                   No pseudopotential on this center.
   35          6
                                   No pseudopotential on this center.
   36          6
                                   No pseudopotential on this center.
   37          6
                                   No pseudopotential on this center.
   38          1
                                   No pseudopotential on this center.
   39          1
                                   No pseudopotential on this center.
   40          1
                                   No pseudopotential on this center.
   41          1
                                   No pseudopotential on this center.
   42          1
                                   No pseudopotential on this center.
   43          1
                                   No pseudopotential on this center.
   44          1
                                   No pseudopotential on this center.
   45          1
                                   No pseudopotential on this center.
   46          1
                                   No pseudopotential on this center.
   47          1
                                   No pseudopotential on this center.
   48          1
                                   No pseudopotential on this center.
   49          1
                                   No pseudopotential on this center.
   50          1
                                   No pseudopotential on this center.
   51          1
                                   No pseudopotential on this center.
   52         17
                                   No pseudopotential on this center.
   53         17
                                   No pseudopotential on this center.
   54         46           18
                                      G and up 
                                                     2        1.0000000        0.00000000    0.00000000
                                      S - G
                                                     2       12.4300000      240.22904000    0.00000000
                                                     2        6.1707590       35.17194300    0.00000000
                                      P - G
                                                     2       11.0800000      170.41727600    0.00000000
                                                     2        5.8295540       28.47213300    0.00000000
                                      D - G
                                                     2        9.5100000       69.01384500    0.00000000
                                                     2        4.1397810       11.75086200    0.00000000
                                      F - G
                                                     2       13.2700000      -31.92955400    0.00000000
                                                     2        6.6300000       -5.39821700    0.00000000
   55          6
                                   No pseudopotential on this center.
   56          1
                                   No pseudopotential on this center.
   57          1
                                   No pseudopotential on this center.
   58          6
                                   No pseudopotential on this center.
   59          1
                                   No pseudopotential on this center.
   60          7
                                   No pseudopotential on this center.
   61          6
                                   No pseudopotential on this center.
   62          6
                                   No pseudopotential on this center.
   63          1
                                   No pseudopotential on this center.
   64          1
                                   No pseudopotential on this center.
   65          1
                                   No pseudopotential on this center.
   66          1
                                   No pseudopotential on this center.
   67          1
                                   No pseudopotential on this center.
   68          1
                                   No pseudopotential on this center.
   69          6
                                   No pseudopotential on this center.
   70          6
                                   No pseudopotential on this center.
   71          6
                                   No pseudopotential on this center.
   72          6
                                   No pseudopotential on this center.
   73          6
                                   No pseudopotential on this center.
   74          6
                                   No pseudopotential on this center.
   75          1
                                   No pseudopotential on this center.
   76          1
                                   No pseudopotential on this center.
   77          1
                                   No pseudopotential on this center.
   78          1
                                   No pseudopotential on this center.
   79          1
                                   No pseudopotential on this center.
   80          7
                                   No pseudopotential on this center.
   81          1
                                   No pseudopotential on this center.
   82          6
                                   No pseudopotential on this center.
   83          6
                                   No pseudopotential on this center.
   84          1
                                   No pseudopotential on this center.
   85          1
                                   No pseudopotential on this center.
   86          1
                                   No pseudopotential on this center.
   87          1
                                   No pseudopotential on this center.
   88          1
                                   No pseudopotential on this center.
   89          1
                                   No pseudopotential on this center.
   90          6
                                   No pseudopotential on this center.
   91          6
                                   No pseudopotential on this center.
   92          6
                                   No pseudopotential on this center.
   93          6
                                   No pseudopotential on this center.
   94          6
                                   No pseudopotential on this center.
   95          6
                                   No pseudopotential on this center.
   96          1
                                   No pseudopotential on this center.
   97          1
                                   No pseudopotential on this center.
   98          1
                                   No pseudopotential on this center.
   99          6
                                   No pseudopotential on this center.
  100          9
                                   No pseudopotential on this center.
  101          9
                                   No pseudopotential on this center.
  102          9
                                   No pseudopotential on this center.
  103          6
                                   No pseudopotential on this center.
  104          9
                                   No pseudopotential on this center.
  105          9
                                   No pseudopotential on this center.
  106          9
                                   No pseudopotential on this center.
  107          6
                                   No pseudopotential on this center.
  108          9
                                   No pseudopotential on this center.
  109          9
                                   No pseudopotential on this center.
  110          9
                                   No pseudopotential on this center.
  111          6
                                   No pseudopotential on this center.
  112          9
                                   No pseudopotential on this center.
  113          9
                                   No pseudopotential on this center.
  114          9
                                   No pseudopotential on this center.
  115          6
                                   No pseudopotential on this center.
  116          9
                                   No pseudopotential on this center.
  117          9
                                   No pseudopotential on this center.
  118          9
                                   No pseudopotential on this center.
  119          6
                                   No pseudopotential on this center.
  120          9
                                   No pseudopotential on this center.
  121          9
                                   No pseudopotential on this center.
  122          9
                                   No pseudopotential on this center.
  123          6
                                   No pseudopotential on this center.
  124          9
                                   No pseudopotential on this center.
  125          9
                                   No pseudopotential on this center.
  126          9
                                   No pseudopotential on this center.
  127          6
                                   No pseudopotential on this center.
  128          9
                                   No pseudopotential on this center.
  129          9
                                   No pseudopotential on this center.
  130          9
                                   No pseudopotential on this center.
  131          1
                                   No pseudopotential on this center.
  132          1
                                   No pseudopotential on this center.
  133          1
                                   No pseudopotential on this center.
  134          1
                                   No pseudopotential on this center.
 ======================================================================================================
 There are  3604 symmetry adapted cartesian basis functions of A   symmetry.
 There are  3145 symmetry adapted basis functions of A   symmetry.
  3145 basis functions,  5138 primitive gaussians,  3604 cartesian basis functions
   365 alpha electrons      365 beta electrons
       nuclear repulsion energy     23395.7283945047 Hartrees.
 NAtoms=  134 NActive=  134 NUniq=  134 SFac= 1.00D+00 NAtFMM=   60 NAOKFM=T Big=T
 Integral buffers will be    131072 words long.
 Raffenetti 2 integral format.
 Two-electron integral symmetry is turned on.
 Nuclear repulsion after empirical dispersion term =    23395.4770037407 Hartrees.
 One-electron integrals computed using PRISM.
   1 Symmetry operations used in ECPInt.
 ECPInt:  NShTT=  714610 NPrTT= 2256810 LenC2=  449958 LenP2D=  875833.
 LDataN:  DoStor=T MaxTD1= 7 Len=  274
 NBasis=  3145 RedAO= T EigKep=  3.04D-06  NBF=  3145
 NBsUse=  3145 1.00D-06 EigRej= -1.00D+00 NBFU=  3145
 Defaulting to unpruned grid for atomic number  46.
 ExpMin= 1.00D-02 ExpMax= 6.95D+04 ExpMxC= 2.37D+03 IAcc=3 IRadAn=         5 AccDes= 0.00D+00
 Harris functional with IExCor= 1009 and IRadAn=       5 diagonalized for initial guess.
 HarFok:  IExCor= 1009 AccDes= 0.00D+00 IRadAn=         5 IDoV= 1 UseB2=F ITyADJ=14
 ICtDFT=  3500011 ScaDFX=  1.000000  1.000000  1.000000  1.000000
 Defaulting to unpruned grid for atomic number  46.
 Defaulting to unpruned grid for atomic number  46.
 Defaulting to unpruned grid for atomic number  46.
 Defaulting to unpruned grid for atomic number  46.
 Defaulting to unpruned grid for atomic number  46.
 Defaulting to unpruned grid for atomic number  46.
 Defaulting to unpruned grid for atomic number  46.
 Defaulting to unpruned grid for atomic number  46.
 Defaulting to unpruned grid for atomic number  46.
 Defaulting to unpruned grid for atomic number  46.
 Defaulting to unpruned grid for atomic number  46.
 Defaulting to unpruned grid for atomic number  46.
 Defaulting to unpruned grid for atomic number  46.
 Defaulting to unpruned grid for atomic number  46.
 FoFCou: FMM=F IPFlag=           0 FMFlag=      100000 FMFlg1=        2001
         NFxFlg=           0 DoJE=T BraDBF=F KetDBF=T FulRan=T
         wScrn=  0.000000 ICntrl=     500 IOpCl=  0 I1Cent=   200000004 NGrid=           0
         NMat0=    1 NMatS0=      1 NMatT0=    0 NMatD0=    1 NMtDS0=    0 NMtDT0=    0
 Petite list used in FoFCou.
 Requested convergence on RMS density matrix=1.00D-08 within 128 cycles.
 Requested convergence on MAX density matrix=1.00D-06.
 Requested convergence on             energy=1.00D-06.
 No special actions if energy rises.
 Defaulting to unpruned grid for atomic number  46.
 Defaulting to unpruned grid for atomic number  46.
 Defaulting to unpruned grid for atomic number  46.
 Defaulting to unpruned grid for atomic number  46.
 Defaulting to unpruned grid for atomic number  46.
 Defaulting to unpruned grid for atomic number  46.
 Defaulting to unpruned grid for atomic number  46.
 Defaulting to unpruned grid for atomic number  46.
 Defaulting to unpruned grid for atomic number  46.
 Defaulting to unpruned grid for atomic number  46.
 Defaulting to unpruned grid for atomic number  46.
 Defaulting to unpruned grid for atomic number  46.
 Defaulting to unpruned grid for atomic number  46.
 Defaulting to unpruned grid for atomic number  46.
 EnCoef did     2 forward-backward iterations
 EnCoef did     2 forward-backward iterations
 EnCoef did     6 forward-backward iterations
 EnCoef did     4 forward-backward iterations
 EnCoef did     1 forward-backward iterations
 Rare condition: small coef for last iteration:  0.000D+00
 EnCoef did   100 forward-backward iterations
 EnCoef did    41 forward-backward iterations
 EnCoef did   100 forward-backward iterations
 Restarting incremental Fock formation.
 SCF Done:  E(RPBE1PBE) =  -6669.04765730     A.U. after   32 cycles
            NFock= 32  Conv=0.14D-08     -V/T= 2.0242
 DoSCS=F DFT=T ScalE2(SS,OS)=  1.000000  1.000000
 Range of M.O.s used for correlation:     1  3145
 NBasis=  3145 NAE=   365 NBE=   365 NFC=     0 NFV=     0
 NROrb=   3145 NOA=   365 NOB=   365 NVA=  2780 NVB=  2780

 **** Warning!!: The largest alpha MO coefficient is  0.39046261D+02

          Differentiating once with respect to magnetic field using GIAOs.
          Electric field/nuclear overlap derivatives assumed to be zero.
 Defaulting to unpruned grid for atomic number  46.
 FoFCou: FMM=F IPFlag=           0 FMFlag=      100000 FMFlg1=        2001
         NFxFlg=           0 DoJE=F BraDBF=F KetDBF=T FulRan=T
         wScrn=  0.000000 ICntrl=    6100 IOpCl=  0 I1Cent=           7 NGrid=         134
         NMat0=    1 NMatS0=      1 NMatT0=    0 NMatD0=    1 NMtDS0=    0 NMtDT0=    0
 Symmetry not used in FoFCou.
   1 Symmetry operations used in ECPInt.
 ECPInt:  NShTT=  714610 NPrTT= 2256810 LenC2=  714611 LenP2D= 2256810.
 LDataN:  DoStor=T MaxTD1= 8 Len=  415
 FoFJK:  IHMeth= 1 ICntrl=    6127 DoSepK=F KAlg= 0 I1Cent=   0 FoldK=F
 IRaf=         1 NMat=   1 IRICut=       1 DoRegI=T DoRafI=F ISym2E= 0.
 Defaulting to unpruned grid for atomic number  46.
 Defaulting to unpruned grid for atomic number  46.
 Defaulting to unpruned grid for atomic number  46.
 Defaulting to unpruned grid for atomic number  46.
 Defaulting to unpruned grid for atomic number  46.
 Defaulting to unpruned grid for atomic number  46.
 Defaulting to unpruned grid for atomic number  46.
 Defaulting to unpruned grid for atomic number  46.
 Defaulting to unpruned grid for atomic number  46.
 Defaulting to unpruned grid for atomic number  46.
 Defaulting to unpruned grid for atomic number  46.
 Defaulting to unpruned grid for atomic number  46.
 Defaulting to unpruned grid for atomic number  46.
 Defaulting to unpruned grid for atomic number  46.
          There are     3 degrees of freedom in the 1st order CPHF.  IDoFFX=0 NUNeed=     3.
      3 vectors produced by pass  0 Test12= 3.38D-11 3.33D-08 XBig12= 5.68D+02 2.76D+00.
 AX will form     3 AO Fock derivatives at one time.
      3 vectors produced by pass  1 Test12= 3.38D-11 3.33D-08 XBig12= 3.00D+00 2.97D-01.
      3 vectors produced by pass  2 Test12= 3.38D-11 3.33D-08 XBig12= 6.97D-02 7.32D-02.
      3 vectors produced by pass  3 Test12= 3.38D-11 3.33D-08 XBig12= 1.78D-03 9.08D-03.
      3 vectors produced by pass  4 Test12= 3.38D-11 3.33D-08 XBig12= 2.55D-05 1.85D-03.
      3 vectors produced by pass  5 Test12= 3.38D-11 3.33D-08 XBig12= 1.03D-06 3.05D-04.
      3 vectors produced by pass  6 Test12= 3.38D-11 3.33D-08 XBig12= 1.26D-08 3.68D-05.
      3 vectors produced by pass  7 Test12= 3.38D-11 3.33D-08 XBig12= 2.91D-10 5.28D-06.
      3 vectors produced by pass  8 Test12= 3.38D-11 3.33D-08 XBig12= 2.90D-12 6.75D-07.
      2 vectors produced by pass  9 Test12= 3.38D-11 3.33D-08 XBig12= 1.39D-13 7.06D-08.
      1 vectors produced by pass 10 Test12= 3.38D-11 3.33D-08 XBig12= 1.26D-13 4.73D-08.
 InvSVY:  IOpt=1 It=  1 EMax= 3.55D-15
 Solved reduced A of dimension    30 with     3 vectors.
 Calculating GIAO nuclear magnetic shielding tensors.
 SCF GIAO Magnetic shielding tensor (ppm):
      1  Fe   Isotropic = -6108.6989   Anisotropy =  7687.3437
   XX= -4314.2444   YX= -3166.0143   ZX= -2248.7801
   XY= -3054.6822   YY= -6532.6176   ZY=  1581.3311
   XZ= -2167.5530   YZ=  1588.8441   ZZ= -7479.2346
   Eigenvalues: -8729.6392 -8612.6544  -983.8031
      2  P    Isotropic =   219.3639   Anisotropy =   109.5544
   XX=   254.7246   YX=   -34.3430   ZX=    32.7258
   XY=   -24.5250   YY=   163.5595   ZY=     3.9490
   XZ=    45.2566   YZ=   -15.0118   ZZ=   239.8077
   Eigenvalues:   154.4243   211.2673   292.4002
      3  P    Isotropic =   237.0049   Anisotropy =   149.1625
   XX=   277.7193   YX=   -24.8501   ZX=   -80.2136
   XY=   -37.0759   YY=   172.7623   ZY=    -8.9388
   XZ=   -48.9226   YZ=    -5.2746   ZZ=   260.5333
   Eigenvalues:   156.7727   217.7955   336.4466
      4  C    Isotropic =   112.1864   Anisotropy =    82.8503
   XX=   130.5595   YX=   -40.4327   ZX=    19.9776
   XY=   -45.7991   YY=   116.6171   ZY=    11.0937
   XZ=     1.5060   YZ=    24.5624   ZZ=    89.3827
   Eigenvalues:    63.5279   105.6115   167.4199
      5  C    Isotropic =    95.3020   Anisotropy =    80.5673
   XX=   120.6329   YX=   -23.6993   ZX=   -33.8248
   XY=   -28.5729   YY=   120.1306   ZY=   -24.4818
   XZ=   -35.2818   YZ=    -4.6632   ZZ=    45.1423
   Eigenvalues:    25.8699   111.0225   149.0135
      6  C    Isotropic =   100.0324   Anisotropy =   107.8839
   XX=   135.9116   YX=   -39.3379   ZX=   -32.9920
   XY=   -48.5416   YY=    64.5511   ZY=    10.4715
   XZ=   -33.5588   YZ=     3.0488   ZZ=    99.6347
   Eigenvalues:    42.2262    85.9161   171.9551
      7  C    Isotropic =   106.1051   Anisotropy =    85.4618
   XX=   130.9895   YX=    -6.3656   ZX=   -39.1966
   XY=    -5.6899   YY=    90.6401   ZY=    58.7551
   XZ=   -22.9773   YZ=    31.2904   ZZ=    96.6856
   Eigenvalues:    44.9258   110.3098   163.0796
      8  C    Isotropic =    86.3346   Anisotropy =    81.3416
   XX=    77.0866   YX=   -31.1478   ZX=   -37.3883
   XY=   -21.3831   YY=    92.3794   ZY=    26.5337
   XZ=   -35.2604   YZ=    10.5858   ZZ=    89.5378
   Eigenvalues:    44.5757    73.8657   140.5623
      9  C    Isotropic =   110.4844   Anisotropy =    77.4102
   XX=   114.6877   YX=    -1.6675   ZX=   -42.2207
   XY=    -9.0118   YY=   105.5576   ZY=    42.8248
   XZ=   -20.1241   YZ=    32.6016   ZZ=   111.2078
   Eigenvalues:    63.5551   105.8069   162.0911
     10  C    Isotropic =    77.0527   Anisotropy =    95.8400
   XX=    65.6421   YX=   -44.3045   ZX=   -14.8693
   XY=   -35.9454   YY=    97.3045   ZY=    30.1445
   XZ=    -7.9218   YZ=    37.2296   ZZ=    68.2116
   Eigenvalues:    34.0530    56.1591   140.9461
     11  C    Isotropic =   108.1328   Anisotropy =    93.1488
   XX=   129.6015   YX=   -42.6139   ZX=     4.3271
   XY=   -31.3805   YY=   128.0671   ZY=    18.7060
   XZ=    -1.1495   YZ=    43.4078   ZZ=    66.7298
   Eigenvalues:    50.0672   104.0992   170.2320
     12  C    Isotropic =   104.8991   Anisotropy =   100.3890
   XX=   134.6421   YX=   -40.8758   ZX=   -25.4268
   XY=   -42.4522   YY=   113.8576   ZY=   -11.0761
   XZ=   -40.7145   YZ=    -4.3889   ZZ=    66.1974
   Eigenvalues:    43.8427    99.0295   171.8250
     13  C    Isotropic =   107.8308   Anisotropy =    81.3437
   XX=   136.6273   YX=   -37.3891   ZX=    -9.9014
   XY=   -41.8679   YY=    62.9219   ZY=    18.2223
   XZ=   -21.7237   YZ=    -2.4590   ZZ=   123.9431
   Eigenvalues:    45.6476   115.7848   162.0599
     14  C    Isotropic =    40.8367   Anisotropy =   178.3993
   XX=    10.6711   YX=    19.3190   ZX=    86.9769
   XY=    14.3915   YY=     2.8537   ZY=    -0.3042
   XZ=    85.0767   YZ=     7.5398   ZZ=   108.9855
   Eigenvalues:   -42.8677     5.6083   159.7696
     15  C    Isotropic =    40.5622   Anisotropy =   204.7073
   XX=    42.7910   YX=    18.9571   ZX=    76.5760
   XY=    20.0378   YY=   -58.2600   ZY=     5.7948
   XZ=    65.4269   YZ=    20.0792   ZZ=   137.1556
   Eigenvalues:   -61.8920     6.5448   177.0337
     16  C    Isotropic =    48.5078   Anisotropy =   159.4161
   XX=    32.1699   YX=   -25.7471   ZX=    70.1146
   XY=   -23.0140   YY=    -1.7023   ZY=    28.5085
   XZ=    66.3201   YZ=    31.4454   ZZ=   115.0559
   Eigenvalues:   -40.4609    31.1991   154.7852
     17  C    Isotropic =    52.9558   Anisotropy =   191.6111
   XX=    12.5908   YX=    26.0893   ZX=    87.6547
   XY=    23.1336   YY=    17.2046   ZY=     6.8118
   XZ=    93.3209   YZ=     9.8839   ZZ=   129.0720
   Eigenvalues:   -42.1517    20.3225   180.6966
     18  C    Isotropic =    48.7879   Anisotropy =   159.7194
   XX=    55.2870   YX=    20.9310   ZX=    49.0393
   XY=    25.6954   YY=   -37.2920   ZY=    10.0844
   XZ=    52.0586   YZ=    -1.9665   ZZ=   128.3687
   Eigenvalues:   -43.2372    34.3333   155.2675
     19  C    Isotropic =    46.7828   Anisotropy =   199.7024
   XX=    26.9646   YX=   -17.3560   ZX=    81.7864
   XY=   -28.6407   YY=   -21.3058   ZY=    32.8612
   XZ=    79.2314   YZ=    38.8414   ZZ=   134.6897
   Eigenvalues:   -56.9392    17.3699   179.9178
     20  C    Isotropic =    41.7935   Anisotropy =   181.9470
   XX=    43.3685   YX=     7.7355   ZX=   -59.8596
   XY=    15.6187   YY=   -23.6651   ZY=   -58.9920
   XZ=   -69.6107   YZ=   -57.3763   ZZ=   105.6770
   Eigenvalues:   -48.2101    10.4991   163.0915
     21  C    Isotropic =    40.5910   Anisotropy =   208.9347
   XX=     3.1663   YX=    53.7301   ZX=   -61.6567
   XY=    49.9581   YY=   -15.1125   ZY=   -49.3147
   XZ=   -64.7841   YZ=   -43.7113   ZZ=   133.7191
   Eigenvalues:   -58.8032     0.6954   179.8808
     22  C    Isotropic =    46.2469   Anisotropy =   161.4340
   XX=    -7.5689   YX=    12.3221   ZX=   -74.3438
   XY=     6.3346   YY=    41.6177   ZY=   -38.4827
   XZ=   -74.3554   YZ=   -34.6219   ZZ=   104.6917
   Eigenvalues:   -45.3885    30.2595   153.8695
     23  C    Isotropic =    52.6449   Anisotropy =   193.3898
   XX=    46.6045   YX=    13.2185   ZX=   -61.5456
   XY=     9.0602   YY=   -12.7989   ZY=   -64.1424
   XZ=   -66.5707   YZ=   -69.9310   ZZ=   124.1291
   Eigenvalues:   -42.9568    19.3201   181.5714
     24  C    Isotropic =    46.0570   Anisotropy =   160.6781
   XX=    23.4723   YX=    49.7729   ZX=   -47.3692
   XY=    56.5175   YY=    -2.5280   ZY=   -30.3093
   XZ=   -47.7629   YZ=   -30.2774   ZZ=   117.2266
   Eigenvalues:   -44.4706    29.4657   153.1757
     25  C    Isotropic =    33.1815   Anisotropy =   191.3558
   XX=   -15.3756   YX=     9.9480   ZX=   -92.6535
   XY=    19.5102   YY=    16.8509   ZY=   -41.5944
   XZ=   -89.6721   YZ=   -37.2009   ZZ=    98.0692
   Eigenvalues:   -66.5418     5.3343   160.7520
     26  C    Isotropic =    42.7483   Anisotropy =   180.6858
   XX=   111.3141   YX=    46.2828   ZX=    76.8107
   XY=    47.0987   YY=   -24.3785   ZY=     9.2772
   XZ=    59.5750   YZ=     5.1076   ZZ=    41.3093
   Eigenvalues:   -42.0616     7.1010   163.2055
     27  C    Isotropic =    41.3750   Anisotropy =   200.7521
   XX=   143.8187   YX=    20.1490   ZX=    53.7390
   XY=    34.9163   YY=   -20.1618   ZY=    45.5007
   XZ=    66.6836   YZ=    50.3235   ZZ=     0.4681
   Eigenvalues:   -60.5086     9.4238   175.2098
     28  C    Isotropic =    47.0360   Anisotropy =   161.1500
   XX=   104.5564   YX=    29.5049   ZX=    83.9960
   XY=    32.2434   YY=    38.0948   ZY=     3.2743
   XZ=    74.5487   YZ=     6.8986   ZZ=    -1.5433
   Eigenvalues:   -45.1645    31.8032   154.4693
     29  C    Isotropic =    50.5566   Anisotropy =   196.7415
   XX=   133.2812   YX=    57.8733   ZX=    64.9939
   XY=    55.1932   YY=   -23.6540   ZY=     6.0801
   XZ=    67.8651   YZ=     3.4097   ZZ=    42.0426
   Eigenvalues:   -45.6919    15.6441   181.7176
     30  C    Isotropic =    43.1612   Anisotropy =   167.7839
   XX=   122.1971   YX=    17.7518   ZX=    54.5821
   XY=    19.9718   YY=   -12.4026   ZY=    49.7532
   XZ=    56.5947   YZ=    46.9437   ZZ=    19.6891
   Eigenvalues:   -49.4011    23.8675   155.0171
     31  C    Isotropic =    37.9166   Anisotropy =   206.9517
   XX=   117.5835   YX=    37.3009   ZX=    92.1340
   XY=    40.6900   YY=     9.4417   ZY=    18.6553
   XZ=    92.0862   YZ=    14.6446   ZZ=   -13.2754
   Eigenvalues:   -60.9827    -1.1520   175.8844
     32  C    Isotropic =    41.9800   Anisotropy =   189.6614
   XX=   -21.9497   YX=   -19.7996   ZX=   -12.5568
   XY=   -28.2877   YY=    47.4076   ZY=   -97.9916
   XZ=   -14.7322   YZ=   -83.2169   ZZ=   100.4820
   Eigenvalues:   -48.6703     6.1893   168.4209
     33  C    Isotropic =    42.5273   Anisotropy =   204.2876
   XX=     6.9026   YX=     8.4264   ZX=    15.3440
   XY=     6.1941   YY=    31.2837   ZY=  -111.5245
   XZ=     6.6385   YZ=  -117.7805   ZZ=    89.3958
   Eigenvalues:   -60.2730     9.1360   178.7191
     34  C    Isotropic =    46.8388   Anisotropy =   161.5782
   XX=   -35.3801   YX=    12.8535   ZX=    23.3163
   XY=     8.6548   YY=    73.3734   ZY=   -63.9432
   XZ=    20.3617   YZ=   -64.8685   ZZ=   102.5231
   Eigenvalues:   -43.3605    29.3193   154.5576
     35  C    Isotropic =    53.5008   Anisotropy =   192.0312
   XX=   -14.4530   YX=   -28.0140   ZX=   -11.1884
   XY=   -30.3676   YY=    61.0587   ZY=   -93.3117
   XZ=    -7.3045   YZ=   -86.0961   ZZ=   113.8967
   Eigenvalues:   -39.7270    18.7078   181.5216
     36  C    Isotropic =    46.8269   Anisotropy =   161.9361
   XX=    25.9243   YX=     7.9342   ZX=    14.8825
   XY=     7.6305   YY=    37.3288   ZY=   -92.7204
   XZ=    17.1163   YZ=   -97.2611   ZZ=    77.2277
   Eigenvalues:   -43.5436    29.2400   154.7843
     37  C    Isotropic =    36.4098   Anisotropy =   199.6553
   XX=   -55.3956   YX=     7.4626   ZX=    21.5406
   XY=    14.6458   YY=    73.4577   ZY=   -80.7860
   XZ=    25.7953   YZ=   -91.7771   ZZ=    91.1672
   Eigenvalues:   -65.3420     5.0581   169.5133
     38  H    Isotropic =    26.5045   Anisotropy =     5.9666
   XX=    26.8400   YX=     3.6686   ZX=     0.6906
   XY=     0.5798   YY=    28.9587   ZY=    -2.7073
   XZ=     4.2222   YZ=    -2.5703   ZZ=    23.7149
   Eigenvalues:    20.9658    28.0656    30.4822
     39  H    Isotropic =    27.9490   Anisotropy =     8.4882
   XX=    29.4025   YX=     1.3805   ZX=     0.6693
   XY=     4.8051   YY=    26.8027   ZY=    -1.7284
   XZ=    -4.2478   YZ=    -5.3515   ZZ=    27.6417
   Eigenvalues:    23.3753    26.8638    33.6078
     40  H    Isotropic =    23.5507   Anisotropy =    15.2671
   XX=    30.0162   YX=     2.4251   ZX=    -6.0858
   XY=     3.9121   YY=    16.5649   ZY=    -1.7146
   XZ=    -4.9047   YZ=     1.7060   ZZ=    24.0710
   Eigenvalues:    15.6369    21.2864    33.7288
     41  H    Isotropic =    23.2202   Anisotropy =     9.4627
   XX=    21.5787   YX=     1.6433   ZX=    -2.9493
   XY=     1.7054   YY=    28.6890   ZY=    -1.6515
   XZ=    -2.2558   YZ=    -1.5049   ZZ=    19.3929
   Eigenvalues:    17.6482    22.4837    29.5287
     42  H    Isotropic =    23.6437   Anisotropy =    17.6641
   XX=    26.9423   YX=    -5.8366   ZX=    -7.2092
   XY=    -7.4851   YY=    22.1847   ZY=     4.9218
   XZ=    -4.7105   YZ=     3.0818   ZZ=    21.8041
   Eigenvalues:    17.4541    18.0573    35.4198
     43  H    Isotropic =    22.4824   Anisotropy =    10.8353
   XX=    21.5680   YX=     5.7216   ZX=     5.4215
   XY=     3.9812   YY=    23.1129   ZY=     1.1242
   XZ=     3.1656   YZ=     2.0751   ZZ=    22.7663
   Eigenvalues:    16.4105    21.3308    29.7059
     44  H    Isotropic =    22.9908   Anisotropy =    10.8931
   XX=    28.1383   YX=    -2.1943   ZX=     3.9981
   XY=    -2.7213   YY=    22.6502   ZY=    -0.0422
   XZ=     3.8668   YZ=    -0.3185   ZZ=    18.1841
   Eigenvalues:    16.7439    21.9757    30.2529
     45  H    Isotropic =    21.0954   Anisotropy =    13.4078
   XX=    18.7858   YX=    -0.4797   ZX=    -0.6439
   XY=     0.4619   YY=    28.7256   ZY=     4.2883
   XZ=     2.4880   YZ=     4.3288   ZZ=    15.7749
   Eigenvalues:    14.2977    18.9546    30.0340
     46  H    Isotropic =    23.1445   Anisotropy =    15.4726
   XX=    24.2906   YX=    -6.4907   ZX=    -1.6585
   XY=    -6.1083   YY=    25.7574   ZY=     2.3672
   XZ=    -6.1290   YZ=     5.2298   ZZ=    19.3854
   Eigenvalues:    17.2069    18.7670    33.4595
     47  H    Isotropic =    22.9381   Anisotropy =     8.9200
   XX=    21.1838   YX=    -0.3562   ZX=    -3.7217
   XY=     0.0901   YY=    22.1483   ZY=    -3.0632
   XZ=    -4.3856   YZ=    -2.9232   ZZ=    25.4821
   Eigenvalues:    17.9714    21.9580    28.8848
     48  H    Isotropic =    20.7523   Anisotropy =    17.5658
   XX=    14.5541   YX=    -4.5256   ZX=     0.7774
   XY=    -3.3411   YY=    31.4040   ZY=     2.4092
   XZ=    -0.1877   YZ=     1.2706   ZZ=    16.2989
   Eigenvalues:    13.5024    16.2917    32.4629
     49  H    Isotropic =    23.5110   Anisotropy =    15.2855
   XX=    31.4307   YX=     6.4607   ZX=     2.5147
   XY=     2.7815   YY=    20.9739   ZY=    -0.0966
   XZ=     2.8033   YZ=     2.1419   ZZ=    18.1284
   Eigenvalues:    17.6071    19.2246    33.7013
     50  H    Isotropic =    22.9855   Anisotropy =     9.2700
   XX=    25.6384   YX=    -2.9143   ZX=    -1.3477
   XY=    -3.2882   YY=    21.5921   ZY=     4.0488
   XZ=    -1.7890   YZ=     4.6258   ZZ=    21.7260
   Eigenvalues:    17.1517    22.6393    29.1655
     51  H    Isotropic =    21.6452   Anisotropy =    15.3118
   XX=    18.6989   YX=     7.8620   ZX=     3.1985
   XY=     6.0357   YY=    25.3704   ZY=     2.9480
   XZ=     2.5452   YZ=     4.8122   ZZ=    20.8664
   Eigenvalues:    14.3004    18.7822    31.8531
     52  Cl   Isotropic =   780.4412   Anisotropy =   368.5910
   XX=   631.5187   YX=    11.4164   ZX=  -155.5097
   XY=    72.0363   YY=  1020.2664   ZY=    22.4852
   XZ=  -117.0541   YZ=   -35.2156   ZZ=   689.5385
   Eigenvalues:   519.5681   795.5869  1026.1685
     53  Cl   Isotropic =   843.1718   Anisotropy =   561.4919
   XX=   650.5924   YX=   143.2007   ZX=   132.2523
   XY=    91.9238   YY=  1169.0152   ZY=     5.4172
   XZ=    73.0692   YZ=   169.1443   ZZ=   709.9077
   Eigenvalues:   570.0021   742.0135  1217.4997
     54  Pd   Isotropic =  -153.4060   Anisotropy =   240.9280
   XX=    -4.8533   YX=   -48.8005   ZX=   -22.5279
   XY=   -42.6690   YY=  -428.0258   ZY=  -109.8220
   XZ=    -8.9647   YZ=  -130.6599   ZZ=   -27.3391
   Eigenvalues:  -466.3892    -1.0415     7.2126
     55  C    Isotropic =   116.1698   Anisotropy =    30.4380
   XX=   127.5941   YX=    -4.8733   ZX=    -8.8141
   XY=    -8.7417   YY=   103.0576   ZY=     4.4089
   XZ=   -13.2974   YZ=     1.9258   ZZ=   117.8576
   Eigenvalues:   101.2881   110.7595   136.4618
     56  H    Isotropic =    27.6204   Anisotropy =    10.6811
   XX=    30.7702   YX=    -1.8414   ZX=     5.9132
   XY=     1.1316   YY=    22.5189   ZY=     0.0208
   XZ=     3.0815   YZ=    -1.1348   ZZ=    29.5722
   Eigenvalues:    22.4752    25.6449    34.7411
     57  H    Isotropic =    27.3701   Anisotropy =     4.5561
   XX=    27.1924   YX=     3.1316   ZX=     3.1685
   XY=     2.1282   YY=    27.2222   ZY=    -2.5609
   XZ=     1.2072   YZ=    -3.2674   ZZ=    27.6958
   Eigenvalues:    22.1969    29.5060    30.4075
     58  C    Isotropic =   117.3482   Anisotropy =    41.9048
   XX=   123.1615   YX=    -7.2203   ZX=   -17.8882
   XY=   -15.1831   YY=   105.3111   ZY=     6.6742
   XZ=   -18.4753   YZ=     5.3918   ZZ=   123.5721
   Eigenvalues:    99.4016   107.3584   145.2847
     59  H    Isotropic =    27.1716   Anisotropy =     5.9232
   XX=    25.1757   YX=     1.0170   ZX=     1.9743
   XY=    -1.3584   YY=    29.0837   ZY=    -0.6111
   XZ=     1.7381   YZ=    -4.4497   ZZ=    27.2554
   Eigenvalues:    23.7809    26.6135    31.1204
     60  N    Isotropic =   201.5990   Anisotropy =    59.0205
   XX=   237.8739   YX=    19.7231   ZX=   -11.0877
   XY=    -1.1238   YY=   183.7738   ZY=    10.1997
   XZ=    -9.0644   YZ=    -2.7969   ZZ=   183.1493
   Eigenvalues:   176.6749   187.1761   240.9460
     61  C    Isotropic =   140.7912   Anisotropy =    54.8722
   XX=   147.3019   YX=    24.5307   ZX=    23.1953
   XY=    18.8346   YY=   141.8178   ZY=     9.8687
   XZ=    18.1299   YZ=     9.1615   ZZ=   133.2541
   Eigenvalues:   116.6618   128.3392   177.3727
     62  C    Isotropic =   145.3571   Anisotropy =    47.7807
   XX=   126.0742   YX=   -15.2066   ZX=    -0.8373
   XY=    -9.8109   YY=   169.2236   ZY=    15.0386
   XZ=     0.5720   YZ=    11.6952   ZZ=   140.7735
   Eigenvalues:   121.9879   136.8725   177.2109
     63  H    Isotropic =    29.6201   Anisotropy =     9.3893
   XX=    34.9504   YX=     2.8641   ZX=    -0.6902
   XY=     2.9520   YY=    26.7795   ZY=    -0.6158
   XZ=     1.0207   YZ=    -0.4102   ZZ=    27.1304
   Eigenvalues:    25.6535    27.3271    35.8797
     64  H    Isotropic =    29.2868   Anisotropy =    11.1700
   XX=    26.2695   YX=     6.0428   ZX=     0.9911
   XY=     1.2217   YY=    34.8757   ZY=     1.4680
   XZ=     3.2327   YZ=     1.8513   ZZ=    26.7152
   Eigenvalues:    24.0484    27.0785    36.7334
     65  H    Isotropic =    30.4478   Anisotropy =     8.0421
   XX=    33.6081   YX=     0.2190   ZX=     1.7172
   XY=     0.7419   YY=    25.9267   ZY=    -1.7971
   XZ=     3.9822   YZ=    -2.9362   ZZ=    31.8086
   Eigenvalues:    24.8459    30.6883    35.8092
     66  H    Isotropic =    29.9457   Anisotropy =    10.9266
   XX=    30.6009   YX=    -4.4300   ZX=    -3.1371
   XY=    -4.8197   YY=    26.3699   ZY=     3.2794
   XZ=    -4.0038   YZ=     0.3717   ZZ=    32.8663
   Eigenvalues:    23.3802    29.2269    37.2301
     67  H    Isotropic =    29.7249   Anisotropy =    10.0253
   XX=    28.7460   YX=    -4.9621   ZX=    -0.0026
   XY=    -4.8569   YY=    31.3822   ZY=    -4.3213
   XZ=    -0.1700   YZ=    -3.2305   ZZ=    29.0464
   Eigenvalues:    23.7471    29.0191    36.4084
     68  H    Isotropic =    29.6527   Anisotropy =     7.2253
   XX=    32.4172   YX=    -3.5404   ZX=     1.0281
   XY=    -2.6559   YY=    28.8343   ZY=     2.9945
   XZ=    -1.7303   YZ=     1.0146   ZZ=    27.7065
   Eigenvalues:    25.6988    28.7897    34.4695
     69  C    Isotropic =    51.0434   Anisotropy =   189.4364
   XX=   171.2730   YX=    29.3688   ZX=     3.8865
   XY=    27.0852   YY=    38.7970   ZY=    13.9757
   XZ=     7.0098   YZ=    15.9204   ZZ=   -56.9397
   Eigenvalues:   -59.2251    35.0211   177.3344
     70  C    Isotropic =    51.7302   Anisotropy =   187.3474
   XX=   167.1366   YX=    45.6979   ZX=    -0.9858
   XY=    43.4468   YY=   -38.4544   ZY=    31.7993
   XZ=    -0.2510   YZ=    32.8949   ZZ=    26.5082
   Eigenvalues:   -59.4812    38.0432   176.6284
     71  C    Isotropic =    50.9430   Anisotropy =   182.8822
   XX=   164.2689   YX=    35.2632   ZX=    27.3531
   XY=    40.5642   YY=   -18.4710   ZY=   -37.3292
   XZ=    15.7186   YZ=   -48.7903   ZZ=     7.0312
   Eigenvalues:   -59.0218    38.9864   172.8645
     72  C    Isotropic =    40.6189   Anisotropy =   191.5158
   XX=   160.8896   YX=    36.5786   ZX=    12.7567
   XY=    28.3177   YY=    16.2877   ZY=    12.6498
   XZ=     1.4703   YZ=    17.4467   ZZ=   -55.3207
   Eigenvalues:   -58.3560    11.9166   168.2961
     73  C    Isotropic =    47.8834   Anisotropy =   165.8987
   XX=   153.6035   YX=    29.9521   ZX=    -3.1045
   XY=    32.2059   YY=   -45.7398   ZY=    34.8300
   XZ=     1.5871   YZ=    30.1845   ZZ=    35.7863
   Eigenvalues:   -61.2053    46.3729   158.4825
     74  C    Isotropic =    50.3637   Anisotropy =   187.0995
   XX=   167.9583   YX=    35.3166   ZX=    13.5529
   XY=    37.3056   YY=   -15.5289   ZY=   -47.2913
   XZ=    16.8343   YZ=   -48.8576   ZZ=    -1.3382
   Eigenvalues:   -63.1248    39.1192   175.0967
     75  H    Isotropic =    23.7686   Anisotropy =     3.5822
   XX=    20.4469   YX=    -1.0407   ZX=     0.5785
   XY=    -1.2059   YY=    25.8811   ZY=    -0.0756
   XZ=     0.5291   YZ=    -0.2022   ZZ=    24.9777
   Eigenvalues:    20.1684    24.9807    26.1567
     76  H    Isotropic =    23.7389   Anisotropy =     6.5536
   XX=    20.4139   YX=    -0.9942   ZX=     1.1372
   XY=    -0.8480   YY=    22.8038   ZY=    -0.1916
   XZ=     0.3800   YZ=    -0.4682   ZZ=    27.9991
   Eigenvalues:    20.0524    23.0564    28.1080
     77  H    Isotropic =    23.8666   Anisotropy =    11.3118
   XX=    21.7248   YX=    -0.2020   ZX=     2.2749
   XY=    -0.6970   YY=    23.5431   ZY=    -6.0404
   XZ=     1.1943   YZ=    -6.0259   ZZ=    26.3318
   Eigenvalues:    18.5655    21.6265    31.4078
     78  H    Isotropic =    24.4361   Anisotropy =     9.5626
   XX=    21.3094   YX=     1.5565   ZX=     0.2248
   XY=     0.4468   YY=    21.4555   ZY=     1.5732
   XZ=     0.4382   YZ=     1.4351   ZZ=    30.5435
   Eigenvalues:    20.3131    22.1842    30.8112
     79  H    Isotropic =    23.8295   Anisotropy =     7.8391
   XX=    20.0247   YX=    -0.3296   ZX=     0.9906
   XY=    -0.3813   YY=    23.2508   ZY=    -1.8161
   XZ=     1.0576   YZ=    -2.2052   ZZ=    28.2130
   Eigenvalues:    19.8946    22.5384    29.0556
     80  N    Isotropic =   189.8682   Anisotropy =    59.6324
   XX=   211.4547   YX=     1.0183   ZX=   -25.5598
   XY=    -3.9676   YY=   167.8886   ZY=    -1.2611
   XZ=   -27.8896   YZ=    -6.6341   ZZ=   190.2611
   Eigenvalues:   165.3815   174.5999   229.6231
     81  H    Isotropic =    28.9597   Anisotropy =    14.6334
   XX=    24.8129   YX=     1.8160   ZX=     1.0165
   XY=    -0.8606   YY=    25.6803   ZY=    -7.7451
   XZ=     2.1988   YZ=    -2.9305   ZZ=    36.3858
   Eigenvalues:    22.8672    25.2965    38.7152
     82  C    Isotropic =   139.5228   Anisotropy =    61.7088
   XX=   158.2879   YX=    31.9372   ZX=     8.1618
   XY=    29.3642   YY=   136.9787   ZY=    -1.0682
   XZ=     5.8009   YZ=     1.2800   ZZ=   123.3019
   Eigenvalues:   113.4989   124.4075   180.6620
     83  C    Isotropic =   139.6606   Anisotropy =    54.9544
   XX=   122.5342   YX=   -18.2221   ZX=    -1.2345
   XY=   -13.2597   YY=   170.5892   ZY=     6.5935
   XZ=    -1.6157   YZ=     7.4569   ZZ=   125.8585
   Eigenvalues:   117.7797   124.9054   176.2969
     84  H    Isotropic =    30.0761   Anisotropy =     8.0557
   XX=    33.5152   YX=    -0.6064   ZX=     4.5282
   XY=     2.7689   YY=    26.0249   ZY=    -2.0457
   XZ=     1.5251   YZ=    -2.0795   ZZ=    30.6883
   Eigenvalues:    24.6965    30.0853    35.4466
     85  H    Isotropic =    29.5992   Anisotropy =     7.2406
   XX=    32.6208   YX=     0.5370   ZX=    -2.5698
   XY=     2.4480   YY=    31.3514   ZY=    -2.2674
   XZ=    -2.0693   YZ=    -0.8799   ZZ=    24.8253
   Eigenvalues:    24.0069    30.3644    34.4262
     86  H    Isotropic =    29.5203   Anisotropy =    12.6336
   XX=    33.3799   YX=     2.0099   ZX=    -5.4585
   XY=     4.1961   YY=    25.8975   ZY=    -3.0244
   XZ=    -4.5112   YZ=    -1.4954   ZZ=    29.2835
   Eigenvalues:    24.6601    25.9581    37.9427
     87  H    Isotropic =    29.5676   Anisotropy =     5.4654
   XX=    30.3511   YX=    -1.3598   ZX=     1.0233
   XY=    -3.6933   YY=    29.5512   ZY=    -4.7492
   XZ=    -0.6552   YZ=     0.0615   ZZ=    28.8005
   Eigenvalues:    26.1473    29.3443    33.2112
     88  H    Isotropic =    29.2396   Anisotropy =    10.7113
   XX=    29.2522   YX=    -1.3624   ZX=    -5.1985
   XY=    -3.1904   YY=    28.0207   ZY=     2.1244
   XZ=    -5.6276   YZ=     1.8809   ZZ=    30.4458
   Eigenvalues:    24.3576    26.9807    36.3804
     89  H    Isotropic =    29.3138   Anisotropy =     7.8752
   XX=    31.9307   YX=    -1.0469   ZX=    -2.9994
   XY=    -1.8262   YY=    30.0782   ZY=     2.3642
   XZ=    -3.5628   YZ=     2.2582   ZZ=    25.9325
   Eigenvalues:    24.0562    29.3213    34.5639
     90  C    Isotropic =    51.5836   Anisotropy =   187.5077
   XX=   147.8108   YX=    71.6289   ZX=   -14.1773
   XY=    73.8374   YY=   -29.3939   ZY=   -18.5966
   XZ=   -14.1909   YZ=   -18.3828   ZZ=    36.3338
   Eigenvalues:   -57.1604    35.3223   176.5887
     91  C    Isotropic =    50.4705   Anisotropy =   189.3397
   XX=   150.8803   YX=    56.0010   ZX=   -38.0546
   XY=    59.6559   YY=    27.2837   ZY=    32.3860
   XZ=   -39.4726   YZ=    33.8013   ZZ=   -26.7524
   Eigenvalues:   -60.4303    35.1449   176.6970
     92  C    Isotropic =    52.3970   Anisotropy =   191.2861
   XX=   162.8683   YX=    42.6291   ZX=   -13.8140
   XY=    49.3904   YY=    31.9043   ZY=   -39.3335
   XZ=    -9.9129   YZ=   -38.0231   ZZ=   -37.5815
   Eigenvalues:   -55.1469    32.4170   179.9211
     93  C    Isotropic =    30.4875   Anisotropy =   205.8534
   XX=   136.9634   YX=    78.8308   ZX=   -22.7500
   XY=    68.3662   YY=   -38.8597   ZY=   -17.9371
   XZ=   -21.1494   YZ=   -16.1336   ZZ=    -6.6414
   Eigenvalues:   -66.8685    -9.3922   167.7230
     94  C    Isotropic =    49.1457   Anisotropy =   173.3082
   XX=   138.2850   YX=    53.3956   ZX=   -44.3800
   XY=    53.5171   YY=    28.8194   ZY=    28.2482
   XZ=   -40.6433   YZ=    30.7578   ZZ=   -19.6672
   Eigenvalues:   -54.1257    36.8784   164.6845
     95  C    Isotropic =    50.7281   Anisotropy =   190.5684
   XX=   157.8489   YX=    44.1495   ZX=   -21.8673
   XY=    45.8345   YY=    33.4861   ZY=   -46.2668
   XZ=   -18.5826   YZ=   -45.5267   ZZ=   -39.1506
   Eigenvalues:   -61.3701    35.7808   177.7737
     96  H    Isotropic =    23.7584   Anisotropy =     3.9093
   XX=    20.2969   YX=    -0.1969   ZX=     1.1348
   XY=    -0.1403   YY=    25.4482   ZY=    -0.5837
   XZ=     1.2650   YZ=    -0.8253   ZZ=    25.5301
   Eigenvalues:    20.0349    24.8757    26.3646
     97  H    Isotropic =    23.6259   Anisotropy =     9.7854
   XX=    22.0163   YX=    -0.6411   ZX=     0.3945
   XY=    -1.6662   YY=    27.2989   ZY=    -5.1373
   XZ=     1.0933   YZ=    -4.2204   ZZ=    21.5623
   Eigenvalues:    18.9401    21.7880    30.1495
     98  H    Isotropic =    24.4866   Anisotropy =     6.5735
   XX=    19.4646   YX=     0.0790   ZX=     1.8075
   XY=    -1.8194   YY=    28.7830   ZY=     1.9602
   XZ=     3.2365   YZ=    -1.7462   ZZ=    25.2121
   Eigenvalues:    18.4446    26.1462    28.8689
     99  C    Isotropic =    48.5220   Anisotropy =    15.8674
   XX=    47.0721   YX=    -3.3485   ZX=     0.6475
   XY=    -3.2133   YY=    58.1623   ZY=    -1.3732
   XZ=    -0.9876   YZ=    -0.5155   ZZ=    40.3315
   Eigenvalues:    40.2627    46.2030    59.1002
    100  F    Isotropic =   251.0916   Anisotropy =   133.2423
   XX=   282.9145   YX=   -54.8747   ZX=    22.5395
   XY=   -47.3040   YY=   292.3650   ZY=    23.0469
   XZ=     5.1569   YZ=    35.2568   ZZ=   177.9954
   Eigenvalues:   164.6833   248.6717   339.9198
    101  F    Isotropic =   237.9240   Anisotropy =   146.2694
   XX=   256.2177   YX=    63.2741   ZX=    -1.2057
   XY=    52.8189   YY=   272.5613   ZY=   -44.8973
   XZ=   -12.9978   YZ=   -55.1045   ZZ=   184.9929
   Eigenvalues:   158.2420   220.0931   335.4369
    102  F    Isotropic =   221.5973   Anisotropy =   147.7755
   XX=   184.3763   YX=     6.3437   ZX=    83.5435
   XY=     5.9299   YY=   213.4263   ZY=    11.0015
   XZ=    82.9614   YZ=    11.1073   ZZ=   266.9894
   Eigenvalues:   132.7416   211.9360   320.1143
    103  C    Isotropic =    49.0046   Anisotropy =    14.5059
   XX=    50.3096   YX=    -4.2390   ZX=    -3.2310
   XY=    -4.0706   YY=    47.1322   ZY=     6.9893
   XZ=    -3.6727   YZ=     6.6456   ZZ=    49.5721
   Eigenvalues:    41.2918    47.0469    58.6752
    104  F    Isotropic =   252.9912   Anisotropy =   115.7503
   XX=   283.9711   YX=     2.5507   ZX=   -34.2586
   XY=    14.7477   YY=   180.0377   ZY=    23.3601
   XZ=   -42.5771   YZ=    34.8837   ZZ=   294.9647
   Eigenvalues:   170.1964   258.6191   330.1581
    105  F    Isotropic =   224.0192   Anisotropy =   152.0038
   XX=   261.8414   YX=   -65.1043   ZX=    54.8080
   XY=   -69.4470   YY=   190.4391   ZY=     0.4535
   XZ=    57.5549   YZ=    -0.7199   ZZ=   219.7772
   Eigenvalues:   137.7319   208.9707   325.3551
    106  F    Isotropic =   231.8828   Anisotropy =   149.1447
   XX=   223.4129   YX=    31.7491   ZX=    14.0771
   XY=    35.5968   YY=   287.6614   ZY=    72.3537
   XZ=     7.6116   YZ=    59.8335   ZZ=   184.5741
   Eigenvalues:   151.9077   212.4280   331.3126
    107  C    Isotropic =    48.8629   Anisotropy =    15.1321
   XX=    46.9021   YX=     4.4838   ZX=     7.0117
   XY=     4.2547   YY=    51.4121   ZY=     3.5851
   XZ=     6.1645   YZ=     4.6173   ZZ=    48.2746
   Eigenvalues:    40.9325    46.7052    58.9510
    108  F    Isotropic =   254.8802   Anisotropy =   128.0049
   XX=   261.5606   YX=    64.1128   ZX=    72.7119
   XY=    52.4483   YY=   245.2583   ZY=   -10.3620
   XZ=    55.2753   YZ=    -5.2143   ZZ=   257.8218
   Eigenvalues:   165.6970   258.7268   340.2168
    109  F    Isotropic =   216.0472   Anisotropy =   143.1046
   XX=   155.0796   YX=    31.4700   ZX=   -40.3096
   XY=    34.4282   YY=   193.9681   ZY=    -8.3376
   XZ=   -37.3827   YZ=    -9.8829   ZZ=   299.0938
   Eigenvalues:   130.9026   205.7887   311.4502
    110  F    Isotropic =   234.9824   Anisotropy =   143.5706
   XX=   175.2170   YX=   -49.4006   ZX=    25.3170
   XY=   -36.0682   YY=   318.3724   ZY=    -4.3189
   XZ=    19.8485   YZ=     0.3542   ZZ=   211.3577
   Eigenvalues:   155.3251   218.9259   330.6961
    111  C    Isotropic =    48.4052   Anisotropy =    13.8329
   XX=    56.5433   YX=     3.9691   ZX=     1.9926
   XY=     3.3617   YY=    41.5327   ZY=    -0.5397
   XZ=     1.6286   YZ=    -1.2015   ZZ=    47.1395
   Eigenvalues:    40.4446    47.1438    57.6271
    112  F    Isotropic =   217.4652   Anisotropy =   151.3694
   XX=   206.1011   YX=     2.7000   ZX=    14.3945
   XY=     1.3098   YY=   292.2072   ZY=   -65.2563
   XZ=    12.2708   YZ=   -65.6405   ZZ=   154.0873
   Eigenvalues:   125.8524   208.1650   318.3781
    113  F    Isotropic =   242.7111   Anisotropy =   140.8794
   XX=   250.0231   YX=    37.7997   ZX=    59.7495
   XY=    44.0815   YY=   197.8792   ZY=     0.9079
   XZ=    73.1859   YZ=   -13.0182   ZZ=   280.2309
   Eigenvalues:   160.3870   231.1156   336.6307
    114  F    Isotropic =   248.2410   Anisotropy =   127.1468
   XX=   300.9801   YX=    -7.4833   ZX=   -44.8950
   XY=   -18.4823   YY=   190.1778   ZY=   -28.9345
   XZ=   -54.8702   YZ=   -42.4852   ZZ=   253.5652
   Eigenvalues:   165.4386   246.2790   333.0056
    115  C    Isotropic =    48.8884   Anisotropy =    14.0600
   XX=    51.7474   YX=    -6.5811   ZX=    -2.0623
   XY=    -5.8333   YY=    48.8576   ZY=     4.3184
   XZ=    -2.4652   YZ=     3.9903   ZZ=    46.0601
   Eigenvalues:    42.4397    45.9637    58.2617
    116  F    Isotropic =   245.3909   Anisotropy =   138.6959
   XX=   200.8954   YX=    -7.6542   ZX=    37.2899
   XY=   -16.5985   YY=   307.8818   ZY=    64.6228
   XZ=    25.9775   YZ=    50.1769   ZZ=   227.3956
   Eigenvalues:   165.4737   232.8442   337.8549
    117  F    Isotropic =   246.6718   Anisotropy =   141.4520
   XX=   334.7198   YX=   -41.8884   ZX=     8.2886
   XY=   -21.7681   YY=   178.7367   ZY=    28.2794
   XZ=    -0.3115   YZ=    22.6132   ZZ=   226.5588
   Eigenvalues:   162.1984   236.8437   340.9731
    118  F    Isotropic =   222.2017   Anisotropy =   144.2975
   XX=   168.2937   YX=   -43.8743   ZX=     6.0455
   XY=   -44.7352   YY=   189.6860   ZY=   -31.3870
   XZ=     4.7055   YZ=   -32.0142   ZZ=   308.6255
   Eigenvalues:   132.0032   216.2020   318.4000
    119  C    Isotropic =    48.4044   Anisotropy =    14.4438
   XX=    53.1402   YX=     3.0705   ZX=    -7.1940
   XY=     3.8382   YY=    43.8139   ZY=     1.9075
   XZ=    -5.9044   YZ=     0.4430   ZZ=    48.2590
   Eigenvalues:    40.6870    46.4925    58.0336
    120  F    Isotropic =   217.0975   Anisotropy =   151.6620
   XX=   260.8633   YX=   -26.5805   ZX=    49.3058
   XY=   -26.9836   YY=   152.4868   ZY=   -50.5274
   XZ=    50.8927   YZ=   -52.2195   ZZ=   237.9423
   Eigenvalues:   128.3130   204.7739   318.2055
    121  F    Isotropic =   252.6895   Anisotropy =   128.1332
   XX=   261.6383   YX=    73.1775   ZX=    -0.8442
   XY=    94.4161   YY=   245.0628   ZY=   -13.1737
   XZ=     5.5144   YZ=   -12.5703   ZZ=   251.3673
   Eigenvalues:   167.6661   252.2907   338.1116
    122  F    Isotropic =   240.0893   Anisotropy =   144.5570
   XX=   245.8554   YX=   -12.6994   ZX=   -41.9360
   XY=   -14.3969   YY=   182.7007   ZY=    67.3919
   XZ=   -39.6089   YZ=    46.9998   ZZ=   291.7118
   Eigenvalues:   158.0283   225.7790   336.4606
    123  C    Isotropic =    48.6118   Anisotropy =    14.8287
   XX=    44.9092   YX=    -0.3353   ZX=    -3.3409
   XY=    -1.4136   YY=    57.8279   ZY=     2.4163
   XZ=    -2.5832   YZ=     3.2193   ZZ=    43.0983
   Eigenvalues:    40.7187    46.6191    58.4976
    124  F    Isotropic =   241.6338   Anisotropy =   130.2972
   XX=   268.0861   YX=   -57.6179   ZX=   -65.4063
   XY=   -50.2074   YY=   244.1863   ZY=    -4.3784
   XZ=   -49.9708   YZ=    -4.7693   ZZ=   212.6292
   Eigenvalues:   161.1868   235.2161   328.4987
    125  F    Isotropic =   246.1185   Anisotropy =   135.8262
   XX=   199.7918   YX=    67.2621   ZX=   -32.4853
   XY=    46.0179   YY=   313.2019   ZY=    10.1419
   XZ=   -22.0415   YZ=    15.9688   ZZ=   225.3618
   Eigenvalues:   161.9737   239.7125   336.6693
    126  F    Isotropic =   214.6549   Anisotropy =   147.5853
   XX=   131.4258   YX=   -22.0982   ZX=    10.1904
   XY=   -21.9519   YY=   207.8035   ZY=   -27.4568
   XZ=    11.3511   YZ=   -26.0312   ZZ=   304.7354
   Eigenvalues:   125.4580   205.4616   313.0451
    127  C    Isotropic =    49.8548   Anisotropy =    18.6853
   XX=    49.4214   YX=     8.7050   ZX=     4.8337
   XY=     8.7137   YY=    51.3416   ZY=     3.3978
   XZ=     5.4805   YZ=     4.8932   ZZ=    48.8015
   Eigenvalues:    41.3888    45.8640    62.3117
    128  F    Isotropic =   255.7203   Anisotropy =   127.4351
   XX=   196.7837   YX=    46.4897   ZX=   -13.5049
   XY=    66.7792   YY=   311.0303   ZY=    32.3651
   XZ=   -12.5888   YZ=    26.4674   ZZ=   259.3469
   Eigenvalues:   167.3867   259.0971   340.6770
    129  F    Isotropic =   228.3943   Anisotropy =   132.0304
   XX=   214.0533   YX=    17.9348   ZX=    56.4198
   XY=    15.1836   YY=   191.1311   ZY=   -44.7280
   XZ=    52.3056   YZ=   -33.6887   ZZ=   279.9986
   Eigenvalues:   151.4487   217.3196   316.4146
    130  F    Isotropic =   222.6662   Anisotropy =   148.6117
   XX=   292.1768   YX=    32.4141   ZX=   -55.9511
   XY=    25.4606   YY=   158.7124   ZY=    23.4051
   XZ=   -52.2393   YZ=    27.3207   ZZ=   217.1094
   Eigenvalues:   134.1230   212.1350   321.7407
    131  H    Isotropic =    23.7405   Anisotropy =     5.1543
   XX=    20.4969   YX=    -0.1250   ZX=    -0.1133
   XY=    -0.6808   YY=    27.1510   ZY=     0.1118
   XZ=    -0.1994   YZ=     0.0115   ZZ=    23.5737
   Eigenvalues:    20.4651    23.5798    27.1767
    132  H    Isotropic =    23.6429   Anisotropy =     8.2482
   XX=    20.3023   YX=    -1.3996   ZX=     2.0328
   XY=    -1.7631   YY=    28.0744   ZY=    -1.3476
   XZ=     2.5036   YZ=    -2.1826   ZZ=    22.5520
   Eigenvalues:    18.8743    22.9127    29.1417
    133  H    Isotropic =    29.7648   Anisotropy =    18.0568
   XX=    36.2515   YX=     8.5020   ZX=    -1.1902
   XY=     7.0697   YY=    30.2236   ZY=    -1.8374
   XZ=    -0.5960   YZ=    -2.7038   ZZ=    22.8193
   Eigenvalues:    21.9698    25.5218    41.8027
    134  H    Isotropic =    27.5652   Anisotropy =     8.2833
   XX=    27.7112   YX=     4.7000   ZX=     7.0913
   XY=     2.4048   YY=    26.2286   ZY=    -0.8799
   XZ=     2.4268   YZ=    -3.9447   ZZ=    28.7559
   Eigenvalues:    20.3512    29.2571    33.0875
 End of Minotr F.D. properties file   721 does not exist.
 End of Minotr F.D. properties file   722 does not exist.
 End of Minotr F.D. properties file   788 does not exist.
 Hyperfine terms turned off by default for NAtoms > 100.

 **********************************************************************

            Population analysis using the SCF density.

 **********************************************************************

 Orbital symmetries:
       Occupied  (A) (A) (A) (A) (A) (A) (A) (A) (A) (A) (A) (A)
                 (A) (A) (A) (A) (A) (A) (A) (A) (A) (A) (A) (A)
                 (A) (A) (A) (A) (A) (A) (A) (A) (A) (A) (A) (A)
                 (A) (A) (A) (A) (A) (A) (A) (A) (A) (A) (A) (A)
                 (A) (A) (A) (A) (A) (A) (A) (A) (A) (A) (A) (A)
                 (A) (A) (A) (A) (A) (A) (A) (A) (A) (A) (A) (A)
                 (A) (A) (A) (A) (A) (A) (A) (A) (A) (A) (A) (A)
                 (A) (A) (A) (A) (A) (A) (A) (A) (A) (A) (A) (A)
                 (A) (A) (A) (A) (A) (A) (A) (A) (A) (A) (A) (A)
[...]
                                                    882(r),406(r),1483(r)
                                                    1014(r),408(r),887(r),393(r)
                                                    1485(r),411(r),468(r),903(r)
                                                    1875(r),618(r),720(r)
                                                    1058(r),1444(r),519(r)
                                                    1450(r),438(r),299(r),379(r)
                                                    1456(r),1032(r),1326(r)
                                                    593(r),881(r),473(r),1473(r)
                                                    378(r),435(r),891(r),1217(r)
                                                    1036(r),474(r),1043(r)
                                                    600(r),494(r),696(r),477(r)
                                                    602(r),902(r),2980(r),853(r)
                                                    436(r),1041(r),754(r)
                                                    2990(r),429(r),2988(r)
                                                    1010(r),697(r),1349(r)
                                                    885(r),728(r),1063(r),467(r)
                                                    1380(r),1194(r),419(r)
                                                    733(r),748(r),1463(r)
                                                    1045(r),700(r),1321(r)
                                                    1322(r),1066(r),855(r)
                                                    907(r),1061(r),452(r),603(r)
                                                    676(r),1191(r),726(r),884(r)
                                                    454(r),564(r),616(r),465(r)
                                                    449(r),1496(r),880(r),751(r)
                                                    1200(r),1464(r),605(r)
                                                    857(r),621(r),619(r),1165(r)
                                                    466(r),1169(r),860(r)
                                                    1555(r),1399(r),418(r)
                                                    758(r),377(r),863(r),1215(r)
                                                    390(r),1012(r),3018(r)
                                                    1196(r),624(r),421(r)
                                                    1168(r),451(r),384(r)
                                                    1034(r),566(r),520(r)
                                                    1201(r),446(r),909(r),545(r)
                                                    415(r),1176(r)
  1414. RY*(   1)Cl  52                  0.00122     0.86216   
  1415. RY*(   2)Cl  52                  0.00115     0.76672   
  1416. RY*(   3)Cl  52                  0.00098     0.92798   
  1417. RY*(   4)Cl  52                  0.00031     0.98477   
  1418. RY*(   5)Cl  52                  0.00012     1.49229   
  1419. RY*(   6)Cl  52                  0.00011     1.33255   
  1420. RY*(   7)Cl  52                  0.00006     1.34856   
  1421. RY*(   8)Cl  52                  0.00004     1.15889   
  1422. RY*(   9)Cl  52                  0.00004     2.22688   
  1423. RY*(  10)Cl  52                  0.00003     1.72468   
  1424. RY*(  11)Cl  52                  0.00000    10.61547   
  1425. RY*(  12)Cl  52                  0.00000    10.64311   
  1426. RY*(  13)Cl  52                  0.00001     1.95151   
  1427. RY*(  14)Cl  52                  0.00000    25.12215   
  1428. RY*(  15)Cl  52                  0.00001     1.99025   
  1429. RY*(  16)Cl  52                  0.00000     2.70833   
  1430. RY*(  17)Cl  52                  0.00001     1.96792   
  1431. RY*(  18)Cl  52                  0.00000    10.59553   
  1432. RY*(  19)Cl  52                  0.00001     1.91451   
  1433. RY*(  20)Cl  52                  0.00001     2.84129   
  1434. RY*(  21)Cl  52                  0.00001     2.53916   
  1435. RY*(  22)Cl  52                  0.00000     2.11146   
  1436. RY*(  23)Cl  52                  0.00000     2.24164   
  1437. RY*(  24)Cl  52                  0.00000     2.14540   
  1438. RY*(  25)Cl  52                  0.00000     2.15645   
  1439. RY*(  26)Cl  52                  0.00000     2.15574   
  1440. RY*(  27)Cl  52                  0.00000     2.18199   
  1441. RY*(  28)Cl  52                  0.00000     2.17630   
       -------------------------------
              Total Lewis   17.35515  ( 99.9762%)
        Valence non-Lewis    0.00000  (  0.0000%)
        Rydberg non-Lewis    0.00414  (  0.0238%)
       -------------------------------
            Total unit  2   17.35929  (100.0000%)
           Charge unit  2   -0.35929

 Molecular unit  3  (Cl)
   215. CR (   1)Cl  53                  2.00000   -99.99313  298(r),297(r)
   216. CR (   2)Cl  53                  1.99971   -10.71693  298(r),297(r),1470(r)
                                                    2990(r),1472(r),2989(r)
   217. CR (   3)Cl  53                  1.99994    -7.19639  298(r),297(r),2989(r)
   218. CR (   4)Cl  53                  1.99999    -7.19484  299(r)
   219. CR (   5)Cl  53                  1.99996    -7.19658  298(r),2989(r)
   289. LP (   1)Cl  53                  1.95703    -0.28331  297(r),2990(r),3059(r)
                                                    299(r),3069(r),1482(r)
                                                    1471(r),2992(r),432(r)
                                                    1479(r),1489(r),404(r)
                                                    1486(r),1491(r),1477(r)
                                                    1487(r),1488(r),1478(r)
                                                    2991(r),2989(r),1484(r)
                                                    3055(r),3058(r),460(r)
                                                    1417(r)
   290. LP (   2)Cl  53                  1.95287    -0.93014  298(r),297(r),1490(r)
                                                    1472(r),1470(r),1474(r)
                                                    2990(r),1478(r),1476(r)
                                                    1491(r),1471(r),3059(r)
                                                    1473(r),1475(r),1488(r)
                                                    405(r),1489(r),1477(r)
                                                    404(r),3055(r),280(r)
                                                    1492(r),1008(r),460(r)
                                                    1484(r),390(r),3069(r)
                                                    423(r),417(r),3071(r),283(r)
                                                    1009(r),3057(r)
   291. LP (   3)Cl  53                  1.94174    -0.30431  299(r),298(r),297(r),3057(r)
                                                    3069(r),3055(r),1474(r)
                                                    3054(r),1486(r),2991(r)
                                                    2990(r),1491(r),1475(r)
                                                    1484(r),1480(r),1492(r)
                                                    1472(r),1473(r),1487(r)
                                                    3044(r),3071(r)
   292. LP (   4)Cl  53                  1.53186    -0.39708  298(r),297(r),2989(r)
                                                    1487(r),404(r),1479(r)
                                                    1482(r),1486(r),1488(r)
                                                    432(r),2990(r),1478(r)
                                                    1477(r),1481(r),1447(g)
                                                    1484(r),460(r),1489(r)
                                                    590(r),2993(r),440(r)
                                                    1033(r),877(r),1448(g)
                                                    1379(r),1485(r),441(r)
                                                    1476(r),412(r),1471(r)
                                                    414(r),1470(r),443(r),439(r)
                                                    1189(r),442(r),1218(r)
                                                    1472(r),721(r),410(r)
                                                    1480(r),417(r),1419(r)
                                                    1037(r),1475(r),444(r)
                                                    1450(g),722(r),1009(r)
                                                    876(r),1418(r),405(r),591(r)
                                                    601(r),1008(r),604(r)
                                                    1490(r),488(r),1483(r)
                                                    411(r),463(r),1344(r),462(r)
                                                    1059(r),906(r),702(r),385(r)
                                                    720(r),434(r),447(r),725(r)
                                                    1428(r),471(r),593(r),406(r)
                                                    1326(r),393(r),878(r)
                                                    1415(r),3059(r),903(r)
                                                    438(r),1188(r),882(r),408(r)
                                                    602(r),902(r),1014(r),618(r)
                                                    519(r),1875(r),420(r),891(r)
                                                    1041(r),887(r),696(r)
                                                    1036(r),3071(r),1058(r)
                                                    1043(r),473(r),1191(r)
                                                    723(r),474(r),1380(r),881(r)
                                                    700(r),1032(r),1474(r)
                                                    494(r),1190(r),2980(r)
                                                    378(r),379(r),676(r),418(r)
                                                    1417(r),2986(r),3069(r)
                                                    726(r),907(r),728(r),468(r)
                                                    855(r),697(r),1491(r),600(r)
                                                    733(r),605(r),1349(r),477(r)
                                                    751(r),754(r),2992(r),433(r)
                                                    1045(r),1066(r),384(r)
                                                    1320(r),1436(r),1217(r)
                                                    1420(r),1063(r),1422(r)
                                                    407(r),3043(r),1035(r)
                                                    616(r),466(r),1416(r),424(r)
                                                    564(r),380(r),566(r),621(r)
                                                    748(r),598(r),429(r),603(r)
  1442. RY*(   1)Cl  53                  0.00148     0.85502   
  1443. RY*(   2)Cl  53                  0.00128     0.65254   
  1444. RY*(   3)Cl  53                  0.00126     0.78659   
  1445. RY*(   4)Cl  53                  0.00048     0.89974   
  1446. RY*(   5)Cl  53                  0.00026     1.11702   
  1447. RY*(   6)Cl  53                  0.00015     1.68082   
  1448. RY*(   7)Cl  53                  0.00010     1.51334   
  1449. RY*(   8)Cl  53                  0.00008     1.48363   
  1450. RY*(   9)Cl  53                  0.00007     1.95578   
  1451. RY*(  10)Cl  53                  0.00004     1.67505   
  1452. RY*(  11)Cl  53                  0.00002     2.75947   
  1453. RY*(  12)Cl  53                  0.00000    10.46517   
  1454. RY*(  13)Cl  53                  0.00000     1.94222   
  1455. RY*(  14)Cl  53                  0.00001     2.65187   
  1456. RY*(  15)Cl  53                  0.00001     2.05035   
  1457. RY*(  16)Cl  53                  0.00000    10.50433   
  1458. RY*(  17)Cl  53                  0.00001     2.01818   
  1459. RY*(  18)Cl  53                  0.00000    25.25963   
  1460. RY*(  19)Cl  53                  0.00000     1.96148   
  1461. RY*(  20)Cl  53                  0.00000    10.55143   
  1462. RY*(  21)Cl  53                  0.00000     2.29859   
  1463. RY*(  22)Cl  53                  0.00000     2.24101   
  1464. RY*(  23)Cl  53                  0.00000     2.22565   
  1465. RY*(  24)Cl  53                  0.00000     2.18906   
  1466. RY*(  25)Cl  53                  0.00000     2.15241   
  1467. RY*(  26)Cl  53                  0.00000     2.14553   
  1468. RY*(  27)Cl  53                  0.00001     2.15434   
  1469. RY*(  28)Cl  53                  0.00000     2.13105   
       -------------------------------
              Total Lewis   17.38308  ( 99.9696%)
        Valence non-Lewis    0.00000  (  0.0000%)
        Rydberg non-Lewis    0.00529  (  0.0304%)
       -------------------------------
            Total unit  3   17.38837  (100.0000%)
           Charge unit  3   -0.38837
 1\1\GINC-NC044\SP\RPBE1PBE\Gen\C60H42Cl2F24Fe1N2P2Pd1\MACKK4\02-Dec-20
 21\0\\# PBE1PBE gen pseudo=read int=(grid=ultrafine) empiricaldispersi
 on=GD3BJ pop=nbo guess=read geom=check\\M003_1_3 title\\0,1\Fe,0,-0.00
 7848362,-1.4974359897,1.6768757416\P,0,1.7984512787,-0.0735216738,-0.7
 894203292\P,0,-1.7838977129,0.2983138221,-0.5452403664\C,0,1.508381226
 3,-1.4256009952,0.3877113009\C,0,0.5655989362,-2.4559411688,-0.0129331
 377\C,0,0.4714419934,-3.4177814407,1.0372982665\C,0,1.3304094609,-2.99
 75079598,2.0962437543\C,0,2.0007641796,-1.7755981143,1.7203500694\C,0,
 -1.5193981296,-0.2786729104,1.1752973768\C,0,-2.0309155259,-1.37958374
 49,1.9943675506\C,0,-1.3226083221,-1.324859862,3.2486618764\C,0,-0.418
 4496937,-0.2205526097,3.2404864486\C,0,-0.5295353823,0.4273730837,1.97
 19806545\C,0,3.3593265449,-0.5859807116,-1.6115937648\C,0,4.2018470581
 ,0.3701984798,-2.205094377\C,0,5.3974548383,-0.035605581,-2.8114264939
 \C,0,5.7586940965,-1.3885054312,-2.8414695389\C,0,4.9081428033,-2.3381
 72963,-2.261516469\C,0,3.7083352911,-1.9434400298,-1.6552810405\C,0,2.
 2780670527,1.5022734091,0.0391251394\C,0,3.5201482686,1.6792150548,0.6
 782609611\C,0,3.8386671563,2.9281607883,1.2324843691\C,0,2.9380133905,
 4.0019023818,1.1581675923\C,0,1.715336306,3.8257113513,0.5046542057\C,
 0,1.3929973627,2.5868139121,-0.0669045949\C,0,-2.465927271,1.982553243
 1,-0.2015694081\C,0,-3.1367094408,2.2062714148,1.0119369117\C,0,-3.676
 1728398,3.4672141316,1.3016031565\C,0,-3.5315652003,4.5209059849,0.394
 5165982\C,0,-2.8522780898,4.2981018636,-0.812414641\C,0,-2.3248768257,
 3.0387578129,-1.1213746415\C,0,-3.2109922541,-0.6577405949,-1.20274671
 67\C,0,-4.5336497134,-0.3180231243,-0.8927222447\C,0,-5.5913385314,-1.
 0894181399,-1.4004934878\C,0,-5.3380532607,-2.1893986658,-2.2257613611
 \C,0,-4.0113294918,-2.5089676962,-2.5553457242\C,0,-2.9515282347,-1.74
 76696667,-2.0517192606\H,0,0.0039386026,-2.4517528502,-0.9484559572\H,
 0,0.0451058597,1.2933001279,1.644636708\H,0,3.9355672317,1.4287788104,
 -2.1949471606\H,0,6.6965481771,-1.6979320935,-3.3097012069\H,0,3.05602
 65411,-2.6991934732,-1.2126458409\H,0,4.224476162,0.8396951013,0.73428
 4678\H,0,3.1997085785,4.9726552064,1.5851275366\H,0,0.4578874536,2.465
 5232921,-0.6253549488\H,0,-3.242511787,1.400229225,1.7412411897\H,0,-3
 .9366098159,5.5092765555,0.6269691184\H,0,-1.8189042228,2.8697358381,-
 2.0766114186\H,0,-4.7544068443,0.5518791071,-0.2678678899\H,0,-6.16518
 01135,-2.7775160605,-2.6297493715\H,0,-1.9248693521,-1.9697148624,-2.3
 555288373\Cl,0,1.4864055761,0.7529026839,-3.842619021\Cl,0,-1.82711770
 95,0.8680262684,-3.6202927216\Pd,0,-0.0590863852,0.3673957275,-2.10134
 60046\C,0,3.0681727012,-1.0519515169,2.5128112997\H,0,0.2908222464,0.0
 304134062,4.0293078484\H,0,-1.4528678733,-2.0363720962,4.0621601425\C,
 0,-3.2033988667,-2.3255872404,1.7644819022\H,0,2.8673056342,0.03202901
 74,2.4156818743\N,0,4.3980312158,-1.2428788906,1.8640877463\C,0,5.4753
 518335,-0.6178388677,2.6372260212\C,0,4.7671225058,-2.6184782377,1.528
 5762361\H,0,6.3690873564,-0.5264225682,1.9965507798\H,0,5.1768547456,0
 .3884122631,2.9656671478\H,0,5.7506738713,-1.2005158162,3.5436271454\H
 ,0,5.612570109,-2.5986852575,0.8213855499\H,0,5.082446745,-3.218181051
 3,2.4117580573\H,0,3.9300717681,-3.1352274517,1.0358065394\C,0,3.03937
 95406,-1.732952136,6.8182765812\C,0,3.2865702299,-2.807975397,5.952661
 6539\C,0,3.2861516548,-2.6155612846,4.5639056519\C,0,3.0334401648,-1.3
 423088328,4.0127878991\C,0,2.8207652259,-0.267288042,4.8974394428\C,0,
 2.8122320595,-0.456315301,6.2857986749\H,0,3.0370378429,-1.8874868437,
 7.9018579808\H,0,3.4843115814,-3.8050967705,6.3597488071\H,0,3.4896278
 33,-3.4667517852,3.908432251\H,0,2.6784714972,0.7398557226,4.485254858
 4\H,0,2.6380476754,0.395624247,6.9511092338\N,0,-4.1847876679,-2.14928
 72744,2.8666992873\H,0,-3.6655750019,-2.0701407973,0.7889898279\C,0,-5
 .3685484648,-2.9871056388,2.630360387\C,0,-4.6165116104,-0.7555268028,
 3.008453853\H,0,-5.9155514228,-2.7060012445,1.7019320818\H,0,-5.077378
 4448,-4.0459065445,2.5609115373\H,0,-6.059327135,-2.8712531555,3.48227
 67485\H,0,-5.1259621951,-0.3576179992,2.1000820424\H,0,-5.3329599849,-
 0.690518876,3.84429014\H,0,-3.7601514201,-0.1085326114,3.2539834523\C,
 0,-1.8720270274,-6.454054718,1.4531179157\C,0,-1.9053792206,-5.8215145
 544,2.7074848941\C,0,-2.3530588924,-4.4988070219,2.8221285112\C,0,-2.7
 62155525,-3.7840303487,1.6811162209\C,0,-2.7574689565,-4.4350255137,0.
 4378592944\C,0,-2.3119162751,-5.7591076246,0.317438372\H,0,-1.52049937
 57,-7.487231052,1.3669518776\H,0,-2.4172654174,-4.0209360926,3.8041736
 44\H,0,-3.1107964782,-3.9032260514,-0.4480675355\C,0,-4.3483604872,3.6
 720364444,2.6371147118\F,0,-5.1654603124,4.754843301,2.6362075035\F,0,
 -5.0963171815,2.5838312481,2.9831088646\F,0,-3.430971252,3.8504852574,
 3.6278713482\C,0,-2.7049377989,5.4534932438,-1.776959621\F,0,-1.864602
 5466,5.1683737338,-2.797300066\F,0,-3.9104716506,5.79598024,-2.3094839
 01\F,0,-2.2283192333,6.5570677525,-1.1332732558\C,0,-7.000218341,-0.72
 36222767,-1.0019453784\F,0,-7.930472567,-1.4043976962,-1.7150529314\F,
 0,-7.2176058291,-0.9995037288,0.3218835292\F,0,-7.2306813855,0.6048971
 466,-1.164350329\C,0,-3.725208196,-3.7147673658,-3.4186695342\F,0,-3.6
 917019832,-4.8586614228,-2.6607314675\F,0,-4.6863538707,-3.8969880219,
 -4.3581612055\F,0,-2.5285141455,-3.6186496868,-4.0450583987\C,0,6.2706
 408306,0.9929792709,-3.4906452751\F,0,6.1977194743,2.1979538593,-2.861
 965414\F,0,7.5771801158,0.6088701403,-3.4989378553\F,0,5.8972385533,1.
 1856759942,-4.7813650444\C,0,5.3404431236,-3.7816594721,-2.2105613129\
 F,0,6.2612193686,-3.9808230736,-1.2164316759\F,0,4.2993308022,-4.61914
 58671,-1.9609899813\F,0,5.9271108635,-4.1735062701,-3.3703635022\C,0,5
 .1428737844,3.1131447537,1.9708891399\F,0,6.1381719974,2.361597496,1.4
 362867934\F,0,5.5472595848,4.4075078224,1.9715398048\F,0,5.0109395197,
 2.7356580947,3.2824168724\C,0,0.7026944517,4.9427975072,0.413556628\F,
 0,1.2059677071,6.1296859006,0.8312257922\F,0,0.2607000981,5.0957466167
 ,-0.8618526599\F,0,-0.3866172187,4.6606450023,1.1873758069\H,0,-1.5885
 71914,-6.3661015346,3.6033703265\H,0,-2.3192390275,-6.240311271,-0.665
 7603175\H,0,-0.1928529826,-4.2794863285,1.0550924728\H,0,1.4090479514,
 -3.4766584211,3.0705024283\\Version=ES64L-G09RevE.01\State=1-A\HF=-666
 9.0476573\RMSD=1.101e-09\Dipole=0.3093695,-2.2339101,4.7892425\Quadrup
 ole=-4.1010826,10.4832194,-6.3821368,4.0317778,9.6068481,-2.3290695\PG
 =C01 [X(C60H42Cl2F24Fe1N2P2Pd1)]\\@


 MICHAEL FARADAY, ASKED BY A POLITICIAN WHAT GOOD
 HIS ELECTRICAL DISCOVERIES WERE, REPLIED 
 "AT PRESENT I DO NOT KNOW, BUT ONE DAY YOU WILL BE
 ABLE TO TAX THEM."
 Job cpu time:       1 days  3 hours 55 minutes  3.6 seconds.
 File lengths (MBytes):  RWF=   5064 Int=      0 D2E=      0 Chk=    696 Scr=      1
 Normal termination of Gaussian 09 at Thu Dec  2 16:50:34 2021.
