 Entering Gaussian System, Link 0=/uufs/chpc.utah.edu/sys/installdir/gaussian16/B01/E6B/g16/g16
 Input=M003_1_1_SPE.com
 Output=M003_1_1_SPE.log
 Initial command:
 /uufs/chpc.utah.edu/sys/installdir/gaussian16/B01/E6B/g16/l1.exe "/scratch/general/lustre/u6034117/4325308/notchpeak.peaks/Gau-295100.inp" -scrdir="/scratch/general/lustre/u6034117/4325308/notchpeak.peaks/"
 Entering Link 1 = /uufs/chpc.utah.edu/sys/installdir/gaussian16/B01/E6B/g16/l1.exe PID=    295102.
  
 Copyright (c) 1988-2017, Gaussian, Inc.  All Rights Reserved.
  
 This is part of the Gaussian(R) 16 program.  It is based on
 the Gaussian(R) 09 system (copyright 2009, Gaussian, Inc.),
 the Gaussian(R) 03 system (copyright 2003, Gaussian, Inc.),
 the Gaussian(R) 98 system (copyright 1998, Gaussian, Inc.),
 the Gaussian(R) 94 system (copyright 1995, Gaussian, Inc.),
 the Gaussian 92(TM) system (copyright 1992, Gaussian, Inc.),
 the Gaussian 90(TM) system (copyright 1990, Gaussian, Inc.),
 the Gaussian 88(TM) system (copyright 1988, Gaussian, Inc.),
 the Gaussian 86(TM) system (copyright 1986, Carnegie Mellon
 University), and the Gaussian 82(TM) system (copyright 1983,
 Carnegie Mellon University). Gaussian is a federally registered
 trademark of Gaussian, Inc.
  
 This software contains proprietary and confidential information,
 including trade secrets, belonging to Gaussian, Inc.
  
 This software is provided under written license and may be
 used, copied, transmitted, or stored only in accord with that
 written license.
  
 The following legend is applicable only to US Government
 contracts under FAR:
  
                    RESTRICTED RIGHTS LEGEND
  
 Use, reproduction and disclosure by the US Government is
 subject to restrictions as set forth in subparagraphs (a)
 and (c) of the Commercial Computer Software - Restricted
 Rights clause in FAR 52.227-19.
  
 Gaussian, Inc.
 340 Quinnipiac St., Bldg. 40, Wallingford CT 06492
  
  
 ---------------------------------------------------------------
 Warning -- This program may not be used in any manner that
 competes with the business of Gaussian, Inc. or will provide
 assistance to any competitor of Gaussian, Inc.  The licensee
 of this program is prohibited from giving any competitor of
 Gaussian, Inc. access to this program.  By using this program,
 the user acknowledges that Gaussian, Inc. is engaged in the
 business of creating and licensing software in the field of
 computational chemistry and represents and warrants to the
 licensee that it is not a competitor of Gaussian, Inc. and that
 it will not use this program in any manner prohibited above.
 ---------------------------------------------------------------
  

 Cite this work as:
 Gaussian 16, Revision B.01,
 M. J. Frisch, G. W. Trucks, H. B. Schlegel, G. E. Scuseria, 
 M. A. Robb, J. R. Cheeseman, G. Scalmani, V. Barone, 
 G. A. Petersson, H. Nakatsuji, X. Li, M. Caricato, A. V. Marenich, 
 J. Bloino, B. G. Janesko, R. Gomperts, B. Mennucci, H. P. Hratchian, 
 J. V. Ortiz, A. F. Izmaylov, J. L. Sonnenberg, D. Williams-Young, 
 F. Ding, F. Lipparini, F. Egidi, J. Goings, B. Peng, A. Petrone, 
 T. Henderson, D. Ranasinghe, V. G. Zakrzewski, J. Gao, N. Rega, 
 G. Zheng, W. Liang, M. Hada, M. Ehara, K. Toyota, R. Fukuda, 
 J. Hasegawa, M. Ishida, T. Nakajima, Y. Honda, O. Kitao, H. Nakai, 
 T. Vreven, K. Throssell, J. A. Montgomery, Jr., J. E. Peralta, 
 F. Ogliaro, M. J. Bearpark, J. J. Heyd, E. N. Brothers, K. N. Kudin, 
 V. N. Staroverov, T. A. Keith, R. Kobayashi, J. Normand, 
 K. Raghavachari, A. P. Rendell, J. C. Burant, S. S. Iyengar, 
 J. Tomasi, M. Cossi, J. M. Millam, M. Klene, C. Adamo, R. Cammi, 
 J. W. Ochterski, R. L. Martin, K. Morokuma, O. Farkas, 
 J. B. Foresman, and D. J. Fox, Gaussian, Inc., Wallingford CT, 2016.
 
 ******************************************
 Gaussian 16:  ES64L-G16RevB.01 20-Dec-2017
                29-Apr-2022 
 ******************************************
 %NProcShared=52
 Will use up to   52 processors via shared memory.
 %mem=128GB
 %chk=M003_1_1_SPE.chk
 ----------------------------------------------------------------------
 # PBE1PBE gen pseudo=read int=(grid=ultrafine) empiricaldispersion=GD3
 BJ nmr=giao
 ----------------------------------------------------------------------
 1/38=1,172=1/1;
 2/12=2,17=6,18=5,40=1/2;
 3/5=7,11=2,16=1,17=8,25=1,30=1,74=-13,75=-5,124=41/1,2,3,8;
 4//1;
 5/5=2,38=5/2;
 8/6=1,10=90,11=11/1;
 10/13=100,45=16/2;
 6/7=2,8=2,9=2,10=2,28=1/1;
 99/9=1/99;
 --------------
 M003_1_1 title
 --------------
 Symbolic Z-matrix:
 Charge =  0 Multiplicity = 1
 Fe                   -0.02076  -1.51944   1.69199 
 P                     1.79684  -0.09406  -0.772 
 P                    -1.7813    0.29626  -0.54041 
 C                     1.5041   -1.43709   0.41351 
 C                     0.57901  -2.48507   0.01696 
 C                     0.49376  -3.43767   1.07707 
 C                     1.33956  -2.9935    2.13661 
 C                     1.99303  -1.7656    1.75217 
 C                    -1.53213  -0.30343   1.17499 
 C                    -2.05211  -1.41843   1.9684 
 C                    -1.36987  -1.3769    3.23725 
 C                    -0.47317  -0.26671   3.26244 
 C                    -0.56086   0.39688   1.99967 
 C                     3.35691  -0.61979  -1.58895 
 C                     4.19119   0.32547  -2.2116 
 C                     5.38812  -0.08864  -2.80972 
 C                     5.7594   -1.43914  -2.80285 
 C                     4.91748  -2.37816  -2.19387 
 C                     3.71622  -1.97521  -1.59571 
 C                     2.28827   1.48347   0.04782 
 C                     3.55686   1.67007   0.63085 
 C                     3.90007   2.9263    1.15098 
 C                     2.9924    3.99641   1.10971 
 C                     1.73842   3.80774   0.52311 
 C                     1.3949    2.56331  -0.02484 
 C                    -2.4447    1.98486  -0.18355 
 C                    -3.11315   2.20833   1.03146 
 C                    -3.64582   3.47108   1.32499 
 C                    -3.49852   4.52613   0.41965 
 C                    -2.82332   4.30297  -0.78937 
 C                    -2.30131   3.04206  -1.10173 
 C                    -3.22423  -0.629    -1.20723 
 C                    -4.54206  -0.25845  -0.90631 
 C                    -5.61175  -1.02043  -1.39912 
 C                    -5.37745  -2.14596  -2.19768 
 C                    -4.05826  -2.49413  -2.52 
 C                    -2.98428  -1.73624  -2.03676 
 H                     0.02295  -2.50017  -0.92187 
 H                     0.01552   1.27036   1.6953 
 H                     3.91804   1.38211  -2.22945 
 H                     6.69845  -1.75459  -3.26459 
 H                     3.07121  -2.72321  -1.13008 
 H                     4.26133   0.83082   0.67245 
 H                     3.27208   4.97404   1.50888 
 H                     0.43758   2.43722  -0.54267 
 H                    -3.22422   1.40012   1.75761 
 H                    -3.89903   5.5157    0.65489 
 H                    -1.79828   2.87243  -2.05852 
 H                    -4.7473    0.6255   -0.29644 
 H                    -6.21276  -2.73849  -2.57624 
 H                    -1.95929  -1.98957  -2.32397 
 Cl                    1.49113   0.70739  -3.83962 
 Cl                   -1.81566   0.87115  -3.61133 
 Pd                   -0.0538    0.35232  -2.09162 
 C                     3.04149  -1.01566   2.54553 
 H                     0.21825  -0.02216   4.06884 
 H                    -1.51048  -2.10268   4.0365 
 C                    -3.21294  -2.36854   1.70053 
 H                     2.82742   0.06414   2.43043 
 N                     4.38161  -1.19608   1.91618 
 C                     5.43607  -0.53247   2.68784 
 C                     4.78124  -2.5699    1.61023 
 H                     6.33804  -0.44202   2.05882 
 H                     5.11544   0.47775   2.98307 
 H                     5.70723  -1.08499   3.61413 
 H                     5.62754  -2.54672   0.904 
 H                     5.10743  -3.14486   2.50574 
 H                     3.95639  -3.11426   1.12651 
 C                     2.96234  -1.651     6.85818 
 C                     3.25257  -2.72747   6.00791 
 C                     3.26896  -2.5492    4.61736 
 C                     2.99132  -1.28891   4.04866 
 C                     2.73309  -0.21203   4.91854 
 C                     2.70713  -0.387     6.30857 
 H                     2.94714  -1.79445   7.94318 
 H                     3.47059  -3.71473   6.42843 
 H                     3.50446  -3.40153   3.97427 
 H                     2.56139   0.78507   4.49351 
 H                     2.49683   0.46612   6.96183 
 N                    -4.22413  -2.20615   2.77742 
 H                    -3.64953  -2.1096    0.7145 
 C                    -5.40157  -3.03866   2.49607 
 C                    -4.65811  -0.81437   2.93372 
 H                    -5.92478  -2.74102   1.55928 
 H                    -5.10878  -4.09627   2.41549 
 H                    -6.1142   -2.93762   3.33175 
 H                    -5.1472   -0.39981   2.0222 
 H                    -5.39303  -0.76467   3.7545 
 H                    -3.80749  -0.17233   3.21 
 C                    -1.84435  -6.48722   1.40869 
 C                    -2.21187  -5.77498   0.25796 
 C                    -2.66978  -4.45456   0.37006 
 C                    -2.75949  -3.82415   1.62085 
 C                    -2.41752  -4.55414   2.77405 
 C                    -1.9577   -5.87356   2.66764 
 H                    -1.48447  -7.51805   1.32923 
 H                    -2.95342  -3.90548  -0.53 
 H                    -2.54582  -4.08972   3.75649 
 C                    -4.31405   3.67722   2.66233 
 F                    -5.04843   2.58348   3.01893 
 F                    -3.39415   3.87291   3.64746 
 F                    -5.14269   4.75135   2.65764 
 C                    -2.67751   5.45777  -1.75495 
 F                    -3.88083   5.78717  -2.30042 
 F                    -2.21764   6.56721  -1.10951 
 F                    -1.82455   5.17787  -2.76632 
 C                    -7.01561  -0.63477  -1.00111 
 F                    -7.95244  -1.24799  -1.76555 
 F                    -7.26543  -0.97789   0.30112 
 F                    -7.20525   0.70679  -1.09311 
 C                    -3.77016  -3.66685  -3.42784 
 F                    -2.73793  -4.42099  -2.93331 
 F                    -4.84594  -4.48481  -3.55801 
 F                    -3.40265  -3.26102  -4.66621 
 C                     6.2518    0.92766  -3.51894 
 F                     7.55992   0.54896  -3.52843 
 F                     5.86773   1.08942  -4.81074 
 F                     6.17829   2.14624  -2.91716 
 C                     5.36073  -3.8162   -2.10162 
 F                     4.32609  -4.65396  -1.82656 
 F                     5.94916  -4.23732  -3.25024 
 F                     6.28377  -3.97968  -1.10313 
 C                     5.24554   3.13341   1.80579 
 F                     5.6696    4.4168    1.68997 
 F                     5.18073   2.85528   3.14555 
 F                     6.19751   2.3262    1.27326 
 C                     0.72057   4.92188   0.46261 
 F                     0.27208   5.10226  -0.80724 
 F                    -0.36436   4.61658   1.23391 
 F                     1.21984   6.10156   0.90459 
 H                    -2.14963  -6.23931  -0.73157 
 H                    -1.69451  -6.43048   3.57323 
 H                    -0.1581   -4.3085    1.10115 
 H                     1.41934  -3.46075   3.11666 
 
 Stoichiometry    C60H42Cl2F24FeN2P2Pd
 Framework group  C1[X(C60H42Cl2F24FeN2P2Pd)]
 Deg. of freedom   396
 Full point group                 C1      NOp   1
 Largest Abelian subgroup         C1      NOp   1
 Largest concise Abelian subgroup C1      NOp   1
                         Standard orientation:                         
 ---------------------------------------------------------------------
 Center     Atomic      Atomic             Coordinates (Angstroms)
 Number     Number       Type             X           Y           Z
 ---------------------------------------------------------------------
      1         26           0       -0.034051   -1.566711    1.650015
      2         15           0        1.783403   -0.076026   -0.775131
      3         15           0       -1.795801    0.301034   -0.538057
      4          6           0        1.492094   -1.449075    0.375833
      5          6           0        0.569630   -2.488623   -0.048084
      6          6           0        0.485145   -3.467788    0.987605
      7          6           0        1.328805   -3.048718    2.059003
      8          6           0        1.980175   -1.810192    1.706384
      9          6           0       -1.547343   -0.341152    1.161991
     10          6           0       -2.065922   -1.476846    1.926450
     11          6           0       -1.385221   -1.465890    3.196764
     12          6           0       -0.490853   -0.354859    3.250972
     13          6           0       -0.578470    0.340149    2.005204
     14          6           0        3.345495   -0.577824   -1.603194
     15          6           0        4.178522    0.384512   -2.200843
     16          6           0        5.376996   -0.011955   -2.807772
     17          6           0        5.751057   -1.361443   -2.834464
     18          6           0        4.910396   -2.317214   -2.250330
     19          6           0        3.707615   -1.931907   -1.643648
     20          6           0        2.270635    1.481359    0.084743
     21          6           0        3.538164    1.655811    0.673802
     22          6           0        3.878173    2.899240    1.225809
     23          6           0        2.968341    3.968196    1.210416
     24          6           0        1.715425    3.791794    0.617750
     25          6           0        1.375110    2.560859    0.038226
     26          6           0       -2.463096    1.978758   -0.139583
     27          6           0       -3.133402    2.170193    1.079867
     28          6           0       -3.669016    3.424061    1.404470
     29          6           0       -3.522874    4.501874    0.526155
     30          6           0       -2.845830    4.310605   -0.687288
     31          6           0       -2.320854    3.059030   -1.030681
     32          6           0       -3.236044   -0.610085   -1.229685
     33          6           0       -4.554978   -0.249915   -0.921114
     34          6           0       -5.622530   -1.001425   -1.434224
     35          6           0       -5.384987   -2.106007   -2.260598
     36          6           0       -4.064706   -2.443263   -2.590007
     37          6           0       -2.992858   -1.695589   -2.086554
     38          1           0        0.014680   -2.481207   -0.987656
     39          1           0       -0.003555    1.222188    1.723618
     40          1           0        3.903211    1.440710   -2.192407
     41          1           0        6.691288   -1.663244   -3.302884
     42          1           0        3.063623   -2.692713   -1.197782
     43          1           0        4.244325    0.817221    0.695094
     44          1           0        3.245539    4.936025    1.634408
     45          1           0        0.418647    2.445902   -0.483751
     46          1           0       -3.243628    1.343728    1.785301
     47          1           0       -3.925695    5.484385    0.785759
     48          1           0       -1.816376    2.914582   -1.990836
     49          1           0       -4.762745    0.617971   -0.289422
     50          1           0       -6.218628   -2.690522   -2.654956
     51          1           0       -1.967013   -1.939507   -2.378825
     52         17           0        1.479541    0.801800   -3.821957
     53         17           0       -1.827836    0.953007   -3.593568
     54         46           0       -0.066645    0.399668   -2.085296
     55          6           0        3.026167   -1.078335    2.519631
     56          1           0        0.199139   -0.129282    4.064100
     57          1           0       -1.525244   -2.211846    3.977311
     58          6           0       -3.224475   -2.422268    1.633354
     59          1           0        2.809997    0.003581    2.431503
     60          7           0        4.367375   -1.240108    1.887534
     61          6           0        5.419581   -0.593993    2.676924
     62          6           0        4.770204   -2.604973    1.547568
     63          1           0        6.322078   -0.485892    2.051459
     64          1           0        5.096518    0.407808    2.997117
     65          1           0        5.690820   -1.169115    3.589323
     66          1           0        5.617260   -2.562284    0.843158
     67          1           0        5.096560   -3.201639    2.428700
     68          1           0        3.947035   -3.138658    1.049302
     69          6           0        2.943407   -1.822247    6.814818
     70          6           0        3.236836   -2.876366    5.938053
     71          6           0        3.254448   -2.663096    4.552451
     72          6           0        2.974850   -1.389458    4.015338
     73          6           0        2.713392   -0.335358    4.911751
     74          6           0        2.686201   -0.545331    6.296902
     75          1           0        2.927257   -1.993003    7.895834
     76          1           0        3.456414   -3.873458    6.333839
     77          1           0        3.492441   -3.498478    3.888389
     78          1           0        2.540114    0.671780    4.511757
     79          1           0        2.473396    0.290641    6.971185
     80          7           0       -4.237226   -2.289117    2.712784
     81          1           0       -3.660472   -2.139475    0.653640
     82          6           0       -5.412626   -3.116681    2.409157
     83          6           0       -4.674270   -0.902601    2.903561
     84          1           0       -5.935373   -2.796609    1.479528
     85          1           0       -5.117548   -4.171323    2.302311
     86          1           0       -6.126418   -3.038176    3.246263
     87          1           0       -5.163179   -0.466217    2.002189
     88          1           0       -5.410232   -0.875090    3.724459
     89          1           0       -3.825295   -0.265990    3.196936
     90          6           0       -1.847027   -6.529490    1.239534
     91          6           0       -2.214710   -5.789254    0.106658
     92          6           0       -2.675471   -4.473014    0.251429
     93          6           0       -2.767925   -3.874485    1.517590
     94          6           0       -2.425755   -4.632583    2.652447
     95          6           0       -1.963085   -5.947965    2.513395
     96          1           0       -1.484922   -7.557260    1.134567
     97          1           0       -2.959227   -3.902022   -0.634854
     98          1           0       -2.556146   -4.193320    3.646117
     99          6           0       -4.339208    3.595090    2.745777
    100          9           0       -5.071720    2.491212    3.073846
    101          9           0       -3.420835    3.767789    3.736615
    102          9           0       -5.170063    4.667298    2.767141
    103          6           0       -2.701302    5.489652   -1.623305
    104          9           0       -3.904676    5.830232   -2.161753
    105          9           0       -2.244474    6.583426   -0.949587
    106          9           0       -1.846608    5.237056   -2.640391
    107          6           0       -7.027636   -0.628786   -1.028314
    108          9           0       -7.962321   -1.224468   -1.809074
    109          9           0       -7.278233   -1.005098    0.264569
    110          9           0       -7.219947    0.714277   -1.086724
    111          6           0       -3.773144   -3.592150   -3.526740
    112          9           0       -2.739917   -4.356403   -3.050132
    113          9           0       -4.847074   -4.408769   -3.678759
    114          9           0       -3.405057   -3.154518   -4.754065
    115          6           0        6.239380    1.023647   -3.490141
    116          9           0        7.548285    0.647970   -3.507601
    117          9           0        5.856452    1.217105   -4.777914
    118          9           0        6.162661    2.226531   -2.857954
    119          6           0        5.356514   -3.756218   -2.193792
    120          9           0        4.323295   -4.602745   -1.941151
    121          9           0        5.947130   -4.147073   -3.351948
    122          9           0        6.278753   -3.942908   -1.198638
    123          6           0        5.222462    3.092541    1.887233
    124          9           0        5.644002    4.379303    1.804279
    125          9           0        5.156702    2.780625    3.219491
    126          9           0        6.176712    2.300945    1.335688
    127          6           0        0.695343    4.905024    0.584116
    128          9           0        0.247927    5.116410   -0.681327
    129          9           0       -0.389838    4.578189    1.346184
    130          9           0        1.191656    6.074217    1.056257
    131          1           0       -2.150374   -6.228391   -0.894171
    132          1           0       -1.699782   -6.526979    3.404988
    133          1           0       -0.164943   -4.340280    0.988970
    134          1           0        1.408431   -3.540340    3.027065
 ---------------------------------------------------------------------
 Rotational constants (GHZ):           0.0212593           0.0156293           0.0139220
 General basis read from cards:  (5D, 7F)
 ======================================================================================================
                                       Pseudopotential Parameters
 ======================================================================================================
  Center     Atomic      Valence      Angular      Power
  Number     Number     Electrons     Momentum     of R      Exponent        Coefficient   SO-Coeffient
 ======================================================================================================
    1         26           16
                                      F and up 
                                                     2        1.0000000        0.00000000    0.00000000
                                      S - F
                                                     2       20.9300000      253.74958800    0.00000000
                                                     2        9.4450000       37.92284500    0.00000000
                                      P - F
                                                     2       21.7600000      161.03681200    0.00000000
                                                     2        9.1780000       27.65129800    0.00000000
                                      D - F
                                                     2       25.9000000      -24.43127600    0.00000000
                                                     2        8.8350000       -1.43425100    0.00000000
    2         15
                                   No pseudopotential on this center.
    3         15
                                   No pseudopotential on this center.
    4          6
                                   No pseudopotential on this center.
    5          6
                                   No pseudopotential on this center.
    6          6
                                   No pseudopotential on this center.
    7          6
                                   No pseudopotential on this center.
    8          6
                                   No pseudopotential on this center.
    9          6
                                   No pseudopotential on this center.
   10          6
                                   No pseudopotential on this center.
   11          6
                                   No pseudopotential on this center.
   12          6
                                   No pseudopotential on this center.
   13          6
                                   No pseudopotential on this center.
   14          6
                                   No pseudopotential on this center.
   15          6
                                   No pseudopotential on this center.
   16          6
                                   No pseudopotential on this center.
   17          6
                                   No pseudopotential on this center.
   18          6
                                   No pseudopotential on this center.
   19          6
                                   No pseudopotential on this center.
   20          6
                                   No pseudopotential on this center.
   21          6
                                   No pseudopotential on this center.
   22          6
                                   No pseudopotential on this center.
   23          6
                                   No pseudopotential on this center.
   24          6
                                   No pseudopotential on this center.
   25          6
                                   No pseudopotential on this center.
   26          6
                                   No pseudopotential on this center.
   27          6
                                   No pseudopotential on this center.
   28          6
                                   No pseudopotential on this center.
   29          6
                                   No pseudopotential on this center.
   30          6
                                   No pseudopotential on this center.
   31          6
                                   No pseudopotential on this center.
   32          6
                                   No pseudopotential on this center.
   33          6
                                   No pseudopotential on this center.
   34          6
                                   No pseudopotential on this center.
   35          6
                                   No pseudopotential on this center.
   36          6
                                   No pseudopotential on this center.
   37          6
                                   No pseudopotential on this center.
   38          1
                                   No pseudopotential on this center.
   39          1
                                   No pseudopotential on this center.
   40          1
                                   No pseudopotential on this center.
   41          1
                                   No pseudopotential on this center.
   42          1
                                   No pseudopotential on this center.
   43          1
                                   No pseudopotential on this center.
   44          1
                                   No pseudopotential on this center.
   45          1
                                   No pseudopotential on this center.
   46          1
                                   No pseudopotential on this center.
   47          1
                                   No pseudopotential on this center.
   48          1
                                   No pseudopotential on this center.
   49          1
                                   No pseudopotential on this center.
   50          1
                                   No pseudopotential on this center.
   51          1
                                   No pseudopotential on this center.
   52         17
                                   No pseudopotential on this center.
   53         17
                                   No pseudopotential on this center.
   54         46           18
                                      G and up 
                                                     2        1.0000000        0.00000000    0.00000000
                                      S - G
                                                     2       12.4300000      240.22904000    0.00000000
                                                     2        6.1707590       35.17194300    0.00000000
                                      P - G
                                                     2       11.0800000      170.41727600    0.00000000
                                                     2        5.8295540       28.47213300    0.00000000
                                      D - G
                                                     2        9.5100000       69.01384500    0.00000000
                                                     2        4.1397810       11.75086200    0.00000000
                                      F - G
                                                     2       13.2700000      -31.92955400    0.00000000
                                                     2        6.6300000       -5.39821700    0.00000000
   55          6
                                   No pseudopotential on this center.
   56          1
                                   No pseudopotential on this center.
   57          1
                                   No pseudopotential on this center.
   58          6
                                   No pseudopotential on this center.
   59          1
                                   No pseudopotential on this center.
   60          7
                                   No pseudopotential on this center.
   61          6
                                   No pseudopotential on this center.
   62          6
                                   No pseudopotential on this center.
   63          1
                                   No pseudopotential on this center.
   64          1
                                   No pseudopotential on this center.
   65          1
                                   No pseudopotential on this center.
   66          1
                                   No pseudopotential on this center.
   67          1
                                   No pseudopotential on this center.
   68          1
                                   No pseudopotential on this center.
   69          6
                                   No pseudopotential on this center.
   70          6
                                   No pseudopotential on this center.
   71          6
                                   No pseudopotential on this center.
   72          6
                                   No pseudopotential on this center.
   73          6
                                   No pseudopotential on this center.
   74          6
                                   No pseudopotential on this center.
   75          1
                                   No pseudopotential on this center.
   76          1
                                   No pseudopotential on this center.
   77          1
                                   No pseudopotential on this center.
   78          1
                                   No pseudopotential on this center.
   79          1
                                   No pseudopotential on this center.
   80          7
                                   No pseudopotential on this center.
   81          1
                                   No pseudopotential on this center.
   82          6
                                   No pseudopotential on this center.
   83          6
                                   No pseudopotential on this center.
   84          1
                                   No pseudopotential on this center.
   85          1
                                   No pseudopotential on this center.
   86          1
                                   No pseudopotential on this center.
   87          1
                                   No pseudopotential on this center.
   88          1
                                   No pseudopotential on this center.
   89          1
                                   No pseudopotential on this center.
   90          6
                                   No pseudopotential on this center.
   91          6
                                   No pseudopotential on this center.
   92          6
                                   No pseudopotential on this center.
   93          6
                                   No pseudopotential on this center.
   94          6
                                   No pseudopotential on this center.
   95          6
                                   No pseudopotential on this center.
   96          1
                                   No pseudopotential on this center.
   97          1
                                   No pseudopotential on this center.
   98          1
                                   No pseudopotential on this center.
   99          6
                                   No pseudopotential on this center.
  100          9
                                   No pseudopotential on this center.
  101          9
                                   No pseudopotential on this center.
  102          9
                                   No pseudopotential on this center.
  103          6
                                   No pseudopotential on this center.
  104          9
                                   No pseudopotential on this center.
  105          9
                                   No pseudopotential on this center.
  106          9
                                   No pseudopotential on this center.
  107          6
                                   No pseudopotential on this center.
  108          9
                                   No pseudopotential on this center.
  109          9
                                   No pseudopotential on this center.
  110          9
                                   No pseudopotential on this center.
  111          6
                                   No pseudopotential on this center.
  112          9
                                   No pseudopotential on this center.
  113          9
                                   No pseudopotential on this center.
  114          9
                                   No pseudopotential on this center.
  115          6
                                   No pseudopotential on this center.
  116          9
                                   No pseudopotential on this center.
  117          9
                                   No pseudopotential on this center.
  118          9
                                   No pseudopotential on this center.
  119          6
                                   No pseudopotential on this center.
  120          9
                                   No pseudopotential on this center.
  121          9
                                   No pseudopotential on this center.
  122          9
                                   No pseudopotential on this center.
  123          6
                                   No pseudopotential on this center.
  124          9
                                   No pseudopotential on this center.
  125          9
                                   No pseudopotential on this center.
  126          9
                                   No pseudopotential on this center.
  127          6
                                   No pseudopotential on this center.
  128          9
                                   No pseudopotential on this center.
  129          9
                                   No pseudopotential on this center.
  130          9
                                   No pseudopotential on this center.
  131          1
                                   No pseudopotential on this center.
  132          1
                                   No pseudopotential on this center.
  133          1
                                   No pseudopotential on this center.
  134          1
                                   No pseudopotential on this center.
 ======================================================================================================
 There are  3604 symmetry adapted cartesian basis functions of A   symmetry.
 There are  3145 symmetry adapted basis functions of A   symmetry.
  3145 basis functions,  5138 primitive gaussians,  3604 cartesian basis functions
   365 alpha electrons      365 beta electrons
       nuclear repulsion energy     23396.4821891934 Hartrees.
 NAtoms=  134 NActive=  134 NUniq=  134 SFac= 1.00D+00 NAtFMM=   60 NAOKFM=T Big=T
 Integral buffers will be    131072 words long.
 Raffenetti 2 integral format.
 Two-electron integral symmetry is turned on.
 Nuclear repulsion after empirical dispersion term =    23396.2307108222 Hartrees.
 One-electron integrals computed using PRISM.
   1 Symmetry operations used in ECPInt.
 ECPInt:  NShTT=  714610 NPrTT= 2256810 LenC2=  450024 LenP2D=  875917.
 LDataN:  DoStor=T MaxTD1= 7 Len=  274
 Number of processors reduced to  35 by ecpmxn.
 NBasis=  3145 RedAO= T EigKep=  3.08D-06  NBF=  3145
 NBsUse=  3145 1.00D-06 EigRej= -1.00D+00 NBFU=  3145
 Defaulting to unpruned grid for atomic number  46.
 ExpMin= 1.00D-02 ExpMax= 6.95D+04 ExpMxC= 2.37D+03 IAcc=3 IRadAn=         5 AccDes= 0.00D+00
 Harris functional with IExCor= 1009 and IRadAn=       5 diagonalized for initial guess.
 HarFok:  IExCor= 1009 AccDes= 0.00D+00 IRadAn=         5 IDoV= 1 UseB2=F ITyADJ=14
 ICtDFT=  3500011 ScaDFX=  1.000000  1.000000  1.000000  1.000000
 Defaulting to unpruned grid for atomic number  46.
 FoFCou: FMM=F IPFlag=           0 FMFlag=      100000 FMFlg1=        2001
         NFxFlg=           0 DoJE=T BraDBF=F KetDBF=T FulRan=T
         wScrn=  0.000000 ICntrl=       500 IOpCl=  0 I1Cent=   200000004 NGrid=           0
         NMat0=    1 NMatS0=      1 NMatT0=    0 NMatD0=    1 NMtDS0=    0 NMtDT0=    0
 Petite list used in FoFCou.
 Requested convergence on RMS density matrix=1.00D-08 within 128 cycles.
 Requested convergence on MAX density matrix=1.00D-06.
 Requested convergence on             energy=1.00D-06.
 No special actions if energy rises.
 Defaulting to unpruned grid for atomic number  46.
 Defaulting to unpruned grid for atomic number  46.
 Defaulting to unpruned grid for atomic number  46.
 Defaulting to unpruned grid for atomic number  46.
 Defaulting to unpruned grid for atomic number  46.
 Defaulting to unpruned grid for atomic number  46.
 Defaulting to unpruned grid for atomic number  46.
 Defaulting to unpruned grid for atomic number  46.
 Defaulting to unpruned grid for atomic number  46.
 Defaulting to unpruned grid for atomic number  46.
 Defaulting to unpruned grid for atomic number  46.
 Defaulting to unpruned grid for atomic number  46.
 Defaulting to unpruned grid for atomic number  46.
 Defaulting to unpruned grid for atomic number  46.
 Defaulting to unpruned grid for atomic number  46.
 Defaulting to unpruned grid for atomic number  46.
 Defaulting to unpruned grid for atomic number  46.
 Defaulting to unpruned grid for atomic number  46.
 Defaulting to unpruned grid for atomic number  46.
 Defaulting to unpruned grid for atomic number  46.
 Defaulting to unpruned grid for atomic number  46.
 Defaulting to unpruned grid for atomic number  46.
 Defaulting to unpruned grid for atomic number  46.
 Defaulting to unpruned grid for atomic number  46.
 Defaulting to unpruned grid for atomic number  46.
 Defaulting to unpruned grid for atomic number  46.
 Defaulting to unpruned grid for atomic number  46.
 Defaulting to unpruned grid for atomic number  46.
 Defaulting to unpruned grid for atomic number  46.
 Defaulting to unpruned grid for atomic number  46.
 Defaulting to unpruned grid for atomic number  46.
 Defaulting to unpruned grid for atomic number  46.
 Defaulting to unpruned grid for atomic number  46.
 Defaulting to unpruned grid for atomic number  46.
 Defaulting to unpruned grid for atomic number  46.
 Defaulting to unpruned grid for atomic number  46.
 Defaulting to unpruned grid for atomic number  46.
 Defaulting to unpruned grid for atomic number  46.
 Defaulting to unpruned grid for atomic number  46.
 Defaulting to unpruned grid for atomic number  46.
 Defaulting to unpruned grid for atomic number  46.
 Defaulting to unpruned grid for atomic number  46.
 Defaulting to unpruned grid for atomic number  46.
 Defaulting to unpruned grid for atomic number  46.
 Defaulting to unpruned grid for atomic number  46.
 Defaulting to unpruned grid for atomic number  46.
 Defaulting to unpruned grid for atomic number  46.
 Defaulting to unpruned grid for atomic number  46.
 Defaulting to unpruned grid for atomic number  46.
 Defaulting to unpruned grid for atomic number  46.
 Defaulting to unpruned grid for atomic number  46.
 Defaulting to unpruned grid for atomic number  46.
 EnCoef did     2 forward-backward iterations
 Rare condition: small coef for last iteration:  0.111D-15
 EnCoef did    51 forward-backward iterations
 EnCoef did   100 forward-backward iterations
 EnCoef did   100 forward-backward iterations
 Rare condition: small coef for last iteration:  0.000D+00
 EnCoef did   100 forward-backward iterations
 Rare condition: small coef for last iteration:  0.000D+00
 Restarting incremental Fock formation.
 SCF Done:  E(RPBE1PBE) =  -6669.04805774     A.U. after   29 cycles
            NFock= 29  Conv=0.28D-08     -V/T= 2.0242
 DoSCS=F DFT=T ScalE2(SS,OS)=  1.000000  1.000000
 Range of M.O.s used for correlation:     1  3145
 NBasis=  3145 NAE=   365 NBE=   365 NFC=     0 NFV=     0
 NROrb=   3145 NOA=   365 NOB=   365 NVA=  2780 NVB=  2780

 **** Warning!!: The largest alpha MO coefficient is  0.38945080D+02

          Differentiating once with respect to magnetic field using GIAOs.
          Electric field/nuclear overlap derivatives assumed to be zero.
 Defaulting to unpruned grid for atomic number  46.
 FoFCou: FMM=F IPFlag=           0 FMFlag=      100000 FMFlg1=        2001
         NFxFlg=           0 DoJE=F BraDBF=F KetDBF=T FulRan=T
         wScrn=  0.000000 ICntrl=      6100 IOpCl=  0 I1Cent=           7 NGrid=         134
         NMat0=    1 NMatS0=      1 NMatT0=    0 NMatD0=    1 NMtDS0=    0 NMtDT0=    0
 Symmetry not used in FoFCou.
   1 Symmetry operations used in ECPInt.
 ECPInt:  NShTT=  714610 NPrTT= 2256810 LenC2=  714611 LenP2D= 2256810.
 LDataN:  DoStor=T MaxTD1= 8 Len=  415
 Number of processors reduced to  21 by ecpmxn.
 FoFJK:  IHMeth= 1 ICntrl=    6127 DoSepK=F KAlg= 0 I1Cent=           0 FoldK=F
 IRaf=         1 NMat=       1 IRICut=       1 DoRegI=T DoRafI=F ISym2E= 0 IDoP0=0 IntGTp=1.
 Defaulting to unpruned grid for atomic number  46.
 Defaulting to unpruned grid for atomic number  46.
 Defaulting to unpruned grid for atomic number  46.
 Defaulting to unpruned grid for atomic number  46.
 Defaulting to unpruned grid for atomic number  46.
 Defaulting to unpruned grid for atomic number  46.
 Defaulting to unpruned grid for atomic number  46.
 Defaulting to unpruned grid for atomic number  46.
 Defaulting to unpruned grid for atomic number  46.
 Defaulting to unpruned grid for atomic number  46.
 Defaulting to unpruned grid for atomic number  46.
 Defaulting to unpruned grid for atomic number  46.
 Defaulting to unpruned grid for atomic number  46.
 Defaulting to unpruned grid for atomic number  46.
 Defaulting to unpruned grid for atomic number  46.
 Defaulting to unpruned grid for atomic number  46.
 Defaulting to unpruned grid for atomic number  46.
 Defaulting to unpruned grid for atomic number  46.
 Defaulting to unpruned grid for atomic number  46.
 Defaulting to unpruned grid for atomic number  46.
 Defaulting to unpruned grid for atomic number  46.
 Defaulting to unpruned grid for atomic number  46.
 Defaulting to unpruned grid for atomic number  46.
 Defaulting to unpruned grid for atomic number  46.
 Defaulting to unpruned grid for atomic number  46.
 Defaulting to unpruned grid for atomic number  46.
 Defaulting to unpruned grid for atomic number  46.
 Defaulting to unpruned grid for atomic number  46.
 Defaulting to unpruned grid for atomic number  46.
 Defaulting to unpruned grid for atomic number  46.
 Defaulting to unpruned grid for atomic number  46.
 Defaulting to unpruned grid for atomic number  46.
 Defaulting to unpruned grid for atomic number  46.
 Defaulting to unpruned grid for atomic number  46.
 Defaulting to unpruned grid for atomic number  46.
 Defaulting to unpruned grid for atomic number  46.
 Defaulting to unpruned grid for atomic number  46.
 Defaulting to unpruned grid for atomic number  46.
 Defaulting to unpruned grid for atomic number  46.
 Defaulting to unpruned grid for atomic number  46.
 Defaulting to unpruned grid for atomic number  46.
 Defaulting to unpruned grid for atomic number  46.
 Defaulting to unpruned grid for atomic number  46.
 Defaulting to unpruned grid for atomic number  46.
 Defaulting to unpruned grid for atomic number  46.
 Defaulting to unpruned grid for atomic number  46.
 Defaulting to unpruned grid for atomic number  46.
 Defaulting to unpruned grid for atomic number  46.
 Defaulting to unpruned grid for atomic number  46.
 Defaulting to unpruned grid for atomic number  46.
 Defaulting to unpruned grid for atomic number  46.
 Defaulting to unpruned grid for atomic number  46.
          There are     3 degrees of freedom in the 1st order CPHF.  IDoFFX=0 NUNeed=     3.
      3 vectors produced by pass  0 Test12= 3.38D-11 3.33D-08 XBig12= 5.67D+02 2.81D+00.
 AX will form     3 AO Fock derivatives at one time.
      3 vectors produced by pass  1 Test12= 3.38D-11 3.33D-08 XBig12= 3.00D+00 3.01D-01.
      3 vectors produced by pass  2 Test12= 3.38D-11 3.33D-08 XBig12= 7.02D-02 7.20D-02.
      3 vectors produced by pass  3 Test12= 3.38D-11 3.33D-08 XBig12= 1.78D-03 9.23D-03.
      3 vectors produced by pass  4 Test12= 3.38D-11 3.33D-08 XBig12= 2.67D-05 1.93D-03.
      3 vectors produced by pass  5 Test12= 3.38D-11 3.33D-08 XBig12= 1.06D-06 3.03D-04.
      3 vectors produced by pass  6 Test12= 3.38D-11 3.33D-08 XBig12= 1.24D-08 3.66D-05.
      3 vectors produced by pass  7 Test12= 3.38D-11 3.33D-08 XBig12= 2.85D-10 5.33D-06.
      3 vectors produced by pass  8 Test12= 3.38D-11 3.33D-08 XBig12= 2.80D-12 6.74D-07.
      2 vectors produced by pass  9 Test12= 3.38D-11 3.33D-08 XBig12= 3.56D-14 5.35D-08.
 InvSVY:  IOpt=1 It=  1 EMax= 7.11D-15
 Solved reduced A of dimension    29 with     3 vectors.
 Calculating GIAO nuclear magnetic shielding tensors.
 SCF GIAO Magnetic shielding tensor (ppm):
      1  Fe   Isotropic = -6120.3829   Anisotropy =  7718.6692
   XX= -4181.4659   YX= -3185.4118   ZX= -2213.1570
   XY= -3079.2026   YY= -6624.7965   ZY=  1503.4635
   XZ= -2140.1396   YZ=  1516.3383   ZZ= -7554.8864
   Eigenvalues: -8767.2856 -8619.2597  -974.6034
      2  P    Isotropic =   220.3269   Anisotropy =   109.7778
   XX=   257.6676   YX=   -35.0954   ZX=    31.3267
   XY=   -26.7474   YY=   163.5584   ZY=     4.4403
   XZ=    44.6629   YZ=   -13.5211   ZZ=   239.7545
   Eigenvalues:   153.7258   213.7428   293.5121
      3  P    Isotropic =   237.2738   Anisotropy =   148.2358
   XX=   276.0546   YX=   -24.3169   ZX=   -80.7132
   XY=   -37.7182   YY=   174.9314   ZY=    -8.2294
   XZ=   -49.1001   YZ=    -4.4266   ZZ=   260.8355
   Eigenvalues:   158.4812   217.2426   336.0977
      4  C    Isotropic =   111.3588   Anisotropy =    83.8632
   XX=   130.6394   YX=   -40.3274   ZX=    19.6231
   XY=   -46.5282   YY=   115.5082   ZY=    10.5953
   XZ=     1.6970   YZ=    23.7488   ZZ=    87.9287
   Eigenvalues:    62.9321   103.8766   167.2675
      5  C    Isotropic =    95.9371   Anisotropy =    80.5218
   XX=   122.7609   YX=   -23.6987   ZX=   -32.9706
   XY=   -28.5295   YY=   119.5743   ZY=   -25.7848
   XZ=   -34.4064   YZ=    -5.7912   ZZ=    45.4760
   Eigenvalues:    26.4684   111.7245   149.6182
      6  C    Isotropic =    99.9200   Anisotropy =   107.5513
   XX=   137.8910   YX=   -38.8664   ZX=   -31.4550
   XY=   -47.8847   YY=    63.1797   ZY=    10.1604
   XZ=   -32.1193   YZ=     3.2300   ZZ=    98.6893
   Eigenvalues:    42.2176    85.9215   171.6208
      7  C    Isotropic =   106.0631   Anisotropy =    85.9551
   XX=   131.2660   YX=    -7.2403   ZX=   -39.8319
   XY=    -6.0918   YY=    91.7350   ZY=    58.1829
   XZ=   -22.9430   YZ=    31.4149   ZZ=    95.1883
   Eigenvalues:    44.9589   109.8639   163.3665
      8  C    Isotropic =    86.3635   Anisotropy =    81.4766
   XX=    78.1799   YX=   -32.2743   ZX=   -37.5773
   XY=   -21.9197   YY=    92.4969   ZY=    26.2624
   XZ=   -35.1471   YZ=     9.5477   ZZ=    88.4137
   Eigenvalues:    44.4185    73.9907   140.6812
      9  C    Isotropic =   109.9942   Anisotropy =    78.1578
   XX=   115.1576   YX=    -2.5002   ZX=   -42.8519
   XY=    -9.6856   YY=   103.6166   ZY=    42.0321
   XZ=   -20.6120   YZ=    32.1560   ZZ=   111.2083
   Eigenvalues:    63.4917   104.3915   162.0994
     10  C    Isotropic =    77.2420   Anisotropy =    96.3456
   XX=    66.4984   YX=   -45.0862   ZX=   -16.4315
   XY=   -36.8665   YY=    96.3325   ZY=    29.5179
   XZ=    -8.5357   YZ=    36.9234   ZZ=    68.8952
   Eigenvalues:    34.2126    56.0410   141.4724
     11  C    Isotropic =   108.2382   Anisotropy =    92.9702
   XX=   129.6265   YX=   -43.5825   ZX=     4.1818
   XY=   -31.3589   YY=   127.1159   ZY=    18.8274
   XZ=    -0.4133   YZ=    43.6313   ZZ=    67.9722
   Eigenvalues:    50.4281   104.0682   170.2183
     12  C    Isotropic =   104.8324   Anisotropy =   100.3064
   XX=   136.7365   YX=   -40.2127   ZX=   -24.4915
   XY=   -41.2233   YY=   113.3178   ZY=   -11.2385
   XZ=   -39.5197   YZ=    -4.8095   ZZ=    64.4429
   Eigenvalues:    43.9470    98.8469   171.7033
     13  C    Isotropic =   107.9368   Anisotropy =    81.0279
   XX=   137.7640   YX=   -36.9526   ZX=    -9.4956
   XY=   -41.7672   YY=    62.3684   ZY=    16.7000
   XZ=   -21.5490   YZ=    -3.7554   ZZ=   123.6779
   Eigenvalues:    45.5652   116.2897   161.9554
     14  C    Isotropic =    41.1225   Anisotropy =   177.7009
   XX=    11.4925   YX=    22.8163   ZX=    86.4742
   XY=    17.1052   YY=     3.9641   ZY=     3.4751
   XZ=    84.4858   YZ=    11.3242   ZZ=   107.9109
   Eigenvalues:   -42.4798     6.2576   159.5898
     15  C    Isotropic =    40.2130   Anisotropy =   205.1364
   XX=    42.3757   YX=    21.9112   ZX=    76.7231
   XY=    22.6080   YY=   -57.1264   ZY=    11.9265
   XZ=    65.2626   YZ=    26.3271   ZZ=   135.3898
   Eigenvalues:   -61.9809     5.6494   176.9706
     16  C    Isotropic =    48.6295   Anisotropy =   159.1585
   XX=    32.9327   YX=   -23.2063   ZX=    70.8242
   XY=   -20.4969   YY=     0.0966   ZY=    32.5597
   XZ=    66.6478   YZ=    35.2413   ZZ=   112.8591
   Eigenvalues:   -40.0772    31.2305   154.7351
     17  C    Isotropic =    52.9358   Anisotropy =   191.6152
   XX=    12.5756   YX=    28.9788   ZX=    87.0828
   XY=    25.9864   YY=    18.2098   ZY=    10.9793
   XZ=    92.5523   YZ=    13.9639   ZZ=   128.0220
   Eigenvalues:   -42.1707    20.2989   180.6793
     18  C    Isotropic =    48.8939   Anisotropy =   159.4501
   XX=    55.3244   YX=    23.4233   ZX=    48.2714
   XY=    28.1178   YY=   -36.2419   ZY=    15.6501
   XZ=    51.3505   YZ=     3.7365   ZZ=   127.5992
   Eigenvalues:   -43.0688    34.5566   155.1939
     19  C    Isotropic =    46.6076   Anisotropy =   199.6213
   XX=    27.8735   YX=   -14.3585   ZX=    82.1738
   XY=   -25.4559   YY=   -19.2939   ZY=    38.2413
   XZ=    80.6188   YZ=    44.5361   ZZ=   131.2431
   Eigenvalues:   -57.0861    17.2204   179.6884
     20  C    Isotropic =    41.9019   Anisotropy =   181.5146
   XX=    37.5601   YX=     5.0974   ZX=   -56.8351
   XY=    12.9639   YY=   -23.4959   ZY=   -59.5404
   XZ=   -65.9906   YZ=   -57.0671   ZZ=   111.6413
   Eigenvalues:   -47.7501    10.5440   162.9116
     21  C    Isotropic =    40.6680   Anisotropy =   209.2147
   XX=    -3.5908   YX=    51.6518   ZX=   -56.5288
   XY=    45.8142   YY=   -16.1147   ZY=   -48.6277
   XZ=   -57.4145   YZ=   -44.5646   ZZ=   141.7095
   Eigenvalues:   -59.0345     0.8939   180.1445
     22  C    Isotropic =    46.2853   Anisotropy =   161.3155
   XX=   -15.1460   YX=     8.5197   ZX=   -67.1614
   XY=     3.0735   YY=    40.0259   ZY=   -37.5305
   XZ=   -68.2226   YZ=   -33.8988   ZZ=   113.9759
   Eigenvalues:   -45.0979    30.1247   153.8290
     23  C    Isotropic =    52.4627   Anisotropy =   193.4183
   XX=    39.8883   YX=     8.5821   ZX=   -57.0471
   XY=     4.7858   YY=   -15.3170   ZY=   -62.5912
   XZ=   -62.4199   YZ=   -67.2923   ZZ=   132.8169
   Eigenvalues:   -43.0660    19.0460   181.4083
     24  C    Isotropic =    46.0645   Anisotropy =   160.4066
   XX=    18.7961   YX=    47.8425   ZX=   -42.7402
   XY=    54.4798   YY=    -3.0999   ZY=   -31.4646
   XZ=   -43.4395   YZ=   -31.1207   ZZ=   122.4972
   Eigenvalues:   -44.5258    29.7170   153.0022
     25  C    Isotropic =    33.3311   Anisotropy =   191.7935
   XX=   -22.1190   YX=     6.0257   ZX=   -86.9049
   XY=    17.0826   YY=    15.4642   ZY=   -42.0983
   XZ=   -86.3411   YZ=   -35.8369   ZZ=   106.6481
   Eigenvalues:   -66.3574     5.1572   161.1934
     26  C    Isotropic =    43.0324   Anisotropy =   180.3685
   XX=   112.4514   YX=    45.6319   ZX=    76.3580
   XY=    46.4349   YY=   -24.5220   ZY=     8.0259
   XZ=    59.4302   YZ=     4.4961   ZZ=    41.1678
   Eigenvalues:   -41.9228     7.7419   163.2781
     27  C    Isotropic =    41.3899   Anisotropy =   200.8641
   XX=   144.2128   YX=    18.9683   ZX=    54.2410
   XY=    33.9991   YY=   -20.5618   ZY=    45.2054
   XZ=    66.8354   YZ=    50.2273   ZZ=     0.5189
   Eigenvalues:   -60.7045     9.5750   175.2994
     28  C    Isotropic =    47.0179   Anisotropy =   161.2888
   XX=   104.9902   YX=    29.3531   ZX=    84.1875
   XY=    31.9760   YY=    37.7546   ZY=     3.0163
   XZ=    74.2527   YZ=     6.5312   ZZ=    -1.6912
   Eigenvalues:   -45.1788    31.6887   154.5438
     29  C    Isotropic =    50.4417   Anisotropy =   196.9174
   XX=   134.0820   YX=    57.7196   ZX=    64.5506
   XY=    54.7892   YY=   -24.0904   ZY=     5.7150
   XZ=    67.5237   YZ=     3.3422   ZZ=    41.3335
   Eigenvalues:   -45.8133    15.4183   181.7200
     30  C    Isotropic =    42.9919   Anisotropy =   168.0297
   XX=   122.6442   YX=    17.6118   ZX=    54.4006
   XY=    19.9701   YY=   -12.5820   ZY=    49.6833
   XZ=    56.4292   YZ=    46.7144   ZZ=    18.9135
   Eigenvalues:   -49.6523    23.6163   155.0117
     31  C    Isotropic =    37.8574   Anisotropy =   207.1480
   XX=   118.5751   YX=    37.1542   ZX=    91.4581
   XY=    40.6585   YY=     9.3236   ZY=    18.0633
   XZ=    92.0521   YZ=    13.8382   ZZ=   -14.3263
   Eigenvalues:   -61.3587    -1.0251   175.9561
     32  C    Isotropic =    41.4716   Anisotropy =   190.5156
   XX=   -25.4582   YX=   -18.1331   ZX=   -15.1662
   XY=   -29.4901   YY=    46.0982   ZY=   -97.1512
   XZ=   -12.9246   YZ=   -80.7503   ZZ=   103.7748
   Eigenvalues:   -49.7666     5.6993   168.4820
     33  C    Isotropic =    43.0601   Anisotropy =   203.7214
   XX=     7.3638   YX=     9.8722   ZX=    13.7704
   XY=     7.6435   YY=    26.6728   ZY=  -110.6360
   XZ=     6.0527   YZ=  -115.0501   ZZ=    95.1436
   Eigenvalues:   -59.5181     9.8240   178.8743
     34  C    Isotropic =    47.0887   Anisotropy =   161.4879
   XX=   -33.7652   YX=    15.4408   ZX=    23.0815
   XY=    14.2674   YY=    69.9342   ZY=   -63.8875
   XZ=    15.9512   YZ=   -65.4240   ZZ=   105.0970
   Eigenvalues:   -42.8133    29.3321   154.7472
     35  C    Isotropic =    54.3314   Anisotropy =   191.3168
   XX=   -14.0724   YX=   -28.7559   ZX=    -8.8038
   XY=   -31.8636   YY=    62.4941   ZY=   -88.3593
   XZ=    -6.0993   YZ=   -89.2942   ZZ=   114.5725
   Eigenvalues:   -38.6136    19.7320   181.8759
     36  C    Isotropic =    46.5021   Anisotropy =   161.5828
   XX=    25.6448   YX=     7.0292   ZX=    13.6981
   XY=     9.2776   YY=    31.0968   ZY=   -94.6122
   XZ=    16.3928   YZ=   -92.1825   ZZ=    82.7649
   Eigenvalues:   -43.5054    28.7878   154.2240
     37  C    Isotropic =    35.2127   Anisotropy =   201.6683
   XX=   -56.8586   YX=    11.2639   ZX=    18.8504
   XY=    16.7486   YY=    73.5297   ZY=   -78.5786
   XZ=    23.5695   YZ=   -97.2224   ZZ=    88.9670
   Eigenvalues:   -67.1278     3.1076   169.6583
     38  H    Isotropic =    26.5029   Anisotropy =     6.1991
   XX=    26.8437   YX=     3.8041   ZX=     0.5222
   XY=     0.8088   YY=    29.0163   ZY=    -2.7131
   XZ=     4.2129   YZ=    -2.3507   ZZ=    23.6487
   Eigenvalues:    20.9991    27.8740    30.6356
     39  H    Isotropic =    27.8233   Anisotropy =     7.7404
   XX=    28.9964   YX=     0.9430   ZX=     0.8145
   XY=     4.5487   YY=    26.7952   ZY=    -1.6554
   XZ=    -3.9817   YZ=    -5.1292   ZZ=    27.6783
   Eigenvalues:    23.5666    26.9197    32.9836
     40  H    Isotropic =    23.4816   Anisotropy =    15.1090
   XX=    29.9379   YX=     2.5041   ZX=    -5.9047
   XY=     3.8622   YY=    16.4238   ZY=    -1.6171
   XZ=    -4.8435   YZ=     1.8523   ZZ=    24.0831
   Eigenvalues:    15.4682    21.4223    33.5542
     41  H    Isotropic =    23.2175   Anisotropy =     9.4807
   XX=    21.5301   YX=     1.5225   ZX=    -2.9929
   XY=     1.5719   YY=    28.6128   ZY=    -1.9627
   XZ=    -2.3183   YZ=    -1.7980   ZZ=    19.5096
   Eigenvalues:    17.6338    22.4807    29.5380
     42  H    Isotropic =    23.6627   Anisotropy =    17.8207
   XX=    27.2195   YX=    -5.8787   ZX=    -7.2653
   XY=    -7.5863   YY=    22.2660   ZY=     4.8448
   XZ=    -4.6350   YZ=     3.0397   ZZ=    21.5027
   Eigenvalues:    17.5058    17.9391    35.5431
     43  H    Isotropic =    22.5008   Anisotropy =    10.7822
   XX=    21.7225   YX=     6.1367   ZX=     5.0721
   XY=     4.1783   YY=    23.0442   ZY=     1.0139
   XZ=     2.9188   YZ=     1.9025   ZZ=    22.7357
   Eigenvalues:    16.3737    21.4398    29.6889
     44  H    Isotropic =    22.9983   Anisotropy =    10.8648
   XX=    28.5319   YX=    -2.1607   ZX=     3.4319
   XY=    -2.7136   YY=    22.6040   ZY=     0.1120
   XZ=     3.3314   YZ=    -0.2073   ZZ=    17.8590
   Eigenvalues:    16.8029    21.9505    30.2415
     45  H    Isotropic =    21.2167   Anisotropy =    13.0552
   XX=    19.0745   YX=    -0.6136   ZX=    -0.6376
   XY=     0.4649   YY=    28.6869   ZY=     4.1828
   XZ=     2.5955   YZ=     4.1222   ZZ=    15.8886
   Eigenvalues:    14.4596    19.2703    29.9201
     46  H    Isotropic =    23.1759   Anisotropy =    15.7154
   XX=    24.2517   YX=    -6.7163   ZX=    -1.5973
   XY=    -6.1171   YY=    25.8933   ZY=     2.5095
   XZ=    -5.9232   YZ=     5.4947   ZZ=    19.3827
   Eigenvalues:    17.2512    18.6237    33.6529
     47  H    Isotropic =    22.9183   Anisotropy =     8.9022
   XX=    21.1377   YX=    -0.3295   ZX=    -3.7197
   XY=     0.0961   YY=    22.1476   ZY=    -3.0494
   XZ=    -4.3658   YZ=    -2.8974   ZZ=    25.4697
   Eigenvalues:    17.9713    21.9306    28.8531
     48  H    Isotropic =    20.7433   Anisotropy =    17.5026
   XX=    14.5170   YX=    -4.4023   ZX=     0.7301
   XY=    -3.2715   YY=    31.4074   ZY=     2.3363
   XZ=    -0.1249   YZ=     1.2140   ZZ=    16.3056
   Eigenvalues:    13.5156    16.3027    32.4117
     49  H    Isotropic =    23.6088   Anisotropy =    15.4887
   XX=    31.6947   YX=     6.4376   ZX=     2.6424
   XY=     2.6845   YY=    21.0391   ZY=    -0.1081
   XZ=     2.8639   YZ=     2.3039   ZZ=    18.0925
   Eigenvalues:    17.5353    19.3565    33.9346
     50  H    Isotropic =    22.9968   Anisotropy =     9.3892
   XX=    25.4655   YX=    -3.1594   ZX=    -1.1013
   XY=    -3.1595   YY=    22.5144   ZY=     4.3094
   XZ=    -1.7876   YZ=     4.5285   ZZ=    21.0104
   Eigenvalues:    17.1565    22.5776    29.2562
     51  H    Isotropic =    21.6820   Anisotropy =    15.3384
   XX=    18.8892   YX=     7.9794   ZX=     3.2375
   XY=     5.9143   YY=    25.7847   ZY=     2.5357
   XZ=     2.9857   YZ=     4.3556   ZZ=    20.3722
   Eigenvalues:    14.4326    18.7059    31.9076
     52  Cl   Isotropic =   776.4564   Anisotropy =   359.7531
   XX=   630.4638   YX=     9.3200   ZX=  -156.7998
   XY=    75.5872   YY=  1009.6889   ZY=    16.9809
   XZ=  -120.8055   YZ=   -32.7093   ZZ=   689.2165
   Eigenvalues:   516.3581   796.7193  1016.2918
     53  Cl   Isotropic =   840.0508   Anisotropy =   561.2425
   XX=   649.4139   YX=   149.9497   ZX=   129.8096
   XY=    97.2779   YY=  1165.4971   ZY=    -1.3985
   XZ=    69.8741   YZ=   164.0195   ZZ=   705.2414
   Eigenvalues:   568.8386   737.1013  1214.2125
     54  Pd   Isotropic =  -152.6987   Anisotropy =   239.2832
   XX=    -6.3551   YX=   -51.6241   ZX=   -21.7161
   XY=   -45.6618   YY=  -426.2063   ZY=  -106.1988
   XZ=    -9.2886   YZ=  -127.9040   ZZ=   -25.5347
   Eigenvalues:  -463.5848    -1.3347     6.8234
     55  C    Isotropic =   116.1789   Anisotropy =    30.6194
   XX=   128.1534   YX=    -4.6468   ZX=    -8.4570
   XY=    -8.9309   YY=   103.0503   ZY=     4.6055
   XZ=   -13.3873   YZ=     1.8053   ZZ=   117.3330
   Eigenvalues:   101.3160   110.6289   136.5918
     56  H    Isotropic =    27.5966   Anisotropy =    10.9878
   XX=    30.8172   YX=    -1.8457   ZX=     6.0899
   XY=     1.2972   YY=    22.3157   ZY=     0.1515
   XZ=     3.1659   YZ=    -1.0706   ZZ=    29.6570
   Eigenvalues:    22.2870    25.5811    34.9218
     57  H    Isotropic =    27.4084   Anisotropy =     4.6130
   XX=    27.0250   YX=     3.3284   ZX=     3.2320
   XY=     2.1730   YY=    27.3876   ZY=    -2.4952
   XZ=     1.1734   YZ=    -3.1553   ZZ=    27.8126
   Eigenvalues:    22.2016    29.5399    30.4837
     58  C    Isotropic =   118.0306   Anisotropy =    42.4140
   XX=   125.6488   YX=    -6.1574   ZX=   -18.1761
   XY=   -15.0284   YY=   105.3774   ZY=     6.1303
   XZ=   -19.2548   YZ=     4.5497   ZZ=   123.0657
   Eigenvalues:   100.2746   107.5106   146.3066
     59  H    Isotropic =    27.3151   Anisotropy =     6.0878
   XX=    25.4908   YX=     0.7939   ZX=     1.8255
   XY=    -1.4393   YY=    28.9283   ZY=    -0.7635
   XZ=     1.5668   YZ=    -4.7610   ZZ=    27.5262
   Eigenvalues:    24.1700    26.4016    31.3736
     60  N    Isotropic =   201.5605   Anisotropy =    60.1821
   XX=   238.4737   YX=    20.8184   ZX=   -10.8867
   XY=    -0.5638   YY=   184.1287   ZY=     9.2070
   XZ=    -8.4998   YZ=    -3.7110   ZZ=   182.0792
   Eigenvalues:   177.0542   185.9455   241.6819
     61  C    Isotropic =   140.7729   Anisotropy =    54.7723
   XX=   145.9212   YX=    25.1400   ZX=    22.2041
   XY=    19.2158   YY=   143.4116   ZY=    10.3669
   XZ=    17.6037   YZ=     9.4982   ZZ=   132.9860
   Eigenvalues:   116.7078   128.3232   177.2878
     62  C    Isotropic =   145.5182   Anisotropy =    47.7687
   XX=   126.6074   YX=   -16.1162   ZX=    -0.9201
   XY=   -10.8259   YY=   169.4753   ZY=    14.1481
   XZ=     0.0562   YZ=    10.8508   ZZ=   140.4719
   Eigenvalues:   122.1261   137.0645   177.3640
     63  H    Isotropic =    29.5959   Anisotropy =     9.3722
   XX=    34.7479   YX=     3.0731   ZX=    -0.6417
   XY=     3.1316   YY=    27.0630   ZY=    -0.7073
   XZ=     1.1479   YZ=    -0.5667   ZZ=    26.9768
   Eigenvalues:    25.6209    27.3228    35.8440
     64  H    Isotropic =    29.3824   Anisotropy =    11.1408
   XX=    26.1962   YX=     6.2113   ZX=     0.7994
   XY=     1.3981   YY=    35.0452   ZY=     1.0277
   XZ=     3.3567   YZ=     1.3827   ZZ=    26.9058
   Eigenvalues:    23.9221    27.4155    36.8096
     65  H    Isotropic =    30.4313   Anisotropy =     8.0126
   XX=    33.4582   YX=     0.5725   ZX=     1.7337
   XY=     1.0746   YY=    25.8467   ZY=    -1.7057
   XZ=     4.0606   YZ=    -2.8241   ZZ=    31.9890
   Eigenvalues:    24.7432    30.7777    35.7731
     66  H    Isotropic =    29.9422   Anisotropy =    10.8197
   XX=    30.7760   YX=    -4.4028   ZX=    -3.0642
   XY=    -4.8351   YY=    26.3768   ZY=     3.3221
   XZ=    -3.8988   YZ=     0.3979   ZZ=    32.6739
   Eigenvalues:    23.4498    29.2215    37.1553
     67  H    Isotropic =    29.7114   Anisotropy =    10.1105
   XX=    28.9113   YX=    -4.9915   ZX=     0.1831
   XY=    -4.8836   YY=    31.0399   ZY=    -4.4517
   XZ=     0.0372   YZ=    -3.3621   ZZ=    29.1830
   Eigenvalues:    23.7100    28.9725    36.4518
     68  H    Isotropic =    29.6175   Anisotropy =     7.2013
   XX=    32.4316   YX=    -3.4970   ZX=     1.1157
   XY=    -2.6118   YY=    28.9163   ZY=     2.9418
   XZ=    -1.6510   YZ=     0.9457   ZZ=    27.5047
   Eigenvalues:    25.6906    28.7436    34.4184
     69  C    Isotropic =    51.0659   Anisotropy =   189.5109
   XX=   169.4371   YX=    32.7957   ZX=     7.3155
   XY=    30.6300   YY=    40.7921   ZY=    13.3575
   XZ=     9.8206   YZ=    15.3278   ZZ=   -57.0316
   Eigenvalues:   -59.1635    34.9547   177.4065
     70  C    Isotropic =    51.7052   Anisotropy =   187.4273
   XX=   164.7012   YX=    50.3838   ZX=    -0.1915
   XY=    48.3772   YY=   -35.1488   ZY=    33.3242
   XZ=     0.4582   YZ=    34.4402   ZZ=    25.5632
   Eigenvalues:   -59.4979    37.9567   176.6567
     71  C    Isotropic =    50.9616   Anisotropy =   183.0290
   XX=   161.6019   YX=    40.9770   ZX=    29.8412
   XY=    46.1431   YY=   -17.6342   ZY=   -35.5846
   XZ=    18.8182   YZ=   -47.2698   ZZ=     8.9172
   Eigenvalues:   -58.9999    38.9038   172.9810
     72  C    Isotropic =    40.4428   Anisotropy =   191.5790
   XX=   158.6127   YX=    40.6015   ZX=    14.8271
   XY=    31.9709   YY=    18.2312   ZY=    12.2897
   XZ=     4.2391   YZ=    16.8597   ZZ=   -55.5157
   Eigenvalues:   -58.3249    11.4910   168.1621
     73  C    Isotropic =    48.0606   Anisotropy =   165.8441
   XX=   151.6996   YX=    35.2701   ZX=    -3.0958
   XY=    37.9202   YY=   -42.5913   ZY=    36.4000
   XZ=     1.9467   YZ=    31.7163   ZZ=    35.0736
   Eigenvalues:   -61.0273    46.5859   158.6233
     74  C    Isotropic =    50.4409   Anisotropy =   187.0754
   XX=   165.0827   YX=    41.8368   ZX=    17.5822
   XY=    43.6184   YY=   -14.3553   ZY=   -45.8706
   XZ=    20.4354   YZ=   -47.4611   ZZ=     0.5953
   Eigenvalues:   -63.0242    39.1891   175.1578
     75  H    Isotropic =    23.7815   Anisotropy =     3.5867
   XX=    20.5208   YX=    -1.2060   ZX=     0.5719
   XY=    -1.3566   YY=    25.8087   ZY=    -0.1004
   XZ=     0.4787   YZ=    -0.2325   ZZ=    25.0151
   Eigenvalues:    20.1799    24.9920    26.1727
     76  H    Isotropic =    23.7523   Anisotropy =     6.5578
   XX=    20.4679   YX=    -1.0698   ZX=     1.0058
   XY=    -0.9193   YY=    22.7415   ZY=    -0.1261
   XZ=     0.2649   YZ=    -0.4178   ZZ=    28.0476
   Eigenvalues:    20.0628    23.0700    28.1242
     77  H    Isotropic =    23.8779   Anisotropy =    11.3610
   XX=    21.7057   YX=    -0.1573   ZX=     2.2190
   XY=    -0.7076   YY=    23.3322   ZY=    -5.9978
   XZ=     1.1986   YZ=    -6.0013   ZZ=    26.5957
   Eigenvalues:    18.5813    21.6005    31.4518
     78  H    Isotropic =    24.5149   Anisotropy =     9.6926
   XX=    21.4202   YX=     1.2800   ZX=     0.2103
   XY=     0.3299   YY=    21.4630   ZY=     1.7581
   XZ=     0.2516   YZ=     1.6238   ZZ=    30.6613
   Eigenvalues:    20.5227    22.0452    30.9766
     79  H    Isotropic =    23.8483   Anisotropy =     7.8422
   XX=    20.0632   YX=    -0.4091   ZX=     0.9711
   XY=    -0.4443   YY=    23.1659   ZY=    -1.7161
   XZ=     1.0231   YZ=    -2.1037   ZZ=    28.3159
   Eigenvalues:    19.9304    22.5381    29.0765
     80  N    Isotropic =   191.1128   Anisotropy =    59.6111
   XX=   214.2960   YX=     3.4631   ZX=   -24.8809
   XY=    -2.6464   YY=   170.2927   ZY=    -1.6332
   XZ=   -27.6403   YZ=    -7.5573   ZZ=   188.7497
   Eigenvalues:   167.4125   175.0723   230.8535
     81  H    Isotropic =    29.1478   Anisotropy =    14.9789
   XX=    24.6753   YX=     1.6382   ZX=     0.6693
   XY=    -1.0006   YY=    26.0669   ZY=    -7.6693
   XZ=     2.2873   YZ=    -3.3126   ZZ=    36.7012
   Eigenvalues:    23.1938    25.1160    39.1337
     82  C    Isotropic =   139.6002   Anisotropy =    61.6999
   XX=   157.9898   YX=    31.7142   ZX=     9.6217
   XY=    29.5360   YY=   136.7623   ZY=    -0.3238
   XZ=     7.0735   YZ=     2.0567   ZZ=   124.0485
   Eigenvalues:   113.2531   124.8140   180.7335
     83  C    Isotropic =   140.1581   Anisotropy =    54.2972
   XX=   123.3784   YX=   -18.0347   ZX=    -1.7849
   XY=   -13.1511   YY=   170.4886   ZY=     7.0394
   XZ=    -2.0614   YZ=     7.7661   ZZ=   126.6073
   Eigenvalues:   118.6726   125.4455   176.3562
     84  H    Isotropic =    30.1524   Anisotropy =     7.9517
   XX=    33.3178   YX=    -0.6868   ZX=     4.6215
   XY=     2.6720   YY=    26.2277   ZY=    -2.1009
   XZ=     1.5528   YZ=    -2.4366   ZZ=    30.9118
   Eigenvalues:    24.7475    30.2563    35.4535
     85  H    Isotropic =    29.5985   Anisotropy =     7.1476
   XX=    32.7104   YX=     0.5583   ZX=    -2.2462
   XY=     2.4825   YY=    31.4462   ZY=    -2.1641
   XZ=    -1.6117   YZ=    -1.0267   ZZ=    24.6389
   Eigenvalues:    23.9917    30.4403    34.3635
     86  H    Isotropic =    29.5278   Anisotropy =    12.6095
   XX=    33.5929   YX=     2.1054   ZX=    -5.2910
   XY=     4.3079   YY=    25.9597   ZY=    -3.0172
   XZ=    -4.3257   YZ=    -1.6035   ZZ=    29.0308
   Eigenvalues:    24.6223    26.0270    37.9341
     87  H    Isotropic =    29.6342   Anisotropy =     5.4666
   XX=    30.3641   YX=    -1.3355   ZX=     1.1217
   XY=    -3.6180   YY=    29.4562   ZY=    -4.9670
   XZ=    -0.6272   YZ=     0.0313   ZZ=    29.0822
   Eigenvalues:    26.1509    29.4730    33.2785
     88  H    Isotropic =    29.2863   Anisotropy =    10.7445
   XX=    29.5090   YX=    -1.2866   ZX=    -5.2373
   XY=    -3.1673   YY=    27.9307   ZY=     2.0251
   XZ=    -5.6871   YZ=     1.8207   ZZ=    30.4194
   Eigenvalues:    24.4412    26.9685    36.4493
     89  H    Isotropic =    29.3620   Anisotropy =     7.8077
   XX=    32.0950   YX=    -0.9064   ZX=    -2.9575
   XY=    -1.7971   YY=    30.0021   ZY=     2.4020
   XZ=    -3.4162   YZ=     2.3838   ZZ=    25.9889
   Eigenvalues:    24.1104    29.4085    34.5671
     90  C    Isotropic =    51.7060   Anisotropy =   187.3850
   XX=   148.7427   YX=    73.5851   ZX=    -6.3010
   XY=    75.0269   YY=   -28.2938   ZY=   -14.4196
   XZ=    -6.2256   YZ=   -14.6179   ZZ=    34.6690
   Eigenvalues:   -56.8013    35.2899   176.6293
     91  C    Isotropic =    50.6969   Anisotropy =   190.3412
   XX=   159.0802   YX=    48.1243   ZX=    -7.0499
   XY=    48.9890   YY=    35.6392   ZY=   -41.6021
   XZ=    -4.3480   YZ=   -41.3768   ZZ=   -42.6287
   Eigenvalues:   -61.5013    36.0011   177.5910
     92  C    Isotropic =    49.0762   Anisotropy =   175.3035
   XX=   145.1503   YX=    50.7083   ZX=   -32.8406
   XY=    52.0582   YY=    26.6204   ZY=    31.5000
   XZ=   -28.4681   YZ=    35.2353   ZZ=   -24.5419
   Eigenvalues:   -54.3762    35.6596   165.9453
     93  C    Isotropic =    30.0859   Anisotropy =   205.8026
   XX=   138.1461   YX=    80.0966   ZX=   -13.1849
   XY=    70.4532   YY=   -38.5739   ZY=   -14.1639
   XZ=   -11.0895   YZ=   -11.6582   ZZ=    -9.3145
   Eigenvalues:   -67.3917    -9.6383   167.2876
     94  C    Isotropic =    52.4345   Anisotropy =   191.3842
   XX=   163.5542   YX=    44.6412   ZX=    -0.6063
   XY=    52.4079   YY=    32.6674   ZY=   -35.0946
   XZ=     3.1914   YZ=   -34.5130   ZZ=   -38.9180
   Eigenvalues:   -54.9504    32.2300   180.0240
     95  C    Isotropic =    50.4028   Anisotropy =   189.4607
   XX=   154.6972   YX=    54.5297   ZX=   -26.3040
   XY=    58.2229   YY=    26.3465   ZY=    36.4333
   XZ=   -27.7224   YZ=    37.5329   ZZ=   -29.8352
   Eigenvalues:   -60.2662    34.7647   176.7099
     96  H    Isotropic =    23.7475   Anisotropy =     3.9542
   XX=    20.1783   YX=    -0.1516   ZX=     0.7606
   XY=    -0.1538   YY=    25.4641   ZY=    -0.6388
   XZ=     0.8912   YZ=    -0.8914   ZZ=    25.6002
   Eigenvalues:    20.0550    24.8039    26.3837
     97  H    Isotropic =    24.1333   Anisotropy =     6.5055
   XX=    19.3321   YX=    -0.1418   ZX=     1.3004
   XY=    -2.3618   YY=    28.2888   ZY=     2.0934
   XZ=     3.2920   YZ=    -1.8178   ZZ=    24.7791
   Eigenvalues:    18.3427    25.5870    28.4704
     98  H    Isotropic =    23.6032   Anisotropy =     9.9755
   XX=    21.8770   YX=    -0.6176   ZX=     0.3062
   XY=    -1.6082   YY=    27.3416   ZY=    -5.2418
   XZ=     1.0654   YZ=    -4.3307   ZZ=    21.5910
   Eigenvalues:    18.8819    21.6741    30.2535
     99  C    Isotropic =    48.5293   Anisotropy =    15.7818
   XX=    47.0768   YX=    -3.3090   ZX=     0.6425
   XY=    -3.1120   YY=    58.1387   ZY=    -1.4523
   XZ=    -1.0089   YZ=    -0.5976   ZZ=    40.3723
   Eigenvalues:    40.2917    46.2456    59.0505
    100  F    Isotropic =   238.7408   Anisotropy =   145.4353
   XX=   256.0404   YX=    63.1391   ZX=    -0.7500
   XY=    52.2078   YY=   272.9969   ZY=   -45.5706
   XZ=   -12.6098   YZ=   -56.0890   ZZ=   187.1851
   Eigenvalues:   159.1270   221.3977   335.6977
    101  F    Isotropic =   221.4771   Anisotropy =   147.9071
   XX=   184.5592   YX=     7.1407   ZX=    83.8598
   XY=     6.8688   YY=   213.8762   ZY=    12.4406
   XZ=    83.0798   YZ=    12.5907   ZZ=   265.9959
   Eigenvalues:   132.3997   211.9498   320.0819
    102  F    Isotropic =   250.6515   Anisotropy =   133.7758
   XX=   283.4897   YX=   -55.0511   ZX=    22.2365
   XY=   -47.7320   YY=   291.3438   ZY=    22.3038
   XZ=     4.5816   YZ=    34.2934   ZZ=   177.1211
   Eigenvalues:   164.5042   247.6150   339.8354
    103  C    Isotropic =    49.0205   Anisotropy =    14.4710
   XX=    50.3190   YX=    -4.1884   ZX=    -3.2307
   XY=    -3.9795   YY=    47.2745   ZY=     7.0730
   XZ=    -3.6442   YZ=     6.6685   ZZ=    49.4679
   Eigenvalues:    41.3044    47.0892    58.6678
    104  F    Isotropic =   223.6388   Anisotropy =   151.8200
   XX=   260.9505   YX=   -64.5349   ZX=    55.7858
   XY=   -68.5401   YY=   189.0854   ZY=     0.5828
   XZ=    58.2406   YZ=    -0.6912   ZZ=   220.8805
   Eigenvalues:   137.0947   208.9695   324.8521
    105  F    Isotropic =   232.6498   Anisotropy =   149.0633
   XX=   223.5769   YX=    30.6618   ZX=    14.4074
   XY=    34.4849   YY=   289.2679   ZY=    72.4829
   XZ=     7.6622   YZ=    59.5607   ZZ=   185.1046
   Eigenvalues:   152.8077   213.1164   332.0253
    106  F    Isotropic =   252.7504   Anisotropy =   116.1906
   XX=   284.4976   YX=     2.5457   ZX=   -34.9172
   XY=    15.0188   YY=   180.2657   ZY=    23.5920
   XZ=   -43.4128   YZ=    34.8012   ZZ=   293.4880
   Eigenvalues:   170.1555   257.8849   330.2108
    107  C    Isotropic =    48.8252   Anisotropy =    14.8351
   XX=    46.8997   YX=     4.1321   ZX=     7.0520
   XY=     4.0839   YY=    51.6223   ZY=     3.3635
   XZ=     6.1637   YZ=     4.6954   ZZ=    47.9537
   Eigenvalues:    40.7882    46.9722    58.7153
    108  F    Isotropic =   253.2531   Anisotropy =   130.1669
   XX=   262.3470   YX=    59.7564   ZX=    75.8966
   XY=    49.3911   YY=   238.5006   ZY=   -11.4616
   XZ=    57.3297   YZ=    -4.2451   ZZ=   258.9117
   Eigenvalues:   165.1913   254.5369   340.0310
    109  F    Isotropic =   214.4001   Anisotropy =   142.1600
   XX=   156.9523   YX=    34.9724   ZX=   -41.5091
   XY=    37.9945   YY=   192.6019   ZY=   -11.8017
   XZ=   -40.4377   YZ=   -12.6061   ZZ=   293.6462
   Eigenvalues:   128.9349   205.0920   309.1735
    110  F    Isotropic =   237.6496   Anisotropy =   142.0114
   XX=   173.3982   YX=   -46.0377   ZX=    22.0024
   XY=   -30.3968   YY=   322.9721   ZY=    -2.1330
   XZ=    16.1478   YZ=     2.7419   ZZ=   216.5786
   Eigenvalues:   158.2474   222.3776   332.3239
    111  C    Isotropic =    48.3560   Anisotropy =    14.7899
   XX=    55.9063   YX=     4.6922   ZX=     3.7567
   XY=     4.3102   YY=    44.5954   ZY=    -1.6300
   XZ=     3.7192   YZ=    -0.7993   ZZ=    44.5664
   Eigenvalues:    41.0702    45.7820    58.2160
    112  F    Isotropic =   233.5465   Anisotropy =   148.4907
   XX=   280.0210   YX=   -53.0996   ZX=    24.3768
   XY=   -59.7477   YY=   240.1395   ZY=   -53.3688
   XZ=    14.7383   YZ=   -40.2762   ZZ=   180.4791
   Eigenvalues:   153.7447   214.3545   332.5403
    113  F    Isotropic =   252.4978   Anisotropy =   130.5647
   XX=   268.0881   YX=    62.9145   ZX=    35.4302
   XY=    80.1537   YY=   264.3940   ZY=   -25.6314
   XZ=    42.3217   YZ=   -15.8906   ZZ=   225.0113
   Eigenvalues:   164.8497   253.1028   339.5410
    114  F    Isotropic =   222.5545   Anisotropy =   141.7292
   XX=   222.9048   YX=    12.9433   ZX=   -27.2852
   XY=     9.7397   YY=   139.3592   ZY=   -24.5397
   XZ=   -25.2512   YZ=   -24.2710   ZZ=   305.3996
   Eigenvalues:   135.1744   215.4486   317.0407
    115  C    Isotropic =    48.8767   Anisotropy =    14.0467
   XX=    51.8189   YX=    -6.5921   ZX=    -1.9009
   XY=    -5.8817   YY=    48.9700   ZY=     4.2297
   XZ=    -2.3364   YZ=     3.9207   ZZ=    45.8413
   Eigenvalues:    42.4155    45.9735    58.2412
    116  F    Isotropic =   246.9170   Anisotropy =   141.2127
   XX=   335.1757   YX=   -40.7267   ZX=     8.5049
   XY=   -20.7913   YY=   179.8947   ZY=    29.8506
   XZ=    -0.5416   YZ=    24.2782   ZZ=   225.6807
   Eigenvalues:   162.2466   237.4457   341.0588
    117  F    Isotropic =   222.2853   Anisotropy =   144.1837
   XX=   169.0692   YX=   -43.9374   ZX=     8.5083
   XY=   -44.9908   YY=   187.6797   ZY=   -27.7952
   XZ=     7.1749   YZ=   -28.4249   ZZ=   310.1069
   Eigenvalues:   132.1510   216.2970   318.4077
    118  F    Isotropic =   245.1609   Anisotropy =   138.9038
   XX=   201.2833   YX=    -6.6935   ZX=    37.2332
   XY=   -15.8292   YY=   310.5421   ZY=    62.7943
   XZ=    26.3114   YZ=    48.3851   ZZ=   223.6573
   Eigenvalues:   165.2997   232.4196   337.7634
    119  C    Isotropic =    48.3821   Anisotropy =    14.4651
   XX=    53.0529   YX=     2.9159   ZX=    -7.3543
   XY=     3.7138   YY=    43.9536   ZY=     1.9973
   XZ=    -6.0427   YZ=     0.5364   ZZ=    48.1399
   Eigenvalues:    40.6520    46.4689    58.0256
    120  F    Isotropic =   252.6686   Anisotropy =   128.2674
   XX=   260.4341   YX=    73.2592   ZX=    -3.1249
   XY=    94.6830   YY=   245.5399   ZY=   -13.0613
   XZ=     2.7158   YZ=   -12.3906   ZZ=   252.0318
   Eigenvalues:   167.6667   252.1589   338.1802
    121  F    Isotropic =   240.1519   Anisotropy =   144.4465
   XX=   246.1025   YX=   -13.4752   ZX=   -41.9512
   XY=   -15.0474   YY=   186.2957   ZY=    70.5092
   XZ=   -39.3643   YZ=    50.0895   ZZ=   288.0576
   Eigenvalues:   158.0481   225.9581   336.4496
    122  F    Isotropic =   216.9723   Anisotropy =   151.7790
   XX=   261.1555   YX=   -24.3150   ZX=    50.5161
   XY=   -24.6899   YY=   148.8014   ZY=   -47.2457
   XZ=    52.0996   YZ=   -49.0187   ZZ=   240.9601
   Eigenvalues:   128.1950   204.5637   318.1583
    123  C    Isotropic =    48.6973   Anisotropy =    14.7487
   XX=    44.6751   YX=    -0.6894   ZX=    -3.3583
   XY=    -1.7019   YY=    57.8791   ZY=     2.1115
   XZ=    -2.8099   YZ=     2.9531   ZZ=    43.5376
   Eigenvalues:    40.8829    46.6792    58.5298
    124  F    Isotropic =   243.9483   Anisotropy =   138.2883
   XX=   197.2244   YX=    67.2148   ZX=   -34.2691
   XY=    46.8936   YY=   312.1846   ZY=     1.8805
   XZ=   -22.3215   YZ=     6.3316   ZZ=   222.4359
   Eigenvalues:   161.1213   234.5831   336.1405
    125  F    Isotropic =   215.9031   Anisotropy =   147.1706
   XX=   133.9837   YX=   -21.5902   ZX=    20.4249
   XY=   -21.9874   YY=   205.6979   ZY=   -17.5125
   XZ=    21.1570   YZ=   -16.4012   ZZ=   308.0276
[...]
                                                    702(r),420(r),1450(r),882(r)
                                                    887(r),1321(r),411(r),393(r)
                                                    1014(r),1217(r),618(r)
                                                    903(r),1058(r),468(r),406(r)
                                                    1456(r),1875(r),1032(r)
                                                    438(r),1323(r),435(r),600(r)
                                                    593(r),720(r),299(r),1444(r)
                                                    519(r),378(r),473(r),1326(r)
                                                    1319(r),1036(r),891(r)
                                                    474(r),881(r),379(r),902(r)
                                                    1043(r),853(r),477(r),696(r)
                                                    2990(r),467(r),436(r),602(r)
                                                    2980(r),494(r),2988(r)
                                                    754(r),1063(r),1041(r)
                                                    748(r),697(r),1463(r)
                                                    1349(r),728(r),1045(r)
                                                    732(r),1380(r),1066(r)
                                                    449(r),855(r),1194(r),700(r)
                                                    1010(r),1061(r),603(r)
                                                    1197(r),446(r),452(r),909(r)
                                                    726(r),1012(r),428(r),885(r)
                                                    758(r),884(r),907(r),466(r)
                                                    751(r),1200(r),880(r)
                                                    1320(r),415(r),1165(r)
                                                    864(r),677(r),619(r),616(r)
                                                    1169(r),621(r),857(r),419(r)
                                                    564(r),1473(r),1464(r)
                                                    421(r),1555(r),1496(r)
                                                    1324(r),624(r),1332(r)
                                                    605(r),3018(r),1325(r)
                                                    1034(r),1168(r),860(r)
                                                    380(r),465(r),1176(r),760(r)
                                                    1215(r),396(r),566(r)
  1414. RY*(   1)Cl  52                  0.00121     0.86406   
  1415. RY*(   2)Cl  52                  0.00115     0.76312   
  1416. RY*(   3)Cl  52                  0.00099     0.92396   
  1417. RY*(   4)Cl  52                  0.00031     0.98100   
  1418. RY*(   5)Cl  52                  0.00012     1.48080   
  1419. RY*(   6)Cl  52                  0.00011     1.34277   
  1420. RY*(   7)Cl  52                  0.00005     1.12797   
  1421. RY*(   8)Cl  52                  0.00004     1.45399   
  1422. RY*(   9)Cl  52                  0.00003     1.71484   
  1423. RY*(  10)Cl  52                  0.00004     2.19052   
  1424. RY*(  11)Cl  52                  0.00000    10.61716   
  1425. RY*(  12)Cl  52                  0.00000    10.64260   
  1426. RY*(  13)Cl  52                  0.00001     1.94910   
  1427. RY*(  14)Cl  52                  0.00000    25.11151   
  1428. RY*(  15)Cl  52                  0.00001     1.98434   
  1429. RY*(  16)Cl  52                  0.00000     2.70582   
  1430. RY*(  17)Cl  52                  0.00001     1.96737   
  1431. RY*(  18)Cl  52                  0.00000    10.59441   
  1432. RY*(  19)Cl  52                  0.00001     1.89786   
  1433. RY*(  20)Cl  52                  0.00001     2.84426   
  1434. RY*(  21)Cl  52                  0.00001     2.54867   
  1435. RY*(  22)Cl  52                  0.00000     2.10230   
  1436. RY*(  23)Cl  52                  0.00000     2.24432   
  1437. RY*(  24)Cl  52                  0.00000     2.14802   
  1438. RY*(  25)Cl  52                  0.00000     2.14524   
  1439. RY*(  26)Cl  52                  0.00000     2.15396   
  1440. RY*(  27)Cl  52                  0.00000     2.18147   
  1441. RY*(  28)Cl  52                  0.00000     2.17574   
       -------------------------------
              Total Lewis   17.35590  ( 99.9762%)
        Valence non-Lewis    0.00000  (  0.0000%)
        Rydberg non-Lewis    0.00414  (  0.0238%)
       -------------------------------
            Total unit  2   17.36004  (100.0000%)
           Charge unit  2   -0.36004
 
 Molecular unit  3  (Cl)
   215. CR (   1)Cl  53                  2.00000   -99.99274  298(r),297(r)
   216. CR (   2)Cl  53                  1.99971   -10.71809  298(r),297(r),1470(r)
                                                    2990(r),1472(r),2989(r)
   217. CR (   3)Cl  53                  1.99994    -7.19638  298(r),297(r),2989(r)
   218. CR (   4)Cl  53                  1.99999    -7.19485  299(r)
   219. CR (   5)Cl  53                  1.99996    -7.19657  298(r),2989(r)
   289. LP (   1)Cl  53                  1.95697    -0.28635  297(r),2990(r),3059(r)
                                                    299(r),3069(r),1482(r)
                                                    1471(r),1483(r),2992(r)
                                                    432(r),1479(r),298(r),404(r)
                                                    1488(r),1491(r),1486(r)
                                                    1477(r),1487(r),1478(r)
                                                    2989(r),2991(r),1484(r)
                                                    3058(r),3055(r),460(r)
                                                    1417(r)
   290. LP (   2)Cl  53                  1.95296    -0.93318  298(r),297(r),1490(r)
                                                    1472(r),1470(r),1474(r)
                                                    2990(r),1491(r),1476(r)
                                                    3059(r),1471(r),1478(r)
                                                    1488(r),1475(r),1473(r)
                                                    1479(r),1477(r),405(r)
                                                    1484(r),404(r),3055(r)
                                                    280(r),1008(r),460(r)
                                                    1492(r),3069(r),390(r)
                                                    417(r),423(r),283(r),3071(r)
                                                    1009(r)
   291. LP (   3)Cl  53                  1.94165    -0.29858  299(r),297(r),298(r),3057(r)
                                                    3069(r),3055(r),3054(r)
                                                    2990(r),1474(r),1486(r)
                                                    2991(r),1484(r),1491(r)
                                                    1480(r),1473(r),1492(r)
                                                    1475(r),1487(r),3044(r)
                                                    3071(r)
   292. LP (   4)Cl  53                  1.53103    -0.39598  298(r),297(r),2989(r)
                                                    1487(r),404(r),1482(r)
                                                    1488(r),1486(r),1479(r)
                                                    432(r),1478(r),1477(r)
                                                    2990(r),1483(r),1447(g)
                                                    1481(r),1484(r),1485(r)
                                                    460(r),2993(r),590(r),440(r)
                                                    1033(r),1480(r),877(r)
                                                    1489(r),1379(r),1448(g)
                                                    412(r),1470(r),1471(r)
                                                    414(r),441(r),443(r),1475(r)
                                                    439(r),1476(r),442(r)
                                                    1189(r),1450(g),417(r)
                                                    721(r),1472(r),410(r)
                                                    1218(r),1419(r),1037(r)
                                                    444(r),722(r),1009(r)
                                                    1418(r),876(r),591(r),601(r)
                                                    1008(r),405(r),488(r),604(r)
                                                    411(r),463(r),1490(r),906(r)
                                                    1059(r),1344(r),1474(r)
                                                    702(r),447(r),462(r),725(r)
                                                    385(r),471(r),434(r),878(r)
                                                    720(r),593(r),1190(r)
                                                    1428(r),393(r),1188(r)
                                                    3059(r),406(r),438(r),903(r)
                                                    1319(r),1326(r),1415(r)
                                                    882(r),407(r),902(r),1320(r)
                                                    1323(r),602(r),1014(r)
                                                    618(r),887(r),1036(r)
                                                    1321(r),420(r),891(r),519(r)
                                                    1875(r),600(r),1058(r)
                                                    474(r),473(r),1032(r)
                                                    1380(r),1041(r),3071(r)
                                                    696(r),723(r),1043(r),433(r)
                                                    700(r),1217(r),726(r),378(r)
                                                    881(r),855(r),2986(r)
                                                    2980(r),728(r),751(r),697(r)
                                                    494(r),1417(r),468(r)
                                                    1349(r),2992(r),477(r)
                                                    1066(r),1423(r),1045(r)
                                                    1491(r),732(r),754(r),418(r)
                                                    907(r),1063(r),605(r)
                                                    1436(r),466(r),1035(r)
                                                    428(r),3069(r),379(r),449(r)
                                                    677(r),748(r),3043(r)
                                                    1197(r),603(r),616(r),621(r)
                                                    1416(r),380(r),384(r)
                                                    1194(r),566(r)
  1442. RY*(   1)Cl  53                  0.00148     0.85653   
  1443. RY*(   2)Cl  53                  0.00129     0.64548   
  1444. RY*(   3)Cl  53                  0.00126     0.78789   
  1445. RY*(   4)Cl  53                  0.00047     0.90083   
  1446. RY*(   5)Cl  53                  0.00024     1.16259   
  1447. RY*(   6)Cl  53                  0.00015     1.64035   
  1448. RY*(   7)Cl  53                  0.00010     1.44195   
  1449. RY*(   8)Cl  53                  0.00008     1.54506   
  1450. RY*(   9)Cl  53                  0.00007     1.86641   
  1451. RY*(  10)Cl  53                  0.00005     1.69040   
  1452. RY*(  11)Cl  53                  0.00002     2.68678   
  1453. RY*(  12)Cl  53                  0.00001     2.68511   
  1454. RY*(  13)Cl  53                  0.00000     1.95005   
  1455. RY*(  14)Cl  53                  0.00000    10.47068   
  1456. RY*(  15)Cl  53                  0.00001     2.06443   
  1457. RY*(  16)Cl  53                  0.00000    10.50575   
  1458. RY*(  17)Cl  53                  0.00001     2.00609   
  1459. RY*(  18)Cl  53                  0.00000    25.31365   
  1460. RY*(  19)Cl  53                  0.00000     1.98581   
  1461. RY*(  20)Cl  53                  0.00000    10.52850   
  1462. RY*(  21)Cl  53                  0.00000     2.33554   
  1463. RY*(  22)Cl  53                  0.00000     2.24380   
  1464. RY*(  23)Cl  53                  0.00000     2.23321   
  1465. RY*(  24)Cl  53                  0.00000     2.18848   
  1466. RY*(  25)Cl  53                  0.00000     2.15253   
  1467. RY*(  26)Cl  53                  0.00000     2.15411   
  1468. RY*(  27)Cl  53                  0.00001     2.15168   
  1469. RY*(  28)Cl  53                  0.00000     2.13368   
       -------------------------------
              Total Lewis   17.38220  ( 99.9697%)
        Valence non-Lewis    0.00000  (  0.0000%)
        Rydberg non-Lewis    0.00526  (  0.0303%)
       -------------------------------
            Total unit  3   17.38747  (100.0000%)
           Charge unit  3   -0.38747
 1\1\GINC-NOTCH214\SP\RPBE1PBE\Gen\C60H42Cl2F24Fe1N2P2Pd1\U6034117\29-A
 pr-2022\0\\# PBE1PBE gen pseudo=read int=(grid=ultrafine) empiricaldis
 persion=GD3BJ pop=nbo guess=read geom=check\\M003_1_1 title\\0,1\Fe,0,
 -0.0207573606,-1.5194394682,1.6919914869\P,0,1.7968366948,-0.094062755
 6,-0.7720030544\P,0,-1.7813040832,0.2962586294,-0.540408089\C,0,1.5041
 010016,-1.4370879802,0.413507368\C,0,0.5790102525,-2.4850681115,0.0169
 591343\C,0,0.4937642092,-3.4376653067,1.0770747517\C,0,1.3395579276,-2
 .9934968575,2.1366134057\C,0,1.9930336576,-1.7655953092,1.7521710319\C
 ,0,-1.5321260093,-0.3034273015,1.1749879567\C,0,-2.0521093477,-1.41843
 44104,1.9683978652\C,0,-1.3698699998,-1.3769036316,3.2372536842\C,0,-0
 .4731706603,-0.2667138973,3.2624426306\C,0,-0.5608573411,0.3968830774,
 1.999667207\C,0,3.3569110089,-0.6197881073,-1.5889513095\C,0,4.1911857
 913,0.3254659728,-2.2115980999\C,0,5.3881221066,-0.0886393078,-2.80971
 93364\C,0,5.7593951853,-1.4391435213,-2.8028453554\C,0,4.9174834089,-2
 .3781592284,-2.1938659114\C,0,3.7162172925,-1.975206726,-1.5957058752\
 C,0,2.2882741552,1.4834683279,0.0478196018\C,0,3.5568599819,1.67007297
 85,0.6308495347\C,0,3.9000658093,2.9263014889,1.1509783485\C,0,2.99240
 05826,3.9964128,1.1097091679\C,0,1.7384197924,3.8077374418,0.523106875
 5\C,0,1.3949003997,2.5633068546,-0.0248449615\C,0,-2.4446961691,1.9848
 633194,-0.1835497607\C,0,-3.1131524359,2.2083331754,1.0314577294\C,0,-
 3.6458168558,3.471083748,1.3249927161\C,0,-3.4985245802,4.526132674,0.
 4196457866\C,0,-2.8233224259,4.302966022,-0.7893676356\C,0,-2.30131352
 66,3.0420562238,-1.1017324213\C,0,-3.2242291351,-0.6290025952,-1.20722
 51307\C,0,-4.5420562427,-0.2584457565,-0.9063142857\C,0,-5.6117521986,
 -1.0204260664,-1.3991153977\C,0,-5.3774520577,-2.1459563686,-2.1976806
 792\C,0,-4.058257435,-2.4941346655,-2.5200013374\C,0,-2.9842839041,-1.
 7362410994,-2.0367626576\H,0,0.0229547163,-2.5001652282,-0.9218672111\
 H,0,0.0155198827,1.2703590342,1.6953005963\H,0,3.9180418596,1.38210982
 09,-2.2294494187\H,0,6.6984471375,-1.7545908176,-3.2645910547\H,0,3.07
 12066641,-2.7232085787,-1.1300845113\H,0,4.2613325365,0.8308240485,0.6
 724466302\H,0,3.2720798905,4.9740350812,1.5088758841\H,0,0.4375817738,
 2.4372229749,-0.5426668488\H,0,-3.2242224743,1.400124203,1.7576069345\
 H,0,-3.8990280494,5.5157016651,0.6548851914\H,0,-1.7982790213,2.872432
 3293,-2.0585216319\H,0,-4.7472957693,0.6255000612,-0.296442845\H,0,-6.
 2127554106,-2.7384886148,-2.5762396928\H,0,-1.959288764,-1.9895652338,
 -2.3239703913\Cl,0,1.4911271169,0.7073884225,-3.8396205114\Cl,0,-1.815
 6585369,0.8711483385,-3.611330689\Pd,0,-0.0538002775,0.3523185565,-2.0
 916165964\C,0,3.0414881692,-1.0156595859,2.5455330668\H,0,0.2182515921
 ,-0.0221628235,4.0688423216\H,0,-1.5104824358,-2.1026762054,4.03649937
 9\C,0,-3.2129386178,-2.3685359112,1.7005285259\H,0,2.8274218222,0.0641
 398146,2.4304336535\N,0,4.3816069695,-1.1960750378,1.9161782048\C,0,5.
 4360721531,-0.5324675695,2.6878426677\C,0,4.7812421471,-2.5698992256,1
 .6102321374\H,0,6.338040085,-0.4420199695,2.0588222221\H,0,5.115438085
 4,0.4777453943,2.9830743283\H,0,5.7072269555,-1.0849920705,3.614125613
 5\H,0,5.6275416327,-2.5467169772,0.9040024444\H,0,5.1074317604,-3.1448
 630624,2.5057373874\H,0,3.9563908197,-3.1142567085,1.126505591\C,0,2.9
 623419317,-1.651003682,6.8581844182\C,0,3.2525705489,-2.7274721295,6.0
 079089623\C,0,3.268962008,-2.5491978585,4.6173566779\C,0,2.991323187,-
 1.2889130092,4.0486591422\C,0,2.7330894499,-0.2120343153,4.9185392063\
 C,0,2.7071252129,-0.3870042269,6.3085695525\H,0,2.9471352781,-1.794449
 4418,7.943175017\H,0,3.4705855213,-3.7147337457,6.4284294339\H,0,3.504
 4559962,-3.4015276545,3.9742717847\H,0,2.5613895665,0.7850680162,4.493
 5068156\H,0,2.4968325405,0.4661210452,6.9618284859\N,0,-4.2241253242,-
 2.2061483095,2.7774205016\H,0,-3.6495278811,-2.1096008474,0.7145023787
 \C,0,-5.4015747917,-3.0386593134,2.4960740206\C,0,-4.6581100318,-0.814
 36575,2.9337184046\H,0,-5.9247779132,-2.7410161886,1.5592778642\H,0,-5
 .10877805,-4.0962664938,2.4154852109\H,0,-6.1142041433,-2.9376222616,3
 .3317529543\H,0,-5.147203719,-0.3998063187,2.0222019599\H,0,-5.3930325
 606,-0.7646685608,3.7545040344\H,0,-3.8074868378,-0.1723290694,3.20999
 67765\C,0,-1.8443504957,-6.4872161763,1.4086946318\C,0,-2.2118746461,-
 5.7749820269,0.257957039\C,0,-2.6697750209,-4.4545627468,0.3700608949\
 C,0,-2.7594930597,-3.8241502877,1.6208523378\C,0,-2.4175156988,-4.5541
 370243,2.7740488571\C,0,-1.9576992099,-5.8735587063,2.6676380987\H,0,-
 1.4844698523,-7.5180516989,1.32923028\H,0,-2.9534233704,-3.9054834658,
 -0.5299958103\H,0,-2.5458227569,-4.0897222991,3.7564893877\C,0,-4.3140
 545318,3.6772222596,2.6623318644\F,0,-5.0484269434,2.5834751162,3.0189
 340915\F,0,-3.3941480769,3.8729148049,3.6474564394\F,0,-5.1426927668,4
 .7513462693,2.6576372779\C,0,-2.6775067167,5.4577676351,-1.7549461098\
 F,0,-3.8808251602,5.7871717038,-2.3004239814\F,0,-2.2176418689,6.56721
 14798,-1.1095099204\F,0,-1.824546351,5.1778706813,-2.7663245249\C,0,-7
 .0156087069,-0.6347749408,-1.0011129441\F,0,-7.9524398736,-1.247991024
 7,-1.7655543656\F,0,-7.2654284475,-0.9778906568,0.3011229326\F,0,-7.20
 52466647,0.7067867421,-1.093107701\C,0,-3.7701608422,-3.6668470089,-3.
 4278359699\F,0,-2.7379273559,-4.4209935299,-2.9333141295\F,0,-4.845936
 3922,-4.4848089141,-3.5580137108\F,0,-3.4026484446,-3.2610225263,-4.66
 62127382\C,0,6.2518023941,0.927662519,-3.5189374129\F,0,7.5599158629,0
 .5489556913,-3.5284270945\F,0,5.8677312924,1.0894245591,-4.8107353851\
 F,0,6.1782946118,2.1462407016,-2.9171573929\C,0,5.3607290189,-3.816203
 5444,-2.1016162313\F,0,4.3260872833,-4.6539593993,-1.8265561571\F,0,5.
 9491615177,-4.2373212096,-3.2502365275\F,0,6.2837736926,-3.9796846775,
 -1.1031311175\C,0,5.2455360531,3.1334122701,1.8057866851\F,0,5.6696028
 794,4.4168013279,1.6899714969\F,0,5.1807314025,2.8552805248,3.14555217
 04\F,0,6.1975089301,2.3262037505,1.2732613454\C,0,0.7205731742,4.92187
 81489,0.4626138854\F,0,0.2720776346,5.1022568272,-0.8072384463\F,0,-0.
 3643616003,4.6165845517,1.2339111219\F,0,1.2198364092,6.1015585353,0.9
 045931592\H,0,-2.1496312958,-6.2393147584,-0.7315684459\H,0,-1.6945136
 283,-6.4304813264,3.5732289559\H,0,-0.1581013333,-4.3084983329,1.10115
 4777\H,0,1.4193370649,-3.4607500889,3.1166584236\\Version=ES64L-G16Rev
 B.01\State=1-A\HF=-6669.0480577\RMSD=1.749e-09\Dipole=0.2490216,-2.252
 4253,4.8343177\Quadrupole=-4.4164437,10.7384048,-6.3219611,4.3026685,9
 .5638916,-2.5613273\PG=C01 [X(C60H42Cl2F24Fe1N2P2Pd1)]\\@


 THERE ARE TWO THINGS THAT EVERYBODY THINKS THEY CAN DO BETTER THAN
 ANYONE ELSE - PUNCH THE FIRE, AND EDIT A DAILY PAPER.
 -- UNCLE ESEK, "CENTURY MAGAZINE", 1885
 Job cpu time:       0 days  8 hours 45 minutes  1.5 seconds.
 Elapsed time:       0 days  0 hours 10 minutes  9.7 seconds.
 File lengths (MBytes):  RWF=   5031 Int=      0 D2E=      0 Chk=    757 Scr=      1
 Normal termination of Gaussian 16 at Fri Apr 29 18:05:03 2022.
