 Entering Gaussian System, Link 0=g09
 Input=M003_1_5_SPE.com
 Output=M003_1_5_SPE.log
 Initial command:
 /gstore/apps/gaussian/g09.e01-foss-2017a/g09/l1.exe "/local/22791170/Gau-24427.inp" -scrdir="/local/22791170/"
 Entering Link 1 = /gstore/apps/gaussian/g09.e01-foss-2017a/g09/l1.exe PID=     24428.
  
 Copyright (c) 1988,1990,1992,1993,1995,1998,2003,2009,2015,
            Gaussian, Inc.  All Rights Reserved.
  
 This is part of the Gaussian(R) 09 program.  It is based on
 the Gaussian(R) 03 system (copyright 2003, Gaussian, Inc.),
 the Gaussian(R) 98 system (copyright 1998, Gaussian, Inc.),
 the Gaussian(R) 94 system (copyright 1995, Gaussian, Inc.),
 the Gaussian 92(TM) system (copyright 1992, Gaussian, Inc.),
 the Gaussian 90(TM) system (copyright 1990, Gaussian, Inc.),
 the Gaussian 88(TM) system (copyright 1988, Gaussian, Inc.),
 the Gaussian 86(TM) system (copyright 1986, Carnegie Mellon
 University), and the Gaussian 82(TM) system (copyright 1983,
 Carnegie Mellon University). Gaussian is a federally registered
 trademark of Gaussian, Inc.
  
 This software contains proprietary and confidential information,
 including trade secrets, belonging to Gaussian, Inc.
  
 This software is provided under written license and may be
 used, copied, transmitted, or stored only in accord with that
 written license.
  
 The following legend is applicable only to US Government
 contracts under FAR:
  
                    RESTRICTED RIGHTS LEGEND
  
 Use, reproduction and disclosure by the US Government is
 subject to restrictions as set forth in subparagraphs (a)
 and (c) of the Commercial Computer Software - Restricted
 Rights clause in FAR 52.227-19.
  
 Gaussian, Inc.
 340 Quinnipiac St., Bldg. 40, Wallingford CT 06492
  
  
 ---------------------------------------------------------------
 Warning -- This program may not be used in any manner that
 competes with the business of Gaussian, Inc. or will provide
 assistance to any competitor of Gaussian, Inc.  The licensee
 of this program is prohibited from giving any competitor of
 Gaussian, Inc. access to this program.  By using this program,
 the user acknowledges that Gaussian, Inc. is engaged in the
 business of creating and licensing software in the field of
 computational chemistry and represents and warrants to the
 licensee that it is not a competitor of Gaussian, Inc. and that
 it will not use this program in any manner prohibited above.
 ---------------------------------------------------------------
  

 Cite this work as:
 Gaussian 09, Revision E.01,
 M. J. Frisch, G. W. Trucks, H. B. Schlegel, G. E. Scuseria, 
 M. A. Robb, J. R. Cheeseman, G. Scalmani, V. Barone, B. Mennucci, 
 G. A. Petersson, H. Nakatsuji, M. Caricato, X. Li, H. P. Hratchian, 
 A. F. Izmaylov, J. Bloino, G. Zheng, J. L. Sonnenberg, M. Hada, 
 M. Ehara, K. Toyota, R. Fukuda, J. Hasegawa, M. Ishida, T. Nakajima, 
 Y. Honda, O. Kitao, H. Nakai, T. Vreven, J. A. Montgomery, Jr., 
 J. E. Peralta, F. Ogliaro, M. Bearpark, J. J. Heyd, E. Brothers, 
 K. N. Kudin, V. N. Staroverov, T. Keith, R. Kobayashi, J. Normand, 
 K. Raghavachari, A. Rendell, J. C. Burant, S. S. Iyengar, J. Tomasi, 
 M. Cossi, N. Rega, J. M. Millam, M. Klene, J. E. Knox, J. B. Cross, 
 V. Bakken, C. Adamo, J. Jaramillo, R. Gomperts, R. E. Stratmann, 
 O. Yazyev, A. J. Austin, R. Cammi, C. Pomelli, J. W. Ochterski, 
 R. L. Martin, K. Morokuma, V. G. Zakrzewski, G. A. Voth, 
 P. Salvador, J. J. Dannenberg, S. Dapprich, A. D. Daniels, 
 O. Farkas, J. B. Foresman, J. V. Ortiz, J. Cioslowski, 
 and D. J. Fox, Gaussian, Inc., Wallingford CT, 2013.
 
 ******************************************
 Gaussian 09:  ES64L-G09RevE.01 30-Nov-2015
                 1-Dec-2021 
 ******************************************
 %nprocs=14
 Will use up to   14 processors via shared memory.
 %mem=128GB
 %chk=M003_1_5_SPE.chk
 ----------------------------------------------------------------------
 # PBE1PBE gen pseudo=read int=(grid=ultrafine) empiricaldispersion=GD3
 BJ nmr=giao
 ----------------------------------------------------------------------
 1/38=1/1;
 2/12=2,17=6,18=5,40=1/2;
 3/5=7,11=2,16=1,17=8,25=1,30=1,74=-13,75=-5,124=41/1,2,8,3;
 4//1;
 5/5=2,38=5/2;
 8/6=1,10=90,11=11/1;
 10/13=100,45=16/2;
 6/7=2,8=2,9=2,10=2,28=1/1;
 99/9=1/99;
 --------------
 M003_1_5 title
 --------------
 Symbolic Z-matrix:
 Charge =  0 Multiplicity = 1
 Fe                    0.03339  -1.60513   1.73047 
 P                     1.79895  -0.12567  -0.81451 
 P                    -1.76244   0.28711  -0.44172 
 C                     1.53773  -1.43025   0.42359 
 C                     0.66577  -2.54147   0.07041 
 C                     0.6826   -3.48365   1.14709 
 C                     1.52721  -2.96416   2.17324 
 C                     2.09153  -1.71206   1.74396 
 C                    -1.52822  -0.44018   1.22538 
 C                    -2.0158   -1.6532    1.88129 
 C                    -1.41781  -1.68212   3.19183 
 C                    -0.61125  -0.52279   3.37713 
 C                    -0.65561   0.24001   2.17026 
 C                     3.27485  -0.75868  -1.71479 
 C                     3.5654   -2.13028  -1.68759 
 C                     4.70966  -2.62189  -2.33297 
 C                     5.56382  -1.75625  -3.02319 
 C                     5.25951  -0.3883   -3.06958 
 C                     4.12161   0.11414  -2.42663 
 C                     2.42205   1.40562   0.00377 
 C                     3.77799   1.60418   0.32636 
 C                     4.17968   2.76934   0.99281 
 C                     3.24086   3.74567   1.3568 
 C                     1.89607   3.55584   1.0202 
 C                     1.49298   2.40573   0.32456 
 C                    -2.3841    1.95689   0.04804 
 C                    -2.13426   3.09047  -0.7458 
 C                    -2.59068   4.34647  -0.32429 
 C                    -3.30153   4.48826   0.87504 
 C                    -3.55732   3.35601   1.657 
 C                    -3.09624   2.09709   1.25204 
 C                    -3.20981  -0.57439  -1.17729 
 C                    -4.52865  -0.22684  -0.85843 
 C                    -5.59323  -0.95881  -1.40618 
 C                    -5.35115  -2.03061  -2.27332 
 C                    -4.02926  -2.35346  -2.61258 
 C                    -2.96184  -1.62348  -2.07821 
 H                     0.08085  -2.61392  -0.8481 
 H                    -0.13458   1.18089   1.99849 
 H                     2.91337  -2.82626  -1.15497 
 H                     6.46041  -2.13919  -3.51592 
 H                     3.90376   1.18234  -2.47406 
 H                     4.53044   0.85946   0.05459 
 H                     3.55623   4.64363   1.89286 
 H                     0.44828   2.28972   0.02031 
 H                    -1.59551   2.98759  -1.69252 
 H                    -3.64465   5.47351   1.20072 
 H                    -3.28724   1.22903   1.88717 
 H                    -4.73955   0.61598  -0.19496 
 H                    -6.18327  -2.60038  -2.69247 
 H                    -1.93387  -1.85198  -2.37622 
 Cl                    1.42416   0.92825  -3.78851 
 Cl                   -1.86353   1.14529  -3.44082 
 Pd                   -0.07615   0.44954  -2.02641 
 C                     3.1815   -0.97239   2.50486 
 H                    -0.00845  -0.29381   4.25348 
 H                    -1.55616  -2.48873   3.91017 
 C                    -3.10537  -2.63519   1.47018 
 H                     3.5178   -0.12838   1.86578 
 N                     4.31588  -1.88772   2.76832 
 C                     4.80225  -2.52176   1.54136 
 C                     5.41984  -1.15166   3.39704 
 H                     5.65121  -3.17926   1.78983 
 H                     4.01712  -3.14339   1.08687 
 H                     5.1537   -1.78715   0.77756 
 H                     6.25406  -1.849     3.57854 
 H                     5.7953   -0.31346   2.76509 
 H                     5.09919  -0.73272   4.36282 
 C                     1.62391   0.79459   6.1565 
 C                     1.96998  -0.56664   6.12835 
 C                     2.48968  -1.14031   4.95987 
 C                     2.66681  -0.36035   3.80295 
 C                     2.34344   1.00558   3.84676 
 C                     1.81776   1.58164   5.01173 
 H                     1.21417   1.23977   7.06873 
 H                     1.8373   -1.18356   7.02333 
 H                     2.78859  -2.19316   4.93948 
 H                     2.49573   1.62223   2.95644 
 H                     1.56205   2.64642   5.02344 
 N                    -4.18413  -2.60562   2.49267 
 H                    -3.49641  -2.32722   0.48001 
 C                    -5.30999  -3.44533   2.06366 
 C                    -4.6819   -1.25333   2.76594 
 H                    -5.79652  -3.07096   1.13437 
 H                    -4.97008  -4.47784   1.89217 
 H                    -6.06907  -3.45717   2.86376 
 H                    -5.1593   -0.77195   1.88284 
 H                    -5.44533  -1.31631   3.55962 
 H                    -3.86995  -0.6079    3.1349 
 C                    -1.49792  -6.64895   0.99572 
 C                    -1.78128  -5.85848  -0.12752 
 C                    -2.31845  -4.57392   0.03755 
 C                    -2.57103  -4.05741   1.31845 
 C                    -2.31265  -4.86661   2.44007 
 C                    -1.77486  -6.15078   2.27985 
 H                    -1.07768  -7.65235   0.87315 
 H                    -2.54335  -3.96818  -0.84346 
 H                    -2.56744  -4.48961   3.43535 
 C                    -2.34746   5.5644   -1.18773 
 F                    -3.42987   5.83331  -1.96616 
 F                    -2.11875   6.6677   -0.42213 
 F                    -1.28166   5.39677  -2.0074 
 C                    -4.25397   3.47892   2.99026 
 F                    -5.00053   2.37108   3.26205 
 F                    -3.35328   3.60948   4.00395 
 F                    -5.07584   4.5581    3.03529 
 C                    -7.00334  -0.61511  -0.99141 
 F                    -7.1789    0.72764  -0.89181 
 F                    -7.92389  -1.09897  -1.86173 
 F                    -7.29274  -1.1436    0.23822 
 C                    -3.74404  -3.45201  -3.60956 
 F                    -4.75904  -4.35298  -3.66927 
 F                    -3.55604  -2.95812  -4.85667 
 F                    -2.60606  -4.13509  -3.27341 
 C                     5.05527  -4.08101  -2.17456 
 F                     5.91971  -4.50997  -3.12761 
 F                     5.64435  -4.31068  -0.96054 
 F                     3.94638  -4.86665  -2.22615 
 C                     6.13647   0.55307  -3.86227 
 F                     5.68883   0.69203  -5.13575 
 F                     6.16369   1.79257  -3.30173 
 F                     7.4187    0.09976  -3.92857 
 C                     5.62169   2.90892   1.42066 
 F                     5.98591   4.20871   1.55229 
 F                     5.82114   2.30695   2.63077 
 F                     6.46461   2.31803   0.53578 
 C                     0.84569   4.57548   1.39108 
 F                     1.31767   5.50183   2.26152 
 F                     0.37834   5.22952   0.29713 
 F                    -0.22542   3.9614    1.98055 
 H                    -1.59449  -6.23861  -1.1372 
 H                    -1.5777   -6.7702    3.16128 
 H                     0.09252  -4.39591   1.20541 
 H                     1.7045   -3.41786   3.14786 
 
 Stoichiometry    C60H42Cl2F24FeN2P2Pd
 Framework group  C1[X(C60H42Cl2F24FeN2P2Pd)]
 Deg. of freedom   396
 Full point group                 C1      NOp   1
 Largest Abelian subgroup         C1      NOp   1
 Largest concise Abelian subgroup C1      NOp   1
                         Standard orientation:                         
 ---------------------------------------------------------------------
 Center     Atomic      Atomic             Coordinates (Angstroms)
 Number     Number       Type             X           Y           Z
 ---------------------------------------------------------------------
      1         26           0       -0.106912   -1.007175    2.108236
      2         15           0        1.819479   -0.369480   -0.660395
      3         15           0       -1.749483    0.135152   -0.634218
      4          6           0        1.469193   -1.236625    0.897950
      5          6           0        0.599213   -2.403069    0.849147
      6          6           0        0.541428   -2.973797    2.159941
      7          6           0        1.337444   -2.166787    3.026730
      8          6           0        1.945337   -1.103883    2.270965
      9          6           0       -1.618811   -0.051426    1.185439
     10          6           0       -2.161791   -1.008234    2.149312
     11          6           0       -1.636740   -0.637507    3.438816
     12          6           0       -0.822079    0.523761    3.309600
     13          6           0       -0.787709    0.884027    1.927798
     14          6           0        3.331416   -1.245226   -1.240584
     15          6           0        3.596913   -2.543638   -0.782260
     16          6           0        4.766234   -3.207423   -1.181781
     17          6           0        5.671216   -2.591816   -2.052041
     18          6           0        5.392966   -1.302705   -2.528297
     19          6           0        4.230319   -0.629336   -2.134008
     20          6           0        2.422725    1.338305   -0.310759
     21          6           0        3.762198    1.626154    0.013290
     22          6           0        4.146508    2.938883    0.316871
     23          6           0        3.205808    3.979145    0.313502
     24          6           0        1.878373    3.695367   -0.025875
     25          6           0        1.494510    2.388120   -0.361880
     26          6           0       -2.368727    1.874491   -0.710113
     27          6           0       -2.056912    2.713602   -1.794660
     28          6           0       -2.514424    4.038056   -1.800587
     29          6           0       -3.287142    4.536978   -0.743328
     30          6           0       -3.604227    3.695522    0.329185
     31          6           0       -3.143008    2.373309    0.351996
     32          6           0       -3.168877   -0.909779   -1.155310
     33          6           0       -4.497112   -0.482503   -1.032649
     34          6           0       -5.542406   -1.346791   -1.392511
     35          6           0       -5.271472   -2.631172   -1.878556
     36          6           0       -3.938675   -3.041123   -2.027933
     37          6           0       -2.889843   -2.182781   -1.680031
     38          1           0        0.064117   -2.751328   -0.035965
     39          1           0       -0.242311    1.728585    1.508869
     40          1           0        2.905186   -3.045350   -0.101819
     41          1           0        6.586771   -3.105834   -2.353456
     42          1           0        4.033396    0.373900   -2.515436
     43          1           0        4.515705    0.834459    0.023522
     44          1           0        3.506542    4.997656    0.569149
     45          1           0        0.466154    2.184657   -0.675733
     46          1           0       -1.469142    2.328380   -2.633253
     47          1           0       -3.630875    5.574423   -0.751852
     48          1           0       -3.382953    1.739010    1.208442
     49          1           0       -4.729657    0.521885   -0.669134
     50          1           0       -6.088970   -3.301757   -2.152005
     51          1           0       -1.851147   -2.490454   -1.835550
     52         17           0        1.625251   -0.268633   -3.830248
     53         17           0       -1.672393    0.042031   -3.752977
     54         46           0        0.023221   -0.190421   -2.094599
     55          6           0        3.004481   -0.167518    2.832689
     56          1           0       -0.264206    1.008363    4.108178
     57          1           0       -1.827623   -1.187968    4.358788
     58          6           0       -3.243707   -2.069263    1.993807
     59          1           0        3.389302    0.442748    1.988068
     60          7           0        4.107238   -0.959031    3.425565
     61          6           0        4.649054   -1.935464    2.478467
     62          6           0        5.187497   -0.066233    3.863457
     63          1           0        5.472005   -2.486026    2.962625
     64          1           0        3.879520   -2.666159    2.189812
     65          1           0        5.053961   -1.467303    1.549257
     66          1           0        5.998720   -0.675089    4.295148
     67          1           0        5.610922    0.540675    3.029620
     68          1           0        4.821758    0.626030    4.636793
     69          6           0        1.280028    2.624098    5.681533
     70          6           0        1.604154    1.318781    6.087229
     71          6           0        2.177074    0.417644    5.179357
     72          6           0        2.430141    0.809539    3.852501
     73          6           0        2.127906    2.124106    3.461568
     74          6           0        1.549255    3.026454    4.365035
     75          1           0        0.828705    3.325055    6.390893
     76          1           0        1.412487    1.002695    7.118030
     77          1           0        2.458883   -0.591531    5.496243
     78          1           0        2.338892    2.441352    2.436406
     79          1           0        1.311250    4.044378    4.038733
     80          7           0       -4.375971   -1.731155    2.895882
     81          1           0       -3.574918   -2.076722    0.936248
     82          6           0       -5.490732   -2.662070    2.678138
     83          6           0       -4.865067   -0.359999    2.717390
     84          1           0       -5.919485   -2.587824    1.652905
     85          1           0       -5.159411   -3.697725    2.847468
     86          1           0       -6.292413   -2.430779    3.399472
     87          1           0       -5.285417   -0.169765    1.704167
     88          1           0       -5.671600   -0.179384    3.447876
     89          1           0       -4.063688    0.367421    2.919004
     90          6           0       -1.680576   -6.036732    2.851216
     91          6           0       -1.888909   -5.624820    1.526924
     92          6           0       -2.412578   -4.351074    1.263807
     93          6           0       -2.725908   -3.470117    2.311200
     94          6           0       -2.542747   -3.900371    3.638193
     95          6           0       -2.018718   -5.172277    3.905852
     96          1           0       -1.271231   -7.029741    3.062847
     97          1           0       -2.578861   -4.041594    0.229282
     98          1           0       -2.845048   -3.239077    4.456076
     99          6           0       -2.204004    4.936397   -2.977298
    100          9           0       -3.237667    4.955661   -3.861070
    101          9           0       -1.998849    6.220203   -2.570520
    102          9           0       -1.098060    4.528335   -3.645323
    103          6           0       -4.370382    4.217130    1.520369
    104          9           0       -5.149205    3.243751    2.072189
    105          9           0       -3.524249    4.649817    2.496429
    106          9           0       -5.175196    5.258593    1.189088
    107          6           0       -6.967047   -0.894103   -1.182667
    108          9           0       -7.125151    0.415390   -1.505070
    109          9           0       -7.846777   -1.619883   -1.916368
    110          9           0       -7.331937   -1.024393    0.130696
    111          6           0       -3.618036   -4.390398   -2.626917
    112          9           0       -4.643300   -5.267473   -2.468470
    113          9           0       -3.354011   -4.298432   -3.952204
    114          9           0       -2.511746   -4.938543   -2.035099
    115          6           0        5.078073   -4.549353   -0.568974
    116          9           0        5.985860   -5.247024   -1.296125
    117          9           0        5.596107   -4.399213    0.689083
    118          9           0        3.960568   -5.314134   -0.443130
    119          6           0        6.327584   -0.646045   -3.517689
    120          9           0        5.952465   -0.900599   -4.796728
    121          9           0        6.345059    0.705153   -3.358763
    122          9           0        7.603709   -1.097418   -3.370127
    123          6           0        5.565178    3.202546    0.763835
    124          9           0        5.943514    4.481113    0.515743
    125          9           0        5.688169    2.996575    2.108811
    126          9           0        6.445041    2.371283    0.149395
    127          6           0        0.826643    4.778937   -0.042199
    128          9           0        1.265976    5.926117    0.531845
    129          9           0        0.430734    5.069654   -1.307758
    130          9           0       -0.285214    4.372304    0.643566
    131          1           0       -1.653758   -6.293515    0.692427
    132          1           0       -1.880381   -5.494684    4.943341
    133          1           0       -0.066236   -3.825576    2.458336
    134          1           0        1.453648   -2.303019    4.101483
 ---------------------------------------------------------------------
 Rotational constants (GHZ):      0.0215577      0.0162509      0.0140742
 General basis read from cards:  (5D, 7F)
 ======================================================================================================
                                       Pseudopotential Parameters
 ======================================================================================================
  Center     Atomic      Valence      Angular      Power
  Number     Number     Electrons     Momentum     of R      Exponent        Coefficient   SO-Coeffient
 ======================================================================================================
    1         26           16
                                      F and up 
                                                     2        1.0000000        0.00000000    0.00000000
                                      S - F
                                                     2       20.9300000      253.74958800    0.00000000
                                                     2        9.4450000       37.92284500    0.00000000
                                      P - F
                                                     2       21.7600000      161.03681200    0.00000000
                                                     2        9.1780000       27.65129800    0.00000000
                                      D - F
                                                     2       25.9000000      -24.43127600    0.00000000
                                                     2        8.8350000       -1.43425100    0.00000000
    2         15
                                   No pseudopotential on this center.
    3         15
                                   No pseudopotential on this center.
    4          6
                                   No pseudopotential on this center.
    5          6
                                   No pseudopotential on this center.
    6          6
                                   No pseudopotential on this center.
    7          6
                                   No pseudopotential on this center.
    8          6
                                   No pseudopotential on this center.
    9          6
                                   No pseudopotential on this center.
   10          6
                                   No pseudopotential on this center.
   11          6
                                   No pseudopotential on this center.
   12          6
                                   No pseudopotential on this center.
   13          6
                                   No pseudopotential on this center.
   14          6
                                   No pseudopotential on this center.
   15          6
                                   No pseudopotential on this center.
   16          6
                                   No pseudopotential on this center.
   17          6
                                   No pseudopotential on this center.
   18          6
                                   No pseudopotential on this center.
   19          6
                                   No pseudopotential on this center.
   20          6
                                   No pseudopotential on this center.
   21          6
                                   No pseudopotential on this center.
   22          6
                                   No pseudopotential on this center.
   23          6
                                   No pseudopotential on this center.
   24          6
                                   No pseudopotential on this center.
   25          6
                                   No pseudopotential on this center.
   26          6
                                   No pseudopotential on this center.
   27          6
                                   No pseudopotential on this center.
   28          6
                                   No pseudopotential on this center.
   29          6
                                   No pseudopotential on this center.
   30          6
                                   No pseudopotential on this center.
   31          6
                                   No pseudopotential on this center.
   32          6
                                   No pseudopotential on this center.
   33          6
                                   No pseudopotential on this center.
   34          6
                                   No pseudopotential on this center.
   35          6
                                   No pseudopotential on this center.
   36          6
                                   No pseudopotential on this center.
   37          6
                                   No pseudopotential on this center.
   38          1
                                   No pseudopotential on this center.
   39          1
                                   No pseudopotential on this center.
   40          1
                                   No pseudopotential on this center.
   41          1
                                   No pseudopotential on this center.
   42          1
                                   No pseudopotential on this center.
   43          1
                                   No pseudopotential on this center.
   44          1
                                   No pseudopotential on this center.
   45          1
                                   No pseudopotential on this center.
   46          1
                                   No pseudopotential on this center.
   47          1
                                   No pseudopotential on this center.
   48          1
                                   No pseudopotential on this center.
   49          1
                                   No pseudopotential on this center.
   50          1
                                   No pseudopotential on this center.
   51          1
                                   No pseudopotential on this center.
   52         17
                                   No pseudopotential on this center.
   53         17
                                   No pseudopotential on this center.
   54         46           18
                                      G and up 
                                                     2        1.0000000        0.00000000    0.00000000
                                      S - G
                                                     2       12.4300000      240.22904000    0.00000000
                                                     2        6.1707590       35.17194300    0.00000000
                                      P - G
                                                     2       11.0800000      170.41727600    0.00000000
                                                     2        5.8295540       28.47213300    0.00000000
                                      D - G
                                                     2        9.5100000       69.01384500    0.00000000
                                                     2        4.1397810       11.75086200    0.00000000
                                      F - G
                                                     2       13.2700000      -31.92955400    0.00000000
                                                     2        6.6300000       -5.39821700    0.00000000
   55          6
                                   No pseudopotential on this center.
   56          1
                                   No pseudopotential on this center.
   57          1
                                   No pseudopotential on this center.
   58          6
                                   No pseudopotential on this center.
   59          1
                                   No pseudopotential on this center.
   60          7
                                   No pseudopotential on this center.
   61          6
                                   No pseudopotential on this center.
   62          6
                                   No pseudopotential on this center.
   63          1
                                   No pseudopotential on this center.
   64          1
                                   No pseudopotential on this center.
   65          1
                                   No pseudopotential on this center.
   66          1
                                   No pseudopotential on this center.
   67          1
                                   No pseudopotential on this center.
   68          1
                                   No pseudopotential on this center.
   69          6
                                   No pseudopotential on this center.
   70          6
                                   No pseudopotential on this center.
   71          6
                                   No pseudopotential on this center.
   72          6
                                   No pseudopotential on this center.
   73          6
                                   No pseudopotential on this center.
   74          6
                                   No pseudopotential on this center.
   75          1
                                   No pseudopotential on this center.
   76          1
                                   No pseudopotential on this center.
   77          1
                                   No pseudopotential on this center.
   78          1
                                   No pseudopotential on this center.
   79          1
                                   No pseudopotential on this center.
   80          7
                                   No pseudopotential on this center.
   81          1
                                   No pseudopotential on this center.
   82          6
                                   No pseudopotential on this center.
   83          6
                                   No pseudopotential on this center.
   84          1
                                   No pseudopotential on this center.
   85          1
                                   No pseudopotential on this center.
   86          1
                                   No pseudopotential on this center.
   87          1
                                   No pseudopotential on this center.
   88          1
                                   No pseudopotential on this center.
   89          1
                                   No pseudopotential on this center.
   90          6
                                   No pseudopotential on this center.
   91          6
                                   No pseudopotential on this center.
   92          6
                                   No pseudopotential on this center.
   93          6
                                   No pseudopotential on this center.
   94          6
                                   No pseudopotential on this center.
   95          6
                                   No pseudopotential on this center.
   96          1
                                   No pseudopotential on this center.
   97          1
                                   No pseudopotential on this center.
   98          1
                                   No pseudopotential on this center.
   99          6
                                   No pseudopotential on this center.
  100          9
                                   No pseudopotential on this center.
  101          9
                                   No pseudopotential on this center.
  102          9
                                   No pseudopotential on this center.
  103          6
                                   No pseudopotential on this center.
  104          9
                                   No pseudopotential on this center.
  105          9
                                   No pseudopotential on this center.
  106          9
                                   No pseudopotential on this center.
  107          6
                                   No pseudopotential on this center.
  108          9
                                   No pseudopotential on this center.
  109          9
                                   No pseudopotential on this center.
  110          9
                                   No pseudopotential on this center.
  111          6
                                   No pseudopotential on this center.
  112          9
                                   No pseudopotential on this center.
  113          9
                                   No pseudopotential on this center.
  114          9
                                   No pseudopotential on this center.
  115          6
                                   No pseudopotential on this center.
  116          9
                                   No pseudopotential on this center.
  117          9
                                   No pseudopotential on this center.
  118          9
                                   No pseudopotential on this center.
  119          6
                                   No pseudopotential on this center.
  120          9
                                   No pseudopotential on this center.
  121          9
                                   No pseudopotential on this center.
  122          9
                                   No pseudopotential on this center.
  123          6
                                   No pseudopotential on this center.
  124          9
                                   No pseudopotential on this center.
  125          9
                                   No pseudopotential on this center.
  126          9
                                   No pseudopotential on this center.
  127          6
                                   No pseudopotential on this center.
  128          9
                                   No pseudopotential on this center.
  129          9
                                   No pseudopotential on this center.
  130          9
                                   No pseudopotential on this center.
  131          1
                                   No pseudopotential on this center.
  132          1
                                   No pseudopotential on this center.
  133          1
                                   No pseudopotential on this center.
  134          1
                                   No pseudopotential on this center.
 ======================================================================================================
 There are  3604 symmetry adapted cartesian basis functions of A   symmetry.
 There are  3145 symmetry adapted basis functions of A   symmetry.
  3145 basis functions,  5138 primitive gaussians,  3604 cartesian basis functions
   365 alpha electrons      365 beta electrons
       nuclear repulsion energy     23557.5655231308 Hartrees.
 NAtoms=  134 NActive=  134 NUniq=  134 SFac= 1.00D+00 NAtFMM=   60 NAOKFM=T Big=T
 Integral buffers will be    131072 words long.
 Raffenetti 2 integral format.
 Two-electron integral symmetry is turned on.
 Nuclear repulsion after empirical dispersion term =    23557.3108480287 Hartrees.
 One-electron integrals computed using PRISM.
   1 Symmetry operations used in ECPInt.
 ECPInt:  NShTT=  714610 NPrTT= 2256810 LenC2=  455291 LenP2D=  887082.
 LDataN:  DoStor=T MaxTD1= 7 Len=  274
 NBasis=  3145 RedAO= T EigKep=  2.79D-06  NBF=  3145
 NBsUse=  3145 1.00D-06 EigRej= -1.00D+00 NBFU=  3145
 Defaulting to unpruned grid for atomic number  46.
 ExpMin= 1.00D-02 ExpMax= 6.95D+04 ExpMxC= 2.37D+03 IAcc=3 IRadAn=         5 AccDes= 0.00D+00
 Harris functional with IExCor= 1009 and IRadAn=       5 diagonalized for initial guess.
 HarFok:  IExCor= 1009 AccDes= 0.00D+00 IRadAn=         5 IDoV= 1 UseB2=F ITyADJ=14
 ICtDFT=  3500011 ScaDFX=  1.000000  1.000000  1.000000  1.000000
 Defaulting to unpruned grid for atomic number  46.
 Defaulting to unpruned grid for atomic number  46.
 Defaulting to unpruned grid for atomic number  46.
 Defaulting to unpruned grid for atomic number  46.
 Defaulting to unpruned grid for atomic number  46.
 Defaulting to unpruned grid for atomic number  46.
 Defaulting to unpruned grid for atomic number  46.
 Defaulting to unpruned grid for atomic number  46.
 Defaulting to unpruned grid for atomic number  46.
 Defaulting to unpruned grid for atomic number  46.
 Defaulting to unpruned grid for atomic number  46.
 Defaulting to unpruned grid for atomic number  46.
 Defaulting to unpruned grid for atomic number  46.
 Defaulting to unpruned grid for atomic number  46.
 FoFCou: FMM=F IPFlag=           0 FMFlag=      100000 FMFlg1=        2001
         NFxFlg=           0 DoJE=T BraDBF=F KetDBF=T FulRan=T
         wScrn=  0.000000 ICntrl=     500 IOpCl=  0 I1Cent=   200000004 NGrid=           0
         NMat0=    1 NMatS0=      1 NMatT0=    0 NMatD0=    1 NMtDS0=    0 NMtDT0=    0
 Petite list used in FoFCou.
 Requested convergence on RMS density matrix=1.00D-08 within 128 cycles.
 Requested convergence on MAX density matrix=1.00D-06.
 Requested convergence on             energy=1.00D-06.
 No special actions if energy rises.
 Defaulting to unpruned grid for atomic number  46.
 Defaulting to unpruned grid for atomic number  46.
 Defaulting to unpruned grid for atomic number  46.
 Defaulting to unpruned grid for atomic number  46.
 Defaulting to unpruned grid for atomic number  46.
 Defaulting to unpruned grid for atomic number  46.
 Defaulting to unpruned grid for atomic number  46.
 Defaulting to unpruned grid for atomic number  46.
 Defaulting to unpruned grid for atomic number  46.
 Defaulting to unpruned grid for atomic number  46.
 Defaulting to unpruned grid for atomic number  46.
 Defaulting to unpruned grid for atomic number  46.
 Defaulting to unpruned grid for atomic number  46.
 Defaulting to unpruned grid for atomic number  46.
 Rare condition: small coef for last iteration:  0.000D+00
 EnCoef did   100 forward-backward iterations
 EnCoef did   100 forward-backward iterations
 EnCoef did   100 forward-backward iterations
 EnCoef did     4 forward-backward iterations
 EnCoef did     1 forward-backward iterations
 Restarting incremental Fock formation.
 SCF Done:  E(RPBE1PBE) =  -6669.05017370     A.U. after   31 cycles
            NFock= 31  Conv=0.26D-08     -V/T= 2.0242
 DoSCS=F DFT=T ScalE2(SS,OS)=  1.000000  1.000000
 Range of M.O.s used for correlation:     1  3145
 NBasis=  3145 NAE=   365 NBE=   365 NFC=     0 NFV=     0
 NROrb=   3145 NOA=   365 NOB=   365 NVA=  2780 NVB=  2780

 **** Warning!!: The largest alpha MO coefficient is  0.47823393D+02

          Differentiating once with respect to magnetic field using GIAOs.
          Electric field/nuclear overlap derivatives assumed to be zero.
 Defaulting to unpruned grid for atomic number  46.
 FoFCou: FMM=F IPFlag=           0 FMFlag=      100000 FMFlg1=        2001
         NFxFlg=           0 DoJE=F BraDBF=F KetDBF=T FulRan=T
         wScrn=  0.000000 ICntrl=    6100 IOpCl=  0 I1Cent=           7 NGrid=         134
         NMat0=    1 NMatS0=      1 NMatT0=    0 NMatD0=    1 NMtDS0=    0 NMtDT0=    0
 Symmetry not used in FoFCou.
   1 Symmetry operations used in ECPInt.
 ECPInt:  NShTT=  714610 NPrTT= 2256810 LenC2=  714611 LenP2D= 2256810.
 LDataN:  DoStor=T MaxTD1= 8 Len=  415
 FoFJK:  IHMeth= 1 ICntrl=    6127 DoSepK=F KAlg= 0 I1Cent=   0 FoldK=F
 IRaf=         1 NMat=   1 IRICut=       1 DoRegI=T DoRafI=F ISym2E= 0.
 Defaulting to unpruned grid for atomic number  46.
 Defaulting to unpruned grid for atomic number  46.
 Defaulting to unpruned grid for atomic number  46.
 Defaulting to unpruned grid for atomic number  46.
 Defaulting to unpruned grid for atomic number  46.
 Defaulting to unpruned grid for atomic number  46.
 Defaulting to unpruned grid for atomic number  46.
 Defaulting to unpruned grid for atomic number  46.
 Defaulting to unpruned grid for atomic number  46.
 Defaulting to unpruned grid for atomic number  46.
 Defaulting to unpruned grid for atomic number  46.
 Defaulting to unpruned grid for atomic number  46.
 Defaulting to unpruned grid for atomic number  46.
 Defaulting to unpruned grid for atomic number  46.
          There are     3 degrees of freedom in the 1st order CPHF.  IDoFFX=0 NUNeed=     3.
      3 vectors produced by pass  0 Test12= 3.38D-11 3.33D-08 XBig12= 5.63D+02 2.74D+00.
 AX will form     3 AO Fock derivatives at one time.
      3 vectors produced by pass  1 Test12= 3.38D-11 3.33D-08 XBig12= 3.16D+00 4.82D-01.
      3 vectors produced by pass  2 Test12= 3.38D-11 3.33D-08 XBig12= 1.32D-01 1.22D-01.
      3 vectors produced by pass  3 Test12= 3.38D-11 3.33D-08 XBig12= 3.24D-03 8.28D-03.
      3 vectors produced by pass  4 Test12= 3.38D-11 3.33D-08 XBig12= 3.84D-05 1.78D-03.
      3 vectors produced by pass  5 Test12= 3.38D-11 3.33D-08 XBig12= 1.57D-06 2.82D-04.
      3 vectors produced by pass  6 Test12= 3.38D-11 3.33D-08 XBig12= 1.88D-08 5.25D-05.
      3 vectors produced by pass  7 Test12= 3.38D-11 3.33D-08 XBig12= 4.13D-10 5.71D-06.
      3 vectors produced by pass  8 Test12= 3.38D-11 3.33D-08 XBig12= 3.09D-12 4.86D-07.
      3 vectors produced by pass  9 Test12= 3.38D-11 3.33D-08 XBig12= 1.40D-13 5.34D-08.
      1 vectors produced by pass 10 Test12= 3.38D-11 3.33D-08 XBig12= 1.09D-13 3.78D-08.
 InvSVY:  IOpt=1 It=  1 EMax= 1.07D-14
 Solved reduced A of dimension    31 with     3 vectors.
 Calculating GIAO nuclear magnetic shielding tensors.
 SCF GIAO Magnetic shielding tensor (ppm):
      1  Fe   Isotropic = -6397.2373   Anisotropy =  8063.5113
   XX= -3613.3867   YX= -3686.3959   ZX=  -942.7070
   XY= -3625.8927   YY= -6766.0507   ZY=   732.7954
   XZ=  -951.4779   YZ=   775.9607   ZZ= -8812.2746
   Eigenvalues: -9223.5770 -8946.5718 -1021.5631
      2  P    Isotropic =   226.1883   Anisotropy =   107.8236
   XX=   265.0308   YX=   -26.0340   ZX=    37.1600
   XY=   -27.2415   YY=   180.3361   ZY=    23.2888
   XZ=    51.2557   YZ=     1.0572   ZZ=   233.1979
   Eigenvalues:   162.5536   217.9405   298.0706
      3  P    Isotropic =   235.2270   Anisotropy =   150.8636
   XX=   280.8086   YX=   -46.1060   ZX=   -72.6697
   XY=   -53.2706   YY=   175.0828   ZY=     4.2083
   XZ=   -38.3105   YZ=    13.4577   ZZ=   249.7896
   Eigenvalues:   153.4268   216.4515   335.8028
      4  C    Isotropic =   108.2548   Anisotropy =    87.3773
   XX=   122.9193   YX=   -38.1235   ZX=    26.2007
   XY=   -45.7152   YY=   122.9502   ZY=    -4.1291
   XZ=    12.0019   YZ=     8.8202   ZZ=    78.8950
   Eigenvalues:    63.9910    94.2672   166.5064
      5  C    Isotropic =   102.6840   Anisotropy =    76.3360
   XX=   132.6300   YX=   -28.9813   ZX=   -19.5523
   XY=   -34.2575   YY=   103.8165   ZY=   -52.5781
   XZ=   -19.8634   YZ=   -29.5848   ZZ=    71.6055
   Eigenvalues:    31.7916   122.6857   153.5747
      6  C    Isotropic =   100.0101   Anisotropy =   107.6013
   XX=   146.9579   YX=   -39.9751   ZX=   -16.0499
   XY=   -50.4667   YY=    62.9716   ZY=    19.4565
   XZ=   -12.7186   YZ=    15.8196   ZZ=    90.1008
   Eigenvalues:    40.8910    87.3951   171.7443
      7  C    Isotropic =   108.4811   Anisotropy =    94.3880
   XX=   134.4980   YX=   -23.7004   ZX=   -42.1525
   XY=   -16.9866   YY=   118.8768   ZY=    50.8135
   XZ=   -24.0019   YZ=    20.0454   ZZ=    72.0684
   Eigenvalues:    47.8821   106.1547   171.4064
      8  C    Isotropic =    77.7296   Anisotropy =    95.2701
   XX=    73.9438   YX=   -44.6152   ZX=   -28.3190
   XY=   -34.3471   YY=   105.4156   ZY=    23.6013
   XZ=   -23.6110   YZ=     8.5529   ZZ=    53.8295
   Eigenvalues:    34.0574    57.8884   141.2431
      9  C    Isotropic =   110.3592   Anisotropy =    80.5499
   XX=   120.2416   YX=   -16.9323   ZX=   -43.4468
   XY=   -18.4826   YY=   119.8347   ZY=    35.4138
   XZ=   -18.4702   YZ=    26.6812   ZZ=    91.0014
   Eigenvalues:    64.6875   102.3310   164.0591
     10  C    Isotropic =    78.5305   Anisotropy =    96.2610
   XX=    69.9237   YX=   -53.7359   ZX=    -4.3449
   XY=   -40.5905   YY=   107.9153   ZY=    13.8270
   XZ=     1.5862   YZ=    22.2777   ZZ=    57.7526
   Eigenvalues:    34.2755    58.6115   142.7045
     11  C    Isotropic =   108.7448   Anisotropy =    94.8436
   XX=   133.3697   YX=   -44.3997   ZX=    21.6075
   XY=   -30.9170   YY=   134.8538   ZY=    -0.7917
   XZ=    13.2896   YZ=    22.0618   ZZ=    58.0110
   Eigenvalues:    49.4128   104.8478   171.9739
     12  C    Isotropic =   102.1054   Anisotropy =   104.8756
   XX=   151.7403   YX=   -36.0497   ZX=    -3.0350
   XY=   -44.0712   YY=    92.8754   ZY=   -23.5315
   XZ=   -17.1167   YZ=   -19.2819   ZZ=    61.7006
   Eigenvalues:    42.8777    91.4161   172.0225
     13  C    Isotropic =   107.2642   Anisotropy =    77.6413
   XX=   145.9384   YX=   -29.8604   ZX=     5.8980
   XY=   -39.7197   YY=    60.3429   ZY=    24.3021
   XZ=    -7.2998   YZ=     4.7945   ZZ=   115.5113
   Eigenvalues:    45.3871   117.3804   159.0250
     14  C    Isotropic =    43.8600   Anisotropy =   173.0515
   XX=    16.8327   YX=    51.0021   ZX=    74.5219
   XY=    44.8449   YY=    16.4825   ZY=    30.5712
   XZ=    69.9594   YZ=    31.7710   ZZ=    98.2648
   Eigenvalues:   -40.7436    13.0960   159.2277
     15  C    Isotropic =    43.1372   Anisotropy =   203.9429
   XX=    23.0487   YX=    15.2238   ZX=    86.8992
   XY=     6.5838   YY=    23.2608   ZY=    73.7583
   XZ=    91.5565   YZ=    80.8049   ZZ=    83.1021
   Eigenvalues:   -62.0810    12.3935   179.0992
     16  C    Isotropic =    48.1736   Anisotropy =   159.7055
   XX=    59.5206   YX=    34.9152   ZX=    38.4786
   XY=    37.4311   YY=   -13.4160   ZY=    68.2691
   XZ=    42.2268   YZ=    56.4079   ZZ=    98.4163
   Eigenvalues:   -44.3574    34.2343   154.6439
     17  C    Isotropic =    53.5327   Anisotropy =   191.7055
   XX=    17.6399   YX=    58.5326   ZX=    71.4701
   XY=    58.8199   YY=    33.9518   ZY=    41.8986
   XZ=    76.2933   YZ=    45.5043   ZZ=   109.0065
   Eigenvalues:   -40.9537    20.2155   181.3364
     18  C    Isotropic =    49.0272   Anisotropy =   157.9125
   XX=    30.6609   YX=     2.9989   ZX=    76.9638
   XY=     4.3664   YY=    36.7014   ZY=    56.9885
   XZ=    70.2972   YZ=    58.8093   ZZ=    79.7193
   Eigenvalues:   -38.1184    30.8978   154.3022
     19  C    Isotropic =    39.1499   Anisotropy =   205.0297
   XX=    43.4785   YX=    42.3765   ZX=    69.3698
   XY=    33.7150   YY=   -24.5954   ZY=    68.9298
   XZ=    57.9314   YZ=    82.5412   ZZ=    98.5665
   Eigenvalues:   -61.2654     2.8787   175.8363
     20  C    Isotropic =    42.5871   Anisotropy =   184.5975
   XX=    11.8875   YX=    -7.2733   ZX=   -33.5096
   XY=    -8.9415   YY=   -35.8631   ZY=   -27.9019
   XZ=   -44.8107   YZ=   -32.5368   ZZ=   151.7370
   Eigenvalues:   -44.6166     6.7259   165.6521
     21  C    Isotropic =    41.3320   Anisotropy =   203.2904
   XX=   -18.2687   YX=    38.8346   ZX=   -31.7331
   XY=    36.5678   YY=   -23.4378   ZY=   -29.8330
   XZ=   -39.6132   YZ=   -16.1993   ZZ=   165.7026
   Eigenvalues:   -58.9238     6.0610   176.8589
     22  C    Isotropic =    46.6130   Anisotropy =   162.4835
   XX=   -28.7749   YX=    -4.8018   ZX=   -45.0630
   XY=    -9.6749   YY=    27.9638   ZY=   -26.6119
   XZ=   -42.5891   YZ=   -20.8974   ZZ=   140.6500
   Eigenvalues:   -41.8139    26.7176   154.9353
     23  C    Isotropic =    52.4112   Anisotropy =   194.1295
   XX=    22.9215   YX=    -4.9769   ZX=   -37.3813
   XY=    -7.7750   YY=   -28.0373   ZY=   -41.3794
   XZ=   -43.7721   YZ=   -49.3245   ZZ=   162.3493
   Eigenvalues:   -42.2288    17.6315   181.8308
     24  C    Isotropic =    45.5403   Anisotropy =   161.1647
   XX=     0.7769   YX=    39.0386   ZX=   -24.9392
   XY=    45.2472   YY=    -6.5906   ZY=   -23.2590
   XZ=   -25.6760   YZ=   -23.9753   ZZ=   142.4346
   Eigenvalues:   -45.2110    28.8485   152.9834
     25  C    Isotropic =    34.3948   Anisotropy =   196.2779
   XX=   -47.6274   YX=   -15.5717   ZX=   -56.8542
   XY=    -3.6193   YY=     2.2701   ZY=   -28.9089
   XZ=   -56.5067   YZ=    -8.5874   ZZ=   148.5416
   Eigenvalues:   -65.8037     3.7413   165.2467
     26  C    Isotropic =    42.4501   Anisotropy =   180.9942
   XX=   101.5896   YX=    51.9116   ZX=    74.9782
   XY=    50.6382   YY=   -24.1134   ZY=    27.2767
   XZ=    56.2025   YZ=    21.6136   ZZ=    49.8742
   Eigenvalues:   -42.3924     6.6299   163.1129
     27  C    Isotropic =    36.3021   Anisotropy =   206.9520
   XX=   101.4810   YX=    52.0730   ZX=    94.0604
   XY=    54.6577   YY=     8.6936   ZY=    12.7800
   XZ=    95.9362   YZ=     9.4063   ZZ=    -1.2682
   Eigenvalues:   -63.1819    -2.1818   174.2701
     28  C    Isotropic =    43.4436   Anisotropy =   167.6769
   XX=   112.5480   YX=    17.4966   ZX=    65.4128
   XY=    20.6083   YY=     7.8865   ZY=    52.4492
   XZ=    65.5315   YZ=    46.9997   ZZ=     9.8963
   Eigenvalues:   -48.9568    24.0594   155.2282
     29  C    Isotropic =    50.9307   Anisotropy =   196.1017
   XX=   129.7072   YX=    59.5641   ZX=    59.9859
   XY=    56.9431   YY=   -25.1784   ZY=    22.2421
   XZ=    64.0952   YZ=    21.9012   ZZ=    48.2633
   Eigenvalues:   -44.6651    15.7920   181.6652
     30  C    Isotropic =    47.0222   Anisotropy =   162.1221
   XX=    94.1652   YX=    44.6789   ZX=    85.7670
   XY=    43.7786   YY=    32.6956   ZY=    -4.6897
   XZ=    75.4092   YZ=    -0.9415   ZZ=    14.2057
   Eigenvalues:   -45.0932    31.0562   155.1035
     31  C    Isotropic =    41.0255   Anisotropy =   202.4432
   XX=   133.9855   YX=    18.7356   ZX=    67.6432
   XY=    36.0904   YY=    -2.1580   ZY=    45.8285
   XZ=    78.9190   YZ=    49.4734   ZZ=    -8.7510
   Eigenvalues:   -61.4292     8.5180   175.9877
     32  C    Isotropic =    41.3238   Anisotropy =   190.9366
   XX=   -23.1195   YX=   -18.7715   ZX=   -21.4202
   XY=   -27.2576   YY=     3.1215   ZY=   -72.6471
   XZ=   -14.6557   YZ=   -53.9030   ZZ=   143.9695
   Eigenvalues:   -50.2636     5.6202   168.6149
     33  C    Isotropic =    44.2176   Anisotropy =   202.8114
   XX=     8.4054   YX=    17.4246   ZX=     1.7886
   XY=    12.8400   YY=   -24.6481   ZY=   -76.0266
   XZ=    -3.3150   YZ=   -81.1751   ZZ=   148.8956
   Eigenvalues:   -57.8547    11.0824   179.4252
     34  C    Isotropic =    46.5734   Anisotropy =   162.5994
   XX=   -36.6556   YX=    22.6638   ZX=     7.7425
   XY=    20.4633   YY=    39.2136   ZY=   -44.6334
   XZ=     0.6857   YZ=   -45.9375   ZZ=   137.1623
   Eigenvalues:   -43.8816    28.6289   154.9731
     35  C    Isotropic =    53.6579   Anisotropy =   191.5144
   XX=   -14.1995   YX=   -26.5542   ZX=   -10.5597
   XY=   -28.9954   YY=    20.4949   ZY=   -64.2317
   XZ=    -7.5072   YZ=   -66.6571   ZZ=   154.6784
   Eigenvalues:   -39.5887    19.2283   181.3342
     36  C    Isotropic =    46.4281   Anisotropy =   162.2368
   XX=    24.2883   YX=    14.2910   ZX=     5.7228
   XY=    16.3656   YY=   -13.4795   ZY=   -68.3349
   XZ=     6.9381   YZ=   -64.1513   ZZ=   128.4756
   Eigenvalues:   -43.6373    28.3357   154.5860
     37  C    Isotropic =    35.6795   Anisotropy =   199.9313
   XX=   -57.4210   YX=    19.0862   ZX=     4.0094
   XY=    26.7188   YY=    31.4196   ZY=   -59.9521
   XZ=     7.2063   YZ=   -80.3181   ZZ=   133.0398
   Eigenvalues:   -66.0806     4.1520   168.9670
     38  H    Isotropic =    26.9669   Anisotropy =     7.0571
   XX=    27.4718   YX=     4.2704   ZX=    -1.5107
   XY=     2.3879   YY=    27.7029   ZY=    -4.1637
   XZ=     3.4340   YZ=    -2.8796   ZZ=    25.7262
   Eigenvalues:    21.6184    27.6107    31.6717
     39  H    Isotropic =    27.9769   Anisotropy =     3.3518
   XX=    28.2617   YX=     0.5952   ZX=     3.8438
   XY=     4.4825   YY=    25.9070   ZY=     0.4786
   XZ=    -2.8423   YZ=    -2.9147   ZZ=    29.7618
   Eigenvalues:    23.9941    29.7251    30.2114
     40  H    Isotropic =    23.6394   Anisotropy =    18.4017
   XX=    26.9340   YX=    -8.2390   ZX=    -5.7090
   XY=    -8.4203   YY=    25.6527   ZY=     3.9669
   XZ=    -2.0696   YZ=     1.4736   ZZ=    18.3314
   Eigenvalues:    16.7460    18.2650    35.9072
     41  H    Isotropic =    23.0945   Anisotropy =     9.7810
   XX=    21.7116   YX=     0.7628   ZX=    -3.7252
   XY=     0.8760   YY=    26.1166   ZY=    -4.3731
   XZ=    -3.0359   YZ=    -4.5006   ZZ=    21.4553
   Eigenvalues:    17.2337    22.4347    29.6151
     42  H    Isotropic =    22.5178   Anisotropy =    14.9307
   XX=    30.1706   YX=     0.0544   ZX=    -5.1363
   XY=     1.2149   YY=    15.6848   ZY=     0.7287
   XZ=    -4.7947   YZ=     3.9748   ZZ=    21.6979
   Eigenvalues:    14.5003    20.5814    32.4716
     43  H    Isotropic =    22.8560   Anisotropy =    12.8516
   XX=    23.2187   YX=     7.7503   ZX=     0.9235
   XY=     5.3341   YY=    24.3227   ZY=     3.0075
   XZ=    -0.4865   YZ=     5.4949   ZZ=    21.0267
   Eigenvalues:    15.6258    21.5185    31.4237
     44  H    Isotropic =    22.9401   Anisotropy =    10.0633
   XX=    29.1270   YX=    -1.3358   ZX=     0.9720
   XY=    -1.9560   YY=    22.4482   ZY=    -0.5173
   XZ=     1.5143   YZ=    -0.3579   ZZ=    17.2450
   Eigenvalues:    17.1025    22.0687    29.6489
     45  H    Isotropic =    21.7000   Anisotropy =    11.1092
   XX=    19.8191   YX=    -1.1391   ZX=     0.6017
   XY=     0.5416   YY=    28.8788   ZY=     2.4132
   XZ=     3.0167   YZ=     0.9830   ZZ=    16.4021
   Eigenvalues:    15.4127    20.5811    29.1061
     46  H    Isotropic =    20.8076   Anisotropy =    17.3271
   XX=    14.1485   YX=    -3.1045   ZX=     1.5775
   XY=    -2.1216   YY=    31.6946   ZY=    -1.4144
   XZ=     0.8686   YZ=    -2.4979   ZZ=    16.5799
   Eigenvalues:    13.4677    16.5962    32.3591
     47  H    Isotropic =    22.9029   Anisotropy =     8.9053
   XX=    21.9501   YX=    -0.9643   ZX=    -4.2288
   XY=    -0.7513   YY=    21.1145   ZY=    -1.9807
   XZ=    -4.7747   YZ=    -1.9243   ZZ=    25.6439
   Eigenvalues:    17.8879    21.9810    28.8397
     48  H    Isotropic =    23.2688   Anisotropy =    15.1586
   XX=    24.6360   YX=    -7.0128   ZX=     1.2431
   XY=    -6.7926   YY=    27.4533   ZY=     0.6111
   XZ=    -3.0503   YZ=     3.3633   ZZ=    17.7171
   Eigenvalues:    17.2576    19.1742    33.3745
     49  H    Isotropic =    23.5922   Anisotropy =    15.4317
   XX=    31.6153   YX=     6.2801   ZX=     1.8436
   XY=     3.2930   YY=    21.2336   ZY=    -0.6013
   XZ=     2.9861   YZ=     2.0279   ZZ=    17.9277
   Eigenvalues:    17.5090    19.3877    33.8800
     50  H    Isotropic =    23.0317   Anisotropy =     9.3356
   XX=    25.6079   YX=    -3.6076   ZX=     0.1445
   XY=    -3.7224   YY=    24.5293   ZY=     3.0296
   XZ=    -0.4274   YZ=     3.2407   ZZ=    18.9580
   Eigenvalues:    17.2802    22.5595    29.2555
     51  H    Isotropic =    21.6775   Anisotropy =    15.4122
   XX=    18.8172   YX=     8.3072   ZX=     0.9327
   XY=     6.3310   YY=    27.3427   ZY=     1.0608
   XZ=     1.0550   YZ=     3.0887   ZZ=    18.8727
   Eigenvalues:    14.6024    18.4778    31.9523
     52  Cl   Isotropic =   786.5808   Anisotropy =   390.1815
   XX=   637.8568   YX=   -26.7221   ZX=  -176.4138
   XY=    27.6710   YY=  1022.3202   ZY=   -74.8775
   XZ=  -164.9512   YZ=   -88.7537   ZZ=   699.5653
   Eigenvalues:   490.0537   822.9869  1046.7017
     53  Cl   Isotropic =   823.6387   Anisotropy =   540.8923
   XX=   644.3264   YX=   185.9016   ZX=   101.0281
   XY=   122.3484   YY=  1139.8101   ZY=  -117.0931
   XZ=    50.0807   YZ=    45.1524   ZZ=   686.7794
   Eigenvalues:   550.2864   736.3960  1184.2335
     54  Pd   Isotropic =  -150.3080   Anisotropy =   242.8912
   XX=    -9.7914   YX=   -65.6220   ZX=    -2.5754
   XY=   -54.7202   YY=  -451.5944   ZY=     3.2006
   XZ=     7.3329   YZ=   -22.2516   ZZ=    10.4618
   Eigenvalues:  -459.8198    -2.7236    11.6195
     55  C    Isotropic =   116.2926   Anisotropy =    42.9690
   XX=   127.6841   YX=   -18.5127   ZX=     5.0380
   XY=   -23.0898   YY=   114.6692   ZY=    -9.5764
   XZ=     2.1353   YZ=    -9.7462   ZZ=   106.5244
   Eigenvalues:    95.8571   108.0820   144.9386
     56  H    Isotropic =    30.4550   Anisotropy =    17.3825
   XX=    35.6751   YX=     6.3260   ZX=     6.6637
   XY=     6.0231   YY=    25.2201   ZY=     2.7451
   XZ=     4.9280   YZ=     2.5392   ZZ=    30.4698
   Eigenvalues:    22.3571    26.9646    42.0433
     57  H    Isotropic =    27.3947   Anisotropy =     4.7907
   XX=    25.5890   YX=     5.1492   ZX=     1.4692
   XY=     2.4836   YY=    27.3070   ZY=    -1.4247
   XZ=     0.9456   YZ=    -1.6376   ZZ=    29.2880
   Eigenvalues:    22.0370    29.5585    30.5885
     58  C    Isotropic =   119.1959   Anisotropy =    42.3067
   XX=   132.8244   YX=    -8.3150   ZX=   -16.1428
   XY=   -18.2980   YY=   107.9398   ZY=     6.7791
   XZ=   -14.2719   YZ=     5.5449   ZZ=   116.8233
   Eigenvalues:   102.1426   108.0446   147.4004
     59  H    Isotropic =    28.1780   Anisotropy =    13.0312
   XX=    24.0876   YX=     3.6955   ZX=     1.6809
   XY=     0.2101   YY=    28.3105   ZY=    -3.7799
   XZ=     2.8228   YZ=    -8.8704   ZZ=    32.1360
   Eigenvalues:    20.9196    26.7490    36.8655
     60  N    Isotropic =   191.3126   Anisotropy =    56.4383
   XX=   217.1585   YX=    -9.9000   ZX=    19.5953
   XY=   -17.1239   YY=   173.7829   ZY=    -8.5246
   XZ=    15.9092   YZ=    -5.9203   ZZ=   182.9964
   Eigenvalues:   169.2831   175.7165   228.9381
     61  C    Isotropic =   137.3600   Anisotropy =    58.5972
   XX=   120.6171   YX=   -15.5253   ZX=   -14.3269
   XY=   -13.5629   YY=   146.5952   ZY=    24.2463
   XZ=   -12.1515   YZ=    23.2569   ZZ=   144.8676
   Eigenvalues:   113.6575   121.9977   176.4248
     62  C    Isotropic =   138.4916   Anisotropy =    63.4559
   XX=   150.4820   YX=    30.8370   ZX=    18.4285
   XY=    27.5156   YY=   136.3669   ZY=    10.0647
   XZ=    17.1298   YZ=     7.9547   ZZ=   128.6258
   Eigenvalues:   111.9433   122.7360   180.7955
     63  H    Isotropic =    29.6209   Anisotropy =    10.0773
   XX=    30.6387   YX=    -5.2531   ZX=     2.9245
   XY=    -6.3366   YY=    29.9498   ZY=     0.4324
   XZ=     1.1151   YZ=    -0.1538   ZZ=    28.2741
   Eigenvalues:    23.9580    28.5655    36.3391
     64  H    Isotropic =    29.8565   Anisotropy =     7.5124
   XX=    32.7810   YX=    -2.8551   ZX=     1.8353
   XY=    -3.5343   YY=    29.5601   ZY=     3.2626
   XZ=    -0.7298   YZ=     1.9235   ZZ=    27.2285
   Eigenvalues:    24.8630    29.8417    34.8648
     65  H    Isotropic =    31.1282   Anisotropy =     8.2615
   XX=    30.8599   YX=    -0.4181   ZX=     0.1354
   XY=    -3.1746   YY=    26.4423   ZY=     4.2820
   XZ=    -1.3340   YZ=    -0.3033   ZZ=    36.0824
   Eigenvalues:    25.5320    31.2168    36.6359
     66  H    Isotropic =    29.6391   Anisotropy =    12.7406
   XX=    34.0184   YX=    -1.9478   ZX=     5.5221
   XY=     0.4338   YY=    25.7761   ZY=    -0.2503
   XZ=     6.4262   YZ=    -1.6013   ZZ=    29.1228
   Eigenvalues:    24.9488    25.8357    38.1329
     67  H    Isotropic =    30.1674   Anisotropy =     8.1663
   XX=    32.0498   YX=     3.9490   ZX=    -1.6204
   XY=     3.8040   YY=    30.4792   ZY=    -3.5531
   XZ=     2.5974   YZ=    -2.7697   ZZ=    27.9733
   Eigenvalues:    24.7512    30.1395    35.6116
     68  H    Isotropic =    29.4639   Anisotropy =     7.3340
   XX=    32.2318   YX=    -0.5497   ZX=     2.0442
   XY=     1.3433   YY=    25.8640   ZY=     3.7317
   XZ=     2.6656   YZ=     2.3568   ZZ=    30.2960
   Eigenvalues:    24.2447    29.7939    34.3533
     69  C    Isotropic =    52.0669   Anisotropy =   187.8724
   XX=   135.9370   YX=    65.2042   ZX=    61.2828
   XY=    65.1764   YY=     9.3518   ZY=   -25.6447
   XZ=    60.8681   YZ=   -25.7168   ZZ=    10.9120
   Eigenvalues:   -56.9295    35.8150   177.3152
     70  C    Isotropic =    50.3387   Anisotropy =   189.4472
   XX=   149.5946   YX=    35.1824   ZX=    48.8894
   XY=    35.7603   YY=    39.1473   ZY=    39.6432
   XZ=    51.6659   YZ=    38.1813   ZZ=   -37.7257
   Eigenvalues:   -59.7461    34.1254   176.6369
     71  C    Isotropic =    52.8251   Anisotropy =   190.9085
   XX=   152.4693   YX=    56.4064   ZX=    25.3428
   XY=    65.1777   YY=   -28.1968   ZY=    33.1896
   XZ=    29.6607   YZ=    33.7512   ZZ=    34.2027
   Eigenvalues:   -53.7501    32.1279   180.0974
     72  C    Isotropic =    30.8823   Anisotropy =   205.2834
   XX=   126.8845   YX=    63.6973   ZX=    67.0438
   XY=    61.6314   YY=   -20.1319   ZY=    -6.6353
   XZ=    59.6042   YZ=   -12.3741   ZZ=   -14.1058
   Eigenvalues:   -67.5689    -7.5222   167.7378
     73  C    Isotropic =    51.4031   Anisotropy =   172.8456
   XX=   143.9239   YX=    24.0402   ZX=    48.0876
   XY=    29.4254   YY=    39.7687   ZY=    38.5083
   XZ=    49.5777   YZ=    32.9820   ZZ=   -29.4834
   Eigenvalues:   -51.3507    38.9266   166.6335
     74  C    Isotropic =    51.3201   Anisotropy =   189.2608
   XX=   148.0245   YX=    57.9673   ZX=    30.6485
   XY=    60.3056   YY=   -36.3346   ZY=    38.2432
   XZ=    30.1669   YZ=    38.5357   ZZ=    42.2704
   Eigenvalues:   -61.9077    38.3740   177.4940
     75  H    Isotropic =    24.0071   Anisotropy =     4.9114
   XX=    20.2025   YX=    -0.4608   ZX=    -0.0363
   XY=    -0.2864   YY=    24.6075   ZY=    -0.4665
   XZ=    -0.2954   YZ=    -0.3898   ZZ=    27.2112
   Eigenvalues:    20.1653    24.5746    27.2814
     76  H    Isotropic =    23.8282   Anisotropy =     4.7724
   XX=    20.7240   YX=    -1.5191   ZX=    -0.0858
   XY=    -1.6892   YY=    24.8103   ZY=     1.4202
   XZ=    -0.4456   YZ=     1.1840   ZZ=    25.9503
   Eigenvalues:    20.1639    24.3109    27.0098
     77  H    Isotropic =    23.6534   Anisotropy =    10.1082
   XX=    21.5434   YX=    -0.4167   ZX=    -0.7245
   XY=    -0.3518   YY=    19.4868   ZY=     2.3382
   XZ=    -2.1142   YZ=     0.7349   ZZ=    29.9300
   Eigenvalues:    19.2503    21.3177    30.3923
     78  H    Isotropic =    26.8889   Anisotropy =     7.1943
   XX=    22.7139   YX=    -0.2402   ZX=    -1.5175
   XY=    -0.7430   YY=    26.5562   ZY=    -0.9995
   XZ=    -1.7001   YZ=     0.7917   ZZ=    31.3966
   Eigenvalues:    22.3652    26.6163    31.6851
     79  H    Isotropic =    24.2990   Anisotropy =     8.5834
   XX=    20.8150   YX=    -0.5395   ZX=    -1.0985
   XY=     0.0143   YY=    23.1078   ZY=     1.7836
   XZ=    -1.6931   YZ=     2.9409   ZZ=    28.9741
   Eigenvalues:    20.5740    22.3017    30.0212
     80  N    Isotropic =   192.1696   Anisotropy =    60.3760
   XX=   220.7471   YX=     2.4341   ZX=   -22.8537
   XY=    -5.6816   YY=   170.3935   ZY=     0.5192
   XZ=   -24.0163   YZ=    -5.9959   ZZ=   185.3683
   Eigenvalues:   168.4653   175.6232   232.4203
     81  H    Isotropic =    29.2646   Anisotropy =    15.3245
   XX=    24.1166   YX=     1.4928   ZX=    -1.0245
   XY=    -0.4785   YY=    24.5705   ZY=    -4.2077
   XZ=     1.9804   YZ=    -0.4505   ZZ=    39.1068
   Eigenvalues:    23.5796    24.7333    39.4810
     82  C    Isotropic =   139.6121   Anisotropy =    61.7771
   XX=   154.0668   YX=    33.8802   ZX=     5.1861
   XY=    32.2233   YY=   139.1958   ZY=     0.0525
   XZ=     3.4465   YZ=     1.9118   ZZ=   125.5736
   Eigenvalues:   112.4644   125.5751   180.7968
     83  C    Isotropic =   141.5628   Anisotropy =    52.9551
   XX=   127.2416   YX=   -19.7982   ZX=     2.0249
   XY=   -14.6529   YY=   170.4055   ZY=    -4.2910
   XZ=     1.6828   YZ=    -4.2115   ZZ=   127.0414
   Eigenvalues:   121.1884   126.6338   176.8663
     84  H    Isotropic =    30.3259   Anisotropy =     7.6669
   XX=    32.4636   YX=     0.8265   ZX=     4.6858
   XY=     3.1532   YY=    25.8359   ZY=    -0.2294
   XZ=     0.8908   YZ=    -1.3170   ZZ=    32.6781
   Eigenvalues:    24.9649    30.5755    35.4371
     85  H    Isotropic =    29.5585   Anisotropy =     6.9604
   XX=    32.7480   YX=     0.4828   ZX=    -1.2276
   XY=     2.5434   YY=    30.4266   ZY=    -3.3442
   XZ=    -0.9607   YZ=    -2.6855   ZZ=    25.5008
   Eigenvalues:    24.0567    30.4199    34.1987
     86  H    Isotropic =    29.5362   Anisotropy =    12.5048
   XX=    34.2835   YX=     1.3439   ZX=    -5.0248
   XY=     3.8237   YY=    25.2328   ZY=    -2.0294
   XZ=    -4.6460   YZ=    -0.8937   ZZ=    29.0924
   Eigenvalues:    24.5331    26.2028    37.8727
     87  H    Isotropic =    29.7488   Anisotropy =     5.8119
   XX=    30.5873   YX=    -0.8824   ZX=     1.9290
   XY=    -3.1408   YY=    27.4753   ZY=    -4.9185
   XZ=     0.5117   YZ=     0.4085   ZZ=    31.1838
   Eigenvalues:    25.9875    29.6355    33.6234
     88  H    Isotropic =    29.4188   Anisotropy =    10.8155
   XX=    30.9049   YX=    -2.4260   ZX=    -4.8264
   XY=    -4.4721   YY=    28.4603   ZY=     1.9928
   XZ=    -4.6329   YZ=     1.9672   ZZ=    28.8912
   Eigenvalues:    24.8663    26.7610    36.6292
     89  H    Isotropic =    29.5663   Anisotropy =     7.5611
   XX=    33.3596   YX=    -1.0045   ZX=    -2.1614
   XY=    -2.0712   YY=    30.5810   ZY=     1.0743
   XZ=    -1.9378   YZ=     1.3034   ZZ=    24.7582
   Eigenvalues:    24.1840    29.9078    34.6070
     90  C    Isotropic =    51.6566   Anisotropy =   187.2540
   XX=   142.3548   YX=    81.1271   ZX=    -9.2586
   XY=    82.4504   YY=   -20.1052   ZY=    12.7533
   XZ=    -9.3414   YZ=    12.7258   ZZ=    32.7202
   Eigenvalues:   -56.7769    35.2541   176.4926
     91  C    Isotropic =    50.3961   Anisotropy =   190.5225
   XX=   152.1565   YX=    61.8571   ZX=    10.7042
   XY=    64.2897   YY=    18.0483   ZY=   -47.7657
   XZ=    12.5447   YZ=   -47.7693   ZZ=   -19.0163
   Eigenvalues:   -62.1556    35.9329   177.4111
     92  C    Isotropic =    49.6504   Anisotropy =   176.6005
   XX=   148.0610   YX=    46.6514   ZX=   -18.8240
   XY=    48.7832   YY=    47.2672   ZY=    19.4275
   XZ=   -15.4073   YZ=    22.5302   ZZ=   -46.3769
   Eigenvalues:   -54.7123    36.2794   167.3841
     93  C    Isotropic =    30.4787   Anisotropy =   203.7957
   XX=   131.9140   YX=    86.5639   ZX=   -13.2779
   XY=    77.6914   YY=   -31.9265   ZY=     2.3946
   XZ=    -7.7133   YZ=     7.4497   ZZ=    -8.5516
   Eigenvalues:   -67.2619    -7.6445   166.3424
     94  C    Isotropic =    52.4858   Anisotropy =   191.3290
   XX=   154.6683   YX=    59.2802   ZX=    18.0996
   XY=    68.5341   YY=    18.7525   ZY=   -38.5604
   XZ=    19.1709   YZ=   -40.4190   ZZ=   -15.9634
   Eigenvalues:   -55.1176    32.5366   180.0385
     95  C    Isotropic =    50.2628   Anisotropy =   189.0984
   XX=   154.6226   YX=    50.9716   ZX=   -11.2662
   XY=    54.5238   YY=    48.0011   ZY=    23.8857
   XZ=   -13.2764   YZ=    24.4870   ZZ=   -51.8354
   Eigenvalues:   -60.2942    34.7542   176.3284
     96  H    Isotropic =    23.7278   Anisotropy =     3.9803
   XX=    20.1498   YX=    -0.3960   ZX=    -0.2537
   XY=    -0.2756   YY=    24.9928   ZY=    -0.6185
   XZ=    -0.0465   YZ=    -0.7565   ZZ=    26.0409
   Eigenvalues:    20.1199    24.6822    26.3813
     97  H    Isotropic =    23.8290   Anisotropy =     6.0800
   XX=    19.6577   YX=    -0.2624   ZX=     0.9863
   XY=    -2.0048   YY=    27.6363   ZY=     1.4214
   XZ=     3.5954   YZ=    -1.8370   ZZ=    24.1931
   Eigenvalues:    18.5980    25.0067    27.8824
     98  H    Isotropic =    23.4759   Anisotropy =    10.3413
   XX=    21.2876   YX=    -0.3826   ZX=     0.1842
   XY=    -1.0528   YY=    24.5223   ZY=    -6.2456
   XZ=     1.4810   YZ=    -5.0893   ZZ=    24.6178
   Eigenvalues:    18.8999    21.1578    30.3701
     99  C    Isotropic =    49.0339   Anisotropy =    14.3573
   XX=    50.2323   YX=    -5.4364   ZX=    -1.0209
   XY=    -5.1217   YY=    52.1873   ZY=     6.2138
   XZ=    -1.5153   YZ=     5.2145   ZZ=    44.6823
   Eigenvalues:    41.3197    47.1766    58.6055
    100  F    Isotropic =   221.0436   Anisotropy =   148.9678
   XX=   226.2738   YX=   -43.4843   ZX=    74.8836
   XY=   -43.4067   YY=   182.2360   ZY=    10.2153
   XZ=    75.7801   YZ=     8.7872   ZZ=   254.6210
   Eigenvalues:   131.5638   211.2116   320.3555
    101  F    Isotropic =   241.7295   Anisotropy =   143.7014
   XX=   227.0528   YX=    15.7517   ZX=    24.0943
   XY=    15.2313   YY=   326.3590   ZY=    44.7717
   XZ=    13.6784   YZ=    26.4194   ZZ=   171.7768
   Eigenvalues:   160.4250   227.2332   337.5305
    102  F    Isotropic =   248.2469   Anisotropy =   125.0408
   XX=   304.0693   YX=   -14.7420   ZX=   -35.7144
   XY=    -1.4991   YY=   197.9048   ZY=    42.0050
   XZ=   -48.2802   YZ=    47.3400   ZZ=   242.7667
   Eigenvalues:   168.4371   244.6961   331.6075
    103  C    Isotropic =    48.5853   Anisotropy =    15.3167
   XX=    47.2791   YX=    -2.0720   ZX=     1.7116
   XY=    -1.9449   YY=    56.4332   ZY=    -5.9254
   XZ=    -0.0120   YZ=    -5.3708   ZZ=    42.0437
   Eigenvalues:    40.0885    46.8711    58.7965
    104  F    Isotropic =   242.5810   Anisotropy =   141.5874
   XX=   265.1322   YX=    67.1376   ZX=   -10.9005
   XY=    51.3066   YY=   241.7169   ZY=   -54.5819
   XZ=   -20.0202   YZ=   -64.6444   ZZ=   220.8939
   Eigenvalues:   162.1061   228.6643   336.9726
    105  F    Isotropic =   220.9673   Anisotropy =   148.2883
   XX=   171.7675   YX=    28.3718   ZX=    72.3412
   XY=    28.3748   YY=   223.6439   ZY=    26.3413
   XZ=    70.6719   YZ=    26.6346   ZZ=   267.4905
   Eigenvalues:   131.7116   211.3642   319.8261
    106  F    Isotropic =   248.7696   Anisotropy =   136.6243
   XX=   275.6556   YX=   -49.6146   ZX=    44.4205
   XY=   -45.9087   YY=   295.6842   ZY=   -15.1188
   XZ=    25.4233   YZ=    -3.9003   ZZ=   174.9689
   Eigenvalues:   163.8040   242.6523   339.8525
    107  C    Isotropic =    48.7590   Anisotropy =    14.5461
   XX=    45.9194   YX=     5.1212   ZX=     5.7687
   XY=     4.8398   YY=    53.7668   ZY=     2.3200
   XZ=     4.9364   YZ=     3.6199   ZZ=    46.5907
   Eigenvalues:    40.6442    47.1764    58.4564
    108  F    Isotropic =   241.0551   Anisotropy =   139.4877
   XX=   170.6320   YX=   -37.8897   ZX=    25.2490
   XY=   -21.9822   YY=   321.3041   ZY=   -24.9057
   XZ=    15.0027   YZ=   -21.6962   ZZ=   231.2292
   Eigenvalues:   161.2955   227.8229   334.0469
    109  F    Isotropic =   250.8857   Anisotropy =   133.3744
   XX=   252.9382   YX=    72.1915   ZX=    63.3065
   XY=    59.4332   YY=   231.9807   ZY=    -0.0779
   XZ=    46.7922   YZ=     9.4992   ZZ=   267.7382
   Eigenvalues:   164.2718   248.5834   339.8020
    110  F    Isotropic =   213.1564   Anisotropy =   140.1879
   XX=   165.8283   YX=    25.9612   ZX=   -58.1705
   XY=    28.0280   YY=   191.8790   ZY=     9.1331
   XZ=   -60.0016   YZ=     8.5831   ZZ=   281.7617
   Eigenvalues:   128.3859   204.4682   306.6150
    111  C    Isotropic =    48.3943   Anisotropy =    14.7545
   XX=    55.9768   YX=     4.9815   ZX=     3.1153
   XY=     4.8278   YY=    44.2046   ZY=    -1.6282
   XZ=     2.9327   YZ=    -0.4423   ZZ=    45.0015
   Eigenvalues:    41.2431    45.7092    58.2307
    112  F    Isotropic =   249.1917   Anisotropy =   135.0162
   XX=   260.6281   YX=    70.5564   ZX=    13.4078
   XY=    88.5807   YY=   255.7439   ZY=   -36.9877
   XZ=    13.1864   YZ=   -24.8668   ZZ=   231.2032
   Eigenvalues:   163.7307   244.6419   339.2025
    113  F    Isotropic =   220.7951   Anisotropy =   142.6083
   XX=   217.8501   YX=     8.0304   ZX=   -22.7578
   XY=     6.9115   YY=   136.4417   ZY=    23.7694
   XZ=   -20.7228   YZ=    25.4989   ZZ=   308.0935
   Eigenvalues:   131.6797   214.8383   315.8673
    114  F    Isotropic =   238.4329   Anisotropy =   143.4311
   XX=   290.8079   YX=   -41.9127   ZX=    34.6096
   XY=   -53.2264   YY=   206.9430   ZY=   -58.4806
   XZ=    26.4975   YZ=   -42.8085   ZZ=   217.5477
   Eigenvalues:   159.1705   222.0745   334.0536
    115  C    Isotropic =    48.5435   Anisotropy =    15.9431
   XX=    54.5262   YX=    -2.1522   ZX=    -7.0831
   XY=    -1.0229   YY=    45.2523   ZY=     4.9692
   XZ=    -6.7320   YZ=     3.0855   ZZ=    45.8518
   Eigenvalues:    40.2859    46.1723    59.1722
    116  F    Isotropic =   252.0218   Anisotropy =   133.4989
   XX=   282.2017   YX=   -39.5017   ZX=   -21.4890
   XY=   -47.9782   YY=   234.6968   ZY=    79.1276
   XZ=   -18.5167   YZ=    58.6293   ZZ=   239.1668
   Eigenvalues:   165.0368   250.0076   341.0210
    117  F    Isotropic =   218.0752   Anisotropy =   151.0411
   XX=   223.3217   YX=    -9.5252   ZX=    37.6522
   XY=    -5.9951   YY=   128.6997   ZY=   -11.3014
   XZ=    39.1375   YZ=   -11.5922   ZZ=   302.2041
   Eigenvalues:   127.6341   207.8222   318.7693
    118  F    Isotropic =   242.7609   Anisotropy =   141.6785
   XX=   267.7295   YX=    72.3066   ZX=   -20.9535
   XY=    91.2517   YY=   239.2719   ZY=    15.2418
   XZ=   -22.2033   YZ=     8.3686   ZZ=   221.2814
   Eigenvalues:   161.6177   229.4518   337.2133
    119  C    Isotropic =    48.8681   Anisotropy =    13.8676
   XX=    50.8592   YX=    -6.7244   ZX=     1.2871
   XY=    -6.2853   YY=    52.2187   ZY=     1.9721
   XZ=     0.5389   YZ=     1.5521   ZZ=    43.5265
   Eigenvalues:    42.2433    46.2480    58.1132
    120  F    Isotropic =   222.6843   Anisotropy =   143.7912
   XX=   163.5274   YX=   -36.3887   ZX=    22.4498
   XY=   -38.0038   YY=   190.2985   ZY=    17.7547
   XZ=    20.9082   YZ=    17.4261   ZZ=   314.2271
   Eigenvalues:   133.0979   216.4100   318.5451
    121  F    Isotropic =   244.2474   Anisotropy =   138.8359
   XX=   199.6529   YX=    17.2979   ZX=    38.7277
   XY=     4.5175   YY=   334.7693   ZY=    16.3005
   XZ=    30.3821   YZ=     2.8263   ZZ=   198.3200
   Eigenvalues:   164.4212   231.5163   336.8047
    122  F    Isotropic =   246.8438   Anisotropy =   140.5092
   XX=   329.2462   YX=   -44.5772   ZX=    28.1947
   XY=   -29.3740   YY=   208.6918   ZY=    35.8962
   XZ=    12.2163   YZ=    31.2751   ZZ=   202.5935
   Eigenvalues:   162.2660   237.7489   340.5167
    123  C    Isotropic =    49.2262   Anisotropy =    14.4085
   XX=    44.4939   YX=    -0.7928   ZX=    -5.3622
   XY=    -1.5725   YY=    58.6072   ZY=     0.3307
   XZ=    -3.0035   YZ=     1.5538   ZZ=    44.5776
   Eigenvalues:    40.3510    48.4959    58.8319
    124  F    Isotropic =   248.1294   Anisotropy =   137.3423
   XX=   191.0122   YX=    62.0304   ZX=   -36.4428
   XY=    43.7119   YY=   315.7140   ZY=   -12.6151
   XZ=   -22.4370   YZ=   -11.0740   ZZ=   237.6620
   Eigenvalues:   163.8191   240.8781   339.6910
    125  F    Isotropic =   217.6728   Anisotropy =   143.6140
   XX=   147.6250   YX=   -21.5893   ZX=    41.3881
   XY=   -25.1035   YY=   203.7789   ZY=    -6.8154
   XZ=    41.7399   YZ=    -5.7152   ZZ=   301.6144
   Eigenvalues:   130.9447   208.6582   313.4154
    126  F    Isotropic =   244.9757   Anisotropy =   135.6918
   XX=   249.0856   YX=   -70.2349   ZX=   -65.5936
   XY=   -57.5712   YY=   244.5962   ZY=     4.5377
   XZ=   -48.9738   YZ=     9.6150   ZZ=   241.2452
   Eigenvalues:   163.7847   235.7054   335.4369
    127  C    Isotropic =    49.5319   Anisotropy =    18.1802
   XX=    50.0018   YX=     9.4925   ZX=     3.1061
   XY=     9.6039   YY=    51.9810   ZY=     2.2750
   XZ=     3.0931   YZ=     2.8881   ZZ=    46.6129
   Eigenvalues:    41.3186    45.6252    61.6520
    128  F    Isotropic =   253.7179   Anisotropy =   127.9219
   XX=   186.1145   YX=    40.0350   ZX=   -10.5169
   XY=    56.6272   YY=   307.0010   ZY=    40.4642
   XZ=    -0.0458   YZ=    31.6753   ZZ=   268.0381
   Eigenvalues:   166.1626   255.9919   338.9992
    129  F    Isotropic =   220.0537   Anisotropy =   136.5674
   XX=   203.5517   YX=    16.5542   ZX=    62.9597
   XY=    14.2292   YY=   196.6117   ZY=   -51.0142
   XZ=    62.4553   YZ=   -47.7403   ZZ=   259.9977
   Eigenvalues:   134.5431   214.5193   311.0986
    130  F    Isotropic =   230.4132   Anisotropy =   150.4520
   XX=   295.1404   YX=    47.3559   ZX=   -56.0218
   XY=    36.1905   YY=   170.1001   ZY=     8.8497
   XZ=   -48.9014   YZ=     3.8822   ZZ=   225.9991
   Eigenvalues:   149.9993   210.5257   330.7145
    131  H    Isotropic =    23.5684   Anisotropy =     7.8627
   XX=    20.1016   YX=    -0.9742   ZX=     1.4149
   XY=    -1.0339   YY=    26.9044   ZY=    -2.4229
   XZ=     2.0412   YZ=    -3.0216   ZZ=    23.6992
   Eigenvalues:    19.4048    22.4902    28.8102
    132  H    Isotropic =    23.6699   Anisotropy =     5.1215
   XX=    20.6476   YX=    -1.1457   ZX=    -0.8204
   XY=    -1.4486   YY=    26.5966   ZY=    -0.9917
   XZ=    -0.6784   YZ=    -1.0204   ZZ=    23.7655
   Eigenvalues:    20.1277    23.7978    27.0842
    133  H    Isotropic =    29.8111   Anisotropy =    17.8288
   XX=    35.9548   YX=     8.6557   ZX=    -1.2264
   XY=     7.5968   YY=    29.1545   ZY=    -2.8456
   XZ=    -0.5078   YZ=    -3.1785   ZZ=    24.3240
   Eigenvalues:    21.8564    25.8800    41.6970
    134  H    Isotropic =    27.4990   Anisotropy =     4.1698
   XX=    26.0385   YX=     4.7588   ZX=     1.6475
   XY=     2.6944   YY=    26.4419   ZY=    -0.0121
   XZ=     0.2693   YZ=    -1.3519   ZZ=    30.0166
   Eigenvalues:    22.3316    29.8866    30.2789
 End of Minotr F.D. properties file   721 does not exist.
 End of Minotr F.D. properties file   722 does not exist.
 End of Minotr F.D. properties file   788 does not exist.
 Hyperfine terms turned off by default for NAtoms > 100.

 **********************************************************************

            Population analysis using the SCF density.

 **********************************************************************

 Orbital symmetries:
       Occupied  (A) (A) (A) (A) (A) (A) (A) (A) (A) (A) (A) (A)
                 (A) (A) (A) (A) (A) (A) (A) (A) (A) (A) (A) (A)
                 (A) (A) (A) (A) (A) (A) (A) (A) (A) (A) (A) (A)
                 (A) (A) (A) (A) (A) (A) (A) (A) (A) (A) (A) (A)
                 (A) (A) (A) (A) (A) (A) (A) (A) (A) (A) (A) (A)
                 (A) (A) (A) (A) (A) (A) (A) (A) (A) (A) (A) (A)
                 (A) (A) (A) (A) (A) (A) (A) (A) (A) (A) (A) (A)
                 (A) (A) (A) (A) (A) (A) (A) (A) (A) (A) (A) (A)
                 (A) (A) (A) (A) (A) (A) (A) (A) (A) (A) (A) (A)
                 (A) (A) (A) (A) (A) (A) (A) (A) (A) (A) (A) (A)
                 (A) (A) (A) (A) (A) (A) (A) (A) (A) (A) (A) (A)
[...]
                                                    1012(r),1450(r),600(r)
                                                    467(r),441(r),1321(r)
                                                    1162(r),405(r),1456(r)
                                                    1325(r),415(r),726(r),494(r)
                                                    593(r),385(r),618(r),909(r)
                                                    1217(r),407(r),1036(r)
                                                    749(r),435(r),881(r),299(r)
                                                    1167(r),902(r),393(r),732(r)
                                                    1444(r),882(r),438(r)
                                                    1494(r),603(r),720(r),852(r)
                                                    1875(r),697(r),1449(r)
                                                    1473(r),1349(r),1032(r)
                                                    1319(r),1041(r),2990(r)
                                                    890(r),433(r),1323(r),863(r)
                                                    413(r),1045(r),1072(r)
                                                    887(r),1014(r),1038(r)
                                                    468(r),452(r),907(r),728(r)
                                                    1324(r),427(r),1464(r)
                                                    758(r),1008(r),453(r)
                                                    1164(r),1061(r),566(r)
                                                    1200(r),476(r),1216(r)
                                                    753(r),519(r),750(r),1170(r)
                                                    1446(r),397(r),621(r),858(r)
                                                    1043(r),751(r),1195(r)
                                                    449(r),1064(r),855(r),619(r)
                                                    891(r),379(r),1194(r)
                                                    1749(r),602(r),1197(r)
                                                    886(r),911(r),696(r),1399(r)
                                                    862(r),616(r),1203(r)
                                                    1532(r),1322(r),1463(r)
                                                    436(r),466(r),605(r),492(r)
                                                    377(r),1332(r),378(r),474(r)
                                                    421(r),699(r),1166(r)
                                                    1040(r),1215(r),1065(r)
                                                    624(r)
  1414. RY*(   1)Cl  52                  0.00120     0.86915   
  1415. RY*(   2)Cl  52                  0.00114     0.75557   
  1416. RY*(   3)Cl  52                  0.00099     0.90002   
  1417. RY*(   4)Cl  52                  0.00029     0.96835   
  1418. RY*(   5)Cl  52                  0.00013     1.04203   
  1419. RY*(   6)Cl  52                  0.00011     1.71582   
  1420. RY*(   7)Cl  52                  0.00005     1.85045   
  1421. RY*(   8)Cl  52                  0.00004     1.47333   
  1422. RY*(   9)Cl  52                  0.00004     1.06781   
  1423. RY*(  10)Cl  52                  0.00004     2.30969   
  1424. RY*(  11)Cl  52                  0.00000    10.60465   
  1425. RY*(  12)Cl  52                  0.00000    10.62393   
  1426. RY*(  13)Cl  52                  0.00001     1.91315   
  1427. RY*(  14)Cl  52                  0.00000    25.06543   
  1428. RY*(  15)Cl  52                  0.00001     1.94613   
  1429. RY*(  16)Cl  52                  0.00000     2.72769   
  1430. RY*(  17)Cl  52                  0.00001     1.87814   
  1431. RY*(  18)Cl  52                  0.00000    10.57274   
  1432. RY*(  19)Cl  52                  0.00001     1.97133   
  1433. RY*(  20)Cl  52                  0.00001     2.80938   
  1434. RY*(  21)Cl  52                  0.00000     2.59112   
  1435. RY*(  22)Cl  52                  0.00000     2.08230   
  1436. RY*(  23)Cl  52                  0.00001     2.26287   
  1437. RY*(  24)Cl  52                  0.00000     2.14178   
  1438. RY*(  25)Cl  52                  0.00001     2.13120   
  1439. RY*(  26)Cl  52                  0.00000     2.14340   
  1440. RY*(  27)Cl  52                  0.00000     2.17059   
  1441. RY*(  28)Cl  52                  0.00000     2.17405   
       -------------------------------
              Total Lewis   17.36201  ( 99.9764%)
        Valence non-Lewis    0.00000  (  0.0000%)
        Rydberg non-Lewis    0.00410  (  0.0236%)
       -------------------------------
            Total unit  2   17.36611  (100.0000%)
           Charge unit  2   -0.36611

 Molecular unit  3  (Cl)
   215. CR (   1)Cl  53                  2.00000   -99.99254  298(r),297(r)
   216. CR (   2)Cl  53                  1.99971   -10.72177  298(r),297(r),1470(r)
                                                    2990(r),1471(r),1472(r)
                                                    2989(r),1473(r),3059(r)
   217. CR (   3)Cl  53                  1.99995    -7.19738  297(r),298(r),2989(r)
   218. CR (   4)Cl  53                  1.99999    -7.19585  299(r)
   219. CR (   5)Cl  53                  1.99995    -7.19802  298(r),2989(r)
   289. LP (   1)Cl  53                  1.95653    -0.29824  297(r),2990(r),3059(r)
                                                    299(r),3069(r),298(r)
                                                    1482(r),1479(r),1471(r)
                                                    1485(r),2992(r),432(r)
                                                    1481(r),1491(r),404(r)
                                                    1489(r),1483(r),1477(r)
                                                    1480(r),2989(r),2991(r)
                                                    1488(r),1484(r),1478(r)
                                                    433(r)
   290. LP (   2)Cl  53                  1.95329    -0.91789  298(r),297(r),1490(r)
                                                    1472(r),2990(r),1470(r)
                                                    1471(r),1475(r),3059(r)
                                                    1491(r),1473(r),1476(r)
                                                    1478(r),1474(r),1488(r)
                                                    1479(r),3048(r),1483(r)
                                                    404(r),1480(r),280(r)
                                                    1477(r),406(r),460(r)
                                                    1489(r),1487(r),3069(r)
                                                    283(r)
   291. LP (   3)Cl  53                  1.94296    -0.30736  297(r),299(r),298(r),3049(r)
                                                    3069(r),3048(r),1486(r)
                                                    3047(r),2991(r),2990(r)
                                                    1475(r),1472(r),1492(r)
                                                    1491(r),1489(r),3071(r)
                                                    3045(r),1473(r),1471(r)
   292. LP (   4)Cl  53                  1.52820    -0.39399  298(r),297(r),2989(r),404(r)
                                                    1481(r),1485(r),1488(r)
                                                    1479(r),1482(r),1487(r)
                                                    432(r),1478(r),1477(r)
                                                    1483(r),2990(r),1486(r)
                                                    1447(g),460(r),1470(r)
                                                    1480(r),2993(r),590(r)
                                                    1489(r),1033(r),1484(r)
                                                    1475(r),440(r),443(r),412(r)
                                                    1448(g),1471(r),414(r)
                                                    877(r),439(r),442(r),1379(r)
                                                    721(r),1189(r),1450(g)
                                                    1472(r),1476(r),722(r)
                                                    1419(r),878(r),410(r),418(r)
                                                    1009(r),1218(r),417(r)
                                                    1449(g),1037(r),591(r)
                                                    601(r),1418(r),409(r),444(r)
                                                    447(r),488(r),406(r),876(r)
                                                    463(r),1190(r),471(r),725(r)
                                                    702(r),906(r),441(r),604(r)
                                                    1163(r),1490(r),1344(r)
                                                    473(r),462(r),593(r),1325(r)
                                                    903(r),434(r),1007(r)
                                                    3059(r),726(r),1428(r)
                                                    600(r),720(r),1474(r),416(r)
                                                    902(r),446(r),1036(r)
                                                    1321(r),420(r),385(r)
                                                    1162(r),1319(r),494(r)
                                                    1188(r),1012(r),618(r)
                                                    1494(r),438(r),909(r)
                                                    1041(r),881(r),1320(r)
                                                    890(r),603(r),732(r),855(r)
                                                    467(r),697(r),1415(r),415(r)
                                                    1167(r),1349(r),3071(r)
                                                    723(r),566(r),2992(r),882(r)
                                                    1323(r),1417(r),852(r)
                                                    393(r),1216(r),728(r),879(r)
                                                    751(r),1875(r),749(r),863(r)
                                                    750(r),1045(r),1491(r)
                                                    2986(r),1200(r),602(r)
                                                    1420(r),605(r),1032(r)
                                                    1436(r),397(r),1035(r)
                                                    621(r),1072(r),753(r)
                                                    1061(r),427(r),862(r)
                                                    1322(r),1364(r),1217(r)
                                                    3069(r),1170(r),1416(r)
                                                    758(r),1040(r),891(r)
                                                    1038(r),1014(r),413(r)
                                                    1194(r),699(r)
  1442. RY*(   1)Cl  53                  0.00147     0.86047   
  1443. RY*(   2)Cl  53                  0.00129     0.65244   
  1444. RY*(   3)Cl  53                  0.00126     0.77329   
  1445. RY*(   4)Cl  53                  0.00044     0.90578   
  1446. RY*(   5)Cl  53                  0.00025     1.19451   
  1447. RY*(   6)Cl  53                  0.00014     1.54838   
  1448. RY*(   7)Cl  53                  0.00009     1.27658   
  1449. RY*(   8)Cl  53                  0.00009     2.06900   
  1450. RY*(   9)Cl  53                  0.00007     1.52766   
  1451. RY*(  10)Cl  53                  0.00005     1.70998   
  1452. RY*(  11)Cl  53                  0.00002     2.63266   
  1453. RY*(  12)Cl  53                  0.00001     2.68738   
  1454. RY*(  13)Cl  53                  0.00000     1.93239   
  1455. RY*(  14)Cl  53                  0.00000    10.46412   
  1456. RY*(  15)Cl  53                  0.00001     2.07776   
  1457. RY*(  16)Cl  53                  0.00000    10.49434   
  1458. RY*(  17)Cl  53                  0.00001     2.03125   
  1459. RY*(  18)Cl  53                  0.00000    25.42901   
  1460. RY*(  19)Cl  53                  0.00000     1.96485   
  1461. RY*(  20)Cl  53                  0.00000    10.56898   
  1462. RY*(  21)Cl  53                  0.00000     2.26779   
  1463. RY*(  22)Cl  53                  0.00001     2.24555   
  1464. RY*(  23)Cl  53                  0.00000     2.21450   
  1465. RY*(  24)Cl  53                  0.00000     2.18189   
  1466. RY*(  25)Cl  53                  0.00000     2.16795   
  1467. RY*(  26)Cl  53                  0.00000     2.15949   
  1468. RY*(  27)Cl  53                  0.00000     2.16605   
  1469. RY*(  28)Cl  53                  0.00000     2.12978   
       -------------------------------
              Total Lewis   17.38059  ( 99.9700%)
        Valence non-Lewis    0.00000  (  0.0000%)
        Rydberg non-Lewis    0.00522  (  0.0300%)
       -------------------------------
            Total unit  3   17.38581  (100.0000%)
           Charge unit  3   -0.38581
 1\1\GINC-NC119\SP\RPBE1PBE\Gen\C60H42Cl2F24Fe1N2P2Pd1\MACKK4\02-Dec-20
 21\0\\# PBE1PBE gen pseudo=read int=(grid=ultrafine) empiricaldispersi
 on=GD3BJ pop=nbo guess=read geom=check\\M003_1_5 title\\0,1\Fe,0,0.033
 3893783,-1.6051346135,1.730468819\P,0,1.7989460779,-0.1256660063,-0.81
 45124407\P,0,-1.7624406981,0.2871063537,-0.441724656\C,0,1.5377256851,
 -1.4302520319,0.4235905305\C,0,0.6657731436,-2.541465774,0.0704050654\
 C,0,0.6826014698,-3.4836489003,1.1470924345\C,0,1.5272118439,-2.964155
 3577,2.1732449789\C,0,2.0915295727,-1.712060153,1.7439642252\C,0,-1.52
 82187337,-0.4401821272,1.2253773373\C,0,-2.015795831,-1.6531982856,1.8
 81290929\C,0,-1.4178074885,-1.6821155677,3.1918295579\C,0,-0.611246450
 6,-0.5227888324,3.3771253991\C,0,-0.6556134441,0.2400061064,2.17026066
 03\C,0,3.2748474706,-0.7586848122,-1.7147928785\C,0,3.5653971306,-2.13
 02775064,-1.687593543\C,0,4.7096630271,-2.6218929504,-2.3329677578\C,0
 ,5.5638177032,-1.7562543322,-3.0231894164\C,0,5.2595085212,-0.38830206
 2,-3.0695756554\C,0,4.1216119569,0.1141433308,-2.4266312256\C,0,2.4220
 524835,1.4056222527,0.0037651721\C,0,3.7779872214,1.6041800314,0.32636
 17284\C,0,4.1796804902,2.7693442272,0.9928064808\C,0,3.2408621023,3.74
 56652139,1.3568000894\C,0,1.8960734078,3.5558355948,1.0202025721\C,0,1
 .4929784399,2.4057333814,0.3245563748\C,0,-2.3841024815,1.9568946246,0
 .0480369358\C,0,-2.1342625485,3.0904669234,-0.7457967577\C,0,-2.590678
 7103,4.3464702204,-0.3242883979\C,0,-3.301531823,4.4882594905,0.875042
 6673\C,0,-3.5573224304,3.3560133431,1.6570049667\C,0,-3.0962404868,2.0
 970872788,1.2520352954\C,0,-3.2098061285,-0.5743853645,-1.1772949022\C
 ,0,-4.5286518795,-0.2268417847,-0.8584265885\C,0,-5.5932305752,-0.9588
 06217,-1.4061803462\C,0,-5.3511484167,-2.0306052668,-2.2733152136\C,0,
 -4.0292627646,-2.3534644621,-2.6125830415\C,0,-2.9618375363,-1.6234795
 566,-2.0782052073\H,0,0.0808486404,-2.6139219988,-0.8480989554\H,0,-0.
 1345768806,1.1808855186,1.9984875867\H,0,2.913374331,-2.8262551534,-1.
 154974383\H,0,6.4604095067,-2.1391945054,-3.5159247356\H,0,3.903760835
 8,1.1823382231,-2.4740613578\H,0,4.5304384959,0.8594559931,0.054587258
 7\H,0,3.5562274591,4.6436309861,1.8928630617\H,0,0.4482800343,2.289723
 2047,0.0203146637\H,0,-1.5955147091,2.9875942486,-1.6925158031\H,0,-3.
 6446526561,5.4735111648,1.2007196902\H,0,-3.2872405594,1.2290257792,1.
 8871701814\H,0,-4.7395481619,0.6159828598,-0.1949629419\H,0,-6.1832694
 42,-2.6003793656,-2.6924732318\H,0,-1.9338712701,-1.8519809803,-2.3762
 172625\Cl,0,1.4241628248,0.9282504331,-3.7885104141\Cl,0,-1.8635329476
 ,1.1452908373,-3.44081934\Pd,0,-0.0761498956,0.4495443145,-2.026409847
 5\C,0,3.1814956762,-0.9723928257,2.5048641912\H,0,-0.0084500853,-0.293
 80708,4.2534779467\H,0,-1.5561557955,-2.4887320286,3.9101747267\C,0,-3
 .1053749463,-2.6351912566,1.4701791378\H,0,3.5177976056,-0.1283761619,
 1.8657781786\N,0,4.3158824728,-1.8877219618,2.7683173285\C,0,4.8022508
 895,-2.5217611424,1.5413617187\C,0,5.4198383086,-1.151663329,3.3970440
 474\H,0,5.651207648,-3.1792648395,1.7898300383\H,0,4.0171161236,-3.143
 3883511,1.0868696404\H,0,5.1537041778,-1.7871528677,0.7775641738\H,0,6
 .2540610887,-1.8489980807,3.5785429138\H,0,5.7952956766,-0.3134648598,
 2.7650902511\H,0,5.0991947459,-0.7327246403,4.3628183046\C,0,1.6239078
 711,0.7945888639,6.1565031007\C,0,1.9699826834,-0.566638477,6.12834756
 51\C,0,2.4896815385,-1.1403068979,4.9598728378\C,0,2.6668068892,-0.360
 3535479,3.802949874\C,0,2.3434354997,1.0055793939,3.8467633744\C,0,1.8
 17763437,1.5816411746,5.0117280868\H,0,1.2141727008,1.2397674003,7.068
 7296874\H,0,1.8372985375,-1.1835644118,7.0233303015\H,0,2.7885931079,-
 2.1931623046,4.9394763578\H,0,2.4957292197,1.6222270229,2.9564435661\H
 ,0,1.5620510464,2.6464239453,5.0234360238\N,0,-4.1841299072,-2.6056240
 397,2.492672339\H,0,-3.4964117074,-2.3272220708,0.4800104058\C,0,-5.30
 9985626,-3.4453293826,2.0636598989\C,0,-4.6819036596,-1.253332619,2.76
 59376723\H,0,-5.7965179201,-3.0709575066,1.1343723505\H,0,-4.970077949
 5,-4.4778405124,1.8921651241\H,0,-6.0690676453,-3.4571678271,2.8637629
 388\H,0,-5.1593011563,-0.7719504228,1.8828380914\H,0,-5.4453334827,-1.
 3163111903,3.5596220725\H,0,-3.8699450397,-0.6078995637,3.134903856\C,
 0,-1.4979168788,-6.6489545732,0.995717004\C,0,-1.7812821923,-5.8584760
 972,-0.1275246343\C,0,-2.3184531242,-4.57391901,0.0375501958\C,0,-2.57
 10327432,-4.0574088939,1.3184542154\C,0,-2.3126533992,-4.8666067607,2.
 4400666487\C,0,-1.774863209,-6.1507818085,2.2798521376\H,0,-1.07767612
 63,-7.6523465157,0.8731539069\H,0,-2.5433519616,-3.9681842873,-0.84345
 81703\H,0,-2.5674359975,-4.4896127044,3.4353512235\C,0,-2.3474605822,5
 .5643968982,-1.1877274114\F,0,-3.4298714868,5.8333066502,-1.9661604463
 \F,0,-2.1187546523,6.6676976595,-0.4221335755\F,0,-1.2816607364,5.3967
 716624,-2.0073962772\C,0,-4.2539683473,3.4789211166,2.9902583566\F,0,-
 5.0005314161,2.3710809112,3.2620511254\F,0,-3.353279135,3.6094813656,4
 .0039477156\F,0,-5.0758374979,4.5580973809,3.0352908021\C,0,-7.0033371
 804,-0.6151081113,-0.9914075878\F,0,-7.1789044658,0.7276380757,-0.8918
 095845\F,0,-7.9238866568,-1.0989697521,-1.8617322682\F,0,-7.2927371685
 ,-1.1436024543,0.2382197791\C,0,-3.7440362645,-3.4520131657,-3.6095645
 989\F,0,-4.7590409155,-4.3529750262,-3.6692691219\F,0,-3.5560366421,-2
 .9581162661,-4.8566706732\F,0,-2.6060560001,-4.1350852094,-3.273407847
 2\C,0,5.0552729091,-4.0810066696,-2.1745639317\F,0,5.9197145277,-4.509
 9744428,-3.1276109617\F,0,5.6443461358,-4.3106781855,-0.9605410362\F,0
 ,3.9463755476,-4.8666461357,-2.2261501704\C,0,6.1364724151,0.553070822
 3,-3.8622679322\F,0,5.6888297169,0.6920267627,-5.1357511907\F,0,6.1636
 923279,1.7925693553,-3.3017329795\F,0,7.4187047509,0.0997585478,-3.928
 5702922\C,0,5.6216856295,2.9089241952,1.4206590834\F,0,5.9859094652,4.
 2087066991,1.5522948172\F,0,5.8211361443,2.3069528273,2.6307669067\F,0
 ,6.4646120219,2.3180292443,0.5357787632\C,0,0.8456894905,4.5754782378,
 1.3910801981\F,0,1.3176669199,5.5018321374,2.2615203233\F,0,0.37834378
 75,5.2295185279,0.2971348798\F,0,-0.2254249041,3.96140124,1.9805496337
 \H,0,-1.5944919871,-6.2386140648,-1.1371963624\H,0,-1.5777019591,-6.77
 02017966,3.1612785174\H,0,0.0925162703,-4.3959102294,1.2054147512\H,0,
 1.7044992421,-3.4178637271,3.1478595856\\Version=ES64L-G09RevE.01\Stat
 e=1-A\HF=-6669.0501737\RMSD=5.988e-09\Dipole=0.3265397,-2.0546623,4.25
 61925\Quadrupole=-2.0335204,10.5147704,-8.48125,5.8752114,4.8055608,2.
 5078322\PG=C01 [X(C60H42Cl2F24Fe1N2P2Pd1)]\\@


 SI MONUMENTUM REQUIRIS, CIRCUMSPICE
     -- FROM SIR CHRISTOPHER WREN'S TOMBSTONE
 Job cpu time:       1 days  0 hours 20 minutes 10.4 seconds.
 File lengths (MBytes):  RWF=   5064 Int=      0 D2E=      0 Chk=    696 Scr=      1
 Normal termination of Gaussian 09 at Thu Dec  2 16:07:50 2021.
