 Entering Gaussian System, Link 0=g09
 Input=M003_1_2_SPE_NoPd.com
 Output=M003_1_2_SPE_NoPd.log
 Initial command:
 /gstore/apps/gaussian/g09.e01-foss-2017a/g09/l1.exe "/local/22791165/Gau-23303.inp" -scrdir="/local/22791165/"
 Entering Link 1 = /gstore/apps/gaussian/g09.e01-foss-2017a/g09/l1.exe PID=     23304.
  
 Copyright (c) 1988,1990,1992,1993,1995,1998,2003,2009,2015,
            Gaussian, Inc.  All Rights Reserved.
  
 This is part of the Gaussian(R) 09 program.  It is based on
 the Gaussian(R) 03 system (copyright 2003, Gaussian, Inc.),
 the Gaussian(R) 98 system (copyright 1998, Gaussian, Inc.),
 the Gaussian(R) 94 system (copyright 1995, Gaussian, Inc.),
 the Gaussian 92(TM) system (copyright 1992, Gaussian, Inc.),
 the Gaussian 90(TM) system (copyright 1990, Gaussian, Inc.),
 the Gaussian 88(TM) system (copyright 1988, Gaussian, Inc.),
 the Gaussian 86(TM) system (copyright 1986, Carnegie Mellon
 University), and the Gaussian 82(TM) system (copyright 1983,
 Carnegie Mellon University). Gaussian is a federally registered
 trademark of Gaussian, Inc.
  
 This software contains proprietary and confidential information,
 including trade secrets, belonging to Gaussian, Inc.
  
 This software is provided under written license and may be
 used, copied, transmitted, or stored only in accord with that
 written license.
  
 The following legend is applicable only to US Government
 contracts under FAR:
  
                    RESTRICTED RIGHTS LEGEND
  
 Use, reproduction and disclosure by the US Government is
 subject to restrictions as set forth in subparagraphs (a)
 and (c) of the Commercial Computer Software - Restricted
 Rights clause in FAR 52.227-19.
  
 Gaussian, Inc.
 340 Quinnipiac St., Bldg. 40, Wallingford CT 06492
  
  
 ---------------------------------------------------------------
 Warning -- This program may not be used in any manner that
 competes with the business of Gaussian, Inc. or will provide
 assistance to any competitor of Gaussian, Inc.  The licensee
 of this program is prohibited from giving any competitor of
 Gaussian, Inc. access to this program.  By using this program,
 the user acknowledges that Gaussian, Inc. is engaged in the
 business of creating and licensing software in the field of
 computational chemistry and represents and warrants to the
 licensee that it is not a competitor of Gaussian, Inc. and that
 it will not use this program in any manner prohibited above.
 ---------------------------------------------------------------
  

 Cite this work as:
 Gaussian 09, Revision E.01,
 M. J. Frisch, G. W. Trucks, H. B. Schlegel, G. E. Scuseria, 
 M. A. Robb, J. R. Cheeseman, G. Scalmani, V. Barone, B. Mennucci, 
 G. A. Petersson, H. Nakatsuji, M. Caricato, X. Li, H. P. Hratchian, 
 A. F. Izmaylov, J. Bloino, G. Zheng, J. L. Sonnenberg, M. Hada, 
 M. Ehara, K. Toyota, R. Fukuda, J. Hasegawa, M. Ishida, T. Nakajima, 
 Y. Honda, O. Kitao, H. Nakai, T. Vreven, J. A. Montgomery, Jr., 
 J. E. Peralta, F. Ogliaro, M. Bearpark, J. J. Heyd, E. Brothers, 
 K. N. Kudin, V. N. Staroverov, T. Keith, R. Kobayashi, J. Normand, 
 K. Raghavachari, A. Rendell, J. C. Burant, S. S. Iyengar, J. Tomasi, 
 M. Cossi, N. Rega, J. M. Millam, M. Klene, J. E. Knox, J. B. Cross, 
 V. Bakken, C. Adamo, J. Jaramillo, R. Gomperts, R. E. Stratmann, 
 O. Yazyev, A. J. Austin, R. Cammi, C. Pomelli, J. W. Ochterski, 
 R. L. Martin, K. Morokuma, V. G. Zakrzewski, G. A. Voth, 
 P. Salvador, J. J. Dannenberg, S. Dapprich, A. D. Daniels, 
 O. Farkas, J. B. Foresman, J. V. Ortiz, J. Cioslowski, 
 and D. J. Fox, Gaussian, Inc., Wallingford CT, 2013.
 
 ******************************************
 Gaussian 09:  ES64L-G09RevE.01 30-Nov-2015
                 1-Dec-2021 
 ******************************************
 %nprocs=14
 Will use up to   14 processors via shared memory.
 %mem=128GB
 %chk=M003_1_2_SPE_NoPd.chk
 ----------------------------------------------------------------------
 # PBE1PBE gen pseudo=read int=(grid=ultrafine) empiricaldispersion=GD3
 BJ nmr=giao
 ----------------------------------------------------------------------
 1/38=1/1;
 2/12=2,17=6,18=5,40=1/2;
 3/5=7,11=2,16=1,17=8,25=1,30=1,74=-13,75=-5,124=41/1,2,8,3;
 4//1;
 5/5=2,38=5/2;
 8/6=1,10=90,11=11/1;
 10/13=100,45=16/2;
 6/7=2,8=2,9=2,10=2,28=1/1;
 99/9=1/99;
 --------------
 M003_1_2 title
 --------------
 Symbolic Z-matrix:
 Charge =  0 Multiplicity = 1
 Fe                   -0.00624  -1.48204   1.68275 
 P                     1.79312  -0.05964  -0.79146 
 P                    -1.78983   0.29776  -0.54605 
 C                     1.50483  -1.40785   0.39058 
 C                     0.56378  -2.44192  -0.00551 
 C                     0.47635  -3.40266   1.0465 
 C                     1.33869  -2.97863   2.10112 
 C                     2.00452  -1.75592   1.72043 
 C                    -1.52101  -0.26865   1.17765 
 C                    -2.02879  -1.36611   2.00353 
 C                    -1.31793  -1.30395   3.25606 
 C                    -0.41553  -0.19815   3.24 
 C                    -0.53045   0.44325   1.96836 
 C                     3.34516  -0.59775  -1.61574 
 C                     4.24666   0.34141  -2.14697 
 C                     5.43186  -0.09529  -2.75058 
 C                     5.72203  -1.46285  -2.85029 
 C                     4.80896  -2.39415  -2.3428 
 C                     3.62237  -1.96738  -1.73028 
 C                     2.27389   1.52003   0.02768 
 C                     3.50874   1.70092   0.67923 
 C                     3.82307   2.95494   1.22487 
 C                     2.92419   4.02857   1.1326 
 C                     1.70756   3.84745   0.46893 
 C                     1.39052   2.6045   -0.0962 
 C                    -2.47307   1.98329  -0.21101 
 C                    -3.13999   2.21431   1.00324 
 C                    -3.68049   3.47639   1.286 
 C                    -3.54101   4.52391   0.37098 
 C                    -2.86594   4.29371  -0.83693 
 C                    -2.33745   3.03315  -1.13894 
 C                    -3.21711  -0.6621   -1.19686 
 C                    -4.53957  -0.3226   -0.88553 
 C                    -5.59737  -1.09725  -1.38797 
 C                    -5.34442  -2.20059  -2.20892 
 C                    -4.01805  -2.51989  -2.54005 
 C                    -2.95813  -1.75485  -2.04223 
 H                    -0.00207  -2.44038  -0.93857 
 H                     0.04293   1.30753   1.63424 
 H                     4.02548   1.40967  -2.10495 
 H                     6.6432   -1.7976   -3.33313 
 H                     2.92033  -2.71117  -1.34556 
 H                     4.20872   0.85841   0.75281 
 H                     3.18243   5.00279   1.55373 
 H                     0.46089   2.47932  -0.66296 
 H                    -3.24196   1.41312   1.73842 
 H                    -3.94692   5.51321   0.59794 
 H                    -1.83471   2.85836  -2.09489 
 H                    -4.75995   0.54951  -0.2636 
 H                    -6.17165  -2.79163  -2.60841 
 H                    -1.93185  -1.97659  -2.34742 
 C                     3.07031  -1.02764   2.51123 
 H                     0.29465   0.05807   4.02626 
 H                    -1.44506  -2.01181   4.0732 
 C                    -3.2004   -2.31473   1.78022 
 H                     2.84844   0.05484   2.44084 
 N                     4.39539  -1.1801    1.84251 
 C                     5.47516  -0.57286   2.62632 
 C                     4.77521  -2.53405   1.44008 
 H                     6.36025  -0.44829   1.97937 
 H                     5.16996   0.41798   2.99368 
 H                     5.76627  -1.18531   3.50757 
 H                     5.61684  -2.47019   0.73081 
 H                     5.10115  -3.17375   2.29079 
 H                     3.94178  -3.03326   0.92478 
 C                     3.10786  -1.81877   6.79697 
 C                     3.37292  -2.86391   5.9004 
 C                     3.35154  -2.63477   4.5175 
 C                     3.06023  -1.35415   4.00386 
 C                     2.82906  -0.30897   4.91858 
 C                     2.84106  -0.535     6.30142 
 H                     3.12194  -2.00188   7.876 
 H                     3.6008   -3.86594   6.27864 
 H                     3.56747  -3.46243   3.83611 
 H                     2.65526   0.70444   4.5349 
 H                     2.65186   0.29396   6.9912 
 N                    -4.18034  -2.13425   2.883 
 H                    -3.66451  -2.06477   0.80419 
 C                    -5.36336  -2.97477   2.65256 
 C                    -4.61373  -0.74036   3.01852 
 H                    -5.91199  -2.69899   1.72348 
 H                    -5.07091  -4.03353   2.58802 
 H                    -6.05309  -2.85549   3.50485 
 H                    -5.12563  -0.34777   2.10919 
 H                    -5.32856  -0.67212   3.85549 
 H                    -3.75778  -0.09092   3.25896 
 C                    -1.86206  -6.44207   1.48679 
 C                    -1.89511  -5.80368   2.7382 
 C                    -2.34525  -4.48134   2.84713 
 C                    -2.75698  -3.77281   1.7032 
 C                    -2.75238  -4.42953   0.46292 
 C                    -2.30452  -5.75335   0.34831 
 H                    -1.50868  -7.47497   1.40511 
 H                    -2.40907  -3.99878   3.82692 
 H                    -3.10756  -3.90251  -0.42518 
 C                    -4.34844   3.6893    2.62236 
 F                    -3.42801   3.87603   3.60877 
 F                    -5.16737   4.77071   2.61685 
 F                    -5.09339   2.60223   2.97835 
 C                    -2.72429   5.44264  -1.81004 
 F                    -3.93328   5.78212  -2.33681 
 F                    -2.24321   6.55028  -1.17667 
 F                    -1.89083   5.15057  -2.83391 
 C                    -7.00584  -0.73132  -0.98808 
 F                    -7.23847   0.59602  -1.15692 
 F                    -7.93681  -1.41707  -1.69547 
 F                    -7.21973  -1.00055   0.33766 
 C                    -3.73184  -3.72946  -3.39802 
 F                    -3.68992  -4.86886  -2.6338 
 F                    -4.69698  -3.92075  -4.33159 
 F                    -2.53869  -3.63228  -4.03106 
 C                     6.4343    0.92287  -3.23996 
 F                     7.30019   1.26726  -2.24268 
 F                     7.17972   0.43926  -4.26825 
 F                     5.83043   2.06393  -3.65766 
 C                     5.13741  -3.86581  -2.36535 
 F                     5.95351  -4.18953  -3.39988 
 F                     5.78045  -4.24057  -1.21586 
 F                     4.0178   -4.63156  -2.4559 
 C                     5.12215   3.14543   1.97113 
 F                     6.12362   2.39919   1.44073 
 F                     5.52055   4.44178   1.97469 
 F                     4.98557   2.76656   3.28169 
 C                     0.69527   4.9635    0.36201 
 F                     0.24945   5.09552  -0.91429 
 F                    -0.39189   4.69531   1.14393 
 F                     1.20069   6.15678   0.75854 
 H                    -1.57611  -6.3434    3.63625 
 H                    -2.312    -6.2393   -0.63256 
 H                    -0.1855   -4.26619   1.06817 
 H                     1.42402  -3.45622   3.07567 
 
 Stoichiometry    C60H42F24FeN2P2
 Framework group  C1[X(C60H42F24FeN2P2)]
 Deg. of freedom   387
 Full point group                 C1      NOp   1
 Largest Abelian subgroup         C1      NOp   1
 Largest concise Abelian subgroup C1      NOp   1
                         Standard orientation:                         
 ---------------------------------------------------------------------
 Center     Atomic      Atomic             Coordinates (Angstroms)
 Number     Number       Type             X           Y           Z
 ---------------------------------------------------------------------
      1         26           0       -0.028850   -1.353661    1.420812
      2         15           0        1.772340   -0.050393   -1.116875
      3         15           0       -1.810852    0.317681   -0.891652
      4          6           0        1.483265   -1.340838    0.127791
      5          6           0        0.542672   -2.392747   -0.219363
      6          6           0        0.454511   -3.302313    0.877140
      7          6           0        1.315933   -2.828398    1.911060
      8          6           0        1.981911   -1.625095    1.473116
      9          6           0       -1.543364   -0.165959    0.857279
     10          6           0       -2.051670   -1.222924    1.734072
     11          6           0       -1.341846   -1.101070    2.982801
     12          6           0       -0.439575    0.002865    2.914827
     13          6           0       -0.553538    0.582957    1.613989
     14          6           0        3.325121   -0.626885   -1.913336
     15          6           0        4.226933    0.286066   -2.487966
     16          6           0        5.412677   -0.178688   -3.069140
     17          6           0        5.703105   -1.549398   -3.103369
     18          6           0        4.789750   -2.455630   -2.552849
     19          6           0        3.602600   -2.000369   -1.962299
     20          6           0        2.252242    1.566573   -0.373504
     21          6           0        3.486533    1.778489    0.269690
     22          6           0        3.800257    3.057124    0.755251
     23          6           0        2.901314    4.124996    0.611228
     24          6           0        1.685245    3.912272   -0.044049
     25          6           0        1.368825    2.643759   -0.549602
     26          6           0       -2.494586    2.017142   -0.637810
     27          6           0       -3.162521    2.305614    0.563522
     28          6           0       -3.703422    3.579636    0.785418
     29          6           0       -3.563327    4.582411   -0.178332
     30          6           0       -2.887243    4.295068   -1.373366
     31          6           0       -2.358348    3.021643   -1.614578
     32          6           0       -3.237481   -0.672322   -1.497167
     33          6           0       -4.560240   -0.318602   -1.203426
     34          6           0       -5.617530   -1.116484   -1.669259
     35          6           0       -5.363763   -2.257621   -2.436534
     36          6           0       -4.037089   -2.592101   -2.751011
     37          6           0       -2.977671   -1.804044   -2.289336
     38          1           0       -0.022416   -2.435738   -1.151894
     39          1           0        0.019994    1.430448    1.239552
     40          1           0        4.005577    1.355068   -2.497045
     41          1           0        6.624711   -1.906606   -3.568976
     42          1           0        2.900347   -2.725111   -1.543166
     43          1           0        4.186558    0.940562    0.383870
     44          1           0        3.159087    5.118204    0.985696
     45          1           0        0.439680    2.491576   -1.110509
     46          1           0       -3.264987    1.540318    1.335936
     47          1           0       -3.969549    5.581326    0.000929
     48          1           0       -1.854806    2.801608   -2.560714
     49          1           0       -4.781241    0.582097   -0.623911
     50          1           0       -6.190588   -2.867151   -2.808095
     51          1           0       -1.951111   -2.039896   -2.582788
     52          6           0        3.046965   -0.859807    2.229194
     53          1           0        0.269934    0.296354    3.688561
     54          1           0       -1.469549   -1.769233    3.832614
     55          6           0       -3.222980   -2.181297    1.555249
     56          1           0        2.825010    0.218063    2.107160
     57          7           0        4.372606   -1.043711    1.569562
     58          6           0        5.451663   -0.399657    2.324443
     59          6           0        4.752934   -2.415226    1.232373
     60          1           0        6.337262   -0.305885    1.673004
     61          1           0        5.146036    0.607510    2.643947
     62          1           0        5.742137   -0.969395    3.234095
     63          1           0        5.595129   -2.385073    0.521550
     64          1           0        5.078268   -3.013634    2.112847
     65          1           0        3.919988   -2.938546    0.740763
     66          6           0        3.081127   -1.445935    6.547774
     67          6           0        3.347054   -2.532545    5.702214
     68          6           0        3.326770   -2.369523    4.309950
     69          6           0        3.035716   -1.114864    3.735678
     70          6           0        2.803662   -0.027351    4.599392
     71          6           0        2.814569   -0.187264    5.991439
     72          1           0        3.094357   -1.577452    7.634318
     73          1           0        3.574752   -3.515386    6.127920
     74          1           0        3.543359   -3.228657    3.668925
     75          1           0        2.630048    0.966613    4.167748
     76          1           0        2.624698    0.673567    6.640809
     77          7           0       -4.203839   -1.948671    2.647389
     78          1           0       -3.686326   -1.978178    0.568046
     79          6           0       -5.386560   -2.799414    2.456286
     80          6           0       -4.637519   -0.549983    2.716028
     81          1           0       -5.934472   -2.568285    1.514685
     82          1           0       -5.093920   -3.860002    2.442472
     83          1           0       -6.077006   -2.639804    3.301367
     84          1           0       -5.148729   -0.201233    1.788618
     85          1           0       -5.353040   -0.442083    3.548221
     86          1           0       -3.781856    0.110315    2.925960
     87          6           0       -1.883867   -6.317701    1.459784
     88          6           0       -1.918015   -5.620454    2.679342
     89          6           0       -2.368418   -4.294501    2.724817
     90          6           0       -2.779303   -3.641316    1.548105
     91          6           0       -2.773616   -4.356361    0.340513
     92          6           0       -2.325485   -5.684058    0.289435
     93          1           0       -1.530285   -7.353269    1.427666
     94          1           0       -2.433094   -3.765837    3.680456
     95          1           0       -3.128137   -3.872287   -0.571959
     96          6           0       -4.372487    3.855823    2.109583
     97          9           0       -3.452887    4.089475    3.086720
     98          9           0       -5.191546    4.935612    2.051918
     99          9           0       -5.117580    2.786814    2.516333
    100          6           0       -2.744951    5.396379   -2.399971
    101          9           0       -3.953553    5.710175   -2.943291
    102          9           0       -2.264538    6.532996   -1.819684
    103          9           0       -1.910619    5.056015   -3.408094
    104          6           0       -7.026372   -0.732160   -1.288392
    105          9           0       -7.259038    0.585591   -1.520434
    106          9           0       -7.956670   -1.450975   -1.963071
    107          9           0       -7.241309   -0.937983    0.048500
    108          6           0       -3.750023   -3.841115   -3.550175
    109          9           0       -3.708569   -4.942814   -2.732529
    110          9           0       -4.714378   -4.076802   -4.474355
    111          9           0       -2.556365   -3.773986   -4.186160
    112          6           0        6.415385    0.815178   -3.605634
    113          9           0        7.280422    1.206813   -2.625188
    114          9           0        7.161701    0.283278   -4.609130
    115          9           0        5.811706    1.934950   -4.077691
    116          6           0        5.118401   -3.926631   -2.505022
    117          9           0        5.935387   -4.299116   -3.522299
    118          9           0        5.760555   -4.246121   -1.338468
    119          9           0        3.998965   -4.696016   -2.559910
    120          6           0        5.098707    3.283162    1.492641
    121          9           0        6.100701    2.512676    0.999185
    122          9           0        5.496934    4.578273    1.434782
    123          9           0        4.961103    2.967102    2.819640
    124          6           0        0.672896    5.021787   -0.204808
    125          9           0        0.228097    5.092810   -1.486313
    126          9           0       -0.414863    4.790961    0.588114
    127          9           0        1.177841    6.232688    0.134854
    128          1           0       -1.599682   -6.116738    3.602333
    129          1           0       -2.332105   -6.216166   -0.667184
    130          1           0       -0.207250   -4.163945    0.939375
    131          1           0        1.400528   -3.259023    2.907321
 ---------------------------------------------------------------------
 Rotational constants (GHZ):      0.0227371      0.0165915      0.0139961
 General basis read from cards:  (5D, 7F)
 ======================================================================================================
                                       Pseudopotential Parameters
 ======================================================================================================
  Center     Atomic      Valence      Angular      Power
  Number     Number     Electrons     Momentum     of R      Exponent        Coefficient   SO-Coeffient
 ======================================================================================================
    1         26           16
                                      F and up 
                                                     2        1.0000000        0.00000000    0.00000000
                                      S - F
                                                     2       20.9300000      253.74958800    0.00000000
                                                     2        9.4450000       37.92284500    0.00000000
                                      P - F
                                                     2       21.7600000      161.03681200    0.00000000
                                                     2        9.1780000       27.65129800    0.00000000
                                      D - F
                                                     2       25.9000000      -24.43127600    0.00000000
                                                     2        8.8350000       -1.43425100    0.00000000
    2         15
                                   No pseudopotential on this center.
    3         15
                                   No pseudopotential on this center.
    4          6
                                   No pseudopotential on this center.
    5          6
                                   No pseudopotential on this center.
    6          6
                                   No pseudopotential on this center.
    7          6
                                   No pseudopotential on this center.
    8          6
                                   No pseudopotential on this center.
    9          6
                                   No pseudopotential on this center.
   10          6
                                   No pseudopotential on this center.
   11          6
                                   No pseudopotential on this center.
   12          6
                                   No pseudopotential on this center.
   13          6
                                   No pseudopotential on this center.
   14          6
                                   No pseudopotential on this center.
   15          6
                                   No pseudopotential on this center.
   16          6
                                   No pseudopotential on this center.
   17          6
                                   No pseudopotential on this center.
   18          6
                                   No pseudopotential on this center.
   19          6
                                   No pseudopotential on this center.
   20          6
                                   No pseudopotential on this center.
   21          6
                                   No pseudopotential on this center.
   22          6
                                   No pseudopotential on this center.
   23          6
                                   No pseudopotential on this center.
   24          6
                                   No pseudopotential on this center.
   25          6
                                   No pseudopotential on this center.
   26          6
                                   No pseudopotential on this center.
   27          6
                                   No pseudopotential on this center.
   28          6
                                   No pseudopotential on this center.
   29          6
                                   No pseudopotential on this center.
   30          6
                                   No pseudopotential on this center.
   31          6
                                   No pseudopotential on this center.
   32          6
                                   No pseudopotential on this center.
   33          6
                                   No pseudopotential on this center.
   34          6
                                   No pseudopotential on this center.
   35          6
                                   No pseudopotential on this center.
   36          6
                                   No pseudopotential on this center.
   37          6
                                   No pseudopotential on this center.
   38          1
                                   No pseudopotential on this center.
   39          1
                                   No pseudopotential on this center.
   40          1
                                   No pseudopotential on this center.
   41          1
                                   No pseudopotential on this center.
   42          1
                                   No pseudopotential on this center.
   43          1
                                   No pseudopotential on this center.
   44          1
                                   No pseudopotential on this center.
   45          1
                                   No pseudopotential on this center.
   46          1
                                   No pseudopotential on this center.
   47          1
                                   No pseudopotential on this center.
   48          1
                                   No pseudopotential on this center.
   49          1
                                   No pseudopotential on this center.
   50          1
                                   No pseudopotential on this center.
   51          1
                                   No pseudopotential on this center.
   52          6
                                   No pseudopotential on this center.
   53          1
                                   No pseudopotential on this center.
   54          1
                                   No pseudopotential on this center.
   55          6
                                   No pseudopotential on this center.
   56          1
                                   No pseudopotential on this center.
   57          7
                                   No pseudopotential on this center.
   58          6
                                   No pseudopotential on this center.
   59          6
                                   No pseudopotential on this center.
   60          1
                                   No pseudopotential on this center.
   61          1
                                   No pseudopotential on this center.
   62          1
                                   No pseudopotential on this center.
   63          1
                                   No pseudopotential on this center.
   64          1
                                   No pseudopotential on this center.
   65          1
                                   No pseudopotential on this center.
   66          6
                                   No pseudopotential on this center.
   67          6
                                   No pseudopotential on this center.
   68          6
                                   No pseudopotential on this center.
   69          6
                                   No pseudopotential on this center.
   70          6
                                   No pseudopotential on this center.
   71          6
                                   No pseudopotential on this center.
   72          1
                                   No pseudopotential on this center.
   73          1
                                   No pseudopotential on this center.
   74          1
                                   No pseudopotential on this center.
   75          1
                                   No pseudopotential on this center.
   76          1
                                   No pseudopotential on this center.
   77          7
                                   No pseudopotential on this center.
   78          1
                                   No pseudopotential on this center.
   79          6
                                   No pseudopotential on this center.
   80          6
                                   No pseudopotential on this center.
   81          1
                                   No pseudopotential on this center.
   82          1
                                   No pseudopotential on this center.
   83          1
                                   No pseudopotential on this center.
   84          1
                                   No pseudopotential on this center.
   85          1
                                   No pseudopotential on this center.
   86          1
                                   No pseudopotential on this center.
   87          6
                                   No pseudopotential on this center.
   88          6
                                   No pseudopotential on this center.
   89          6
                                   No pseudopotential on this center.
   90          6
                                   No pseudopotential on this center.
   91          6
                                   No pseudopotential on this center.
   92          6
                                   No pseudopotential on this center.
   93          1
                                   No pseudopotential on this center.
   94          1
                                   No pseudopotential on this center.
   95          1
                                   No pseudopotential on this center.
   96          6
                                   No pseudopotential on this center.
   97          9
                                   No pseudopotential on this center.
   98          9
                                   No pseudopotential on this center.
   99          9
                                   No pseudopotential on this center.
  100          6
                                   No pseudopotential on this center.
  101          9
                                   No pseudopotential on this center.
  102          9
                                   No pseudopotential on this center.
  103          9
                                   No pseudopotential on this center.
  104          6
                                   No pseudopotential on this center.
  105          9
                                   No pseudopotential on this center.
  106          9
                                   No pseudopotential on this center.
  107          9
                                   No pseudopotential on this center.
  108          6
                                   No pseudopotential on this center.
  109          9
                                   No pseudopotential on this center.
  110          9
                                   No pseudopotential on this center.
  111          9
                                   No pseudopotential on this center.
  112          6
                                   No pseudopotential on this center.
  113          9
                                   No pseudopotential on this center.
  114          9
                                   No pseudopotential on this center.
  115          9
                                   No pseudopotential on this center.
  116          6
                                   No pseudopotential on this center.
  117          9
                                   No pseudopotential on this center.
  118          9
                                   No pseudopotential on this center.
  119          9
                                   No pseudopotential on this center.
  120          6
                                   No pseudopotential on this center.
  121          9
                                   No pseudopotential on this center.
  122          9
                                   No pseudopotential on this center.
  123          9
                                   No pseudopotential on this center.
  124          6
                                   No pseudopotential on this center.
  125          9
                                   No pseudopotential on this center.
  126          9
                                   No pseudopotential on this center.
  127          9
                                   No pseudopotential on this center.
  128          1
                                   No pseudopotential on this center.
  129          1
                                   No pseudopotential on this center.
  130          1
                                   No pseudopotential on this center.
  131          1
                                   No pseudopotential on this center.
 ======================================================================================================
 There are  3481 symmetry adapted cartesian basis functions of A   symmetry.
 There are  3035 symmetry adapted basis functions of A   symmetry.
  3035 basis functions,  4935 primitive gaussians,  3481 cartesian basis functions
   339 alpha electrons      339 beta electrons
       nuclear repulsion energy     20114.5565814701 Hartrees.
 NAtoms=  131 NActive=  131 NUniq=  131 SFac= 1.00D+00 NAtFMM=   60 NAOKFM=T Big=T
 Integral buffers will be    131072 words long.
 Raffenetti 2 integral format.
 Two-electron integral symmetry is turned on.
 Nuclear repulsion after empirical dispersion term =    20114.3334090869 Hartrees.
 One-electron integrals computed using PRISM.
   1 Symmetry operations used in ECPInt.
 ECPInt:  NShTT=  667590 NPrTT= 2100277 LenC2=  412577 LenP2D=  799404.
 LDataN:  DoStor=T MaxTD1= 6 Len=  172
 NBasis=  3035 RedAO= T EigKep=  3.55D-06  NBF=  3035
 NBsUse=  3035 1.00D-06 EigRej= -1.00D+00 NBFU=  3035
 ExpMin= 1.00D-02 ExpMax= 5.24D+04 ExpMxC= 1.79D+03 IAcc=3 IRadAn=         5 AccDes= 0.00D+00
 Harris functional with IExCor= 1009 and IRadAn=       5 diagonalized for initial guess.
 HarFok:  IExCor= 1009 AccDes= 0.00D+00 IRadAn=         5 IDoV= 1 UseB2=F ITyADJ=14
 ICtDFT=  3500011 ScaDFX=  1.000000  1.000000  1.000000  1.000000
 FoFCou: FMM=F IPFlag=           0 FMFlag=      100000 FMFlg1=        2001
         NFxFlg=           0 DoJE=T BraDBF=F KetDBF=T FulRan=T
         wScrn=  0.000000 ICntrl=     500 IOpCl=  0 I1Cent=   200000004 NGrid=           0
         NMat0=    1 NMatS0=      1 NMatT0=    0 NMatD0=    1 NMtDS0=    0 NMtDT0=    0
 Petite list used in FoFCou.
 Requested convergence on RMS density matrix=1.00D-08 within 128 cycles.
 Requested convergence on MAX density matrix=1.00D-06.
 Requested convergence on             energy=1.00D-06.
 No special actions if energy rises.
 EnCoef did     5 forward-backward iterations
 Restarting incremental Fock formation.
 SCF Done:  E(RPBE1PBE) =  -5620.86618166     A.U. after   25 cycles
            NFock= 25  Conv=0.24D-08     -V/T= 2.0138
 DoSCS=F DFT=T ScalE2(SS,OS)=  1.000000  1.000000
 Range of M.O.s used for correlation:     1  3035
 NBasis=  3035 NAE=   339 NBE=   339 NFC=     0 NFV=     0
 NROrb=   3035 NOA=   339 NOB=   339 NVA=  2696 NVB=  2696

 **** Warning!!: The largest alpha MO coefficient is  0.34552264D+02

          Differentiating once with respect to magnetic field using GIAOs.
          Electric field/nuclear overlap derivatives assumed to be zero.
 FoFCou: FMM=F IPFlag=           0 FMFlag=      100000 FMFlg1=        2001
         NFxFlg=           0 DoJE=F BraDBF=F KetDBF=T FulRan=T
         wScrn=  0.000000 ICntrl=    6100 IOpCl=  0 I1Cent=           7 NGrid=         131
         NMat0=    1 NMatS0=      1 NMatT0=    0 NMatD0=    1 NMtDS0=    0 NMtDT0=    0
 Symmetry not used in FoFCou.
   1 Symmetry operations used in ECPInt.
 ECPInt:  NShTT=  667590 NPrTT= 2100277 LenC2=  667591 LenP2D= 2100277.
 LDataN:  DoStor=T MaxTD1= 7 Len=  274
 FoFJK:  IHMeth= 1 ICntrl=    6127 DoSepK=F KAlg= 0 I1Cent=   0 FoldK=F
 IRaf=         1 NMat=   1 IRICut=       1 DoRegI=T DoRafI=F ISym2E= 0.
          There are     3 degrees of freedom in the 1st order CPHF.  IDoFFX=0 NUNeed=     3.
      3 vectors produced by pass  0 Test12= 3.05D-11 3.33D-08 XBig12= 5.50D+02 2.71D+00.
 AX will form     3 AO Fock derivatives at one time.
      3 vectors produced by pass  1 Test12= 3.05D-11 3.33D-08 XBig12= 2.79D+00 3.40D-01.
      3 vectors produced by pass  2 Test12= 3.05D-11 3.33D-08 XBig12= 6.31D-02 7.06D-02.
      3 vectors produced by pass  3 Test12= 3.05D-11 3.33D-08 XBig12= 1.35D-03 1.01D-02.
      3 vectors produced by pass  4 Test12= 3.05D-11 3.33D-08 XBig12= 1.85D-05 1.53D-03.
      3 vectors produced by pass  5 Test12= 3.05D-11 3.33D-08 XBig12= 7.79D-07 2.11D-04.
      3 vectors produced by pass  6 Test12= 3.05D-11 3.33D-08 XBig12= 5.60D-09 1.49D-05.
      3 vectors produced by pass  7 Test12= 3.05D-11 3.33D-08 XBig12= 4.76D-11 1.75D-06.
      3 vectors produced by pass  8 Test12= 3.05D-11 3.33D-08 XBig12= 1.06D-12 3.41D-07.
 InvSVY:  IOpt=1 It=  1 EMax= 7.11D-15
 Solved reduced A of dimension    27 with     3 vectors.
 Calculating GIAO nuclear magnetic shielding tensors.
 SCF GIAO Magnetic shielding tensor (ppm):
      1  Fe   Isotropic = -6109.2087   Anisotropy =  7773.7531
   XX= -4355.0873   YX= -3358.9107   ZX= -1972.5602
   XY= -3271.1523   YY= -6255.2595   ZY=  1586.8103
   XZ= -1938.4830   YZ=  1573.8044   ZZ= -7717.2794
   Eigenvalues: -8796.4080 -8604.5116  -926.7067
      2  P    Isotropic =   297.1305   Anisotropy =    53.0451
   XX=   300.8986   YX=   -30.7907   ZX=   -20.4272
   XY=   -25.3940   YY=   290.9658   ZY=    38.5152
   XZ=     1.5565   YZ=   -10.6182   ZZ=   299.5272
   Eigenvalues:   266.6499   292.2478   332.4939
      3  P    Isotropic =   309.8359   Anisotropy =    38.3344
   XX=   301.2864   YX=   -11.6618   ZX=   -45.2450
   XY=   -28.4261   YY=   315.0479   ZY=    -5.6758
   XZ=    -6.1772   YZ=   -14.6880   ZZ=   313.1734
   Eigenvalues:   269.9958   324.1197   335.3922
      4  C    Isotropic =   111.3213   Anisotropy =    79.2890
   XX=   125.5339   YX=   -39.7562   ZX=    17.4445
   XY=   -36.4424   YY=   124.3927   ZY=    20.8621
   XZ=     3.8517   YZ=    26.3658   ZZ=    84.0372
   Eigenvalues:    60.6921   109.0911   164.1806
      5  C    Isotropic =    97.4770   Anisotropy =    77.9448
   XX=   124.4589   YX=   -24.2580   ZX=   -30.2300
   XY=   -25.3190   YY=   117.9460   ZY=   -18.7094
   XZ=   -34.5041   YZ=    -5.7045   ZZ=    50.0261
   Eigenvalues:    32.9561   110.0346   149.4401
      6  C    Isotropic =   102.3846   Anisotropy =   105.3706
   XX=   137.3509   YX=   -40.4850   ZX=   -29.6136
   XY=   -48.6844   YY=    68.9979   ZY=    13.1296
   XZ=   -30.3325   YZ=     4.7656   ZZ=   100.8050
   Eigenvalues:    46.4007    88.1215   172.6317
      7  C    Isotropic =   104.9251   Anisotropy =    86.7684
   XX=   130.3978   YX=    -9.5934   ZX=   -40.5702
   XY=   -10.3670   YY=    97.1788   ZY=    51.1990
   XZ=   -24.9717   YZ=    31.5616   ZZ=    87.1988
   Eigenvalues:    46.2060   105.7987   162.7707
      8  C    Isotropic =    92.3459   Anisotropy =    82.0826
   XX=    76.8143   YX=   -33.0443   ZX=   -34.2310
   XY=   -22.3692   YY=   109.7661   ZY=    26.2375
   XZ=   -24.9600   YZ=    18.6605   ZZ=    90.4571
   Eigenvalues:    51.7263    78.2437   147.0676
      9  C    Isotropic =   105.9677   Anisotropy =    83.3915
   XX=   107.9959   YX=   -12.0145   ZX=   -40.3832
   XY=   -16.6926   YY=   111.0661   ZY=    41.7871
   XZ=   -18.4249   YZ=    35.6847   ZZ=    98.8411
   Eigenvalues:    61.0390    95.3021   161.5621
     10  C    Isotropic =    81.0983   Anisotropy =    94.3877
   XX=    66.1031   YX=   -45.2999   ZX=   -12.4380
   XY=   -32.1732   YY=   107.2372   ZY=    28.0150
   XZ=    -5.9868   YZ=    34.3591   ZZ=    69.9545
   Eigenvalues:    39.4139    59.8575   144.0234
     11  C    Isotropic =   107.9432   Anisotropy =    93.7713
   XX=   128.9970   YX=   -42.9312   ZX=     8.2381
   XY=   -31.7475   YY=   132.6778   ZY=    13.9154
   XZ=     1.0058   YZ=    36.7186   ZZ=    62.1549
   Eigenvalues:    50.2034   103.1688   170.4574
     12  C    Isotropic =   106.2547   Anisotropy =    98.8150
   XX=   135.4289   YX=   -41.6528   ZX=   -23.0038
   XY=   -45.3327   YY=   113.3341   ZY=   -14.6507
   XZ=   -37.0558   YZ=    -9.0685   ZZ=    70.0010
   Eigenvalues:    45.2619   101.3707   172.1313
     13  C    Isotropic =   108.0964   Anisotropy =    81.5374
   XX=   137.8177   YX=   -36.8514   ZX=    -8.1132
   XY=   -42.1661   YY=    63.1070   ZY=    25.7638
   XZ=   -16.7817   YZ=     3.0310   ZZ=   123.3644
   Eigenvalues:    45.1778   116.6567   162.4547
     14  C    Isotropic =    29.4622   Anisotropy =   204.0800
   XX=    12.9589   YX=    12.0994   ZX=    91.8612
   XY=     9.5428   YY=   -33.6271   ZY=     6.0571
   XZ=    92.4444   YZ=     5.9888   ZZ=   109.0548
   Eigenvalues:   -46.0772   -31.0517   165.5155
     15  C    Isotropic =    50.7953   Anisotropy =   189.7773
   XX=    53.5941   YX=     5.8475   ZX=    60.0788
   XY=    27.7920   YY=   -50.4525   ZY=     9.2948
   XZ=    56.1197   YZ=     1.5235   ZZ=   149.2444
   Eigenvalues:   -53.1840    28.2565   177.3135
     16  C    Isotropic =    47.0101   Anisotropy =   160.9264
   XX=    23.8934   YX=   -28.2247   ZX=    65.8692
   XY=   -26.6285   YY=    -1.3438   ZY=    25.8298
   XZ=    68.1138   YZ=    31.2984   ZZ=   118.4806
   Eigenvalues:   -44.2327    30.9685   154.2943
     17  C    Isotropic =    59.1443   Anisotropy =   182.5394
   XX=    14.4857   YX=    24.3616   ZX=    85.2373
   XY=    22.9939   YY=    23.7454   ZY=     1.0000
   XZ=    78.7410   YZ=     3.1116   ZZ=   139.2019
   Eigenvalues:   -33.4600    30.0557   180.8372
     18  C    Isotropic =    47.5043   Anisotropy =   160.7052
   XX=    54.3291   YX=    21.3245   ZX=    46.8983
   XY=    19.7171   YY=   -41.7667   ZY=    12.0811
   XZ=    48.6763   YZ=     6.8421   ZZ=   129.9505
   Eigenvalues:   -45.9660    33.8377   154.6411
     19  C    Isotropic =    49.0795   Anisotropy =   194.9284
   XX=    28.6802   YX=   -13.1686   ZX=    75.9850
   XY=   -35.1227   YY=   -12.2307   ZY=    32.6365
   XZ=    88.5738   YZ=    42.8850   ZZ=   130.7890
   Eigenvalues:   -55.1248    23.3316   179.0317
     20  C    Isotropic =    38.2639   Anisotropy =   202.2339
   XX=    32.1948   YX=     9.3656   ZX=   -72.2204
   XY=    12.3580   YY=   -35.5662   ZY=   -48.8054
   XZ=   -80.1514   YZ=   -46.2670   ZZ=   118.1631
   Eigenvalues:   -51.1682    -7.1266   173.0865
     21  C    Isotropic =    37.4362   Anisotropy =   211.8407
   XX=     3.6343   YX=    47.5027   ZX=   -65.7387
   XY=    46.9858   YY=   -29.2610   ZY=   -37.0902
   XZ=   -75.7652   YZ=   -22.0192   ZZ=   137.9353
   Eigenvalues:   -64.7699    -1.5848   178.6633
     22  C    Isotropic =    45.2770   Anisotropy =   162.9018
   XX=    -6.5474   YX=     6.4406   ZX=   -76.8261
   XY=     2.7079   YY=    35.6956   ZY=   -32.0499
   XZ=   -81.1260   YZ=   -26.1121   ZZ=   106.6829
   Eigenvalues:   -48.1682    30.1210   153.8782
     23  C    Isotropic =    54.3671   Anisotropy =   191.5828
   XX=    50.8841   YX=     6.7717   ZX=   -62.7050
   XY=     3.2081   YY=   -21.6501   ZY=   -51.6001
   XZ=   -67.7968   YZ=   -56.7535   ZZ=   133.8674
   Eigenvalues:   -41.7207    22.7331   182.0890
     24  C    Isotropic =    46.7675   Anisotropy =   160.8102
   XX=    26.0762   YX=    46.0483   ZX=   -52.1332
   XY=    53.6118   YY=    -5.8517   ZY=   -19.1913
   XZ=   -54.8485   YZ=   -19.5825   ZZ=   120.0779
   Eigenvalues:   -44.0628    30.3909   153.9743
     25  C    Isotropic =    37.8346   Anisotropy =   190.5631
   XX=   -10.8843   YX=     0.3753   ZX=   -96.6630
   XY=     8.0770   YY=    21.2374   ZY=   -38.1160
   XZ=   -92.9087   YZ=   -35.3718   ZZ=   103.1507
   Eigenvalues:   -66.9801    15.6072   164.8767
     26  C    Isotropic =    36.1211   Anisotropy =   206.4869
   XX=   119.3271   YX=    54.3190   ZX=    79.8704
   XY=    50.7592   YY=   -28.9235   ZY=    20.7053
   XZ=    68.8529   YZ=    17.4472   ZZ=    17.9598
   Eigenvalues:   -46.2564   -19.1593   173.7791
     27  C    Isotropic =    37.5266   Anisotropy =   203.3270
   XX=   142.5866   YX=    13.9092   ZX=    58.5700
   XY=    40.3502   YY=   -19.0519   ZY=    49.2223
   XZ=    61.8605   YZ=    52.8062   ZZ=   -10.9548
   Eigenvalues:   -68.6979     8.1999   173.0779
     28  C    Isotropic =    45.0205   Anisotropy =   165.1879
   XX=   103.3669   YX=    35.3926   ZX=    85.4859
   XY=    38.8951   YY=    37.5813   ZY=     1.2014
   XZ=    73.2129   YZ=     4.7071   ZZ=    -5.8867
   Eigenvalues:   -50.2247    30.1404   155.1458
     29  C    Isotropic =    52.7340   Anisotropy =   194.5198
   XX=   134.5887   YX=    66.1660   ZX=    57.1088
   XY=    60.3742   YY=   -18.9744   ZY=     9.9235
   XZ=    61.7733   YZ=     8.9963   ZZ=    42.5877
   Eigenvalues:   -43.5034    19.2915   182.4139
     30  C    Isotropic =    43.9359   Anisotropy =   167.9239
   XX=   124.5907   YX=    23.4617   ZX=    49.8699
   XY=    25.4658   YY=    -3.4975   ZY=    49.8207
   XZ=    54.4019   YZ=    49.5424   ZZ=    10.7146
   Eigenvalues:   -48.2988    24.2214   155.8852
     31  C    Isotropic =    46.0887   Anisotropy =   189.6822
   XX=   120.1611   YX=    32.4834   ZX=    89.7942
   XY=    44.1947   YY=    28.5865   ZY=     6.1694
   XZ=    85.7079   YZ=    -5.3907   ZZ=   -10.4816
   Eigenvalues:   -58.0507    23.7732   172.5435
     32  C    Isotropic =    41.1618   Anisotropy =   204.2165
   XX=   -26.6457   YX=   -20.3177   ZX=    -4.7800
   XY=   -23.5693   YY=    35.1031   ZY=  -100.4995
   XZ=    -6.6016   YZ=   -87.1321   ZZ=   115.0281
   Eigenvalues:   -48.3403    -5.4804   177.3061
     33  C    Isotropic =    38.5086   Anisotropy =   207.9075
   XX=     1.5574   YX=    11.9139   ZX=    18.7714
   XY=     7.0989   YY=    14.7341   ZY=  -102.2047
   XZ=     6.3666   YZ=  -122.4075   ZZ=    99.2345
   Eigenvalues:   -66.3131     4.7254   177.1137
     34  C    Isotropic =    45.2329   Anisotropy =   164.4750
   XX=   -38.0255   YX=    15.8859   ZX=    25.8604
   XY=     9.6512   YY=    62.5074   ZY=   -60.9494
   XZ=    23.2967   YZ=   -64.1260   ZZ=   111.2170
   Eigenvalues:   -47.7090    28.5248   154.8830
     35  C    Isotropic =    54.6361   Anisotropy =   191.1706
   XX=   -12.2138   YX=   -30.9608   ZX=    -9.0292
   XY=   -32.7042   YY=    47.4043   ZY=   -87.6832
   XZ=    -3.6176   YZ=   -80.3070   ZZ=   128.7180
   Eigenvalues:   -39.6009    21.4262   182.0832
     36  C    Isotropic =    46.3271   Anisotropy =   163.0497
   XX=    26.7694   YX=     7.0631   ZX=    14.6091
   XY=     7.0582   YY=    20.6962   ZY=   -88.8339
   XZ=    18.6094   YZ=   -94.3092   ZZ=    91.5157
   Eigenvalues:   -45.3063    29.2607   155.0269
     37  C    Isotropic =    42.4010   Anisotropy =   189.5331
   XX=   -52.4493   YX=     8.8767   ZX=    28.3586
   XY=    18.0589   YY=    67.3337   ZY=   -69.8712
   XZ=    25.2503   YZ=   -79.6944   ZZ=   112.3185
   Eigenvalues:   -62.8647    21.3112   168.7564
     38  H    Isotropic =    26.9907   Anisotropy =     6.4898
   XX=    29.4979   YX=     3.7000   ZX=     0.3262
   XY=     0.9363   YY=    26.3074   ZY=    -0.2804
   XZ=     4.0020   YZ=     0.1888   ZZ=    25.1668
   Eigenvalues:    23.7979    25.8570    31.3172
     39  H    Isotropic =    28.0544   Anisotropy =     9.5937
   XX=    30.7709   YX=     1.4271   ZX=     0.2347
   XY=     4.3525   YY=    27.0315   ZY=    -2.4094
   XZ=    -4.5433   YZ=    -6.0652   ZZ=    26.3607
   Eigenvalues:    22.4246    27.2883    34.4501
     40  H    Isotropic =    23.9711   Anisotropy =    15.6845
   XX=    27.9370   YX=    -0.2326   ZX=    -7.8359
   XY=     1.3992   YY=    18.2248   ZY=    -1.1024
   XZ=    -7.1495   YZ=     1.1468   ZZ=    25.7514
   Eigenvalues:    18.0806    19.4053    34.4274
     41  H    Isotropic =    23.5610   Anisotropy =     9.6085
   XX=    21.2862   YX=     2.0631   ZX=    -3.1341
   XY=     2.0012   YY=    28.8973   ZY=    -1.6284
   XZ=    -3.1361   YZ=    -1.3525   ZZ=    20.4996
   Eigenvalues:    17.7282    22.9882    29.9667
     42  H    Isotropic =    23.5395   Anisotropy =    17.7543
   XX=    26.5316   YX=    -4.9976   ZX=    -7.6736
   XY=    -6.2681   YY=    22.1023   ZY=     6.3275
   XZ=    -4.4870   YZ=     4.8179   ZZ=    21.9847
   Eigenvalues:    16.4377    18.8052    35.3757
     43  H    Isotropic =    21.9225   Anisotropy =     9.8650
   XX=    20.4830   YX=     5.8466   ZX=     3.8588
   XY=     4.2848   YY=    23.7189   ZY=     0.4580
   XZ=     2.1573   YZ=     1.7955   ZZ=    21.5656
   Eigenvalues:    16.1336    21.1347    28.4992
     44  H    Isotropic =    23.0840   Anisotropy =    11.1180
   XX=    28.2791   YX=    -2.1282   ZX=     4.0251
   XY=    -2.5713   YY=    22.5489   ZY=    -0.8067
   XZ=     3.9839   YZ=    -0.9810   ZZ=    18.4241
   Eigenvalues:    17.0015    21.7546    30.4960
     45  H    Isotropic =    22.2788   Anisotropy =     9.8057
   XX=    22.6702   YX=    -2.6670   ZX=    -1.7563
   XY=    -0.6379   YY=    28.2329   ZY=    -1.0271
   XZ=     1.7401   YZ=    -1.6507   ZZ=    15.9333
   Eigenvalues:    15.7841    22.2364    28.8159
     46  H    Isotropic =    22.8779   Anisotropy =    15.5068
   XX=    24.0525   YX=    -6.5428   ZX=    -0.1479
   XY=    -6.6309   YY=    26.7827   ZY=     1.8896
   XZ=    -4.9206   YZ=     4.4653   ZZ=    17.7985
   Eigenvalues:    16.7263    18.6915    33.2158
     47  H    Isotropic =    23.0409   Anisotropy =     9.0912
   XX=    21.3062   YX=    -0.2915   ZX=    -3.5557
   XY=    -0.0492   YY=    21.7042   ZY=    -2.9563
   XZ=    -4.2437   YZ=    -2.7565   ZZ=    26.1122
   Eigenvalues:    18.2900    21.7310    29.1017
     48  H    Isotropic =    22.7272   Anisotropy =    12.2775
   XX=    19.6098   YX=    -0.6758   ZX=     1.1559
   XY=    -0.4399   YY=    29.5524   ZY=    -3.7528
   XZ=     0.6609   YZ=    -4.0937   ZZ=    19.0193
   Eigenvalues:    17.4907    19.7786    30.9121
     49  H    Isotropic =    23.2567   Anisotropy =    15.3728
   XX=    30.6162   YX=     6.7925   ZX=     2.7232
   XY=     3.2300   YY=    21.5430   ZY=    -0.3442
   XZ=     3.8174   YZ=     1.6275   ZZ=    17.6109
   Eigenvalues:    16.7427    19.5222    33.5052
     50  H    Isotropic =    23.0172   Anisotropy =     9.7515
   XX=    25.4041   YX=    -3.3666   ZX=    -1.1786
   XY=    -3.9723   YY=    22.3025   ZY=     4.0454
   XZ=    -1.4253   YZ=     4.6956   ZZ=    21.3451
   Eigenvalues:    17.1084    22.4250    29.5182
     51  H    Isotropic =    22.2207   Anisotropy =    11.9590
   XX=    19.9448   YX=     4.2747   ZX=     2.6798
   XY=     3.5153   YY=    23.4397   ZY=     3.9385
   XZ=     2.3953   YZ=     5.6489   ZZ=    23.2777
   Eigenvalues:    17.3350    19.1337    30.1934
     52  C    Isotropic =   115.8242   Anisotropy =    29.7891
   XX=   127.1137   YX=    -4.1399   ZX=    -8.7494
   XY=    -8.8259   YY=   103.2458   ZY=     4.9299
   XZ=   -12.6391   YZ=     2.8802   ZZ=   117.1132
   Eigenvalues:   101.4774   110.3116   135.6836
     53  H    Isotropic =    27.7317   Anisotropy =    10.0839
   XX=    30.9954   YX=    -1.3271   ZX=     5.5722
   XY=     1.4011   YY=    22.9687   ZY=     0.6780
   XZ=     2.9281   YZ=    -0.5585   ZZ=    29.2309
   Eigenvalues:    22.9682    25.7726    34.4543
     54  H    Isotropic =    27.4590   Anisotropy =     3.9662
   XX=    27.4700   YX=     3.1596   ZX=     3.1436
   XY=     2.1019   YY=    26.8947   ZY=    -2.0488
   XZ=     1.0962   YZ=    -3.1313   ZZ=    28.0122
   Eigenvalues:    22.5048    29.7690    30.1031
     55  C    Isotropic =   116.7920   Anisotropy =    41.1716
   XX=   122.3301   YX=    -9.4357   ZX=   -16.5308
   XY=   -17.1084   YY=   106.2582   ZY=     8.3458
   XZ=   -16.1015   YZ=     7.0119   ZZ=   121.7878
   Eigenvalues:    98.6423   107.4940   144.2398
     56  H    Isotropic =    27.1054   Anisotropy =     5.0897
   XX=    25.4474   YX=     1.1433   ZX=     0.8510
   XY=    -1.1320   YY=    28.9294   ZY=    -0.5425
   XZ=     1.2342   YZ=    -4.0411   ZZ=    26.9394
   Eigenvalues:    24.5393    26.2784    30.4986
     57  N    Isotropic =   203.4428   Anisotropy =    58.8499
   XX=   238.8197   YX=    18.9797   ZX=   -13.2961
   XY=     0.8050   YY=   189.2787   ZY=    12.1351
   XZ=   -10.5544   YZ=    -2.3507   ZZ=   182.2299
   Eigenvalues:   176.0393   191.6129   242.6760
     58  C    Isotropic =   140.9328   Anisotropy =    53.8439
   XX=   147.4177   YX=    25.5488   ZX=    20.8428
   XY=    19.5987   YY=   143.0037   ZY=     9.2062
   XZ=    16.1973   YZ=     8.8831   ZZ=   132.3769
   Eigenvalues:   117.7162   128.2535   176.8287
     59  C    Isotropic =   144.6265   Anisotropy =    48.1444
   XX=   125.5855   YX=   -15.1019   ZX=    -1.1334
   XY=    -9.7153   YY=   168.8238   ZY=    14.6873
   XZ=    -0.1582   YZ=    11.9846   ZZ=   139.4704
   Eigenvalues:   121.7273   135.4295   176.7228
     60  H    Isotropic =    29.5728   Anisotropy =     9.2309
   XX=    34.5772   YX=     3.0749   ZX=    -1.2594
   XY=     3.1314   YY=    26.9853   ZY=    -0.8880
   XZ=     0.4425   YZ=    -0.4136   ZZ=    27.1559
   Eigenvalues:    25.7170    27.2747    35.7267
     61  H    Isotropic =    29.2338   Anisotropy =    11.2173
   XX=    26.1225   YX=     6.0649   ZX=     0.1353
   XY=     1.4651   YY=    35.1009   ZY=     0.8689
   XZ=     2.7317   YZ=     1.4200   ZZ=    26.4780
   Eigenvalues:    24.2923    26.6971    36.7120
     62  H    Isotropic =    30.4220   Anisotropy =     7.5149
   XX=    33.5663   YX=     0.4272   ZX=     1.3593
   XY=     1.0863   YY=    25.7959   ZY=    -1.6893
   XZ=     3.6740   YZ=    -2.5832   ZZ=    31.9038
   Eigenvalues:    24.8532    30.9807    35.4319
     63  H    Isotropic =    30.2450   Anisotropy =    10.1042
   XX=    30.4911   YX=    -3.7713   ZX=    -2.6926
   XY=    -4.4805   YY=    27.2522   ZY=     3.4984
   XZ=    -3.5670   YZ=     0.9183   ZZ=    32.9916
   Eigenvalues:    24.4388    29.3150    36.9811
     64  H    Isotropic =    29.7780   Anisotropy =     9.5698
   XX=    28.7304   YX=    -4.7591   ZX=     0.1328
   XY=    -4.8491   YY=    31.1974   ZY=    -4.1654
   XZ=    -0.1666   YZ=    -2.9309   ZZ=    29.4063
   Eigenvalues:    23.9867    29.1895    36.1579
     65  H    Isotropic =    29.6419   Anisotropy =     6.9543
   XX=    32.2341   YX=    -3.1361   ZX=     0.9762
   XY=    -2.6438   YY=    28.5828   ZY=     3.5258
   XZ=    -1.9699   YZ=     1.3092   ZZ=    28.1088
   Eigenvalues:    25.4751    29.1725    34.2781
     66  C    Isotropic =    51.8022   Anisotropy =   188.0212
   XX=   169.7570   YX=    32.5011   ZX=    -0.5744
   XY=    30.2706   YY=    43.1080   ZY=     9.0024
   XZ=     2.2990   YZ=    10.9247   ZZ=   -57.4585
   Eigenvalues:   -58.4584    36.7153   177.1496
     67  C    Isotropic =    52.1831   Anisotropy =   186.2259
   XX=   164.4974   YX=    50.8289   ZX=    -5.9979
   XY=    48.3432   YY=   -32.2668   ZY=    34.2236
   XZ=    -5.1961   YZ=    35.4658   ZZ=    24.3187
   Eigenvalues:   -58.9389    39.1545   176.3337
     68  C    Isotropic =    50.6513   Anisotropy =   183.4868
   XX=   162.9323   YX=    40.3600   ZX=    24.5128
   XY=    45.3220   YY=   -20.8895   ZY=   -36.3647
   XZ=    12.7623   YZ=   -47.0194   ZZ=     9.9111
   Eigenvalues:   -59.4079    38.3860   172.9759
     69  C    Isotropic =    39.3384   Anisotropy =   193.5679
   XX=   159.2176   YX=    41.7095   ZX=     7.5067
   XY=    32.4634   YY=    16.4355   ZY=     8.8388
   XZ=    -2.7063   YZ=    13.0569   ZZ=   -57.6380
   Eigenvalues:   -59.2651     8.8966   168.3837
     70  C    Isotropic =    47.8631   Anisotropy =   166.3406
   XX=   152.1872   YX=    34.6477   ZX=    -7.5927
   XY=    37.6038   YY=   -40.4637   ZY=    38.2019
   XZ=    -2.4450   YZ=    33.7137   ZZ=    31.8658
   Eigenvalues:   -61.1626    45.9950   158.7568
     71  C    Isotropic =    50.6972   Anisotropy =   186.5072
   XX=   166.3528   YX=    39.7443   ZX=    10.7355
   XY=    41.9921   YY=   -18.0377   ZY=   -46.8456
   XZ=    13.9161   YZ=   -48.3225   ZZ=     3.7765
   Eigenvalues:   -62.8775    39.9337   175.0353
     72  H    Isotropic =    23.8280   Anisotropy =     3.5670
   XX=    20.6385   YX=    -1.0946   ZX=     0.6266
   XY=    -1.2738   YY=    25.9094   ZY=    -0.0522
   XZ=     0.5692   YZ=    -0.1578   ZZ=    24.9360
   Eigenvalues:    20.3160    24.9619    26.2060
     73  H    Isotropic =    23.7895   Anisotropy =     6.3668
   XX=    20.5956   YX=    -0.9254   ZX=     1.1960
   XY=    -0.8302   YY=    22.8275   ZY=     0.1647
   XZ=     0.4233   YZ=    -0.0818   ZZ=    27.9453
   Eigenvalues:    20.2132    23.1213    28.0340
     74  H    Isotropic =    23.8793   Anisotropy =    10.9924
   XX=    21.8765   YX=    -0.0374   ZX=     2.2908
   XY=    -0.7363   YY=    22.9354   ZY=    -5.7915
   XZ=     1.1974   YZ=    -5.6367   ZZ=    26.8260
   Eigenvalues:    18.6796    21.7508    31.2075
     75  H    Isotropic =    24.3653   Anisotropy =     9.1486
   XX=    21.4427   YX=     1.5458   ZX=    -0.0260
   XY=     0.4971   YY=    21.6803   ZY=     2.0951
   XZ=     0.2671   YZ=     1.9985   ZZ=    29.9731
   Eigenvalues:    20.3426    22.2890    30.4644
     76  H    Isotropic =    23.8525   Anisotropy =     7.5053
   XX=    20.2161   YX=    -0.3527   ZX=     1.0260
   XY=    -0.4006   YY=    23.1577   ZY=    -1.5290
   XZ=     1.1185   YZ=    -1.8781   ZZ=    28.1838
   Eigenvalues:    20.0660    22.6355    28.8560
     77  N    Isotropic =   190.4818   Anisotropy =    57.6689
   XX=   211.2817   YX=    -1.2877   ZX=   -24.7573
   XY=    -5.8818   YY=   169.4927   ZY=     1.0345
   XZ=   -27.0812   YZ=    -4.9684   ZZ=   190.6710
   Eigenvalues:   167.1884   175.3293   228.9277
     78  H    Isotropic =    29.0393   Anisotropy =    14.0659
   XX=    24.9129   YX=     1.5201   ZX=     1.6920
   XY=    -1.0351   YY=    25.1798   ZY=    -6.1519
   XZ=     2.8357   YZ=    -1.2474   ZZ=    37.0253
   Eigenvalues:    23.4727    25.2287    38.4166
     79  C    Isotropic =   139.1744   Anisotropy =    61.9632
   XX=   157.9676   YX=    32.4360   ZX=     5.4664
   XY=    29.8980   YY=   136.8261   ZY=    -1.6965
   XZ=     3.5476   YZ=     0.0345   ZZ=   122.7294
   Eigenvalues:   113.3103   123.7297   180.4831
     80  C    Isotropic =   139.2600   Anisotropy =    54.9986
   XX=   122.2903   YX=   -18.3863   ZX=     0.6815
   XY=   -13.1481   YY=   171.1000   ZY=     2.5223
   XZ=    -0.0621   YZ=     3.9276   ZZ=   124.3897
   Eigenvalues:   117.4252   124.4291   175.9257
     81  H    Isotropic =    30.0915   Anisotropy =     8.2269
   XX=    33.4158   YX=    -0.4244   ZX=     4.8072
   XY=     2.6787   YY=    25.8690   ZY=    -1.4339
   XZ=     1.4853   YZ=    -1.4543   ZZ=    30.9897
   Eigenvalues:    24.9959    29.7024    35.5761
     82  H    Isotropic =    29.5612   Anisotropy =     6.8213
   XX=    32.5572   YX=     0.1414   ZX=    -2.4379
   XY=     2.1171   YY=    31.0607   ZY=    -2.5778
   XZ=    -2.1322   YZ=    -1.2065   ZZ=    25.0658
   Eigenvalues:    24.0807    30.4942    34.1087
     83  H    Isotropic =    29.5167   Anisotropy =    12.2288
   XX=    33.3073   YX=     1.4701   ZX=    -5.4031
   XY=     3.7315   YY=    25.6433   ZY=    -2.6201
   XZ=    -4.6711   YZ=    -1.0895   ZZ=    29.5995
   Eigenvalues:    24.7940    26.0868    37.6693
     84  H    Isotropic =    29.5631   Anisotropy =     5.8731
   XX=    30.1826   YX=    -1.2891   ZX=     1.6046
   XY=    -3.7960   YY=    29.5443   ZY=    -4.7003
   XZ=     0.0411   YZ=     0.1375   ZZ=    28.9625
   Eigenvalues:    26.5004    28.7105    33.4785
     85  H    Isotropic =    29.2554   Anisotropy =    10.3606
   XX=    29.2008   YX=    -1.8089   ZX=    -4.7673
   XY=    -3.6520   YY=    28.5438   ZY=     2.3319
   XZ=    -5.0983   YZ=     2.1228   ZZ=    30.0217
   Eigenvalues:    24.5703    27.0334    36.1625
     86  H    Isotropic =    29.1689   Anisotropy =     7.7515
   XX=    31.8889   YX=    -1.2161   ZX=    -2.4903
   XY=    -2.1682   YY=    30.5711   ZY=     2.0592
   XZ=    -3.1174   YZ=     2.0076   ZZ=    25.0465
   Eigenvalues:    23.7547    29.4153    34.3365
     87  C    Isotropic =    52.0771   Anisotropy =   186.5356
   XX=   147.6706   YX=    70.4635   ZX=   -19.8452
   XY=    72.0810   YY=   -31.5748   ZY=   -12.7097
   XZ=   -19.9522   YZ=   -12.7461   ZZ=    40.1354
   Eigenvalues:   -56.7744    36.5714   176.4341
     88  C    Isotropic =    50.4678   Anisotropy =   189.1983
   XX=   150.6486   YX=    52.8333   ZX=   -43.0072
   XY=    56.2386   YY=    32.3573   ZY=    27.8962
   XZ=   -44.2926   YZ=    29.1543   ZZ=   -31.6025
   Eigenvalues:   -60.6714    35.4748   176.6000
     89  C    Isotropic =    52.0096   Anisotropy =   191.7864
   XX=   162.8315   YX=    41.1126   ZX=   -17.4083
   XY=    48.7144   YY=    24.8018   ZY=   -44.1243
   XZ=   -14.0624   YZ=   -42.8278   ZZ=   -31.6046
   Eigenvalues:   -55.5182    31.6797   179.8672
     90  C    Isotropic =    29.4929   Anisotropy =   207.0086
   XX=   136.7058   YX=    76.4719   ZX=   -28.8329
   XY=    67.0213   YY=   -41.7774   ZY=   -15.6368
   XZ=   -26.8269   YZ=   -12.9868   ZZ=    -6.4497
   Eigenvalues:   -67.3612   -11.6588   167.4986
     91  C    Isotropic =    49.3714   Anisotropy =   171.1033
   XX=   137.5064   YX=    48.5118   ZX=   -48.4316
   XY=    49.3418   YY=    33.9075   ZY=    24.4125
   XZ=   -44.8809   YZ=    27.9045   ZZ=   -23.2999
   Eigenvalues:   -53.9247    38.5986   163.4402
     92  C    Isotropic =    51.2374   Anisotropy =   188.9207
   XX=   157.5939   YX=    41.3492   ZX=   -25.3371
   XY=    43.5034   YY=    26.6595   ZY=   -51.3000
   XZ=   -22.0984   YZ=   -50.8921   ZZ=   -30.5413
   Eigenvalues:   -60.5018    37.0294   177.1845
     93  H    Isotropic =    23.8126   Anisotropy =     3.7229
   XX=    20.4798   YX=    -0.1629   ZX=     1.2181
   XY=    -0.0891   YY=    25.2221   ZY=    -0.4069
   XZ=     1.2954   YZ=    -0.6469   ZZ=    25.7358
   Eigenvalues:    20.1947    24.9484    26.2945
     94  H    Isotropic =    23.6025   Anisotropy =     9.4950
   XX=    22.1230   YX=    -0.7190   ZX=     0.5977
   XY=    -1.6552   YY=    26.5137   ZY=    -5.2502
   XZ=     1.2991   YZ=    -4.4138   ZZ=    22.1709
   Eigenvalues:    19.0368    21.8383    29.9326
     95  H    Isotropic =    24.5804   Anisotropy =     6.0869
   XX=    19.8432   YX=    -0.4277   ZX=     2.0301
   XY=    -2.0395   YY=    28.4641   ZY=     2.2184
   XZ=     3.6067   YZ=    -1.5347   ZZ=    25.4339
   Eigenvalues:    18.5069    26.5959    28.6383
     96  C    Isotropic =    48.3951   Anisotropy =    15.9909
   XX=    46.7546   YX=    -2.7487   ZX=     1.1305
   XY=    -3.2170   YY=    57.9170   ZY=    -3.1068
   XZ=    -0.5618   YZ=    -2.3053   ZZ=    40.5138
   Eigenvalues:    40.0982    46.0315    59.0557
     97  F    Isotropic =   221.5965   Anisotropy =   147.4860
   XX=   185.2155   YX=    13.5792   ZX=    83.4894
   XY=    12.7282   YY=   215.8795   ZY=    15.1917
   XZ=    82.2908   YZ=    14.9398   ZZ=   263.6946
   Eigenvalues:   132.6311   212.2380   319.9205
     98  F    Isotropic =   252.4629   Anisotropy =   131.9054
   XX=   284.1340   YX=   -50.9785   ZX=    26.0405
   XY=   -45.9060   YY=   298.5817   ZY=    12.7766
   XZ=     8.6763   YZ=    25.5788   ZZ=   174.6731
   Eigenvalues:   165.9892   250.9997   340.3999
     99  F    Isotropic =   237.9869   Anisotropy =   146.4131
   XX=   256.4429   YX=    62.3705   ZX=    -6.6435
   XY=    51.5151   YY=   263.9044   ZY=   -51.7311
   XZ=   -17.4728   YZ=   -62.1619   ZZ=   193.6132
   Eigenvalues:   157.9436   220.4214   335.5956
    100  C    Isotropic =    48.9114   Anisotropy =    12.2349
   XX=    50.0214   YX=    -3.5056   ZX=    -2.4426
   XY=    -3.5116   YY=    48.0118   ZY=     6.1318
   XZ=    -2.7987   YZ=     5.9598   ZZ=    48.7009
   Eigenvalues:    42.2110    47.4552    57.0680
    101  F    Isotropic =   224.2908   Anisotropy =   151.5546
   XX=   263.1625   YX=   -59.9940   ZX=    59.3620
   XY=   -64.6114   YY=   189.8038   ZY=     3.4608
   XZ=    62.2217   YZ=     2.4663   ZZ=   219.9060
   Eigenvalues:   137.8618   209.6833   325.3271
    102  F    Isotropic =   231.1752   Anisotropy =   149.7413
   XX=   223.5267   YX=    34.5632   ZX=    11.1307
   XY=    37.5709   YY=   296.1209   ZY=    63.2570
   XZ=     3.5502   YZ=    51.2756   ZZ=   173.8781
   Eigenvalues:   150.6071   211.9159   331.0028
    103  F    Isotropic =   257.2419   Anisotropy =   115.1976
   XX=   289.6003   YX=    -1.3748   ZX=   -32.1976
   XY=    11.4530   YY=   187.7762   ZY=    32.6330
   XZ=   -42.8435   YZ=    44.2098   ZZ=   294.3491
   Eigenvalues:   172.9009   264.7844   334.0403
    104  C    Isotropic =    48.7884   Anisotropy =    15.4295
   XX=    46.2300   YX=     4.9389   ZX=     6.5743
   XY=     4.5894   YY=    52.4608   ZY=     3.4090
   XZ=     6.1974   YZ=     4.4821   ZZ=    47.6742
   Eigenvalues:    40.4321    46.8583    59.0747
    105  F    Isotropic =   235.2801   Anisotropy =   143.7601
   XX=   175.6673   YX=   -46.8072   ZX=    29.0476
   XY=   -34.1899   YY=   318.0260   ZY=   -12.8065
   XZ=    22.8390   YZ=    -7.8279   ZZ=   212.1469
   Eigenvalues:   155.7609   218.9592   331.1201
    106  F    Isotropic =   255.5286   Anisotropy =   127.5078
   XX=   261.8096   YX=    69.2148   ZX=    67.2998
   XY=    56.2594   YY=   244.8663   ZY=    -9.7561
   XZ=    51.1155   YZ=    -3.4093   ZZ=   259.9098
   Eigenvalues:   166.6409   259.4111   340.5338
    107  F    Isotropic =   215.3082   Anisotropy =   142.5338
   XX=   153.2934   YX=    28.9346   ZX=   -42.4549
   XY=    31.7703   YY=   193.5174   ZY=     0.5913
   XZ=   -39.2296   YZ=    -1.0481   ZZ=   299.1139
   Eigenvalues:   129.2031   206.3908   310.3308
    108  C    Isotropic =    48.3770   Anisotropy =    12.9078
   XX=    56.1399   YX=     3.3971   ZX=     1.6163
   XY=     2.8006   YY=    41.2640   ZY=     0.0631
   XZ=     1.4459   YZ=    -0.7549   ZZ=    47.7272
   Eigenvalues:    40.5860    47.5629    56.9823
    109  F    Isotropic =   216.4793   Anisotropy =   151.9793
   XX=   205.9002   YX=     2.7475   ZX=    13.2813
   XY=     1.0815   YY=   279.0608   ZY=   -76.4326
   XZ=    12.3520   YZ=   -77.3362   ZZ=   164.4769
   Eigenvalues:   124.0317   207.6074   317.7988
    110  F    Isotropic =   242.9418   Anisotropy =   139.9046
   XX=   251.5102   YX=    42.3751   ZX=    55.3026
   XY=    49.6676   YY=   196.8267   ZY=     7.6929
   XZ=    68.7326   YZ=    -6.3910   ZZ=   280.4884
   Eigenvalues:   161.0220   231.5918   336.2115
    111  F    Isotropic =   250.0727   Anisotropy =   128.8110
   XX=   302.9496   YX=   -11.5888   ZX=   -44.7213
   XY=   -23.0560   YY=   185.7414   ZY=   -22.9689
   XZ=   -54.2909   YZ=   -38.0444   ZZ=   261.5270
   Eigenvalues:   166.1032   248.1682   335.9467
    112  C    Isotropic =    48.9120   Anisotropy =    13.6121
   XX=    48.2946   YX=    -7.1115   ZX=    -3.8359
   XY=    -7.2918   YY=    50.0429   ZY=     1.6549
   XZ=    -3.1199   YZ=     2.4770   ZZ=    48.3985
   Eigenvalues:    41.6495    47.0997    57.9868
    113  F    Isotropic =   219.1861   Anisotropy =   150.8626
   XX=   256.6288   YX=    16.7330   ZX=    65.6106
   XY=    16.5884   YY=   202.0017   ZY=    60.1129
   XZ=    65.6578   YZ=    59.6819   ZZ=   198.9279
   Eigenvalues:   128.3962   209.4010   319.7612
    114  F    Isotropic =   248.2564   Anisotropy =   139.8197
   XX=   257.2120   YX=   -47.8048   ZX=   -44.5558
   XY=   -40.5758   YY=   186.9936   ZY=    20.6959
   XZ=   -37.6817   YZ=    40.7909   ZZ=   300.5637
   Eigenvalues:   164.8143   238.4855   341.4696
    115  F    Isotropic =   249.0728   Anisotropy =   133.5641
   XX=   193.8596   YX=   -42.5876   ZX=    26.3392
   XY=   -57.5894   YY=   300.2124   ZY=   -27.1798
   XZ=    42.3625   YZ=   -28.3393   ZZ=   253.1462
   Eigenvalues:   167.7661   241.3367   338.1155
    116  C    Isotropic =    48.3778   Anisotropy =    14.9330
   XX=    54.0884   YX=     1.7898   ZX=    -7.2435
   XY=     2.6753   YY=    43.2283   ZY=     3.2321
   XZ=    -6.0843   YZ=     2.0307   ZZ=    47.8166
   Eigenvalues:    39.9788    46.8214    58.3331
    117  F    Isotropic =   249.2364   Anisotropy =   137.2621
   XX=   271.1992   YX=   -25.6653   ZX=   -37.4495
   XY=   -31.2578   YY=   186.6749   ZY=    61.5142
   XZ=   -37.8977   YZ=    39.4682   ZZ=   289.8351
   Eigenvalues:   164.4862   242.4785   340.7445
    118  F    Isotropic =   217.2092   Anisotropy =   147.7136
   XX=   233.6798   YX=   -23.3499   ZX=    39.2389
   XY=   -22.3502   YY=   158.1922   ZY=   -62.2889
   XZ=    39.8873   YZ=   -64.8987   ZZ=   259.7556
   Eigenvalues:   127.4661   208.4766   315.6849
    119  F    Isotropic =   247.1114   Anisotropy =   137.8344
   XX=   269.9198   YX=    74.8770   ZX=     5.3659
   XY=    94.4120   YY=   232.3778   ZY=     9.1005
   XZ=    12.5672   YZ=     2.8335   ZZ=   239.0366
   Eigenvalues:   164.4355   237.8977   339.0010
    120  C    Isotropic =    48.4672   Anisotropy =    14.8413
   XX=    45.0111   YX=    -0.8635   ZX=    -3.3369
   XY=    -1.7728   YY=    58.0745   ZY=     1.1608
   XZ=    -2.5303   YZ=     1.3672   ZZ=    42.3159
   Eigenvalues:    40.4279    46.6122    58.3614
    121  F    Isotropic =   241.1812   Anisotropy =   130.9498
   XX=   268.3656   YX=   -62.5660   ZX=   -61.0179
   XY=   -53.7211   YY=   243.0005   ZY=    -6.7956
   XZ=   -46.0471   YZ=    -7.1556   ZZ=   212.1776
   Eigenvalues:   160.5060   234.5566   328.4811
    122  F    Isotropic =   247.8641   Anisotropy =   135.0296
   XX=   200.8931   YX=    63.7723   ZX=   -38.5156
   XY=    42.7636   YY=   316.7562   ZY=     3.2020
   XZ=   -25.3020   YZ=     8.4449   ZZ=   225.9430
   Eigenvalues:   163.7601   241.9483   337.8838
    123  F    Isotropic =   215.2749   Anisotropy =   147.5673
   XX=   131.3805   YX=   -21.3722   ZX=    10.5337
   XY=   -20.9779   YY=   205.5573   ZY=   -19.9577
   XZ=    12.2268   YZ=   -18.7946   ZZ=   308.8870
   Eigenvalues:   125.5570   206.6147   313.6531
    124  C    Isotropic =    49.6238   Anisotropy =    16.9950
   XX=    49.9270   YX=     8.2544   ZX=     3.8248
   XY=     8.2421   YY=    51.5417   ZY=     2.2727
   XZ=     4.5246   YZ=     3.9414   ZZ=    47.4027
   Eigenvalues:    42.1723    45.7452    60.9537
    125  F    Isotropic =   232.1399   Anisotropy =   132.0434
   XX=   218.8622   YX=    22.1981   ZX=    53.5528
   XY=    19.5799   YY=   186.7242   ZY=   -36.9366
   XZ=    49.7610   YZ=   -23.7017   ZZ=   290.8332
   Eigenvalues:   155.6584   220.5925   320.1688
    126  F    Isotropic =   222.5810   Anisotropy =   149.9597
   XX=   292.1854   YX=    27.5472   ZX=   -58.8853
   XY=    21.0291   YY=   162.0465   ZY=    27.7120
   XZ=   -55.2504   YZ=    31.6707   ZZ=   213.5112
   Eigenvalues:   133.5049   211.6840   322.5541
    127  F    Isotropic =   256.3016   Anisotropy =   126.4845
   XX=   197.6610   YX=    45.7475   ZX=   -17.2202
   XY=    65.9430   YY=   315.5578   ZY=    26.2967
   XZ=   -18.4451   YZ=    20.4381   ZZ=   255.6861
   Eigenvalues:   168.0408   260.2394   340.6246
    128  H    Isotropic =    23.7547   Anisotropy =     5.0043
   XX=    20.6501   YX=    -0.1759   ZX=    -0.0153
   XY=    -0.7114   YY=    27.0601   ZY=     0.0088
   XZ=    -0.1184   YZ=    -0.0866   ZZ=    23.5540
   Eigenvalues:    20.6179    23.5553    27.0909
    129  H    Isotropic =    23.7009   Anisotropy =     7.8187
   XX=    20.5823   YX=    -1.4491   ZX=     2.2168
   XY=    -1.7069   YY=    27.4553   ZY=    -1.5522
   XZ=     2.6799   YZ=    -2.3967   ZZ=    23.0650
   Eigenvalues:    19.0652    23.1241    28.9133
    130  H    Isotropic =    29.9139   Anisotropy =    18.1586
   XX=    36.6817   YX=     8.2616   ZX=    -1.9067
   XY=     7.1550   YY=    29.7455   ZY=    -1.8785
   XZ=    -1.2706   YZ=    -2.6640   ZZ=    23.3146
   Eigenvalues:    22.4903    25.2318    42.0197
    131  H    Isotropic =    27.6936   Anisotropy =     8.0820
   XX=    28.2569   YX=     5.3286   ZX=     6.6722
   XY=     2.5469   YY=    26.2305   ZY=    -0.9566
   XZ=     2.0282   YZ=    -3.2754   ZZ=    28.5934
   Eigenvalues:    20.6673    29.3320    33.0816
 End of Minotr F.D. properties file   721 does not exist.
 End of Minotr F.D. properties file   722 does not exist.
 End of Minotr F.D. properties file   788 does not exist.
 Hyperfine terms turned off by default for NAtoms > 100.

 **********************************************************************

            Population analysis using the SCF density.

 **********************************************************************

 Orbital symmetries:
       Occupied  (A) (A) (A) (A) (A) (A) (A) (A) (A) (A) (A) (A)
                 (A) (A) (A) (A) (A) (A) (A) (A) (A) (A) (A) (A)
                 (A) (A) (A) (A) (A) (A) (A) (A) (A) (A) (A) (A)
                 (A) (A) (A) (A) (A) (A) (A) (A) (A) (A) (A) (A)
                 (A) (A) (A) (A) (A) (A) (A) (A) (A) (A) (A) (A)
                 (A) (A) (A) (A) (A) (A) (A) (A) (A) (A) (A) (A)
                 (A) (A) (A) (A) (A) (A) (A) (A) (A) (A) (A) (A)
                 (A) (A) (A) (A) (A) (A) (A) (A) (A) (A) (A) (A)
                 (A) (A) (A) (A) (A) (A) (A) (A) (A) (A) (A) (A)
                 (A) (A) (A) (A) (A) (A) (A) (A) (A) (A) (A) (A)
                 (A) (A) (A) (A) (A) (A) (A) (A) (A) (A) (A) (A)
                 (A) (A) (A) (A) (A) (A) (A) (A) (A) (A) (A) (A)
                 (A) (A) (A) (A) (A) (A) (A) (A) (A) (A) (A) (A)
                 (A) (A) (A) (A) (A) (A) (A) (A) (A) (A) (A) (A)
                 (A) (A) (A) (A) (A) (A) (A) (A) (A) (A) (A) (A)
                 (A) (A) (A) (A) (A) (A) (A) (A) (A) (A) (A) (A)
                 (A) (A) (A) (A) (A) (A) (A) (A) (A) (A) (A) (A)
                 (A) (A) (A) (A) (A) (A) (A) (A) (A) (A) (A) (A)
                 (A) (A) (A) (A) (A) (A) (A) (A) (A) (A) (A) (A)
                 (A) (A) (A) (A) (A) (A) (A) (A) (A) (A) (A) (A)
                 (A) (A) (A) (A) (A) (A) (A) (A) (A) (A) (A) (A)
                 (A) (A) (A) (A) (A) (A) (A) (A) (A) (A) (A) (A)
                 (A) (A) (A) (A) (A) (A) (A) (A) (A) (A) (A) (A)
                 (A) (A) (A) (A) (A) (A) (A) (A) (A) (A) (A) (A)
                 (A) (A) (A) (A) (A) (A) (A) (A) (A) (A) (A) (A)
                 (A) (A) (A) (A) (A) (A) (A) (A) (A) (A) (A) (A)
                 (A) (A) (A) (A) (A) (A) (A) (A) (A) (A) (A) (A)
                 (A) (A) (A) (A) (A) (A) (A) (A) (A) (A) (A) (A)
                 (A) (A) (A)
       Virtual   (A) (A) (A) (A) (A) (A) (A) (A) (A) (A) (A) (A)
                 (A) (A) (A) (A) (A) (A) (A) (A) (A) (A) (A) (A)
                 (A) (A) (A) (A) (A) (A) (A) (A) (A) (A) (A) (A)
                 (A) (A) (A) (A) (A) (A) (A) (A) (A) (A) (A) (A)
                 (A) (A) (A) (A) (A) (A) (A) (A) (A) (A) (A) (A)
                 (A) (A) (A) (A) (A) (A) (A) (A) (A) (A) (A) (A)
                 (A) (A) (A) (A) (A) (A) (A) (A) (A) (A) (A) (A)
                 (A) (A) (A) (A) (A) (A) (A) (A) (A) (A) (A) (A)
                 (A) (A) (A) (A) (A) (A) (A) (A) (A) (A) (A) (A)
                 (A) (A) (A) (A) (A) (A) (A) (A) (A) (A) (A) (A)
                 (A) (A) (A) (A) (A) (A) (A) (A) (A) (A) (A) (A)
                 (A) (A) (A) (A) (A) (A) (A) (A) (A) (A) (A) (A)
                 (A) (A) (A) (A) (A) (A) (A) (A) (A) (A) (A) (A)
                 (A) (A) (A) (A) (A) (A) (A) (A) (A) (A) (A) (A)
                 (A) (A) (A) (A) (A) (A) (A) (A) (A) (A) (A) (A)
                 (A) (A) (A) (A) (A) (A) (A) (A) (A) (A) (A) (A)
                 (A) (A) (A) (A) (A) (A) (A) (A) (A) (A) (A) (A)
                 (A) (A) (A) (A) (A) (A) (A) (A) (A) (A) (A) (A)
                 (A) (A) (A) (A) (A) (A) (A) (A) (A) (A) (A) (A)
                 (A) (A) (A) (A) (A) (A) (A) (A) (A) (A) (A) (A)
                 (A) (A) (A) (A) (A) (A) (A) (A) (A) (A) (A) (A)
                 (A) (A) (A) (A) (A) (A) (A) (A) (A) (A) (A) (A)
                 (A) (A) (A) (A) (A) (A) (A) (A) (A) (A) (A) (A)
                 (A) (A) (A) (A) (A) (A) (A) (A) (A) (A) (A) (A)
                 (A) (A) (A) (A) (A) (A) (A) (A) (A) (A) (A) (A)
                 (A) (A) (A) (A) (A) (A) (A) (A) (A) (A) (A) (A)
                 (A) (A) (A) (A) (A) (A) (A) (A) (A) (A) (A) (A)
                 (A) (A) (A) (A) (A) (A) (A) (A) (A) (A) (A) (A)
                 (A) (A) (A) (A) (A) (A) (A) (A) (A) (A) (A) (A)
                 (A) (A) (A) (A) (A) (A) (A) (A) (A) (A) (A) (A)
                 (A) (A) (A) (A) (A) (A) (A) (A) (A) (A) (A) (A)
                 (A) (A) (A) (A) (A) (A) (A) (A) (A) (A) (A) (A)
                 (A) (A) (A) (A) (A) (A) (A) (A) (A) (A) (A) (A)
                 (A) (A) (A) (A) (A) (A) (A) (A) (A) (A) (A) (A)
                 (A) (A) (A) (A) (A) (A) (A) (A) (A) (A) (A) (A)
                 (A) (A) (A) (A) (A) (A) (A) (A) (A) (A) (A) (A)
                 (A) (A) (A) (A) (A) (A) (A) (A) (A) (A) (A) (A)
                 (A) (A) (A) (A) (A) (A) (A) (A) (A) (A) (A) (A)
                 (A) (A) (A) (A) (A) (A) (A) (A) (A) (A) (A) (A)
                 (A) (A) (A) (A) (A) (A) (A) (A) (A) (A) (A) (A)
                 (A) (A) (A) (A) (A) (A) (A) (A) (A) (A) (A) (A)
                 (A) (A) (A) (A) (A) (A) (A) (A) (A) (A) (A) (A)
                 (A) (A) (A) (A) (A) (A) (A) (A) (A) (A) (A) (A)
                 (A) (A) (A) (A) (A) (A) (A) (A) (A) (A) (A) (A)
                 (A) (A) (A) (A) (A) (A) (A) (A) (A) (A) (A) (A)
                 (A) (A) (A) (A) (A) (A) (A) (A) (A) (A) (A) (A)
                 (A) (A) (A) (A) (A) (A) (A) (A) (A) (A) (A) (A)
                 (A) (A) (A) (A) (A) (A) (A) (A) (A) (A) (A) (A)
                 (A) (A) (A) (A) (A) (A) (A) (A) (A) (A) (A) (A)
                 (A) (A) (A) (A) (A) (A) (A) (A) (A) (A) (A) (A)
                 (A) (A) (A) (A) (A) (A) (A) (A) (A) (A) (A) (A)
                 (A) (A) (A) (A) (A) (A) (A) (A) (A) (A) (A) (A)
                 (A) (A) (A) (A) (A) (A) (A) (A) (A) (A) (A) (A)
                 (A) (A) (A) (A) (A) (A) (A) (A) (A) (A) (A) (A)
                 (A) (A) (A) (A) (A) (A) (A) (A) (A) (A) (A) (A)
                 (A) (A) (A) (A) (A) (A) (A) (A) (A) (A) (A) (A)
                 (A) (A) (A) (A) (A) (A) (A) (A) (A) (A) (A) (A)
                 (A) (A) (A) (A) (A) (A) (A) (A) (A) (A) (A) (A)
                 (A) (A) (A) (A) (A) (A) (A) (A) (A) (A) (A) (A)
                 (A) (A) (A) (A) (A) (A) (A) (A) (A) (A) (A) (A)
                 (A) (A) (A) (A) (A) (A) (A) (A) (A) (A) (A) (A)
                 (A) (A) (A) (A) (A) (A) (A) (A) (A) (A) (A) (A)
                 (A) (A) (A) (A) (A) (A) (A) (A) (A) (A) (A) (A)
[...]
  2359. RY*(  23) C 108                  0.00000     3.40965   
  2360. RY*(  24) C 108                  0.00000    21.44881   
  2361. RY*(  25) C 108                  0.00001     2.91516   
  2362. RY*(  26) C 108                  0.00000     3.32706   
  2363. RY*(   1) F 109                  0.00080     2.94000   
  2364. RY*(   2) F 109                  0.00054     1.33036   
  2365. RY*(   3) F 109                  0.00047     1.04121   
  2366. RY*(   4) F 109                  0.00027     2.77457   
  2367. RY*(   5) F 109                  0.00017     3.13040   
  2368. RY*(   6) F 109                  0.00014     2.99559   
  2369. RY*(   7) F 109                  0.00005     2.76999   
  2370. RY*(   8) F 109                  0.00003     2.84681   
  2371. RY*(   9) F 109                  0.00001     3.76928   
  2372. RY*(  10) F 109                  0.00001     3.73620   
  2373. RY*(  11) F 109                  0.00000     8.19606   
  2374. RY*(  12) F 109                  0.00001     3.67397   
  2375. RY*(  13) F 109                  0.00000     7.89149   
  2376. RY*(  14) F 109                  0.00000    54.92215   
  2377. RY*(  15) F 109                  0.00000     8.32884   
  2378. RY*(  16) F 109                  0.00000     3.22301   
  2379. RY*(  17) F 109                  0.00000     8.31096   
  2380. RY*(  18) F 109                  0.00001     2.20027   
  2381. RY*(  19) F 109                  0.00000     7.86404   
  2382. RY*(  20) F 109                  0.00000     6.86418   
  2383. RY*(  21) F 109                  0.00000     6.73583   
  2384. RY*(  22) F 109                  0.00000     6.80980   
  2385. RY*(  23) F 109                  0.00000     6.75976   
  2386. RY*(  24) F 109                  0.00000     6.80336   
  2387. RY*(  25) F 109                  0.00000     6.88390   
  2388. RY*(  26) F 109                  0.00000     6.82543   
  2389. RY*(   1) F 110                  0.00074     3.81382   
  2390. RY*(   2) F 110                  0.00050     1.13088   
  2391. RY*(   3) F 110                  0.00040     1.23640   
  2392. RY*(   4) F 110                  0.00023     2.68090   
  2393. RY*(   5) F 110                  0.00014     2.89350   
  2394. RY*(   6) F 110                  0.00007     2.31466   
  2395. RY*(   7) F 110                  0.00004     2.71650   
  2396. RY*(   8) F 110                  0.00005     2.82919   
  2397. RY*(   9) F 110                  0.00000     3.00023   
  2398. RY*(  10) F 110                  0.00001     2.34189   
  2399. RY*(  11) F 110                  0.00000     8.28320   
  2400. RY*(  12) F 110                  0.00000     3.37306   
  2401. RY*(  13) F 110                  0.00000     8.43814   
  2402. RY*(  14) F 110                  0.00000    55.47238   
  2403. RY*(  15) F 110                  0.00000     7.98253   
  2404. RY*(  16) F 110                  0.00001     3.15025   
  2405. RY*(  17) F 110                  0.00000     8.06883   
  2406. RY*(  18) F 110                  0.00001     3.11750   
  2407. RY*(  19) F 110                  0.00000     8.16700   
  2408. RY*(  20) F 110                  0.00000     6.89008   
  2409. RY*(  21) F 110                  0.00000     6.84222   
  2410. RY*(  22) F 110                  0.00000     6.79636   
  2411. RY*(  23) F 110                  0.00000     6.87055   
  2412. RY*(  24) F 110                  0.00000     6.88441   
  2413. RY*(  25) F 110                  0.00000     6.78031   
  2414. RY*(  26) F 110                  0.00000     6.89541   
  2415. RY*(   1) F 111                  0.00073     3.82564   
  2416. RY*(   2) F 111                  0.00055     1.10454   
  2417. RY*(   3) F 111                  0.00041     1.19157   
  2418. RY*(   4) F 111                  0.00023     2.54340   
  2419. RY*(   5) F 111                  0.00015     2.92441   
  2420. RY*(   6) F 111                  0.00009     2.49452   
  2421. RY*(   7) F 111                  0.00005     3.03947   
  2422. RY*(   8) F 111                  0.00003     2.72383   
  2423. RY*(   9) F 111                  0.00002     3.54588   
  2424. RY*(  10) F 111                  0.00000     3.20829   
  2425. RY*(  11) F 111                  0.00000     7.68139   
  2426. RY*(  12) F 111                  0.00000    55.48049   
  2427. RY*(  13) F 111                  0.00000     7.97825   
  2428. RY*(  14) F 111                  0.00001     3.58779   
  2429. RY*(  15) F 111                  0.00000     7.92190   
  2430. RY*(  16) F 111                  0.00000     2.40494   
  2431. RY*(  17) F 111                  0.00000     8.14922   
  2432. RY*(  18) F 111                  0.00000     3.50407   
  2433. RY*(  19) F 111                  0.00000     8.15859   
  2434. RY*(  20) F 111                  0.00000     6.72440   
  2435. RY*(  21) F 111                  0.00000     6.89928   
  2436. RY*(  22) F 111                  0.00000     6.80895   
  2437. RY*(  23) F 111                  0.00000     6.85227   
  2438. RY*(  24) F 111                  0.00000     6.76675   
  2439. RY*(  25) F 111                  0.00000     6.75689   
  2440. RY*(  26) F 111                  0.00000     6.88285   
  2857. RY*(   1) H 128                  0.00033     1.17120   
  2858. RY*(   2) H 128                  0.00019     1.68654   
  2859. RY*(   3) H 128                  0.00014     2.15335   
  2860. RY*(   4) H 128                  0.00008     2.73254   
  2861. RY*(   5) H 128                  0.00001     3.06669   
  2862. RY*(   1) H 129                  0.00037     1.25367   
  2863. RY*(   2) H 129                  0.00019     1.68427   
  2864. RY*(   3) H 129                  0.00014     2.17481   
  2865. RY*(   4) H 129                  0.00009     2.71546   
  2866. RY*(   5) H 129                  0.00001     3.08802   
  2881. BD*(   1) P   3 - C   9          0.04010     0.19533   
  2882. BD*(   1) P   3 - C  26          0.04006     0.18978   
  2883. BD*(   1) P   3 - C  32          0.04280     0.18926   
  2895. BD*(   1) C   9 - C  10          0.04370     0.41581   
  2896. BD*(   1) C   9 - C  13          0.05085     0.37539   
  2897. BD*(   2) C   9 - C  13          0.50870     0.01307  2899(v),270(v),2896(g)
                                                    263(r),266(r),2882(v),666(g)
                                                    565(g),2905(g),673(g),563(g)
                                                    682(g),2881(g),2883(v)
                                                    2877(r),2935(r),403(v)
                                                    2892(r),2900(v),264(r)
                                                    346(r),267(r),356(r),359(r)
                                                    372(r),369(r),350(r),2922(r)
                                                    353(r)
  2898. BD*(   1) C  10 - C  11          0.04288     0.41409   
  2899. BD*(   2) C  10 - C  11          0.44254     0.02242  2897(v),3008(r),270(v)
                                                    2898(g),263(r),266(r)
                                                    2967(v),2965(v),2900(g)
                                                    2892(r),2877(r),592(g)
                                                    623(g),3003(r),265(r)
                                                    2887(r),264(r),365(r),374(r)
  2900. BD*(   1) C  10 - C  55          0.03572     0.35531   
  2901. BD*(   1) C  11 - C  12          0.02883     0.43796   
  2902. BD*(   1) C  11 - H  54          0.01517     0.40097   
  2903. BD*(   1) C  12 - C  13          0.03057     0.42669   
  2904. BD*(   1) C  12 - H  53          0.01742     0.39712   
  2905. BD*(   1) C  13 - H  39          0.01721     0.39940   
  2934. BD*(   1) C  26 - C  27          0.02934     0.49195   
  2935. BD*(   2) C  26 - C  27          0.33888    -0.01373  2940(v),2945(v),2883(v)
                                                    1006(g),1031(g),2922(r)
                                                    1032(g)
  2936. BD*(   1) C  26 - C  31          0.02282     0.48970   
  2937. BD*(   1) C  27 - C  28          0.02468     0.49536   
  2938. BD*(   1) C  27 - H  46          0.01715     0.39674   
  2939. BD*(   1) C  28 - C  29          0.01975     0.49448   
  2940. BD*(   2) C  28 - C  29          0.33123    -0.01222  2945(v),2935(v),3012(v)
                                                    1083(g),3014(v)
  2941. BD*(   1) C  28 - C  96          0.06691     0.29474   
  2942. BD*(   1) C  29 - C  30          0.01949     0.48879   
  2943. BD*(   1) C  29 - H  47          0.01199     0.37324   
  2944. BD*(   1) C  30 - C  31          0.02208     0.49141   
  2945. BD*(   2) C  30 - C  31          0.33111    -0.01174  2940(v),2935(v),3015(v)
                                                    3016(v),1135(g),2933(r)
  2946. BD*(   1) C  30 - C 100          0.06755     0.29368   
  2947. BD*(   1) C  31 - H  48          0.01552     0.37196   
  2948. BD*(   1) C  32 - C  33          0.03009     0.49105   
  2949. BD*(   2) C  32 - C  33          0.33032    -0.01946  2959(v),2954(v),2881(v)
                                                    1188(g)
  2950. BD*(   1) C  32 - C  37          0.02240     0.48219   
  2951. BD*(   1) C  33 - C  34          0.02374     0.48134   
  2952. BD*(   1) C  33 - H  49          0.01632     0.37862   
  2953. BD*(   1) C  34 - C  35          0.01972     0.48605   
  2954. BD*(   2) C  34 - C  35          0.33292    -0.02204  2959(v),2949(v),3020(v)
                                                    3018(v),1239(g)
  2955. BD*(   1) C  34 - C 104          0.06693     0.28721   
  2956. BD*(   1) C  35 - C  36          0.01986     0.47892   
  2957. BD*(   1) C  35 - H  50          0.01225     0.36734   
  2958. BD*(   1) C  36 - C  37          0.02282     0.48367   
  2959. BD*(   2) C  36 - C  37          0.33621    -0.02171  2954(v),2949(v),3021(v)
                                                    3022(v),1292(g),3023(v)
  2960. BD*(   1) C  36 - C 108          0.06676     0.28437   
  2961. BD*(   1) C  37 - H  51          0.01555     0.36834   
  2965. BD*(   1) C  55 - N  77          0.03825     0.30836   
  2966. BD*(   1) C  55 - H  78          0.04465     0.33913   
  2967. BD*(   1) C  55 - C  90          0.03288     0.36771   
  2990. BD*(   1) N  77 - C  79          0.01308     0.32881   
  2991. BD*(   1) N  77 - C  80          0.01427     0.33172   
  2992. BD*(   1) C  79 - H  81          0.02964     0.34917   
  2993. BD*(   1) C  79 - H  82          0.01014     0.37456   
  2994. BD*(   1) C  79 - H  83          0.00965     0.36198   
  2995. BD*(   1) C  80 - H  84          0.03152     0.34501   
  2996. BD*(   1) C  80 - H  85          0.01017     0.36451   
  2997. BD*(   1) C  80 - H  86          0.01093     0.37711   
  2998. BD*(   1) C  87 - C  88          0.01483     0.52162   
  2999. BD*(   1) C  87 - C  92          0.01457     0.52632   
  3000. BD*(   2) C  87 - C  92          0.32917     0.01515  3003(v),3008(v),1856(g)
                                                    1986(g)
  3001. BD*(   1) C  87 - H  93          0.01327     0.39836   
  3002. BD*(   1) C  88 - C  89          0.01425     0.53442   
  3003. BD*(   2) C  88 - C  89          0.31972     0.01828  3000(v),3008(v),1882(g)
  3004. BD*(   1) C  88 - H 128          0.01364     0.39563   
  3005. BD*(   1) C  89 - C  90          0.02678     0.52234   
  3006. BD*(   1) C  89 - H  94          0.01568     0.40509   
  3007. BD*(   1) C  90 - C  91          0.02354     0.53389   
  3008. BD*(   2) C  90 - C  91          0.34326     0.02450  3003(v),3000(v),2899(r)
                                                    1960(g),2900(v),2965(v)
                                                    2887(r),2892(r)
  3009. BD*(   1) C  91 - C  92          0.01456     0.52942   
  3010. BD*(   1) C  91 - H  95          0.01790     0.40691   
  3011. BD*(   1) C  92 - H 129          0.01345     0.40161   
  3012. BD*(   1) C  96 - F  97          0.09825     0.19512   
  3013. BD*(   1) C  96 - F  98          0.08817     0.19886   
  3014. BD*(   1) C  96 - F  99          0.09407     0.19034   
  3015. BD*(   1) C 100 - F 101          0.09788     0.19794   
  3016. BD*(   1) C 100 - F 102          0.09569     0.19627   
  3017. BD*(   1) C 100 - F 103          0.08625     0.20536   
  3018. BD*(   1) C 104 - F 105          0.09272     0.19234   
  3019. BD*(   1) C 104 - F 106          0.08697     0.19333   
  3020. BD*(   1) C 104 - F 107          0.10066     0.18075  2954(v),2239(g)
  3021. BD*(   1) C 108 - F 109          0.10336     0.17485  2959(v),2343(g)
  3022. BD*(   1) C 108 - F 110          0.08988     0.19140   
  3023. BD*(   1) C 108 - F 111          0.08769     0.19256   
       -------------------------------
              Total Lewis  323.65634  ( 97.8285%)
        Valence non-Lewis    6.53232  (  1.9745%)
        Rydberg non-Lewis    0.65178  (  0.1970%)
       -------------------------------
            Total unit  2  330.84044  (100.0000%)
           Charge unit  2    0.15956
 1\1\GINC-NC209\SP\RPBE1PBE\Gen\C60H42F24Fe1N2P2\MACKK4\02-Dec-2021\0\\
 # PBE1PBE gen pseudo=read int=(grid=ultrafine) empiricaldispersion=GD3
 BJ pop=nbo guess=read geom=check\\M003_1_2 title\\0,1\Fe,0,-0.00624039
 35,-1.4820415156,1.682749451\P,0,1.7931195319,-0.0596371444,-0.7914608
 11\P,0,-1.7898273307,0.29775939,-0.5460468326\C,0,1.5048323527,-1.4078
 53469,0.3905751188\C,0,0.5637822107,-2.4419150158,-0.0055125036\C,0,0.
 4763529415,-3.4026550887,1.0465034313\C,0,1.3386888691,-2.9786266443,2
 .1011165119\C,0,2.0045156965,-1.7559193306,1.7204303548\C,0,-1.5210086
 732,-0.2686540076,1.1776498452\C,0,-2.0287852142,-1.3661087504,2.00352
 74901\C,0,-1.3179322759,-1.3039511662,3.2560634033\C,0,-0.4155313129,-
 0.1981487936,3.2400033097\C,0,-0.5304463622,0.4432476102,1.9683594369\
 C,0,3.3451606431,-0.5977483326,-1.6157360258\C,0,4.2466620311,0.341414
 4378,-2.146972269\C,0,5.4318576128,-0.0952894572,-2.7505841069\C,0,5.7
 220270248,-1.4628521165,-2.8502858778\C,0,4.8089645444,-2.3941536104,-
 2.3428032796\C,0,3.6223679041,-1.9673785581,-1.7302767532\C,0,2.273894
 0083,1.5200308167,0.0276784927\C,0,3.5087395945,1.7009163662,0.6792287
 483\C,0,3.8230706346,2.9549364433,1.2248740224\C,0,2.9241920769,4.0285
 72921,1.1326007314\C,0,1.7075585936,3.8474534339,0.4689271818\C,0,1.39
 05170925,2.604495787,-0.0962028946\C,0,-2.4730695389,1.9832919373,-0.2
 110052664\C,0,-3.1399857208,2.2143144271,1.0032445242\C,0,-3.680492622
 5,3.47639371,1.2860006085\C,0,-3.5410065364,4.5239084128,0.3709837997\
 C,0,-2.8659367576,4.2937129878,-0.8369287314\C,0,-2.3374506996,3.03315
 1217,-1.1389401204\C,0,-3.2171108066,-0.6620997871,-1.1968587798\C,0,-
 4.5395732559,-0.3225973502,-0.8855291509\C,0,-5.5973735435,-1.09725348
 35,-1.3879688372\C,0,-5.3444178043,-2.2005898015,-2.2089218688\C,0,-4.
 0180547994,-2.5198864285,-2.5400514545\C,0,-2.9581312084,-1.7548471649
 ,-2.0422345741\H,0,-0.0020653438,-2.4403752516,-0.9385718192\H,0,0.042
 9262525,1.3075342992,1.6342389403\H,0,4.0254791917,1.4096653446,-2.104
 9527528\H,0,6.6431974201,-1.7976011081,-3.3331261144\H,0,2.9203315134,
 -2.7111668425,-1.345560662\H,0,4.2087157583,0.8584121908,0.7528063122\
 H,0,3.182434479,5.002788011,1.5537313186\H,0,0.4608934041,2.4793174802
 ,-0.662963765\H,0,-3.2419568688,1.413116408,1.7384214582\H,0,-3.946915
 3465,5.5132057289,0.5979417391\H,0,-1.8347101556,2.8583565592,-2.09489
 04468\H,0,-4.7599540982,0.5495102807,-0.2635992297\H,0,-6.1716455127,-
 2.7916264895,-2.6084147247\H,0,-1.9318483107,-1.9765899541,-2.34742061
 63\C,0,3.0703087905,-1.0276439211,2.5112274501\H,0,0.2946522342,0.0580
 683096,4.0262579009\H,0,-1.4450622548,-2.0118088474,4.0731975049\C,0,-
 3.2004005206,-2.3147256151,1.7802221313\H,0,2.8484374767,0.054843367,2
 .4408420322\N,0,4.3953866839,-1.1800988395,1.842506211\C,0,5.475160667
 4,-0.5728641909,2.6263226868\C,0,4.775210836,-2.5340493536,1.440077446
 \H,0,6.3602496197,-0.4482911199,1.9793680491\H,0,5.1699616368,0.417984
 586,2.9936758551\H,0,5.766272521,-1.1853130624,3.5075746061\H,0,5.6168
 362955,-2.4701899636,0.7308108648\H,0,5.1011547838,-3.1737506256,2.290
 7894506\H,0,3.9417796961,-3.0332562496,0.9247820403\C,0,3.1078583477,-
 1.8187699458,6.7969666022\C,0,3.3729196234,-2.8639140527,5.9004031294\
 C,0,3.3515396738,-2.6347723625,4.5174991177\C,0,3.0602330998,-1.354151
 3328,4.0038648099\C,0,2.8290595376,-0.3089739969,4.9185767371\C,0,2.84
 10639084,-0.5349987724,6.301419682\H,0,3.1219435814,-2.0018825107,7.87
 60037463\H,0,3.6007954065,-3.8659422386,6.2786365097\H,0,3.5674656991,
 -3.4624329164,3.8361116742\H,0,2.6552649602,0.7044405695,4.5348982365\
 H,0,2.6518617313,0.2939568558,6.9912018004\N,0,-4.1803378113,-2.134246
 125,2.8829986115\H,0,-3.6645093618,-2.0647651504,0.804189142\C,0,-5.36
 33569,-2.9747696079,2.6525628343\C,0,-4.6137272747,-0.7403573861,3.018
 5213487\H,0,-5.9119895524,-2.6989913756,1.7234833224\H,0,-5.0709064709
 ,-4.033534756,2.5880188739\H,0,-6.0530932967,-2.8554948707,3.504847023
 5\H,0,-5.1256265064,-0.3477718345,2.1091880672\H,0,-5.3285581135,-0.67
 21176759,3.8554908346\H,0,-3.7577840228,-0.0909169727,3.2589623353\C,0
 ,-1.8620620164,-6.4420650142,1.4867926898\C,0,-1.8951077468,-5.8036813
 681,2.738197886\C,0,-2.3452502918,-4.4813403679,2.8471328706\C,0,-2.75
 69756217,-3.772806095,1.7031962951\C,0,-2.7523838678,-4.4295330753,0.4
 62918174\C,0,-2.3045174194,-5.7533489637,0.3483062255\H,0,-1.508680362
 2,-7.4749738059,1.405108126\H,0,-2.4090663376,-3.9987766212,3.82691551
 22\H,0,-3.1075591174,-3.9025082083,-0.4251765218\C,0,-4.3484424937,3.6
 892959974,2.6223595748\F,0,-3.4280144405,3.8760300767,3.6087661298\F,0
 ,-5.1673656679,4.7707121249,2.6168483932\F,0,-5.0933872794,2.602225915
 1,2.9783474216\C,0,-2.7242874796,5.4426449549,-1.8100380799\F,0,-3.933
 2751145,5.7821159574,-2.3368136744\F,0,-2.2432143326,6.5502760608,-1.1
 766736791\F,0,-1.8908271342,5.1505672182,-2.8339051451\C,0,-7.00584242
 67,-0.7313197902,-0.9880841333\F,0,-7.2384731566,0.5960162911,-1.15692
 07401\F,0,-7.9368056859,-1.4170697978,-1.6954711946\F,0,-7.2197345892,
 -1.0005472256,0.3376639478\C,0,-3.7318438589,-3.7294631642,-3.39802170
 23\F,0,-3.6899155287,-4.8688553116,-2.6338028561\F,0,-4.6969843287,-3.
 9207470478,-4.3315920043\F,0,-2.5386888277,-3.6322789887,-4.0310603989
 \C,0,6.434300028,0.92286785,-3.2399562484\F,0,7.3001947804,1.267255730
 4,-2.242677496\F,0,7.1797159401,0.4392626833,-4.2682512247\F,0,5.83042
 92082,2.0639279835,-3.6576609227\C,0,5.1374060711,-3.8658058966,-2.365
 3498871\F,0,5.9535081089,-4.1895297826,-3.3998759978\F,0,5.7804478898,
 -4.2405703146,-1.2158567153\F,0,4.0177967767,-4.6315585435,-2.45590303
 6\C,0,5.1221542288,3.1454338978,1.9711346404\F,0,6.1236199818,2.399191
 1289,1.4407309037\F,0,5.5205523985,4.4417788628,1.9746919297\F,0,4.985
 5684338,2.7665567661,3.2816881585\C,0,0.6952668852,4.9634968221,0.3620
 114301\F,0,0.2494462667,5.0955244714,-0.9142940399\F,0,-0.3918905804,4
 .6953138561,1.1439272543\F,0,1.2006905859,6.1567828817,0.7585423897\H,
 0,-1.5761136938,-6.3433978928,3.6362485768\H,0,-2.3119993157,-6.239296
 437,-0.6325616664\H,0,-0.1855029598,-4.2661876347,1.0681737358\H,0,1.4
 240155358,-3.45621732,3.0756712234\\Version=ES64L-G09RevE.01\State=1-A
 \HF=-5620.8661817\RMSD=7.822e-09\Dipole=-0.4349471,-1.407442,1.5389275
 \Quadrupole=-15.7109418,2.3343821,13.3765597,3.5086107,11.7111163,-7.3
 301872\PG=C01 [X(C60H42F24Fe1N2P2)]\\@


 IF AT FIRST YOU DON'T SUCCEED, TRY, TRY AGAIN.
 THEN GIVE UP;
 THERE'S NO USE BEING A DAMN FOOL ABOUT IT.

                                 -- W. C. FIELDS
 Job cpu time:       0 days 13 hours 59 minutes 41.8 seconds.
 File lengths (MBytes):  RWF=   4716 Int=      0 D2E=      0 Chk=    648 Scr=      1
 Normal termination of Gaussian 09 at Thu Dec  2 10:16:40 2021.
