 Entering Gaussian System, Link 0=g09
 Input=M003_1_4_SPE.com
 Output=M003_1_4_SPE.log
 Initial command:
 /gstore/apps/gaussian/g09.e01-foss-2017a/g09/l1.exe "/local/22791168/Gau-25969.inp" -scrdir="/local/22791168/"
 Entering Link 1 = /gstore/apps/gaussian/g09.e01-foss-2017a/g09/l1.exe PID=     25970.
  
 Copyright (c) 1988,1990,1992,1993,1995,1998,2003,2009,2015,
            Gaussian, Inc.  All Rights Reserved.
  
 This is part of the Gaussian(R) 09 program.  It is based on
 the Gaussian(R) 03 system (copyright 2003, Gaussian, Inc.),
 the Gaussian(R) 98 system (copyright 1998, Gaussian, Inc.),
 the Gaussian(R) 94 system (copyright 1995, Gaussian, Inc.),
 the Gaussian 92(TM) system (copyright 1992, Gaussian, Inc.),
 the Gaussian 90(TM) system (copyright 1990, Gaussian, Inc.),
 the Gaussian 88(TM) system (copyright 1988, Gaussian, Inc.),
 the Gaussian 86(TM) system (copyright 1986, Carnegie Mellon
 University), and the Gaussian 82(TM) system (copyright 1983,
 Carnegie Mellon University). Gaussian is a federally registered
 trademark of Gaussian, Inc.
  
 This software contains proprietary and confidential information,
 including trade secrets, belonging to Gaussian, Inc.
  
 This software is provided under written license and may be
 used, copied, transmitted, or stored only in accord with that
 written license.
  
 The following legend is applicable only to US Government
 contracts under FAR:
  
                    RESTRICTED RIGHTS LEGEND
  
 Use, reproduction and disclosure by the US Government is
 subject to restrictions as set forth in subparagraphs (a)
 and (c) of the Commercial Computer Software - Restricted
 Rights clause in FAR 52.227-19.
  
 Gaussian, Inc.
 340 Quinnipiac St., Bldg. 40, Wallingford CT 06492
  
  
 ---------------------------------------------------------------
 Warning -- This program may not be used in any manner that
 competes with the business of Gaussian, Inc. or will provide
 assistance to any competitor of Gaussian, Inc.  The licensee
 of this program is prohibited from giving any competitor of
 Gaussian, Inc. access to this program.  By using this program,
 the user acknowledges that Gaussian, Inc. is engaged in the
 business of creating and licensing software in the field of
 computational chemistry and represents and warrants to the
 licensee that it is not a competitor of Gaussian, Inc. and that
 it will not use this program in any manner prohibited above.
 ---------------------------------------------------------------
  

 Cite this work as:
 Gaussian 09, Revision E.01,
 M. J. Frisch, G. W. Trucks, H. B. Schlegel, G. E. Scuseria, 
 M. A. Robb, J. R. Cheeseman, G. Scalmani, V. Barone, B. Mennucci, 
 G. A. Petersson, H. Nakatsuji, M. Caricato, X. Li, H. P. Hratchian, 
 A. F. Izmaylov, J. Bloino, G. Zheng, J. L. Sonnenberg, M. Hada, 
 M. Ehara, K. Toyota, R. Fukuda, J. Hasegawa, M. Ishida, T. Nakajima, 
 Y. Honda, O. Kitao, H. Nakai, T. Vreven, J. A. Montgomery, Jr., 
 J. E. Peralta, F. Ogliaro, M. Bearpark, J. J. Heyd, E. Brothers, 
 K. N. Kudin, V. N. Staroverov, T. Keith, R. Kobayashi, J. Normand, 
 K. Raghavachari, A. Rendell, J. C. Burant, S. S. Iyengar, J. Tomasi, 
 M. Cossi, N. Rega, J. M. Millam, M. Klene, J. E. Knox, J. B. Cross, 
 V. Bakken, C. Adamo, J. Jaramillo, R. Gomperts, R. E. Stratmann, 
 O. Yazyev, A. J. Austin, R. Cammi, C. Pomelli, J. W. Ochterski, 
 R. L. Martin, K. Morokuma, V. G. Zakrzewski, G. A. Voth, 
 P. Salvador, J. J. Dannenberg, S. Dapprich, A. D. Daniels, 
 O. Farkas, J. B. Foresman, J. V. Ortiz, J. Cioslowski, 
 and D. J. Fox, Gaussian, Inc., Wallingford CT, 2013.
 
 ******************************************
 Gaussian 09:  ES64L-G09RevE.01 30-Nov-2015
                 1-Dec-2021 
 ******************************************
 %nprocs=14
 Will use up to   14 processors via shared memory.
 %mem=128GB
 %chk=M003_1_4_SPE.chk
 ----------------------------------------------------------------------
 # PBE1PBE gen pseudo=read int=(grid=ultrafine) empiricaldispersion=GD3
 BJ nmr=giao
 ----------------------------------------------------------------------
 1/38=1/1;
 2/12=2,17=6,18=5,40=1/2;
 3/5=7,11=2,16=1,17=8,25=1,30=1,74=-13,75=-5,124=41/1,2,8,3;
 4//1;
 5/5=2,38=5/2;
 8/6=1,10=90,11=11/1;
 10/13=100,45=16/2;
 6/7=2,8=2,9=2,10=2,28=1/1;
 99/9=1/99;
 --------------
 M003_1_4 title
 --------------
 Symbolic Z-matrix:
 Charge =  0 Multiplicity = 1
 Fe                    0.03792  -1.59338   1.73331 
 P                     1.79507  -0.1194   -0.82086 
 P                    -1.76664   0.28873  -0.43461 
 C                     1.53321  -1.42533   0.41574 
 C                     0.65051  -2.52882   0.06518 
 C                     0.66842  -3.47518   1.13798 
 C                     1.52424  -2.96567   2.16001 
 C                     2.09429  -1.71575   1.73121 
 C                    -1.52217  -0.42672   1.23589 
 C                    -2.0097   -1.63059   1.90849 
 C                    -1.39751  -1.65109   3.21249 
 C                    -0.5838   -0.49409   3.37889 
 C                    -0.63762   0.25832   2.16611 
 C                     3.26388  -0.7582   -1.72849 
 C                     3.54265  -2.13249  -1.7108 
 C                     4.68143  -2.62971  -2.36143 
 C                     5.54197  -1.76692  -3.04733 
 C                     5.24943  -0.39615  -3.08419 
 C                     4.11694   0.1119   -2.43606 
 C                     2.42531   1.40957  -0.00452 
 C                     3.78144   1.60404   0.31908 
 C                     4.18578   2.76828   0.98578 
 C                     3.24979   3.74834   1.34722 
 C                     1.905     3.56318   1.00786 
 C                     1.49932   2.41352   0.31336 
 C                    -2.40362   1.95335   0.05492 
 C                    -3.12025   2.0824    1.25731 
 C                    -3.58742   3.33637   1.67052 
 C                    -3.33156   4.47555   0.89887 
 C                    -2.61517   4.34522  -0.29866 
 C                    -2.15368   3.09402  -0.72869 
 C                    -3.20023  -0.59317  -1.17448 
 C                    -4.52416  -0.27018  -0.85234 
 C                    -5.57855  -0.99426  -1.4303 
 C                    -5.32122  -2.0291   -2.33644 
 C                    -3.99385  -2.32757  -2.67863 
 C                    -2.93669  -1.61215  -2.10611 
 H                     0.05758  -2.59316  -0.84884 
 H                    -0.11388   1.19497   1.98041 
 H                     2.88575  -2.82625  -1.18127 
 H                     6.43443  -2.15435  -3.54405 
 H                     3.90787   1.18212  -2.47654 
 H                     4.53202   0.85701   0.04833 
 H                     3.56744   4.64568   1.88298 
 H                     0.45483   2.30073   0.00658 
 H                    -3.30899   1.20918   1.8858 
 H                    -3.67912   5.45721   1.23081 
 H                    -1.61139   3.00059  -1.67425 
 H                    -4.74798   0.55261  -0.16808 
 H                    -6.14653  -2.57704  -2.79629 
 H                    -1.90656  -1.8086   -2.41894 
 Cl                    1.41729   0.96751  -3.77735 
 Cl                   -1.87218   1.17444  -3.42884 
 Pd                   -0.08324   0.46742  -2.02117 
 C                     3.19488  -0.98507   2.48549 
 H                     0.02861  -0.26008   4.2471 
 H                    -1.53269  -2.44985   3.94006 
 C                    -3.10901  -2.60943   1.51757 
 H                     3.53196  -0.14217   1.84524 
 N                     4.32529  -1.90814   2.73871 
 C                     4.79915  -2.54159   1.50659 
 C                     5.43813  -1.18063   3.36169 
 H                     5.64525  -3.20565   1.74728 
 H                     4.00677  -3.15636   1.05536 
 H                     5.15048  -1.8068    0.74289 
 H                     6.26964  -1.88337   3.53454 
 H                     5.81368  -0.34239   2.72971 
 H                     5.12714  -0.7631    4.33121 
 C                     1.68189   0.78574   6.154 
 C                     2.01147  -0.57938   6.11798 
 C                     2.51667  -1.15414   4.94378 
 C                     2.69494  -0.37171   3.78868 
 C                     2.38751   0.99768   3.83989 
 C                     1.87713   1.57506   5.01106 
 H                     1.28379   1.23204   7.07082 
 H                     1.8775   -1.19841   7.01131 
 H                     2.80337  -2.21023   4.91742 
 H                     2.53976   1.61614   2.95082 
 H                     1.63421   2.64273   5.02911 
 N                    -4.17333  -2.57133   2.55484 
 H                    -3.51298  -2.30247   0.53197 
 C                    -5.30425  -3.41657   2.14997 
 C                    -4.66887  -1.21636   2.81752 
 H                    -5.80222  -3.05352   1.22227 
 H                    -4.96631  -4.45103   1.98697 
 H                    -6.05312  -3.41858   2.95972 
 H                    -5.15509  -0.7453    1.93307 
 H                    -5.42457  -1.26951   3.61923 
 H                    -3.85363  -0.56649   3.17122 
 C                    -1.5323   -6.63059   1.01845 
 C                    -1.7641   -6.12393   2.30835 
 C                    -2.29172  -4.83693   2.47909 
 C                    -2.58345  -4.03355   1.3615 
 C                    -2.37737  -4.55881   0.07628 
 C                    -1.85225  -5.84679  -0.09964 
 H                    -1.12068  -7.63657   0.88805 
 H                    -2.51188  -4.45431   3.4804 
 H                    -2.64306  -3.96028  -0.79825 
 C                    -4.29069   3.44551   3.00147 
 F                    -3.39566   3.57172   4.02064 
 F                    -5.11772   4.52047   3.05131 
 F                    -5.03373   2.33197   3.26089 
 C                    -2.37287   5.57207  -1.14959 
 F                    -3.46477   5.86198  -1.90723 
 F                    -2.12266   6.66263  -0.37229 
 F                    -1.32147   5.40649  -1.9877 
 C                    -6.99316  -0.66567  -1.01886 
 F                    -7.19025   0.67603  -0.94679 
 F                    -7.90909  -1.18243  -1.87457 
 F                    -7.26813  -1.17118   0.22379 
 C                    -3.69115  -3.44514  -3.64939 
 F                    -3.47792  -4.62626  -2.98597 
 F                    -4.71786  -3.65616  -4.51008 
 F                    -2.57357  -3.19199  -4.37217 
 C                     5.01486  -4.09276  -2.21336 
 F                     5.87275  -4.52299  -3.17176 
 F                     5.60555  -4.33523  -1.00264 
 F                     3.89907  -4.86843  -2.26666 
 C                     6.13338   0.54281  -3.872 
 F                     5.68504   0.69409  -5.14385 
 F                     6.17219   1.77827  -3.30331 
 F                     7.4115    0.07882  -3.94331 
 C                     5.62708   2.90085   1.418 
 F                     6.47046   2.31413   0.53069 
 F                     5.99496   4.19839   1.56055 
 F                     5.82161   2.2886    2.62382 
 C                     0.85635   4.58671   1.3732 
 F                     1.3307    5.51915   2.23573 
 F                     0.38773   5.23229   0.27487 
 F                    -0.21445   3.97802   1.96868 
 H                    -1.54     -6.73928   3.1862 
 H                    -1.70701  -6.23584  -1.11269 
 H                     0.07239  -4.38358   1.19659 
 H                     1.70545  -3.42459   3.13144 
 
 Stoichiometry    C60H42Cl2F24FeN2P2Pd
 Framework group  C1[X(C60H42Cl2F24FeN2P2Pd)]
 Deg. of freedom   396
 Full point group                 C1      NOp   1
 Largest Abelian subgroup         C1      NOp   1
 Largest concise Abelian subgroup C1      NOp   1
                         Standard orientation:                         
 ---------------------------------------------------------------------
 Center     Atomic      Atomic             Coordinates (Angstroms)
 Number     Number       Type             X           Y           Z
 ---------------------------------------------------------------------
      1         26           0       -0.105305   -0.979990    2.115640
      2         15           0        1.819333   -0.365907   -0.659724
      3         15           0       -1.751772    0.132071   -0.632289
      4          6           0        1.465907   -1.224688    0.902571
      5          6           0        0.587444   -2.384924    0.858963
      6          6           0        0.528451   -2.951887    2.171165
      7          6           0        1.331942   -2.148201    3.034329
      8          6           0        1.945567   -1.091310    2.274345
      9          6           0       -1.615389   -0.029392    1.189125
     10          6           0       -2.159948   -0.966676    2.171130
     11          6           0       -1.624325   -0.580100    3.451467
     12          6           0       -0.803256    0.573697    3.299630
     13          6           0       -0.775127    0.912774    1.912515
     14          6           0        3.327655   -1.250622   -1.235466
     15          6           0        3.583052   -2.550904   -0.776399
     16          6           0        4.749377   -3.222238   -1.171817
     17          6           0        5.661630   -2.612321   -2.038536
     18          6           0        5.393540   -1.321376   -2.515526
     19          6           0        4.233801   -0.640501   -2.125456
     20          6           0        2.425725    1.342574   -0.320960
     21          6           0        3.763866    1.631538    0.006878
     22          6           0        4.147582    2.946246    0.303106
     23          6           0        3.208025    3.987491    0.286669
     24          6           0        1.882256    3.702521   -0.058332
     25          6           0        1.499035    2.393052   -0.385537
     26          6           0       -2.389351    1.864672   -0.721336
     27          6           0       -3.171934    2.358256    0.336914
     28          6           0       -3.642141    3.677255    0.312767
     29          6           0       -3.324149    4.521679   -0.757036
     30          6           0       -2.542107    4.028386   -1.810288
     31          6           0       -2.076560    2.706789   -1.803305
     32          6           0       -3.154190   -0.939736   -1.146860
     33          6           0       -4.489183   -0.536423   -1.020261
     34          6           0       -5.519898   -1.406932   -1.407423
     35          6           0       -5.227271   -2.671048   -1.931437
     36          6           0       -3.887306   -3.057259   -2.084453
     37          6           0       -2.853640   -2.196655   -1.699602
     38          1           0        0.047215   -2.731163   -0.023879
     39          1           0       -0.226724    1.747100    1.477476
     40          1           0        2.885774   -3.048065   -0.098257
     41          1           0        6.574955   -3.132231   -2.336615
     42          1           0        4.044463    0.363824   -2.507817
     43          1           0        4.516829    0.839449    0.026134
     44          1           0        3.508507    5.007614    0.536131
     45          1           0        0.472299    2.187811   -0.704103
     46          1           0       -3.410437    1.722466    1.192499
     47          1           0       -3.674605    5.556919   -0.766831
     48          1           0       -1.482234    2.326236   -2.639275
     49          1           0       -4.738946    0.457379   -0.639119
     50          1           0       -6.033319   -3.336849   -2.247397
     51          1           0       -1.810456   -2.477593   -1.874114
     52         17           0        1.629885   -0.250451   -3.824482
     53         17           0       -1.670501    0.045286   -3.754291
     54         46           0        0.022880   -0.185418   -2.092676
     55          6           0        3.012338   -0.159718    2.829546
     56          1           0       -0.238252    1.067100    4.087615
     57          1           0       -1.813889   -1.114228    4.381212
     58          6           0       -3.250328   -2.021516    2.037672
     59          1           0        3.399118    0.444012    1.981052
     60          7           0        4.111455   -0.955636    3.423234
     61          6           0        4.645400   -1.938641    2.478488
     62          6           0        5.197975   -0.067735    3.855547
     63          1           0        5.465548   -2.492991    2.963091
     64          1           0        3.870658   -2.665214    2.193381
     65          1           0        5.051792   -1.475942    1.547179
     66          1           0        6.006863   -0.679938    4.286871
     67          1           0        5.622605    0.534226    3.018643
     68          1           0        4.838312    0.629011    4.627687
     69          6           0        1.318818    2.657259    5.672001
     70          6           0        1.628177    1.349179    6.080290
     71          6           0        2.190990    0.440022    5.174213
     72          6           0        2.447956    0.826157    3.846392
     73          6           0        2.159902    2.143064    3.452515
     74          6           0        1.592132    3.053767    4.354597
     75          1           0        0.875696    3.364768    6.380026
     76          1           0        1.433124    1.037333    7.111748
     77          1           0        2.461903   -0.571389    5.493401
     78          1           0        2.372945    2.455747    2.426379
     79          1           0        1.365583    4.073726    4.026553
     80          7           0       -4.371913   -1.666552    2.946641
     81          1           0       -3.591901   -2.036438    0.983198
     82          6           0       -5.490925   -2.598795    2.756683
     83          6           0       -4.860156   -0.298293    2.746671
     84          1           0       -5.928773   -2.542703    1.734158
     85          1           0       -5.160649   -3.631873    2.942569
     86          1           0       -6.285150   -2.351659    3.481003
     87          1           0       -5.287050   -0.126071    1.732435
     88          1           0       -5.661553   -0.102285    3.478788
     89          1           0       -4.056416    0.431464    2.929719
     90          6           0       -1.711637   -5.994860    2.903595
     91          6           0       -2.009295   -5.113809    3.956892
     92          6           0       -2.525340   -3.838762    3.688802
     93          6           0       -2.739374   -3.422368    2.362021
     94          6           0       -2.467949   -4.319723    1.317396
     95          6           0       -1.954113   -5.597313    1.580720
     96          1           0       -1.309238   -6.990544    3.115999
     97          1           0       -2.796717   -3.165101    4.507352
     98          1           0       -2.673255   -4.022637    0.286267
     99          6           0       -4.419110    4.191814    1.499969
    100          9           0       -3.582406    4.630321    2.481477
    101          9           0       -5.230438    5.226959    1.164955
    102          9           0       -5.193480    3.211581    2.046657
    103          6           0       -2.231693    4.931535   -2.983289
    104          9           0       -3.273371    4.969193   -3.857248
    105          9           0       -2.009377    6.210064   -2.568478
    106          9           0       -1.136509    4.517116   -3.664549
    107          6           0       -6.950456   -0.970855   -1.203231
    108          9           0       -7.130007    0.326505   -1.562148
    109          9           0       -7.823665   -1.730016   -1.909909
    110          9           0       -7.304589   -1.066839    0.116132
    111          6           0       -3.546975   -4.419940   -2.641462
    112          9           0       -3.391138   -5.336512   -1.633366
    113          9           0       -4.525609   -4.890292   -3.454172
    114          9           0       -2.385714   -4.400333   -3.339009
    115          6           0        5.050409   -4.566322   -0.558273
    116          9           0        5.955154   -5.270183   -1.283270
    117          9           0        5.566417   -4.419758    0.701014
    118          9           0        3.927354   -5.323355   -0.435243
    119          6           0        6.336234   -0.670573   -3.501145
    120          9           0        5.964392   -0.922399   -4.781697
    121          9           0        6.361860    0.680435   -3.341803
    122          9           0        7.608805   -1.130284   -3.348778
    123          6           0        5.563508    3.210279    0.758277
    124          9           0        6.447185    2.379646    0.148334
    125          9           0        5.943157    4.489070    0.513648
    126          9           0        5.678469    3.002685    2.103776
    127          6           0        0.830708    4.785988   -0.091258
    128          9           0        1.269335    5.941238    0.466777
    129          9           0        0.436481    5.057853   -1.361459
    130          9           0       -0.282176    4.389026    0.598398
    131          1           0       -1.845969   -5.425968    4.993888
    132          1           0       -1.756952   -6.280936    0.748550
    133          1           0       -0.084344   -3.798964    2.472540
    134          1           0        1.449549   -2.282751    4.109130
 ---------------------------------------------------------------------
 Rotational constants (GHZ):      0.0215334      0.0162460      0.0140802
 General basis read from cards:  (5D, 7F)
 ======================================================================================================
                                       Pseudopotential Parameters
 ======================================================================================================
  Center     Atomic      Valence      Angular      Power
  Number     Number     Electrons     Momentum     of R      Exponent        Coefficient   SO-Coeffient
 ======================================================================================================
    1         26           16
                                      F and up 
                                                     2        1.0000000        0.00000000    0.00000000
                                      S - F
                                                     2       20.9300000      253.74958800    0.00000000
                                                     2        9.4450000       37.92284500    0.00000000
                                      P - F
                                                     2       21.7600000      161.03681200    0.00000000
                                                     2        9.1780000       27.65129800    0.00000000
                                      D - F
                                                     2       25.9000000      -24.43127600    0.00000000
                                                     2        8.8350000       -1.43425100    0.00000000
    2         15
                                   No pseudopotential on this center.
    3         15
                                   No pseudopotential on this center.
    4          6
                                   No pseudopotential on this center.
    5          6
                                   No pseudopotential on this center.
    6          6
                                   No pseudopotential on this center.
    7          6
                                   No pseudopotential on this center.
    8          6
                                   No pseudopotential on this center.
    9          6
                                   No pseudopotential on this center.
   10          6
                                   No pseudopotential on this center.
   11          6
                                   No pseudopotential on this center.
   12          6
                                   No pseudopotential on this center.
   13          6
                                   No pseudopotential on this center.
   14          6
                                   No pseudopotential on this center.
   15          6
                                   No pseudopotential on this center.
   16          6
                                   No pseudopotential on this center.
   17          6
                                   No pseudopotential on this center.
   18          6
                                   No pseudopotential on this center.
   19          6
                                   No pseudopotential on this center.
   20          6
                                   No pseudopotential on this center.
   21          6
                                   No pseudopotential on this center.
   22          6
                                   No pseudopotential on this center.
   23          6
                                   No pseudopotential on this center.
   24          6
                                   No pseudopotential on this center.
   25          6
                                   No pseudopotential on this center.
   26          6
                                   No pseudopotential on this center.
   27          6
                                   No pseudopotential on this center.
   28          6
                                   No pseudopotential on this center.
   29          6
                                   No pseudopotential on this center.
   30          6
                                   No pseudopotential on this center.
   31          6
                                   No pseudopotential on this center.
   32          6
                                   No pseudopotential on this center.
   33          6
                                   No pseudopotential on this center.
   34          6
                                   No pseudopotential on this center.
   35          6
                                   No pseudopotential on this center.
   36          6
                                   No pseudopotential on this center.
   37          6
                                   No pseudopotential on this center.
   38          1
                                   No pseudopotential on this center.
   39          1
                                   No pseudopotential on this center.
   40          1
                                   No pseudopotential on this center.
   41          1
                                   No pseudopotential on this center.
   42          1
                                   No pseudopotential on this center.
   43          1
                                   No pseudopotential on this center.
   44          1
                                   No pseudopotential on this center.
   45          1
                                   No pseudopotential on this center.
   46          1
                                   No pseudopotential on this center.
   47          1
                                   No pseudopotential on this center.
   48          1
                                   No pseudopotential on this center.
   49          1
                                   No pseudopotential on this center.
   50          1
                                   No pseudopotential on this center.
   51          1
                                   No pseudopotential on this center.
   52         17
                                   No pseudopotential on this center.
   53         17
                                   No pseudopotential on this center.
   54         46           18
                                      G and up 
                                                     2        1.0000000        0.00000000    0.00000000
                                      S - G
                                                     2       12.4300000      240.22904000    0.00000000
                                                     2        6.1707590       35.17194300    0.00000000
                                      P - G
                                                     2       11.0800000      170.41727600    0.00000000
                                                     2        5.8295540       28.47213300    0.00000000
                                      D - G
                                                     2        9.5100000       69.01384500    0.00000000
                                                     2        4.1397810       11.75086200    0.00000000
                                      F - G
                                                     2       13.2700000      -31.92955400    0.00000000
                                                     2        6.6300000       -5.39821700    0.00000000
   55          6
                                   No pseudopotential on this center.
   56          1
                                   No pseudopotential on this center.
   57          1
                                   No pseudopotential on this center.
   58          6
                                   No pseudopotential on this center.
   59          1
                                   No pseudopotential on this center.
   60          7
                                   No pseudopotential on this center.
   61          6
                                   No pseudopotential on this center.
   62          6
                                   No pseudopotential on this center.
   63          1
                                   No pseudopotential on this center.
   64          1
                                   No pseudopotential on this center.
   65          1
                                   No pseudopotential on this center.
   66          1
                                   No pseudopotential on this center.
   67          1
                                   No pseudopotential on this center.
   68          1
                                   No pseudopotential on this center.
   69          6
                                   No pseudopotential on this center.
   70          6
                                   No pseudopotential on this center.
   71          6
                                   No pseudopotential on this center.
   72          6
                                   No pseudopotential on this center.
   73          6
                                   No pseudopotential on this center.
   74          6
                                   No pseudopotential on this center.
   75          1
                                   No pseudopotential on this center.
   76          1
                                   No pseudopotential on this center.
   77          1
                                   No pseudopotential on this center.
   78          1
                                   No pseudopotential on this center.
   79          1
                                   No pseudopotential on this center.
   80          7
                                   No pseudopotential on this center.
   81          1
                                   No pseudopotential on this center.
   82          6
                                   No pseudopotential on this center.
   83          6
                                   No pseudopotential on this center.
   84          1
                                   No pseudopotential on this center.
   85          1
                                   No pseudopotential on this center.
   86          1
                                   No pseudopotential on this center.
   87          1
                                   No pseudopotential on this center.
   88          1
                                   No pseudopotential on this center.
   89          1
                                   No pseudopotential on this center.
   90          6
                                   No pseudopotential on this center.
   91          6
                                   No pseudopotential on this center.
   92          6
                                   No pseudopotential on this center.
   93          6
                                   No pseudopotential on this center.
   94          6
                                   No pseudopotential on this center.
   95          6
                                   No pseudopotential on this center.
   96          1
                                   No pseudopotential on this center.
   97          1
                                   No pseudopotential on this center.
   98          1
                                   No pseudopotential on this center.
   99          6
                                   No pseudopotential on this center.
  100          9
                                   No pseudopotential on this center.
  101          9
                                   No pseudopotential on this center.
  102          9
                                   No pseudopotential on this center.
  103          6
                                   No pseudopotential on this center.
  104          9
                                   No pseudopotential on this center.
  105          9
                                   No pseudopotential on this center.
  106          9
                                   No pseudopotential on this center.
  107          6
                                   No pseudopotential on this center.
  108          9
                                   No pseudopotential on this center.
  109          9
                                   No pseudopotential on this center.
  110          9
                                   No pseudopotential on this center.
  111          6
                                   No pseudopotential on this center.
  112          9
                                   No pseudopotential on this center.
  113          9
                                   No pseudopotential on this center.
  114          9
                                   No pseudopotential on this center.
  115          6
                                   No pseudopotential on this center.
  116          9
                                   No pseudopotential on this center.
  117          9
                                   No pseudopotential on this center.
  118          9
                                   No pseudopotential on this center.
  119          6
                                   No pseudopotential on this center.
  120          9
                                   No pseudopotential on this center.
  121          9
                                   No pseudopotential on this center.
  122          9
                                   No pseudopotential on this center.
  123          6
                                   No pseudopotential on this center.
  124          9
                                   No pseudopotential on this center.
  125          9
                                   No pseudopotential on this center.
  126          9
                                   No pseudopotential on this center.
  127          6
                                   No pseudopotential on this center.
  128          9
                                   No pseudopotential on this center.
  129          9
                                   No pseudopotential on this center.
  130          9
                                   No pseudopotential on this center.
  131          1
                                   No pseudopotential on this center.
  132          1
                                   No pseudopotential on this center.
  133          1
                                   No pseudopotential on this center.
  134          1
                                   No pseudopotential on this center.
 ======================================================================================================
 There are  3604 symmetry adapted cartesian basis functions of A   symmetry.
 There are  3145 symmetry adapted basis functions of A   symmetry.
  3145 basis functions,  5138 primitive gaussians,  3604 cartesian basis functions
   365 alpha electrons      365 beta electrons
       nuclear repulsion energy     23552.4302827369 Hartrees.
 NAtoms=  134 NActive=  134 NUniq=  134 SFac= 1.00D+00 NAtFMM=   60 NAOKFM=T Big=T
 Integral buffers will be    131072 words long.
 Raffenetti 2 integral format.
 Two-electron integral symmetry is turned on.
 Nuclear repulsion after empirical dispersion term =    23552.1758355961 Hartrees.
 One-electron integrals computed using PRISM.
   1 Symmetry operations used in ECPInt.
 ECPInt:  NShTT=  714610 NPrTT= 2256810 LenC2=  455153 LenP2D=  886882.
 LDataN:  DoStor=T MaxTD1= 7 Len=  274
 NBasis=  3145 RedAO= T EigKep=  2.80D-06  NBF=  3145
 NBsUse=  3145 1.00D-06 EigRej= -1.00D+00 NBFU=  3145
 Defaulting to unpruned grid for atomic number  46.
 ExpMin= 1.00D-02 ExpMax= 6.95D+04 ExpMxC= 2.37D+03 IAcc=3 IRadAn=         5 AccDes= 0.00D+00
 Harris functional with IExCor= 1009 and IRadAn=       5 diagonalized for initial guess.
 HarFok:  IExCor= 1009 AccDes= 0.00D+00 IRadAn=         5 IDoV= 1 UseB2=F ITyADJ=14
 ICtDFT=  3500011 ScaDFX=  1.000000  1.000000  1.000000  1.000000
 Defaulting to unpruned grid for atomic number  46.
 Defaulting to unpruned grid for atomic number  46.
 Defaulting to unpruned grid for atomic number  46.
 Defaulting to unpruned grid for atomic number  46.
 Defaulting to unpruned grid for atomic number  46.
 Defaulting to unpruned grid for atomic number  46.
 Defaulting to unpruned grid for atomic number  46.
 Defaulting to unpruned grid for atomic number  46.
 Defaulting to unpruned grid for atomic number  46.
 Defaulting to unpruned grid for atomic number  46.
 Defaulting to unpruned grid for atomic number  46.
 Defaulting to unpruned grid for atomic number  46.
 Defaulting to unpruned grid for atomic number  46.
 Defaulting to unpruned grid for atomic number  46.
 FoFCou: FMM=F IPFlag=           0 FMFlag=      100000 FMFlg1=        2001
         NFxFlg=           0 DoJE=T BraDBF=F KetDBF=T FulRan=T
         wScrn=  0.000000 ICntrl=     500 IOpCl=  0 I1Cent=   200000004 NGrid=           0
         NMat0=    1 NMatS0=      1 NMatT0=    0 NMatD0=    1 NMtDS0=    0 NMtDT0=    0
 Petite list used in FoFCou.
 Requested convergence on RMS density matrix=1.00D-08 within 128 cycles.
 Requested convergence on MAX density matrix=1.00D-06.
 Requested convergence on             energy=1.00D-06.
 No special actions if energy rises.
 Defaulting to unpruned grid for atomic number  46.
 Defaulting to unpruned grid for atomic number  46.
 Defaulting to unpruned grid for atomic number  46.
 Defaulting to unpruned grid for atomic number  46.
 Defaulting to unpruned grid for atomic number  46.
 Defaulting to unpruned grid for atomic number  46.
 Defaulting to unpruned grid for atomic number  46.
 Defaulting to unpruned grid for atomic number  46.
 Defaulting to unpruned grid for atomic number  46.
 Defaulting to unpruned grid for atomic number  46.
 Defaulting to unpruned grid for atomic number  46.
 Defaulting to unpruned grid for atomic number  46.
 Defaulting to unpruned grid for atomic number  46.
 Defaulting to unpruned grid for atomic number  46.
 Rare condition: small coef for last iteration:  0.000D+00
 EnCoef did   100 forward-backward iterations
 EnCoef did   100 forward-backward iterations
 EnCoef did   100 forward-backward iterations
 EnCoef did     4 forward-backward iterations
 EnCoef did     3 forward-backward iterations
 Restarting incremental Fock formation.
 SCF Done:  E(RPBE1PBE) =  -6669.04972548     A.U. after   35 cycles
            NFock= 35  Conv=0.16D-08     -V/T= 2.0242
 DoSCS=F DFT=T ScalE2(SS,OS)=  1.000000  1.000000
 Range of M.O.s used for correlation:     1  3145
 NBasis=  3145 NAE=   365 NBE=   365 NFC=     0 NFV=     0
 NROrb=   3145 NOA=   365 NOB=   365 NVA=  2780 NVB=  2780

 **** Warning!!: The largest alpha MO coefficient is  0.48897936D+02

          Differentiating once with respect to magnetic field using GIAOs.
          Electric field/nuclear overlap derivatives assumed to be zero.
 Defaulting to unpruned grid for atomic number  46.
 FoFCou: FMM=F IPFlag=           0 FMFlag=      100000 FMFlg1=        2001
         NFxFlg=           0 DoJE=F BraDBF=F KetDBF=T FulRan=T
         wScrn=  0.000000 ICntrl=    6100 IOpCl=  0 I1Cent=           7 NGrid=         134
         NMat0=    1 NMatS0=      1 NMatT0=    0 NMatD0=    1 NMtDS0=    0 NMtDT0=    0
 Symmetry not used in FoFCou.
   1 Symmetry operations used in ECPInt.
 ECPInt:  NShTT=  714610 NPrTT= 2256810 LenC2=  714611 LenP2D= 2256810.
 LDataN:  DoStor=T MaxTD1= 8 Len=  415
 FoFJK:  IHMeth= 1 ICntrl=    6127 DoSepK=F KAlg= 0 I1Cent=   0 FoldK=F
 IRaf=         1 NMat=   1 IRICut=       1 DoRegI=T DoRafI=F ISym2E= 0.
 Defaulting to unpruned grid for atomic number  46.
 Defaulting to unpruned grid for atomic number  46.
 Defaulting to unpruned grid for atomic number  46.
 Defaulting to unpruned grid for atomic number  46.
 Defaulting to unpruned grid for atomic number  46.
 Defaulting to unpruned grid for atomic number  46.
 Defaulting to unpruned grid for atomic number  46.
 Defaulting to unpruned grid for atomic number  46.
 Defaulting to unpruned grid for atomic number  46.
 Defaulting to unpruned grid for atomic number  46.
 Defaulting to unpruned grid for atomic number  46.
 Defaulting to unpruned grid for atomic number  46.
 Defaulting to unpruned grid for atomic number  46.
 Defaulting to unpruned grid for atomic number  46.
          There are     3 degrees of freedom in the 1st order CPHF.  IDoFFX=0 NUNeed=     3.
      3 vectors produced by pass  0 Test12= 3.38D-11 3.33D-08 XBig12= 5.61D+02 2.72D+00.
 AX will form     3 AO Fock derivatives at one time.
      3 vectors produced by pass  1 Test12= 3.38D-11 3.33D-08 XBig12= 3.16D+00 4.81D-01.
      3 vectors produced by pass  2 Test12= 3.38D-11 3.33D-08 XBig12= 1.32D-01 1.22D-01.
      3 vectors produced by pass  3 Test12= 3.38D-11 3.33D-08 XBig12= 3.22D-03 8.01D-03.
      3 vectors produced by pass  4 Test12= 3.38D-11 3.33D-08 XBig12= 3.80D-05 1.75D-03.
      3 vectors produced by pass  5 Test12= 3.38D-11 3.33D-08 XBig12= 1.56D-06 2.68D-04.
      3 vectors produced by pass  6 Test12= 3.38D-11 3.33D-08 XBig12= 1.87D-08 5.22D-05.
      3 vectors produced by pass  7 Test12= 3.38D-11 3.33D-08 XBig12= 4.12D-10 5.71D-06.
      3 vectors produced by pass  8 Test12= 3.38D-11 3.33D-08 XBig12= 3.13D-12 5.04D-07.
      2 vectors produced by pass  9 Test12= 3.38D-11 3.33D-08 XBig12= 1.56D-13 4.82D-08.
      1 vectors produced by pass 10 Test12= 3.38D-11 3.33D-08 XBig12= 1.73D-13 4.25D-08.
 InvSVY:  IOpt=1 It=  1 EMax= 7.11D-15
 Solved reduced A of dimension    30 with     3 vectors.
 Calculating GIAO nuclear magnetic shielding tensors.
 SCF GIAO Magnetic shielding tensor (ppm):
      1  Fe   Isotropic = -6391.0403   Anisotropy =  8050.0705
   XX= -3671.3765   YX= -3701.1469   ZX=  -932.2891
   XY= -3637.2868   YY= -6680.0767   ZY=   747.4288
   XZ=  -937.4751   YZ=   785.6875   ZZ= -8821.6676
   Eigenvalues: -9207.0157 -8941.7785 -1024.3266
      2  P    Isotropic =   226.2481   Anisotropy =   107.1335
   XX=   264.3838   YX=   -25.5437   ZX=    37.5827
   XY=   -26.7893   YY=   181.4958   ZY=    24.0066
   XZ=    51.4767   YZ=     1.2570   ZZ=   232.8645
   Eigenvalues:   163.1195   217.9543   297.6704
      3  P    Isotropic =   235.1626   Anisotropy =   151.8140
   XX=   283.2924   YX=   -46.9649   ZX=   -71.5253
   XY=   -52.8321   YY=   172.9888   ZY=     3.5545
   XZ=   -38.0708   YZ=    12.8049   ZZ=   249.2066
   Eigenvalues:   151.8969   217.2190   336.3719
      4  C    Isotropic =   108.4503   Anisotropy =    87.0015
   XX=   122.6640   YX=   -37.7332   ZX=    26.5663
   XY=   -45.4158   YY=   123.6566   ZY=    -4.2271
   XZ=    12.3531   YZ=     8.8305   ZZ=    79.0303
   Eigenvalues:    63.9990    94.9007   166.4513
      5  C    Isotropic =   102.7375   Anisotropy =    76.2675
   XX=   131.9677   YX=   -29.2656   ZX=   -19.9198
   XY=   -34.8302   YY=   104.0186   ZY=   -52.5340
   XZ=   -20.2683   YZ=   -29.7058   ZZ=    72.2261
   Eigenvalues:    31.7489   122.8811   153.5825
      6  C    Isotropic =   100.0128   Anisotropy =   107.8432
   XX=   146.2581   YX=   -40.5218   ZX=   -16.2937
   XY=   -51.1418   YY=    63.7538   ZY=    19.7129
   XZ=   -13.0096   YZ=    15.8047   ZZ=    90.0265
   Eigenvalues:    41.0343    87.0958   171.9082
      7  C    Isotropic =   108.4339   Anisotropy =    94.2686
   XX=   134.0832   YX=   -23.7315   ZX=   -41.9720
   XY=   -16.9273   YY=   119.2580   ZY=    50.9539
   XZ=   -23.9729   YZ=    20.1022   ZZ=    71.9604
   Eigenvalues:    47.8014   106.2206   171.2796
      8  C    Isotropic =    77.9308   Anisotropy =    94.9327
   XX=    73.5307   YX=   -44.2808   ZX=   -27.9458
   XY=   -34.0820   YY=   106.0366   ZY=    23.7461
   XZ=   -23.4015   YZ=     8.6896   ZZ=    54.2250
   Eigenvalues:    34.5012    58.0719   141.2192
      9  C    Isotropic =   110.4360   Anisotropy =    80.0792
   XX=   119.7276   YX=   -17.0007   ZX=   -42.8084
   XY=   -18.5203   YY=   121.5762   ZY=    35.2549
   XZ=   -18.3329   YZ=    26.0645   ZZ=    90.0041
   Eigenvalues:    64.6012   102.8846   163.8221
     10  C    Isotropic =    78.3180   Anisotropy =    96.3064
   XX=    69.0520   YX=   -53.4122   ZX=    -3.2466
   XY=   -39.9481   YY=   109.1602   ZY=    13.2766
   XZ=     2.2774   YZ=    21.7540   ZZ=    56.7419
   Eigenvalues:    34.1441    58.2877   142.5223
     11  C    Isotropic =   108.7809   Anisotropy =    94.6839
   XX=   133.4322   YX=   -43.5898   ZX=    22.3615
   XY=   -30.7925   YY=   135.3622   ZY=    -2.1687
   XZ=    13.4382   YZ=    20.9885   ZZ=    57.5482
   Eigenvalues:    49.4113   105.0278   171.9035
     12  C    Isotropic =   101.9037   Anisotropy =   105.2962
   XX=   150.9019   YX=   -36.9864   ZX=    -2.7671
   XY=   -45.2247   YY=    92.3412   ZY=   -23.7306
   XZ=   -16.9305   YZ=   -19.3185   ZZ=    62.4679
   Eigenvalues:    42.7649    90.8450   172.1012
     13  C    Isotropic =   107.4391   Anisotropy =    77.7858
   XX=   145.6151   YX=   -30.3549   ZX=     5.7729
   XY=   -40.3652   YY=    61.0871   ZY=    25.4630
   XZ=    -7.0153   YZ=     5.8311   ZZ=   115.6151
   Eigenvalues:    45.2468   117.7742   159.2963
     14  C    Isotropic =    43.7734   Anisotropy =   173.1778
   XX=    16.8553   YX=    50.6410   ZX=    74.5435
   XY=    44.6360   YY=    15.5589   ZY=    30.3378
   XZ=    69.8574   YZ=    31.3919   ZZ=    98.9059
   Eigenvalues:   -40.7526    12.8474   159.2252
     15  C    Isotropic =    43.1299   Anisotropy =   203.9999
   XX=    22.5113   YX=    15.0459   ZX=    87.1452
   XY=     6.2862   YY=    23.1284   ZY=    73.2386
   XZ=    91.8063   YZ=    80.3800   ZZ=    83.7500
   Eigenvalues:   -62.0850    12.3449   179.1298
     16  C    Isotropic =    48.1587   Anisotropy =   159.7603
   XX=    59.6771   YX=    34.2278   ZX=    38.7986
   XY=    36.7014   YY=   -13.8958   ZY=    68.1219
   XZ=    42.5064   YZ=    56.3269   ZZ=    98.6948
   Eigenvalues:   -44.3773    34.1877   154.6655
     17  C    Isotropic =    53.5404   Anisotropy =   191.7164
   XX=    17.8413   YX=    58.4218   ZX=    71.4242
   XY=    58.7907   YY=    33.1950   ZY=    41.6028
   XZ=    76.2800   YZ=    45.2248   ZZ=   109.5850
   Eigenvalues:   -40.9680    20.2379   181.3514
     18  C    Isotropic =    48.9855   Anisotropy =   157.9706
   XX=    30.0725   YX=     2.8037   ZX=    77.1715
   XY=     4.1482   YY=    36.6023   ZY=    56.5297
   XZ=    70.4940   YZ=    58.4013   ZZ=    80.2815
   Eigenvalues:   -38.2061    30.8632   154.2992
     19  C    Isotropic =    39.1659   Anisotropy =   204.8717
   XX=    43.4956   YX=    41.6407   ZX=    69.5489
   XY=    32.7418   YY=   -25.0756   ZY=    68.7351
   XZ=    58.1527   YZ=    82.1869   ZZ=    99.0776
   Eigenvalues:   -61.2376     2.9882   175.7470
     20  C    Isotropic =    42.5922   Anisotropy =   184.5409
   XX=    12.2911   YX=    -7.2764   ZX=   -34.0164
   XY=    -9.1300   YY=   -36.3750   ZY=   -26.3103
   XZ=   -45.2581   YZ=   -31.1434   ZZ=   151.8607
   Eigenvalues:   -44.5854     6.7427   165.6195
     21  C    Isotropic =    41.3618   Anisotropy =   203.2529
   XX=   -17.7268   YX=    38.6292   ZX=   -32.7836
   XY=    36.5638   YY=   -23.8490   ZY=   -28.3664
   XZ=   -40.9312   YZ=   -14.5445   ZZ=   165.6611
   Eigenvalues:   -58.9291     6.1507   176.8637
     22  C    Isotropic =    46.6330   Anisotropy =   162.4716
   XX=   -28.3144   YX=    -4.9108   ZX=   -46.1450
   XY=    -9.8017   YY=    27.7132   ZY=   -25.8399
   XZ=   -43.3410   YZ=   -20.0488   ZZ=   140.5001
   Eigenvalues:   -41.8249    26.7764   154.9474
     23  C    Isotropic =    52.5094   Anisotropy =   194.0256
   XX=    23.4079   YX=    -5.0023   ZX=   -38.1442
   XY=    -7.9125   YY=   -28.5191   ZY=   -39.8593
   XZ=   -44.3981   YZ=   -47.8810   ZZ=   162.6393
   Eigenvalues:   -42.0239    17.6922   181.8598
     24  C    Isotropic =    45.5367   Anisotropy =   161.2249
   XX=     1.1042   YX=    38.8244   ZX=   -26.2097
   XY=    45.1855   YY=    -7.0077   ZY=   -21.6605
   XZ=   -27.1109   YZ=   -22.4143   ZZ=   142.5137
   Eigenvalues:   -45.1670    28.7571   153.0200
     25  C    Isotropic =    34.1490   Anisotropy =   196.1054
   XX=   -47.1774   YX=   -15.7709   ZX=   -57.8359
   XY=    -3.7590   YY=     1.8059   ZY=   -27.5690
   XZ=   -57.6467   YZ=    -7.3340   ZZ=   147.8184
   Eigenvalues:   -65.9362     3.4972   164.8859
     26  C    Isotropic =    42.0988   Anisotropy =   181.1610
   XX=    99.5742   YX=    52.5805   ZX=    75.5048
   XY=    51.1131   YY=   -23.4828   ZY=    28.8641
   XZ=    56.3256   YZ=    22.3425   ZZ=    50.2049
   Eigenvalues:   -42.4482     5.8718   162.8728
     27  C    Isotropic =    40.9359   Anisotropy =   202.2609
   XX=   133.0037   YX=    19.5387   ZX=    67.4905
   XY=    36.8549   YY=    -1.9720   ZY=    46.2289
   XZ=    79.1466   YZ=    49.7973   ZZ=    -8.2239
   Eigenvalues:   -61.2200     8.2512   175.7765
     28  C    Isotropic =    47.0569   Anisotropy =   161.8927
   XX=    92.7057   YX=    44.9622   ZX=    86.0041
   XY=    44.1144   YY=    33.3707   ZY=    -4.0013
   XZ=    75.9276   YZ=    -0.2895   ZZ=    15.0942
   Eigenvalues:   -45.0346    31.2199   154.9853
     29  C    Isotropic =    50.9437   Anisotropy =   195.9590
   XX=   128.1430   YX=    60.2932   ZX=    60.4154
   XY=    57.6492   YY=   -24.5104   ZY=    23.0099
   XZ=    64.4053   YZ=    22.4478   ZZ=    49.1984
   Eigenvalues:   -44.6634    15.9114   181.5830
     30  C    Isotropic =    43.5804   Anisotropy =   167.4059
   XX=   111.6572   YX=    17.7844   ZX=    65.5342
   XY=    20.9104   YY=     8.1131   ZY=    52.8347
   XZ=    65.5919   YZ=    47.5599   ZZ=    10.9708
   Eigenvalues:   -48.6757    24.2324   155.1843
     31  C    Isotropic =    36.4412   Anisotropy =   206.8543
   XX=    99.8698   YX=    52.6930   ZX=    94.3948
   XY=    54.9994   YY=     9.3729   ZY=    13.6778
   XZ=    96.2648   YZ=    10.7558   ZZ=     0.0809
   Eigenvalues:   -62.7178    -2.3026   174.3441
     32  C    Isotropic =    41.2415   Anisotropy =   190.1040
   XX=   -21.1416   YX=   -19.2062   ZX=   -19.6920
   XY=   -25.9079   YY=     3.9335   ZY=   -74.1838
   XZ=   -18.4259   YZ=   -57.7027   ZZ=   140.9326
   Eigenvalues:   -50.1443     5.8914   167.9775
     33  C    Isotropic =    43.5806   Anisotropy =   203.5680
   XX=     7.0526   YX=    17.9701   ZX=     2.4857
   XY=    13.1028   YY=   -21.2224   ZY=   -79.1239
   XZ=    -2.6812   YZ=   -86.3361   ZZ=   144.9117
   Eigenvalues:   -58.5271     9.9763   179.2927
     34  C    Isotropic =    46.6419   Anisotropy =   162.1610
   XX=   -37.2984   YX=    21.8685   ZX=     7.0728
   XY=    17.9319   YY=    42.0508   ZY=   -46.8059
   XZ=     4.5196   YZ=   -47.0551   ZZ=   135.1734
   Eigenvalues:   -43.7314    28.9079   154.7493
     35  C    Isotropic =    53.6931   Anisotropy =   191.6321
   XX=   -13.1271   YX=   -24.8462   ZX=   -15.1510
   XY=   -26.7001   YY=    20.3976   ZY=   -69.8193
   XZ=   -11.8762   YZ=   -63.5141   ZZ=   153.8087
   Eigenvalues:   -39.3166    18.9480   181.4478
     36  C    Isotropic =    46.4386   Anisotropy =   162.1271
   XX=    24.0417   YX=    16.0558   ZX=     6.0194
   XY=    16.6200   YY=    -7.4435   ZY=   -70.0471
   XZ=     8.1837   YZ=   -73.5002   ZZ=   122.7175
   Eigenvalues:   -43.9187    28.7111   154.5233
     37  C    Isotropic =    36.0380   Anisotropy =   198.8078
   XX=   -57.5856   YX=    16.9270   ZX=     6.4409
   XY=    25.1074   YY=    31.3826   ZY=   -62.6746
   XZ=     8.8254   YZ=   -74.3676   ZZ=   134.3171
   Eigenvalues:   -65.4903     5.0279   168.5765
     38  H    Isotropic =    27.0158   Anisotropy =     6.8348
   XX=    27.5050   YX=     4.1954   ZX=    -1.4963
   XY=     2.2250   YY=    27.6211   ZY=    -4.1347
   XZ=     3.4242   YZ=    -2.9318   ZZ=    25.9211
   Eigenvalues:    21.7294    27.7456    31.5723
     39  H    Isotropic =    27.9926   Anisotropy =     3.5856
   XX=    28.3490   YX=     0.7221   ZX=     3.6897
   XY=     4.4861   YY=    25.8425   ZY=     0.4703
   XZ=    -3.0329   YZ=    -2.9312   ZZ=    29.7863
   Eigenvalues:    23.9512    29.6437    30.3830
     40  H    Isotropic =    23.6394   Anisotropy =    18.3962
   XX=    26.7942   YX=    -8.2739   ZX=    -5.6496
   XY=    -8.4384   YY=    25.7697   ZY=     3.9983
   XZ=    -2.0460   YZ=     1.4820   ZZ=    18.3543
   Eigenvalues:    16.7700    18.2447    35.9035
     41  H    Isotropic =    23.0993   Anisotropy =     9.7785
   XX=    21.7473   YX=     0.8127   ZX=    -3.7538
   XY=     0.9272   YY=    26.1090   ZY=    -4.3402
   XZ=    -3.0664   YZ=    -4.4696   ZZ=    21.4417
   Eigenvalues:    17.2450    22.4346    29.6183
     42  H    Isotropic =    22.5142   Anisotropy =    14.9426
   XX=    30.2019   YX=    -0.0676   ZX=    -5.1056
   XY=     1.1100   YY=    15.7016   ZY=     0.7688
   XZ=    -4.7788   YZ=     4.0201   ZZ=    21.6391
   Eigenvalues:    14.5096    20.5571    32.4759
     43  H    Isotropic =    22.8427   Anisotropy =    12.7956
   XX=    23.2258   YX=     7.7205   ZX=     0.8838
   XY=     5.3400   YY=    24.3016   ZY=     2.9558
   XZ=    -0.4892   YZ=     5.4570   ZZ=    21.0008
   Eigenvalues:    15.6390    21.5161    31.3731
     44  H    Isotropic =    22.9348   Anisotropy =    10.0174
   XX=    29.0688   YX=    -1.3320   ZX=     1.0732
   XY=    -1.9347   YY=    22.4583   ZY=    -0.5600
   XZ=     1.6081   YZ=    -0.4173   ZZ=    17.2774
   Eigenvalues:    17.1089    22.0825    29.6131
     45  H    Isotropic =    21.6610   Anisotropy =    11.3042
   XX=    19.6370   YX=    -0.9720   ZX=     0.5672
   XY=     0.6117   YY=    28.9852   ZY=     2.3478
   XZ=     2.9783   YZ=     0.9495   ZZ=    16.3609
   Eigenvalues:    15.4002    20.3857    29.1972
     46  H    Isotropic =    23.2302   Anisotropy =    15.0120
   XX=    24.7284   YX=    -6.8777   ZX=     1.1807
   XY=    -6.8973   YY=    27.2152   ZY=     0.4807
   XZ=    -3.2174   YZ=     3.1222   ZZ=    17.7470
   Eigenvalues:    17.3927    19.0597    33.2382
     47  H    Isotropic =    22.9237   Anisotropy =     8.9196
   XX=    22.0294   YX=    -0.9473   ZX=    -4.2412
   XY=    -0.7310   YY=    21.1303   ZY=    -2.0051
   XZ=    -4.8055   YZ=    -1.9639   ZZ=    25.6115
   Eigenvalues:    17.9003    22.0008    28.8702
     48  H    Isotropic =    20.8109   Anisotropy =    17.3757
   XX=    14.1274   YX=    -3.1875   ZX=     1.6245
   XY=    -2.1737   YY=    31.7210   ZY=    -1.3661
   XZ=     0.8457   YZ=    -2.4716   ZZ=    16.5844
   Eigenvalues:    13.4268    16.6112    32.3948
     49  H    Isotropic =    23.5152   Anisotropy =    15.2769
   XX=    31.3650   YX=     6.3187   ZX=     1.8289
   XY=     3.3791   YY=    21.1434   ZY=    -0.4997
   XZ=     3.0046   YZ=     1.9020   ZZ=    18.0371
   Eigenvalues:    17.6005    19.2452    33.6998
     50  H    Isotropic =    22.9991   Anisotropy =     9.3379
   XX=    25.7352   YX=    -3.4800   ZX=    -0.1780
   XY=    -3.8432   YY=    23.7786   ZY=     3.3601
   XZ=    -0.3373   YZ=     3.9953   ZZ=    19.4835
   Eigenvalues:    17.0299    22.7430    29.2244
     51  H    Isotropic =    21.6501   Anisotropy =    15.3497
   XX=    18.6585   YX=     8.2502   ZX=     0.9612
   XY=     6.5108   YY=    26.9941   ZY=     1.6093
   XZ=     0.5364   YZ=     3.7712   ZZ=    19.2978
   Eigenvalues:    14.2416    18.8256    31.8832
     52  Cl   Isotropic =   788.2974   Anisotropy =   395.1900
   XX=   638.2386   YX=   -24.9058   ZX=  -177.9139
   XY=    25.1947   YY=  1028.2806   ZY=   -73.9073
   XZ=  -166.1355   YZ=   -88.6532   ZZ=   698.3729
   Eigenvalues:   488.5239   824.6109  1051.7574
     53  Cl   Isotropic =   826.8375   Anisotropy =   542.4149
   XX=   645.8320   YX=   183.2355   ZX=   104.4883
   XY=   123.3065   YY=  1144.9240   ZY=  -112.9117
   XZ=    55.0766   YZ=    46.6990   ZZ=   689.7566
   Eigenvalues:   549.8631   742.2020  1188.4474
     54  Pd   Isotropic =  -150.2179   Anisotropy =   243.4649
   XX=    -9.4126   YX=   -64.9894   ZX=    -2.8365
   XY=   -53.7581   YY=  -452.0330   ZY=     1.8550
   XZ=     7.7200   YZ=   -23.4189   ZZ=    10.7918
   Eigenvalues:  -460.0875    -2.6582    12.0920
     55  C    Isotropic =   116.2958   Anisotropy =    42.8118
   XX=   127.5067   YX=   -18.4872   ZX=     5.0466
   XY=   -23.0220   YY=   114.7678   ZY=    -9.5091
   XZ=     2.1749   YZ=    -9.7974   ZZ=   106.6129
   Eigenvalues:    95.9495   108.1009   144.8370
     56  H    Isotropic =    30.4773   Anisotropy =    17.4861
   XX=    35.8769   YX=     6.2434   ZX=     6.7609
   XY=     5.9539   YY=    25.1060   ZY=     2.7866
   XZ=     4.9000   YZ=     2.5007   ZZ=    30.4490
   Eigenvalues:    22.3553    26.9419    42.1347
     57  H    Isotropic =    27.3576   Anisotropy =     4.7308
   XX=    25.6756   YX=     5.0799   ZX=     1.4160
   XY=     2.4991   YY=    27.1290   ZY=    -1.4367
   XZ=     0.9412   YZ=    -1.6671   ZZ=    29.2683
   Eigenvalues:    22.0439    29.5175    30.5115
     58  C    Isotropic =   118.8642   Anisotropy =    41.7984
   XX=   131.3443   YX=    -9.1301   ZX=   -15.7962
   XY=   -18.7347   YY=   108.3044   ZY=     7.1203
   XZ=   -13.8261   YZ=     6.0929   ZZ=   116.9439
   Eigenvalues:   101.7325   108.1303   146.7298
     59  H    Isotropic =    28.1594   Anisotropy =    12.9027
   XX=    24.1042   YX=     3.7661   ZX=     1.6790
   XY=     0.2642   YY=    28.2417   ZY=    -3.7149
   XZ=     2.7915   YZ=    -8.7806   ZZ=    32.1324
   Eigenvalues:    20.9062    26.8108    36.7612
     60  N    Isotropic =   191.2085   Anisotropy =    56.2653
   XX=   216.8299   YX=   -10.3505   ZX=    19.2732
   XY=   -17.4026   YY=   173.8198   ZY=    -8.6074
   XZ=    15.7909   YZ=    -5.9544   ZZ=   182.9757
   Eigenvalues:   169.1394   175.7674   228.7187
     61  C    Isotropic =   137.3481   Anisotropy =    58.6670
   XX=   120.3270   YX=   -15.3475   ZX=   -14.0851
   XY=   -13.4224   YY=   146.9238   ZY=    24.3756
   XZ=   -11.9476   YZ=    23.3778   ZZ=   144.7936
   Eigenvalues:   113.5966   121.9884   176.4595
     62  C    Isotropic =   138.4530   Anisotropy =    63.4255
   XX=   150.8634   YX=    30.8264   ZX=    18.3141
   XY=    27.5049   YY=   136.0269   ZY=     9.8886
   XZ=    16.9811   YZ=     7.7796   ZZ=   128.4688
   Eigenvalues:   111.9281   122.6943   180.7367
     63  H    Isotropic =    29.6243   Anisotropy =    10.0618
   XX=    30.5719   YX=    -5.2453   ZX=     2.9368
   XY=    -6.3336   YY=    30.0185   ZY=     0.4205
   XZ=     1.1208   YZ=    -0.1522   ZZ=    28.2824
   Eigenvalues:    23.9611    28.5796    36.3321
     64  H    Isotropic =    29.8599   Anisotropy =     7.5031
   XX=    32.7335   YX=    -2.8657   ZX=     1.8454
   XY=    -3.5558   YY=    29.6029   ZY=     3.2541
   XZ=    -0.7467   YZ=     1.9294   ZZ=    27.2433
   Eigenvalues:    24.8795    29.8382    34.8620
     65  H    Isotropic =    31.1474   Anisotropy =     8.3381
   XX=    30.8423   YX=    -0.4428   ZX=     0.1738
   XY=    -3.1905   YY=    26.4625   ZY=     4.3262
   XZ=    -1.3272   YZ=    -0.2303   ZZ=    36.1372
   Eigenvalues:    25.5181    31.2179    36.7061
     66  H    Isotropic =    29.6383   Anisotropy =    12.7306
   XX=    34.0372   YX=    -1.9818   ZX=     5.5122
   XY=     0.4022   YY=    25.7802   ZY=    -0.2620
   XZ=     6.3950   YZ=    -1.6132   ZZ=    29.0973
   Eigenvalues:    24.9589    25.8306    38.1253
     67  H    Isotropic =    30.1686   Anisotropy =     8.1202
   XX=    32.1065   YX=     3.9026   ZX=    -1.6602
   XY=     3.7665   YY=    30.4246   ZY=    -3.5176
   XZ=     2.5550   YZ=    -2.7600   ZZ=    27.9746
   Eigenvalues:    24.7984    30.1253    35.5820
     68  H    Isotropic =    29.4657   Anisotropy =     7.3227
   XX=    32.2464   YX=    -0.5861   ZX=     2.0612
   XY=     1.3053   YY=    25.8966   ZY=     3.7411
   XZ=     2.6802   YZ=     2.3470   ZZ=    30.2540
   Eigenvalues:    24.2520    29.7975    34.3475
     69  C    Isotropic =    52.0621   Anisotropy =   187.8802
   XX=   137.4482   YX=    63.8771   ZX=    60.7800
   XY=    63.8367   YY=     7.7664   ZY=   -26.3323
   XZ=    60.4088   YZ=   -26.4384   ZZ=    10.9718
   Eigenvalues:   -56.9317    35.8025   177.3156
     70  C    Isotropic =    50.3092   Anisotropy =   189.4883
   XX=   150.3788   YX=    34.0783   ZX=    49.1987
   XY=    34.6427   YY=    38.4737   ZY=    38.9721
   XZ=    51.9960   YZ=    37.4880   ZZ=   -37.9248
   Eigenvalues:   -59.7927    34.0856   176.6348
     71  C    Isotropic =    52.7756   Anisotropy =   190.9022
   XX=   153.7294   YX=    54.4841   ZX=    25.6222
   XY=    63.2169   YY=   -29.4539   ZY=    33.0536
   XZ=    29.8561   YZ=    33.5840   ZZ=    34.0513
   Eigenvalues:   -53.8363    32.1194   180.0437
     72  C    Isotropic =    30.8165   Anisotropy =   205.2372
   XX=   128.2037   YX=    62.2109   ZX=    66.6563
   XY=    60.2263   YY=   -21.6045   ZY=    -7.2681
   XZ=    59.2483   YZ=   -13.1277   ZZ=   -14.1496
   Eigenvalues:   -67.6130    -7.5788   167.6414
     73  C    Isotropic =    51.4410   Anisotropy =   172.9490
   XX=   144.6086   YX=    23.1629   ZX=    48.4632
   XY=    28.4508   YY=    39.4483   ZY=    37.9250
   XZ=    49.6515   YZ=    32.3588   ZZ=   -29.7339
   Eigenvalues:   -51.4172    38.9999   166.7404
     74  C    Isotropic =    51.3478   Anisotropy =   189.1806
   XX=   149.3789   YX=    56.0225   ZX=    30.7914
   XY=    58.2318   YY=   -37.4798   ZY=    38.0143
   XZ=    30.3804   YZ=    38.3339   ZZ=    42.1443
   Eigenvalues:   -61.9028    38.4780   177.4682
     75  H    Isotropic =    24.0083   Anisotropy =     4.8823
   XX=    20.2061   YX=    -0.4083   ZX=    -0.0561
   XY=    -0.2337   YY=    24.6207   ZY=    -0.4354
   XZ=    -0.3074   YZ=    -0.3780   ZZ=    27.1981
   Eigenvalues:    20.1765    24.5851    27.2632
     76  H    Isotropic =    23.8210   Anisotropy =     4.7811
   XX=    20.6916   YX=    -1.4652   ZX=    -0.0709
   XY=    -1.6377   YY=    24.8432   ZY=     1.4441
   XZ=    -0.4308   YZ=     1.1963   ZZ=    25.9283
   Eigenvalues:    20.1700    24.2847    27.0084
     77  H    Isotropic =    23.6462   Anisotropy =    10.1035
   XX=    21.5305   YX=    -0.4154   ZX=    -0.6911
   XY=    -0.3597   YY=    19.4989   ZY=     2.3976
   XZ=    -2.1112   YZ=     0.7817   ZZ=    29.9092
   Eigenvalues:    19.2467    21.3100    30.3819
     78  H    Isotropic =    26.8844   Anisotropy =     7.2153
   XX=    22.6909   YX=    -0.1465   ZX=    -1.6120
   XY=    -0.6840   YY=    26.5525   ZY=    -0.8964
   XZ=    -1.5890   YZ=     0.8175   ZZ=    31.4099
   Eigenvalues:    22.3651    26.5936    31.6946
     79  H    Isotropic =    24.3084   Anisotropy =     8.5864
   XX=    20.8151   YX=    -0.5024   ZX=    -1.1235
   XY=     0.0415   YY=    23.1616   ZY=     1.8398
   XZ=    -1.6766   YZ=     2.9819   ZZ=    28.9486
   Eigenvalues:    20.5657    22.3270    30.0327
     80  N    Isotropic =   191.3866   Anisotropy =    60.4320
   XX=   219.5834   YX=     0.8230   ZX=   -23.0193
   XY=    -6.7293   YY=   168.8894   ZY=     1.1091
   XZ=   -24.0183   YZ=    -4.8643   ZZ=   185.6870
   Eigenvalues:   167.3863   175.0990   231.6746
     81  H    Isotropic =    29.0549   Anisotropy =    14.9894
   XX=    24.1587   YX=     1.5243   ZX=    -0.8811
   XY=    -0.4357   YY=    24.2933   ZY=    -4.3812
   XZ=     1.6746   YZ=    -0.0219   ZZ=    38.7126
   Eigenvalues:    23.4543    24.6625    39.0478
     82  C    Isotropic =   139.5392   Anisotropy =    61.7724
   XX=   154.3266   YX=    33.9114   ZX=     4.1890
   XY=    31.9375   YY=   139.2459   ZY=    -0.4551
   XZ=     2.6262   YZ=     1.4073   ZZ=   125.0450
   Eigenvalues:   112.7571   125.1396   180.7208
     83  C    Isotropic =   141.1275   Anisotropy =    53.2710
   XX=   126.5882   YX=   -19.7686   ZX=     2.4937
   XY=   -14.4900   YY=   170.0735   ZY=    -5.2448
   XZ=     2.1049   YZ=    -5.0422   ZZ=   126.7208
   Eigenvalues:   120.6084   126.1326   176.6415
     84  H    Isotropic =    30.2283   Anisotropy =     7.8199
   XX=    32.5696   YX=     0.8775   ZX=     4.6811
   XY=     3.2798   YY=    25.7218   ZY=    -0.2151
   XZ=     0.9932   YZ=    -1.0526   ZZ=    32.3935
   Eigenvalues:    24.8599    30.3835    35.4416
     85  H    Isotropic =    29.5402   Anisotropy =     7.0166
   XX=    32.7801   YX=     0.3598   ZX=    -1.4185
   XY=     2.4661   YY=    30.3267   ZY=    -3.4839
   XZ=    -1.1955   YZ=    -2.6218   ZZ=    25.5138
   Eigenvalues:    23.9955    30.4071    34.2180
     86  H    Isotropic =    29.5166   Anisotropy =    12.5162
   XX=    34.2234   YX=     1.2152   ZX=    -5.1279
   XY=     3.7142   YY=    25.1961   ZY=    -1.9789
   XZ=    -4.7511   YZ=    -0.7577   ZZ=    29.1302
   Eigenvalues:    24.5616    26.1275    37.8607
     87  H    Isotropic =    29.6461   Anisotropy =     5.7234
   XX=    30.5379   YX=    -0.8760   ZX=     1.8606
   XY=    -3.1419   YY=    27.4829   ZY=    -4.8230
   XZ=     0.5710   YZ=     0.3700   ZZ=    30.9175
   Eigenvalues:    25.9783    29.4983    33.4617
     88  H    Isotropic =    29.3579   Anisotropy =    10.7647
   XX=    30.7742   YX=    -2.5160   ZX=    -4.7966
   XY=    -4.5182   YY=    28.5700   ZY=     1.9874
   XZ=    -4.5644   YZ=     1.9462   ZZ=    28.7297
   Eigenvalues:    24.7550    26.7845    36.5344
     89  H    Isotropic =    29.4879   Anisotropy =     7.5863
   XX=    33.1874   YX=    -1.1633   ZX=    -2.1486
   XY=    -2.1622   YY=    30.6434   ZY=     0.9413
   XZ=    -1.9963   YZ=     1.0822   ZZ=    24.6328
   Eigenvalues:    24.0963    29.8220    34.5455
     90  C    Isotropic =    51.6286   Anisotropy =   187.2720
   XX=   143.9782   YX=    78.7150   ZX=   -13.0589
   XY=    80.6654   YY=   -22.1884   ZY=    11.1519
   XZ=   -13.3256   YZ=    11.1583   ZZ=    33.0960
   Eigenvalues:   -56.8298    35.2390   176.4766
     91  C    Isotropic =    50.3596   Anisotropy =   189.0209
   XX=   155.1229   YX=    50.0686   ZX=   -17.1799
   XY=    53.5991   YY=    47.4924   ZY=    21.2649
   XZ=   -19.3296   YZ=    22.1869   ZZ=   -51.5366
   Eigenvalues:   -60.2453    34.9505   176.3735
     92  C    Isotropic =    52.5858   Anisotropy =   191.1568
   XX=   156.9634   YX=    56.8590   ZX=    11.9950
   XY=    65.7305   YY=    16.7312   ZY=   -41.2022
   XZ=    13.1779   YZ=   -42.4317   ZZ=   -15.9372
   Eigenvalues:   -54.9695    32.7032   180.0237
     93  C    Isotropic =    30.6287   Anisotropy =   203.9309
   XX=   133.0837   YX=    85.2240   ZX=   -18.2481
   XY=    75.6178   YY=   -33.2332   ZY=     0.9851
   XZ=   -12.4625   YZ=     5.4931   ZZ=    -7.9645
   Eigenvalues:   -67.0734    -7.6232   166.5826
     94  C    Isotropic =    49.3286   Anisotropy =   175.5327
   XX=   146.2025   YX=    47.1634   ZX=   -25.5061
   XY=    47.6562   YY=    47.1022   ZY=    16.9116
   XZ=   -22.2472   YZ=    20.3564   ZZ=   -45.3187
   Eigenvalues:   -54.6602    36.2957   166.3504
     95  C    Isotropic =    50.4732   Anisotropy =   190.5415
   XX=   154.8814   YX=    57.5377   ZX=     3.2400
   XY=    60.9702   YY=    14.4774   ZY=   -50.2833
   XZ=     5.3038   YZ=   -50.0336   ZZ=   -17.9392
   Eigenvalues:   -61.8427    35.7614   177.5009
     96  H    Isotropic =    23.7406   Anisotropy =     3.9607
   XX=    20.1536   YX=    -0.3665   ZX=    -0.0720
   XY=    -0.2280   YY=    24.9974   ZY=    -0.5883
   XZ=     0.1344   YZ=    -0.7123   ZZ=    26.0707
   Eigenvalues:    20.1354    24.7052    26.3810
     97  H    Isotropic =    23.4818   Anisotropy =    10.2177
   XX=    21.3178   YX=    -0.3910   ZX=     0.1997
   XY=    -1.0551   YY=    24.4614   ZY=    -6.1891
   XZ=     1.4756   YZ=    -4.9970   ZZ=    24.6662
   Eigenvalues:    18.9676    21.1842    30.2936
     98  H    Isotropic =    24.0508   Anisotropy =     6.2686
   XX=    19.7163   YX=     0.0429   ZX=     1.3814
   XY=    -1.6642   YY=    28.1080   ZY=     1.4072
   XZ=     3.6990   YZ=    -1.6726   ZZ=    24.3281
   Eigenvalues:    18.5419    25.3806    28.2298
     99  C    Isotropic =    48.5613   Anisotropy =    15.3973
   XX=    47.2229   YX=    -2.0943   ZX=     1.7319
   XY=    -2.0026   YY=    56.4579   ZY=    -5.9210
   XZ=     0.0047   YZ=    -5.3704   ZZ=    42.0032
   Eigenvalues:    40.0560    46.8018    58.8262
    100  F    Isotropic =   220.9458   Anisotropy =   148.3368
   XX=   170.3891   YX=    27.9491   ZX=    71.5802
   XY=    27.8223   YY=   224.1203   ZY=    27.0916
   XZ=    69.8433   YZ=    27.3631   ZZ=   268.3281
   Eigenvalues:   131.6247   211.3758   319.8370
    101  F    Isotropic =   248.7041   Anisotropy =   136.6617
   XX=   275.8806   YX=   -49.7811   ZX=    45.0015
   XY=   -46.0590   YY=   294.9331   ZY=   -14.9725
   XZ=    25.8871   YZ=    -3.9478   ZZ=   175.2987
   Eigenvalues:   163.7971   242.5034   339.8120
    102  F    Isotropic =   242.3653   Anisotropy =   141.8817
   XX=   263.9744   YX=    67.5993   ZX=   -10.2659
   XY=    51.8678   YY=   242.8680   ZY=   -54.5459
   XZ=   -19.3313   YZ=   -64.5934   ZZ=   220.2536
   Eigenvalues:   161.8514   228.2914   336.9531
    103  C    Isotropic =    49.0263   Anisotropy =    14.3245
   XX=    50.3415   YX=    -5.4618   ZX=    -1.0820
   XY=    -5.1500   YY=    51.9872   ZY=     6.1993
   XZ=    -1.6044   YZ=     5.2045   ZZ=    44.7502
   Eigenvalues:    41.3424    47.1606    58.5760
    104  F    Isotropic =   221.0657   Anisotropy =   149.2676
   XX=   227.4051   YX=   -44.3880   ZX=    74.7368
   XY=   -44.6022   YY=   182.5177   ZY=     8.9918
   XZ=    75.7362   YZ=     7.5469   ZZ=   253.2743
   Eigenvalues:   131.7681   210.8516   320.5774
    105  F    Isotropic =   240.8593   Anisotropy =   144.2974
   XX=   226.2974   YX=    16.8571   ZX=    23.4734
   XY=    16.5739   YY=   325.1838   ZY=    45.2780
   XZ=    13.1556   YZ=    27.2608   ZZ=   171.0966
   Eigenvalues:   159.8289   225.6914   337.0575
    106  F    Isotropic =   248.8663   Anisotropy =   123.9084
   XX=   303.6195   YX=   -14.6237   ZX=   -35.2425
   XY=    -1.3117   YY=   197.9969   ZY=    42.4500
   XZ=   -47.5978   YZ=    48.1453   ZZ=   244.9825
   Eigenvalues:   168.6588   246.4682   331.4719
    107  C    Isotropic =    48.7730   Anisotropy =    14.7643
   XX=    45.8952   YX=     5.3101   ZX=     5.7310
   XY=     4.9234   YY=    53.5212   ZY=     2.6859
   XZ=     4.9834   YZ=     3.7221   ZZ=    46.9027
   Eigenvalues:    40.7456    46.9575    58.6159
    108  F    Isotropic =   238.9516   Anisotropy =   141.2054
   XX=   170.8257   YX=   -39.7951   ZX=    27.2834
   XY=   -24.9445   YY=   318.1121   ZY=   -26.4850
   XZ=    17.2642   YZ=   -23.6165   ZZ=   227.9170
   Eigenvalues:   159.6374   224.1289   333.0885
    109  F    Isotropic =   252.5145   Anisotropy =   131.2396
   XX=   252.1353   YX=    74.5184   ZX=    60.8605
   XY=    61.0042   YY=   236.6415   ZY=    -0.2803
   XZ=    45.1026   YZ=     8.2023   ZZ=   268.7665
   Eigenvalues:   164.8230   252.7129   340.0075
    110  F    Isotropic =   213.9942   Anisotropy =   141.4609
   XX=   164.7050   YX=    24.1687   ZX=   -58.2089
   XY=    26.4112   YY=   192.9261   ZY=    11.4096
   XZ=   -59.0704   YZ=    10.5079   ZZ=   284.3515
   Eigenvalues:   128.8983   204.7829   308.3014
    111  C    Isotropic =    48.5184   Anisotropy =    14.4400
   XX=    56.3453   YX=     5.0115   ZX=     2.0467
   XY=     4.3922   YY=    41.8260   ZY=     1.2207
   XZ=     1.7484   YZ=     0.7553   ZZ=    47.3837
   Eigenvalues:    40.4114    46.9986    58.1450
    112  F    Isotropic =   217.2931   Anisotropy =   148.2206
   XX=   208.1397   YX=    -0.0148   ZX=    22.2177
   XY=    -2.9797   YY=   246.2278   ZY=   -88.6722
   XZ=    19.5605   YZ=   -89.6619   ZZ=   197.5119
   Eigenvalues:   126.3845   209.3880   316.1069
    113  F    Isotropic =   246.9017   Anisotropy =   137.1560
   XX=   250.6049   YX=    56.6469   ZX=    45.5772
   XY=    67.3752   YY=   212.0165   ZY=    19.8559
   XZ=    58.1095   YZ=     5.7206   ZZ=   278.0837
   Eigenvalues:   162.0991   240.2670   338.3391
    114  F    Isotropic =   243.4134   Anisotropy =   132.7513
   XX=   296.2512   YX=   -12.2647   ZX=   -46.5572
   XY=   -24.1728   YY=   169.6713   ZY=    -4.8912
   XZ=   -50.8462   YZ=   -19.0543   ZZ=   264.3178
   Eigenvalues:   163.0218   235.3042   331.9143
    115  C    Isotropic =    48.5516   Anisotropy =    15.9569
   XX=    54.5616   YX=    -2.2127   ZX=    -7.0306
   XY=    -1.0913   YY=    45.2761   ZY=     5.0168
   XZ=    -6.6922   YZ=     3.1432   ZZ=    45.8170
   Eigenvalues:    40.2756    46.1896    59.1895
    116  F    Isotropic =   251.9833   Anisotropy =   133.5427
   XX=   281.6523   YX=   -39.9965   ZX=   -20.8980
   XY=   -48.5071   YY=   235.2687   ZY=    79.1288
   XZ=   -18.0404   YZ=    58.6372   ZZ=   239.0288
   Eigenvalues:   165.0272   249.9108   341.0117
    117  F    Isotropic =   218.0681   Anisotropy =   150.9628
   XX=   223.0376   YX=   -10.1075   ZX=    37.3558
   XY=    -6.5899   YY=   128.8268   ZY=   -11.5932
   XZ=    38.8346   YZ=   -11.9057   ZZ=   302.3398
   Eigenvalues:   127.6521   207.8422   318.7099
    118  F    Isotropic =   242.8075   Anisotropy =   141.6427
   XX=   269.0111   YX=    72.0539   ZX=   -20.7160
   XY=    91.0234   YY=   238.1575   ZY=    15.6249
   XZ=   -21.9812   YZ=     8.7251   ZZ=   221.2539
   Eigenvalues:   161.6611   229.5254   337.2360
    119  C    Isotropic =    48.8795   Anisotropy =    13.8673
   XX=    50.7691   YX=    -6.7184   ZX=     1.3311
   XY=    -6.2886   YY=    52.3181   ZY=     1.9502
   XZ=     0.5767   YZ=     1.5339   ZZ=    43.5514
   Eigenvalues:    42.2492    46.2651    58.1244
    120  F    Isotropic =   222.6717   Anisotropy =   143.8418
   XX=   162.8798   YX=   -36.2914   ZX=    21.9803
   XY=   -37.8950   YY=   190.7080   ZY=    17.4066
   XZ=    20.4181   YZ=    17.1122   ZZ=   314.4274
   Eigenvalues:   133.0795   216.3694   318.5663
    121  F    Isotropic =   244.2148   Anisotropy =   138.8134
   XX=   199.5151   YX=    18.1403   ZX=    38.8025
   XY=     5.2958   YY=   334.5779   ZY=    16.1048
   XZ=    30.3713   YZ=     2.6962   ZZ=   198.5513
   Eigenvalues:   164.4288   231.4585   336.7570
    122  F    Isotropic =   246.8515   Anisotropy =   140.5133
   XX=   328.6127   YX=   -45.4927   ZX=    28.9087
   XY=   -30.2730   YY=   209.1512   ZY=    35.5932
   XZ=    12.9306   YZ=    31.0056   ZZ=   202.7908
   Eigenvalues:   162.2773   237.7503   340.5270
    123  C    Isotropic =    49.2119   Anisotropy =    14.3860
   XX=    44.5050   YX=    -0.7366   ZX=    -5.4044
   XY=    -1.5244   YY=    58.6067   ZY=     0.2407
   XZ=    -2.9671   YZ=     1.4554   ZZ=    44.5240
   Eigenvalues:    40.3265    48.5067    58.8025
    124  F    Isotropic =   244.7980   Anisotropy =   136.0361
   XX=   249.7534   YX=   -70.2962   ZX=   -65.6147
   XY=   -57.6797   YY=   244.3908   ZY=     4.3531
   XZ=   -49.0750   YZ=     9.3543   ZZ=   240.2499
   Eigenvalues:   163.6202   235.2850   335.4887
    125  F    Isotropic =   248.4726   Anisotropy =   137.0132
   XX=   191.5364   YX=    62.0504   ZX=   -36.8425
   XY=    43.7209   YY=   315.8518   ZY=   -12.2345
   XZ=   -22.8758   YZ=   -10.6695   ZZ=   238.0297
   Eigenvalues:   163.9757   241.6274   339.8148
    126  F    Isotropic =   217.4657   Anisotropy =   143.7425
   XX=   146.8355   YX=   -21.4116   ZX=    40.6053
   XY=   -24.9444   YY=   203.7293   ZY=    -7.2663
   XZ=    41.0582   YZ=    -6.1628   ZZ=   301.8322
   Eigenvalues:   130.6962   208.4068   313.2940
    127  C    Isotropic =    49.5240   Anisotropy =    18.1765
   XX=    49.8951   YX=     9.5094   ZX=     3.0005
   XY=     9.6536   YY=    52.0715   ZY=     2.2476
   XZ=     3.0257   YZ=     2.8426   ZZ=    46.6053
   Eigenvalues:    41.2730    45.6572    61.6416
    128  F    Isotropic =   253.9926   Anisotropy =   127.7078
   XX=   186.4444   YX=    39.9390   ZX=   -11.3593
   XY=    56.7487   YY=   308.1940   ZY=    39.8224
   XZ=    -1.3787   YZ=    31.0834   ZZ=   267.3395
   Eigenvalues:   166.2845   256.5622   339.1312
    129  F    Isotropic =   220.1464   Anisotropy =   137.0877
   XX=   203.1817   YX=    17.4188   ZX=    62.7291
   XY=    15.0612   YY=   195.0024   ZY=   -49.9221
   XZ=    62.0757   YZ=   -46.8282   ZZ=   262.2551
   Eigenvalues:   134.6990   214.2021   311.5382
    130  F    Isotropic =   230.1385   Anisotropy =   150.2136
   XX=   295.0717   YX=    46.4069   ZX=   -56.5585
   XY=    35.3343   YY=   170.0915   ZY=     9.7118
   XZ=   -49.1294   YZ=     5.2747   ZZ=   225.2524
   Eigenvalues:   149.7262   210.4084   330.2809
    131  H    Isotropic =    23.6726   Anisotropy =     5.1462
   XX=    20.5723   YX=    -1.0614   ZX=    -0.7434
   XY=    -1.3693   YY=    26.6403   ZY=    -1.0075
   XZ=    -0.6067   YZ=    -0.9932   ZZ=    23.8053
   Eigenvalues:    20.1340    23.7804    27.1034
    132  H    Isotropic =    23.6165   Anisotropy =     7.8328
   XX=    20.2415   YX=    -0.9208   ZX=     1.6226
   XY=    -1.1322   YY=    26.8152   ZY=    -2.4315
   XZ=     2.2961   YZ=    -3.0136   ZZ=    23.7927
   Eigenvalues:    19.3683    22.6428    28.8383
    133  H    Isotropic =    29.8286   Anisotropy =    17.8944
   XX=    36.0864   YX=     8.6287   ZX=    -1.4792
   XY=     7.4277   YY=    28.9893   ZY=    -3.0037
   XZ=    -0.9555   YZ=    -3.3499   ZZ=    24.4101
   Eigenvalues:    21.8883    25.8394    41.7582
    134  H    Isotropic =    27.4732   Anisotropy =     4.1269
   XX=    26.0897   YX=     4.7428   ZX=     1.6294
   XY=     2.7011   YY=    26.3326   ZY=    -0.0243
   XZ=     0.1981   YZ=    -1.3871   ZZ=    29.9974
   Eigenvalues:    22.3158    29.8794    30.2245
 End of Minotr F.D. properties file   721 does not exist.
 End of Minotr F.D. properties file   722 does not exist.
 End of Minotr F.D. properties file   788 does not exist.
 Hyperfine terms turned off by default for NAtoms > 100.

 **********************************************************************

            Population analysis using the SCF density.

 **********************************************************************

 Orbital symmetries:
       Occupied  (A) (A) (A) (A) (A) (A) (A) (A) (A) (A) (A) (A)
                 (A) (A) (A) (A) (A) (A) (A) (A) (A) (A) (A) (A)
                 (A) (A) (A) (A) (A) (A) (A) (A) (A) (A) (A) (A)
                 (A) (A) (A) (A) (A) (A) (A) (A) (A) (A) (A) (A)
                 (A) (A) (A) (A) (A) (A) (A) (A) (A) (A) (A) (A)
                 (A) (A) (A) (A) (A) (A) (A) (A) (A) (A) (A) (A)
                 (A) (A) (A) (A) (A) (A) (A) (A) (A) (A) (A) (A)
                 (A) (A) (A) (A) (A) (A) (A) (A) (A) (A) (A) (A)
                 (A) (A) (A) (A) (A) (A) (A) (A) (A) (A) (A) (A)
                 (A) (A) (A) (A) (A) (A) (A) (A) (A) (A) (A) (A)
                 (A) (A) (A) (A) (A) (A) (A) (A) (A) (A) (A) (A)
[...]
                                                    416(r),725(r),471(r),722(r)
                                                    877(r),601(r),1415(g),591(r)
                                                    1417(g),447(r),463(r),488(r)
                                                    1059(r),876(r),1188(r)
                                                    1344(r),906(r),1007(r)
                                                    462(r),434(r),1473(r)
                                                    1320(r),444(r),409(r),903(r)
                                                    419(r),473(r),702(r),604(r)
                                                    446(r),1012(r),1325(r)
                                                    467(r),1058(r),1456(r)
                                                    405(r),726(r),415(r),494(r)
                                                    600(r),593(r),385(r),618(r)
                                                    407(r),909(r),441(r),1450(r)
                                                    1323(r),1036(r),881(r)
                                                    749(r),299(r),1875(r)
                                                    1444(r),1063(r),393(r)
                                                    1217(r),902(r),732(r)
                                                    1494(r),720(r),438(r),882(r)
                                                    435(r),852(r),603(r),697(r)
                                                    1349(r),413(r),1041(r)
                                                    1216(r),1032(r),890(r)
                                                    2990(r),863(r),1201(r)
                                                    1060(r),379(r),1176(r)
                                                    1045(r),1014(r),1194(r)
                                                    452(r),468(r),887(r),1464(r)
                                                    1008(r),907(r),728(r),566(r)
                                                    1165(r),433(r),1038(r)
                                                    476(r),758(r),753(r),1321(r)
                                                    1066(r),750(r),602(r)
                                                    1330(r),1446(r),449(r)
                                                    751(r),858(r),397(r),621(r)
                                                    855(r),1043(r),891(r)
                                                    1324(r),1168(r),519(r)
                                                    1749(r),619(r),696(r),605(r)
                                                    616(r),911(r),436(r),1463(r)
                                                    886(r),862(r),377(r),453(r)
                                                    1399(r),1532(r),492(r)
                                                    466(r),1062(r),1195(r)
                                                    699(r),1197(r),421(r),378(r)
  1414. RY*(   1)Cl  52                  0.00120     0.87254   
  1415. RY*(   2)Cl  52                  0.00114     0.75509   
  1416. RY*(   3)Cl  52                  0.00098     0.90043   
  1417. RY*(   4)Cl  52                  0.00029     0.97040   
  1418. RY*(   5)Cl  52                  0.00013     1.05577   
  1419. RY*(   6)Cl  52                  0.00012     1.69282   
  1420. RY*(   7)Cl  52                  0.00005     1.86686   
  1421. RY*(   8)Cl  52                  0.00004     1.44319   
  1422. RY*(   9)Cl  52                  0.00004     1.08268   
  1423. RY*(  10)Cl  52                  0.00004     2.30974   
  1424. RY*(  11)Cl  52                  0.00000    10.60413   
  1425. RY*(  12)Cl  52                  0.00000    10.62318   
  1426. RY*(  13)Cl  52                  0.00001     1.91065   
  1427. RY*(  14)Cl  52                  0.00000    25.08502   
  1428. RY*(  15)Cl  52                  0.00001     1.93200   
  1429. RY*(  16)Cl  52                  0.00000     2.72698   
  1430. RY*(  17)Cl  52                  0.00001     1.88835   
  1431. RY*(  18)Cl  52                  0.00000    10.57341   
  1432. RY*(  19)Cl  52                  0.00001     1.98190   
  1433. RY*(  20)Cl  52                  0.00001     2.80081   
  1434. RY*(  21)Cl  52                  0.00000     2.58965   
  1435. RY*(  22)Cl  52                  0.00000     2.08947   
  1436. RY*(  23)Cl  52                  0.00001     2.26007   
  1437. RY*(  24)Cl  52                  0.00000     2.14167   
  1438. RY*(  25)Cl  52                  0.00001     2.13902   
  1439. RY*(  26)Cl  52                  0.00000     2.14365   
  1440. RY*(  27)Cl  52                  0.00000     2.17077   
  1441. RY*(  28)Cl  52                  0.00000     2.17319   
       -------------------------------
              Total Lewis   17.36168  ( 99.9764%)
        Valence non-Lewis    0.00000  (  0.0000%)
        Rydberg non-Lewis    0.00410  (  0.0236%)
       -------------------------------
            Total unit  2   17.36577  (100.0000%)
           Charge unit  2   -0.36577

 Molecular unit  3  (Cl)
   215. CR (   1)Cl  53                  2.00000   -99.99285  298(r),297(r)
   216. CR (   2)Cl  53                  1.99971   -10.72079  298(r),297(r),1470(r)
                                                    2990(r),1471(r),1473(r)
                                                    2989(r),1472(r)
   217. CR (   3)Cl  53                  1.99995    -7.19721  297(r),298(r),2989(r)
   218. CR (   4)Cl  53                  1.99999    -7.19569  299(r)
   219. CR (   5)Cl  53                  1.99995    -7.19788  298(r),2989(r),297(r)
   289. LP (   1)Cl  53                  1.95690    -0.28756  297(r),2990(r),3059(r)
                                                    299(r),3069(r),1483(r)
                                                    2992(r),1480(r),1471(r)
                                                    432(r),1485(r),1479(r)
                                                    1489(r),404(r),1491(r)
                                                    1477(r),2991(r),1484(r)
                                                    1488(r),2989(r),1482(r)
                                                    433(r),460(r)
   290. LP (   2)Cl  53                  1.95326    -0.92541  298(r),297(r),1490(r)
                                                    1472(r),2990(r),1470(r)
                                                    1473(r),1471(r),1491(r)
                                                    1478(r),1475(r),3059(r)
                                                    1476(r),1474(r),1477(r)
                                                    1482(r),1488(r),3055(r)
                                                    404(r),280(r),406(r),1489(r)
                                                    460(r),1487(r),283(r)
   291. LP (   3)Cl  53                  1.94310    -0.30996  297(r),299(r),298(r),3057(r)
                                                    3069(r),3055(r),1486(r)
                                                    3054(r),2991(r),1472(r)
                                                    1475(r),2990(r),1492(r)
                                                    1491(r),1485(r),1489(r)
                                                    3071(r),1474(r),3044(r)
                                                    1471(r)
   292. LP (   4)Cl  53                  1.52882    -0.39453  298(r),297(r),2989(r),404(r)
                                                    1483(r),1479(r),1485(r)
                                                    1488(r),1487(r),432(r)
                                                    1480(r),1477(r),2990(r)
                                                    1481(r),1482(r),1447(g)
                                                    1486(r),460(r),1489(r)
                                                    1448(g),1484(r),1470(r)
                                                    2993(r),590(r),1478(r)
                                                    1033(r),440(r),442(r),412(r)
                                                    443(r),1471(r),1475(r)
                                                    414(r),877(r),439(r),1379(r)
                                                    1476(r),721(r),1472(r)
                                                    1189(r),722(r),1419(r)
                                                    878(r),1218(r),417(r),410(r)
                                                    1037(r),1009(r),591(r)
                                                    418(r),601(r),1418(r),444(r)
                                                    409(r),1320(r),406(r),876(r)
                                                    447(r),488(r),463(r),471(r)
                                                    725(r),1190(r),702(r),906(r)
                                                    604(r),1325(r),1490(r)
                                                    434(r),473(r),1059(r)
                                                    1474(r),462(r),1344(r)
                                                    593(r),903(r),441(r),726(r)
                                                    1428(r),1007(r),3059(r)
                                                    720(r),416(r),902(r),446(r)
                                                    419(r),1323(r),1188(r)
                                                    600(r),385(r),1058(r)
                                                    1036(r),494(r),1494(r)
                                                    618(r),1041(r),438(r),881(r)
                                                    1012(r),909(r),890(r),732(r)
                                                    1201(r),855(r),697(r),467(r)
                                                    603(r),1216(r),3071(r)
                                                    1349(r),1415(r),1063(r)
                                                    415(r),566(r),1875(r)
                                                    1417(r),723(r),882(r)
                                                    2992(r),393(r),602(r),852(r)
                                                    1491(r),751(r),863(r),879(r)
                                                    749(r),605(r),2986(r),728(r)
                                                    379(r),1420(r),750(r)
                                                    1045(r),1176(r),3069(r)
                                                    1035(r),1436(r),753(r)
                                                    397(r),621(r),862(r),1165(r)
                                                    413(r),1364(r),1032(r)
                                                    1416(r),1066(r),891(r)
                                                    1330(r),1014(r),1195(r)
                                                    616(r),699(r)
  1442. RY*(   1)Cl  53                  0.00147     0.85494   
  1443. RY*(   2)Cl  53                  0.00128     0.66673   
  1444. RY*(   3)Cl  53                  0.00126     0.76553   
  1445. RY*(   4)Cl  53                  0.00045     0.90944   
  1446. RY*(   5)Cl  53                  0.00025     1.17804   
  1447. RY*(   6)Cl  53                  0.00015     1.52646   
  1448. RY*(   7)Cl  53                  0.00010     1.52549   
  1449. RY*(   8)Cl  53                  0.00008     1.97421   
  1450. RY*(   9)Cl  53                  0.00007     1.52036   
  1451. RY*(  10)Cl  53                  0.00005     1.63714   
  1452. RY*(  11)Cl  53                  0.00002     2.63049   
  1453. RY*(  12)Cl  53                  0.00000    10.45892   
  1454. RY*(  13)Cl  53                  0.00000     1.92598   
  1455. RY*(  14)Cl  53                  0.00001     2.66237   
  1456. RY*(  15)Cl  53                  0.00001     2.07559   
  1457. RY*(  16)Cl  53                  0.00000    10.49847   
  1458. RY*(  17)Cl  53                  0.00001     2.04070   
  1459. RY*(  18)Cl  53                  0.00000    25.42072   
  1460. RY*(  19)Cl  53                  0.00000     1.96625   
  1461. RY*(  20)Cl  53                  0.00000    10.56941   
  1462. RY*(  21)Cl  53                  0.00000     2.27965   
  1463. RY*(  22)Cl  53                  0.00001     2.25095   
  1464. RY*(  23)Cl  53                  0.00000     2.21331   
  1465. RY*(  24)Cl  53                  0.00000     2.17534   
  1466. RY*(  25)Cl  53                  0.00000     2.17565   
  1467. RY*(  26)Cl  53                  0.00000     2.15790   
  1468. RY*(  27)Cl  53                  0.00000     2.16279   
  1469. RY*(  28)Cl  53                  0.00000     2.10642   
       -------------------------------
              Total Lewis   17.38169  ( 99.9700%)
        Valence non-Lewis    0.00000  (  0.0000%)
        Rydberg non-Lewis    0.00521  (  0.0300%)
       -------------------------------
            Total unit  3   17.38691  (100.0000%)
           Charge unit  3   -0.38691
 1\1\GINC-NC282\SP\RPBE1PBE\Gen\C60H42Cl2F24Fe1N2P2Pd1\MACKK4\02-Dec-20
 21\0\\# PBE1PBE gen pseudo=read int=(grid=ultrafine) empiricaldispersi
 on=GD3BJ pop=nbo guess=read geom=check\\M003_1_4 title\\0,1\Fe,0,0.037
 9182704,-1.5933840994,1.7333062322\P,0,1.795071294,-0.1194025772,-0.82
 08608953\P,0,-1.7666372965,0.288730295,-0.4346130448\C,0,1.5332063041,
 -1.4253257818,0.4157358408\C,0,0.6505141592,-2.5288247305,0.0651769103
 \C,0,0.6684244408,-3.4751782141,1.1379753774\C,0,1.5242379186,-2.96566
 94347,2.1600058883\C,0,2.0942928405,-1.7157503073,1.7312059051\C,0,-1.
 5221744164,-0.4267170274,1.2358931502\C,0,-2.0096999209,-1.6305907705,
 1.9084912386\C,0,-1.3975129701,-1.6510913301,3.2124862357\C,0,-0.58380
 08136,-0.4940949842,3.3788871634\C,0,-0.6376213656,0.2583189431,2.1661
 099725\C,0,3.2638775264,-0.7581951451,-1.7284869859\C,0,3.5426496065,-
 2.1324861863,-1.7107990478\C,0,4.6814265992,-2.629706379,-2.3614286657
 \C,0,5.5419712132,-1.7669169804,-3.0473332705\C,0,5.2494332308,-0.3961
 531161,-3.0841927481\C,0,4.1169365441,0.111898381,-2.4360592846\C,0,2.
 4253147477,1.4095712898,-0.0045183513\C,0,3.7814359602,1.6040350189,0.
 3190839846\C,0,4.1857769993,2.7682817527,0.9857796877\C,0,3.249786454,
 3.7483386332,1.3472229657\C,0,1.9050015349,3.5631835455,1.0078593401\C
 ,0,1.4993193823,2.4135192753,0.3133629285\C,0,-2.4036205887,1.95334821
 4,0.054919443\C,0,-3.1202500503,2.082397561,1.2573109739\C,0,-3.587424
 5624,3.3363669673,1.6705241765\C,0,-3.3315592741,4.475547229,0.8988694
 898\C,0,-2.6151712331,4.3452178096,-0.2986565188\C,0,-2.1536800413,3.0
 940206813,-0.7286949668\C,0,-3.2002279702,-0.5931691427,-1.1744778203\
 C,0,-4.5241618901,-0.2701822253,-0.8523419868\C,0,-5.578551333,-0.9942
 568886,-1.4302967123\C,0,-5.3212223593,-2.0291010547,-2.3364372044\C,0
 ,-3.9938548431,-2.3275689677,-2.6786253575\C,0,-2.936685116,-1.6121475
 568,-2.1061051047\H,0,0.0575778297,-2.593158226,-0.8488400515\H,0,-0.1
 138805742,1.1949695534,1.9804075867\H,0,2.8857454762,-2.8262547819,-1.
 181267058\H,0,6.4344302145,-2.1543495255,-3.5440546491\H,0,3.907870722
 ,1.1821175966,-2.4765421981\H,0,4.5320201023,0.8570098437,0.0483338817
 \H,0,3.5674387722,4.6456837357,1.8829836384\H,0,0.4548304446,2.3007310
 067,0.0065778198\H,0,-3.308985431,1.2091753433,1.8858013736\H,0,-3.679
 1223324,5.4572063378,1.2308056632\H,0,-1.611386971,3.00059261,-1.67425
 28687\H,0,-4.7479806196,0.5526054261,-0.1680773948\H,0,-6.146530013,-2
 .5770395609,-2.7962901199\H,0,-1.906561793,-1.8085950903,-2.4189429371
 \Cl,0,1.4172928431,0.9675124659,-3.7773471387\Cl,0,-1.8721843355,1.174
 4395352,-3.4288427806\Pd,0,-0.0832421079,0.4674192343,-2.0211722995\C,
 0,3.1948765148,-0.9850743271,2.4854872132\H,0,0.0286073256,-0.26008080
 34,4.2470981203\H,0,-1.5326882275,-2.4498538208,3.9400568575\C,0,-3.10
 90050896,-2.6094323924,1.5175650195\H,0,3.5319592171,-0.1421698864,1.8
 45239699\N,0,4.3252887404,-1.9081434277,2.7387121279\C,0,4.7991539342,
 -2.5415915026,1.506586318\C,0,5.4381273817,-1.1806297284,3.3616910301\
 H,0,5.6452467029,-3.2056541688,1.7472812635\H,0,4.006771028,-3.1563639
 71,1.0553608006\H,0,5.1504800428,-1.8068043297,0.7428856301\H,0,6.2696
 393541,-1.8833710464,3.5345366833\H,0,5.813679697,-0.3423946282,2.7297
 122997\H,0,5.1271359365,-0.7630968426,4.3312088956\C,0,1.6818860737,0.
 7857402238,6.1540017193\C,0,2.011470307,-0.5793798112,6.1179751901\C,0
 ,2.5166650271,-1.1541383382,4.9437812545\C,0,2.6949418656,-0.371712014
 6,3.7886770314\C,0,2.3875101675,0.997675768,3.8398891932\C,0,1.8771327
 956,1.5750623383,5.0110573663\H,0,1.2837858691,1.2320353011,7.07082343
 53\H,0,1.8775021749,-1.1984089842,7.0113147271\H,0,2.8033674356,-2.210
 2318745,4.9174180154\H,0,2.5397562027,1.6161373179,2.9508232762\H,0,1.
 6342088669,2.6427299894,5.0291115891\N,0,-4.1733264585,-2.5713262973,2
 .5548426277\H,0,-3.5129777913,-2.3024682126,0.5319743723\C,0,-5.304248
 6721,-3.4165721844,2.1499687336\C,0,-4.6688687774,-1.2163580159,2.8175
 244541\H,0,-5.8022205593,-3.0535205108,1.222266521\H,0,-4.9663081461,-
 4.4510349174,1.9869680482\H,0,-6.0531184843,-3.4185833794,2.9597206044
 \H,0,-5.155091192,-0.7452951013,1.9330686368\H,0,-5.4245732213,-1.2695
 056917,3.619232913\H,0,-3.8536252399,-0.5664890148,3.1712154943\C,0,-1
 .5323010423,-6.6305949053,1.0184514483\C,0,-1.7641005508,-6.123934952,
 2.3083548295\C,0,-2.291719968,-4.8369275109,2.479089738\C,0,-2.5834546
 695,-4.0335473585,1.3614976095\C,0,-2.3773677715,-4.5588095861,0.07627
 95575\C,0,-1.8522454643,-5.8467938849,-0.0996394999\H,0,-1.1206808056,
 -7.6365729445,0.8880545326\H,0,-2.5118754294,-4.4543112285,3.480401293
 6\H,0,-2.6430639897,-3.9602833286,-0.7982541999\C,0,-4.2906908406,3.44
 55079705,3.001465232\F,0,-3.3956632353,3.5717177761,4.0206403244\F,0,-
 5.1177227599,4.5204713135,3.0513124758\F,0,-5.0337302361,2.3319709405,
 3.2608914813\C,0,-2.3728723384,5.5720681325,-1.1495936436\F,0,-3.46477
 29697,5.8619788433,-1.9072348115\F,0,-2.1226610107,6.6626264342,-0.372
 2866366\F,0,-1.3214708734,5.4064942546,-1.98770272\C,0,-6.9931563608,-
 0.665673445,-1.0188616244\F,0,-7.1902456893,0.6760289796,-0.946788248\
 F,0,-7.909094908,-1.1824267671,-1.8745689147\F,0,-7.2681331464,-1.1711
 802078,0.2237935708\C,0,-3.6911489628,-3.4451400278,-3.649390713\F,0,-
 3.4779154686,-4.6262641213,-2.9859720978\F,0,-4.717859729,-3.656161227
 6,-4.5100807549\F,0,-2.5735650216,-3.1919916727,-4.3721679753\C,0,5.01
 48564211,-4.0927572498,-2.2133621814\F,0,5.8727506704,-4.522986199,-3.
 171759671\F,0,5.6055453674,-4.3352288691,-1.002642348\F,0,3.8990720907
 ,-4.8684320329,-2.2666589438\C,0,6.1333762703,0.5428147437,-3.87200328
 28\F,0,5.6850358084,0.6940927255,-5.1438531197\F,0,6.172192657,1.77827
 18586,-3.303313286\F,0,7.4115037715,0.0788183535,-3.9433064655\C,0,5.6
 270789131,2.9008452276,1.4180023643\F,0,6.4704637815,2.3141256651,0.53
 0686229\F,0,5.9949637479,4.1983906989,1.560546822\F,0,5.8216111745,2.2
 885966381,2.6238164092\C,0,0.8563525121,4.5867057525,1.3732020804\F,0,
 1.3307010381,5.5191451352,2.2357271546\F,0,0.3877278215,5.2322941016,0
 .2748653667\F,0,-0.2144513638,3.9780202632,1.9686819007\H,0,-1.5400011
 183,-6.7392764543,3.186201245\H,0,-1.707014008,-6.2358427997,-1.112688
 7216\H,0,0.0723889432,-4.3835781313,1.1965925581\H,0,1.7054467336,-3.4
 24594819,3.1314390684\\Version=ES64L-G09RevE.01\State=1-A\HF=-6669.049
 7255\RMSD=3.886e-09\Dipole=0.3431201,-2.0656971,4.2135392\Quadrupole=-
 1.9973638,9.8877403,-7.8903765,5.8617117,5.0488298,2.7899241\PG=C01 [X
 (C60H42Cl2F24Fe1N2P2Pd1)]\\@


 WE STILL HAVE JUDGEMENT HERE,
 THAT WE TEACH BUT BLOODY INSTRUCTIONS,
 WHICH, BEING TAUGHT,
 RETURN TO PLAGUE THE INVENTOR.
           MACBETH ACT I, SCENE VII
 Job cpu time:       0 days 19 hours 26 minutes 30.0 seconds.
 File lengths (MBytes):  RWF=   5064 Int=      0 D2E=      0 Chk=    696 Scr=      1
 Normal termination of Gaussian 09 at Thu Dec  2 17:05:28 2021.
