 Entering Gaussian System, Link 0=g09
 Input=M003_1_1_SPE_NoPd.com
 Output=M003_1_1_SPE_NoPd.log
 Initial command:
 /gstore/apps/gaussian/g09.e01-foss-2017a/g09/l1.exe "/local/22791163/Gau-4082.inp" -scrdir="/local/22791163/"
 Entering Link 1 = /gstore/apps/gaussian/g09.e01-foss-2017a/g09/l1.exe PID=      4083.
  
 Copyright (c) 1988,1990,1992,1993,1995,1998,2003,2009,2015,
            Gaussian, Inc.  All Rights Reserved.
  
 This is part of the Gaussian(R) 09 program.  It is based on
 the Gaussian(R) 03 system (copyright 2003, Gaussian, Inc.),
 the Gaussian(R) 98 system (copyright 1998, Gaussian, Inc.),
 the Gaussian(R) 94 system (copyright 1995, Gaussian, Inc.),
 the Gaussian 92(TM) system (copyright 1992, Gaussian, Inc.),
 the Gaussian 90(TM) system (copyright 1990, Gaussian, Inc.),
 the Gaussian 88(TM) system (copyright 1988, Gaussian, Inc.),
 the Gaussian 86(TM) system (copyright 1986, Carnegie Mellon
 University), and the Gaussian 82(TM) system (copyright 1983,
 Carnegie Mellon University). Gaussian is a federally registered
 trademark of Gaussian, Inc.
  
 This software contains proprietary and confidential information,
 including trade secrets, belonging to Gaussian, Inc.
  
 This software is provided under written license and may be
 used, copied, transmitted, or stored only in accord with that
 written license.
  
 The following legend is applicable only to US Government
 contracts under FAR:
  
                    RESTRICTED RIGHTS LEGEND
  
 Use, reproduction and disclosure by the US Government is
 subject to restrictions as set forth in subparagraphs (a)
 and (c) of the Commercial Computer Software - Restricted
 Rights clause in FAR 52.227-19.
  
 Gaussian, Inc.
 340 Quinnipiac St., Bldg. 40, Wallingford CT 06492
  
  
 ---------------------------------------------------------------
 Warning -- This program may not be used in any manner that
 competes with the business of Gaussian, Inc. or will provide
 assistance to any competitor of Gaussian, Inc.  The licensee
 of this program is prohibited from giving any competitor of
 Gaussian, Inc. access to this program.  By using this program,
 the user acknowledges that Gaussian, Inc. is engaged in the
 business of creating and licensing software in the field of
 computational chemistry and represents and warrants to the
 licensee that it is not a competitor of Gaussian, Inc. and that
 it will not use this program in any manner prohibited above.
 ---------------------------------------------------------------
  

 Cite this work as:
 Gaussian 09, Revision E.01,
 M. J. Frisch, G. W. Trucks, H. B. Schlegel, G. E. Scuseria, 
 M. A. Robb, J. R. Cheeseman, G. Scalmani, V. Barone, B. Mennucci, 
 G. A. Petersson, H. Nakatsuji, M. Caricato, X. Li, H. P. Hratchian, 
 A. F. Izmaylov, J. Bloino, G. Zheng, J. L. Sonnenberg, M. Hada, 
 M. Ehara, K. Toyota, R. Fukuda, J. Hasegawa, M. Ishida, T. Nakajima, 
 Y. Honda, O. Kitao, H. Nakai, T. Vreven, J. A. Montgomery, Jr., 
 J. E. Peralta, F. Ogliaro, M. Bearpark, J. J. Heyd, E. Brothers, 
 K. N. Kudin, V. N. Staroverov, T. Keith, R. Kobayashi, J. Normand, 
 K. Raghavachari, A. Rendell, J. C. Burant, S. S. Iyengar, J. Tomasi, 
 M. Cossi, N. Rega, J. M. Millam, M. Klene, J. E. Knox, J. B. Cross, 
 V. Bakken, C. Adamo, J. Jaramillo, R. Gomperts, R. E. Stratmann, 
 O. Yazyev, A. J. Austin, R. Cammi, C. Pomelli, J. W. Ochterski, 
 R. L. Martin, K. Morokuma, V. G. Zakrzewski, G. A. Voth, 
 P. Salvador, J. J. Dannenberg, S. Dapprich, A. D. Daniels, 
 O. Farkas, J. B. Foresman, J. V. Ortiz, J. Cioslowski, 
 and D. J. Fox, Gaussian, Inc., Wallingford CT, 2013.
 
 ******************************************
 Gaussian 09:  ES64L-G09RevE.01 30-Nov-2015
                 1-Dec-2021 
 ******************************************
 %nprocs=14
 Will use up to   14 processors via shared memory.
 %mem=128GB
 %chk=M003_1_1_SPE_NoPd.chk
 ----------------------------------------------------------------------
 # PBE1PBE gen pseudo=read int=(grid=ultrafine) empiricaldispersion=GD3
 BJ nmr=giao
 ----------------------------------------------------------------------
 1/38=1/1;
 2/12=2,17=6,18=5,40=1/2;
 3/5=7,11=2,16=1,17=8,25=1,30=1,74=-13,75=-5,124=41/1,2,8,3;
 4//1;
 5/5=2,38=5/2;
 8/6=1,10=90,11=11/1;
 10/13=100,45=16/2;
 6/7=2,8=2,9=2,10=2,28=1/1;
 99/9=1/99;
 --------------
 M003_1_1 title
 --------------
 Symbolic Z-matrix:
 Charge =  0 Multiplicity = 1
 Fe                   -0.02076  -1.51944   1.69199 
 P                     1.79684  -0.09406  -0.772 
 P                    -1.7813    0.29626  -0.54041 
 C                     1.5041   -1.43709   0.41351 
 C                     0.57901  -2.48507   0.01696 
 C                     0.49376  -3.43767   1.07707 
 C                     1.33956  -2.9935    2.13661 
 C                     1.99303  -1.7656    1.75217 
 C                    -1.53213  -0.30343   1.17499 
 C                    -2.05211  -1.41843   1.9684 
 C                    -1.36987  -1.3769    3.23725 
 C                    -0.47317  -0.26671   3.26244 
 C                    -0.56086   0.39688   1.99967 
 C                     3.35691  -0.61979  -1.58895 
 C                     4.19119   0.32547  -2.2116 
 C                     5.38812  -0.08864  -2.80972 
 C                     5.7594   -1.43914  -2.80285 
 C                     4.91748  -2.37816  -2.19387 
 C                     3.71622  -1.97521  -1.59571 
 C                     2.28827   1.48347   0.04782 
 C                     3.55686   1.67007   0.63085 
 C                     3.90007   2.9263    1.15098 
 C                     2.9924    3.99641   1.10971 
 C                     1.73842   3.80774   0.52311 
 C                     1.3949    2.56331  -0.02484 
 C                    -2.4447    1.98486  -0.18355 
 C                    -3.11315   2.20833   1.03146 
 C                    -3.64582   3.47108   1.32499 
 C                    -3.49852   4.52613   0.41965 
 C                    -2.82332   4.30297  -0.78937 
 C                    -2.30131   3.04206  -1.10173 
 C                    -3.22423  -0.629    -1.20723 
 C                    -4.54206  -0.25845  -0.90631 
 C                    -5.61175  -1.02043  -1.39912 
 C                    -5.37745  -2.14596  -2.19768 
 C                    -4.05826  -2.49413  -2.52 
 C                    -2.98428  -1.73624  -2.03676 
 H                     0.02295  -2.50017  -0.92187 
 H                     0.01552   1.27036   1.6953 
 H                     3.91804   1.38211  -2.22945 
 H                     6.69845  -1.75459  -3.26459 
 H                     3.07121  -2.72321  -1.13008 
 H                     4.26133   0.83082   0.67245 
 H                     3.27208   4.97404   1.50888 
 H                     0.43758   2.43722  -0.54267 
 H                    -3.22422   1.40012   1.75761 
 H                    -3.89903   5.5157    0.65489 
 H                    -1.79828   2.87243  -2.05852 
 H                    -4.7473    0.6255   -0.29644 
 H                    -6.21276  -2.73849  -2.57624 
 H                    -1.95929  -1.98957  -2.32397 
 C                     3.04149  -1.01566   2.54553 
 H                     0.21825  -0.02216   4.06884 
 H                    -1.51048  -2.10268   4.0365 
 C                    -3.21294  -2.36854   1.70053 
 H                     2.82742   0.06414   2.43043 
 N                     4.38161  -1.19608   1.91618 
 C                     5.43607  -0.53247   2.68784 
 C                     4.78124  -2.5699    1.61023 
 H                     6.33804  -0.44202   2.05882 
 H                     5.11544   0.47775   2.98307 
 H                     5.70723  -1.08499   3.61413 
 H                     5.62754  -2.54672   0.904 
 H                     5.10743  -3.14486   2.50574 
 H                     3.95639  -3.11426   1.12651 
 C                     2.96234  -1.651     6.85818 
 C                     3.25257  -2.72747   6.00791 
 C                     3.26896  -2.5492    4.61736 
 C                     2.99132  -1.28891   4.04866 
 C                     2.73309  -0.21203   4.91854 
 C                     2.70713  -0.387     6.30857 
 H                     2.94714  -1.79445   7.94318 
 H                     3.47059  -3.71473   6.42843 
 H                     3.50446  -3.40153   3.97427 
 H                     2.56139   0.78507   4.49351 
 H                     2.49683   0.46612   6.96183 
 N                    -4.22413  -2.20615   2.77742 
 H                    -3.64953  -2.1096    0.7145 
 C                    -5.40157  -3.03866   2.49607 
 C                    -4.65811  -0.81437   2.93372 
 H                    -5.92478  -2.74102   1.55928 
 H                    -5.10878  -4.09627   2.41549 
 H                    -6.1142   -2.93762   3.33175 
 H                    -5.1472   -0.39981   2.0222 
 H                    -5.39303  -0.76467   3.7545 
 H                    -3.80749  -0.17233   3.21 
 C                    -1.84435  -6.48722   1.40869 
 C                    -2.21187  -5.77498   0.25796 
 C                    -2.66978  -4.45456   0.37006 
 C                    -2.75949  -3.82415   1.62085 
 C                    -2.41752  -4.55414   2.77405 
 C                    -1.9577   -5.87356   2.66764 
 H                    -1.48447  -7.51805   1.32923 
 H                    -2.95342  -3.90548  -0.53 
 H                    -2.54582  -4.08972   3.75649 
 C                    -4.31405   3.67722   2.66233 
 F                    -5.04843   2.58348   3.01893 
 F                    -3.39415   3.87291   3.64746 
 F                    -5.14269   4.75135   2.65764 
 C                    -2.67751   5.45777  -1.75495 
 F                    -3.88083   5.78717  -2.30042 
 F                    -2.21764   6.56721  -1.10951 
 F                    -1.82455   5.17787  -2.76632 
 C                    -7.01561  -0.63477  -1.00111 
 F                    -7.95244  -1.24799  -1.76555 
 F                    -7.26543  -0.97789   0.30112 
 F                    -7.20525   0.70679  -1.09311 
 C                    -3.77016  -3.66685  -3.42784 
 F                    -2.73793  -4.42099  -2.93331 
 F                    -4.84594  -4.48481  -3.55801 
 F                    -3.40265  -3.26102  -4.66621 
 C                     6.2518    0.92766  -3.51894 
 F                     7.55992   0.54896  -3.52843 
 F                     5.86773   1.08942  -4.81074 
 F                     6.17829   2.14624  -2.91716 
 C                     5.36073  -3.8162   -2.10162 
 F                     4.32609  -4.65396  -1.82656 
 F                     5.94916  -4.23732  -3.25024 
 F                     6.28377  -3.97968  -1.10313 
 C                     5.24554   3.13341   1.80579 
 F                     5.6696    4.4168    1.68997 
 F                     5.18073   2.85528   3.14555 
 F                     6.19751   2.3262    1.27326 
 C                     0.72057   4.92188   0.46261 
 F                     0.27208   5.10226  -0.80724 
 F                    -0.36436   4.61658   1.23391 
 F                     1.21984   6.10156   0.90459 
 H                    -2.14963  -6.23931  -0.73157 
 H                    -1.69451  -6.43048   3.57323 
 H                    -0.1581   -4.3085    1.10115 
 H                     1.41934  -3.46075   3.11666 
 
 Stoichiometry    C60H42F24FeN2P2
 Framework group  C1[X(C60H42F24FeN2P2)]
 Deg. of freedom   387
 Full point group                 C1      NOp   1
 Largest Abelian subgroup         C1      NOp   1
 Largest concise Abelian subgroup C1      NOp   1
                         Standard orientation:                         
 ---------------------------------------------------------------------
 Center     Atomic      Atomic             Coordinates (Angstroms)
 Number     Number       Type             X           Y           Z
 ---------------------------------------------------------------------
      1         26           0       -0.055656   -1.411065    1.417674
      2         15           0        1.774226   -0.078308   -1.088700
      3         15           0       -1.804830    0.321055   -0.888848
      4          6           0        1.475321   -1.376439    0.144329
      5          6           0        0.551734   -2.438199   -0.217552
      6          6           0        0.461064   -3.350857    0.876700
      7          6           0        1.301958   -2.867919    1.923095
      8          6           0        1.957731   -1.655234    1.496566
      9          6           0       -1.564075   -0.214729    0.848756
     10          6           0       -2.088266   -1.299475    1.680424
     11          6           0       -1.412077   -1.211112    2.950122
     12          6           0       -0.515085   -0.100934    2.938463
     13          6           0       -0.596488    0.515450    1.651569
     14          6           0        3.337983   -0.634253   -1.878139
     15          6           0        4.175582    0.287118   -2.531371
     16          6           0        5.375203   -0.149104   -3.108008
     17          6           0        5.745923   -1.498502   -3.049339
     18          6           0        4.900755   -2.414144   -2.410032
     19          6           0        3.696800   -1.989065   -1.832964
     20          6           0        2.262346    1.528407   -0.325529
     21          6           0        3.528204    1.736221    0.256253
     22          6           0        3.869402    3.010784    0.731130
     23          6           0        2.962352    4.078817    0.645909
     24          6           0        1.711115    3.868799    0.060703
     25          6           0        1.369741    2.604996   -0.442416
     26          6           0       -2.469274    2.021855   -0.597960
     27          6           0       -3.143439    2.290315    0.604723
     28          6           0       -3.677017    3.563180    0.848731
     29          6           0       -3.525001    4.583940   -0.094358
     30          6           0       -2.844119    4.316004   -1.291031
     31          6           0       -2.321106    3.044282   -1.553975
     32          6           0       -3.244908   -0.627976   -1.527833
     33          6           0       -4.564015   -0.246258   -1.247165
     34          6           0       -5.631636   -1.025751   -1.716518
     35          6           0       -5.393955   -2.180137   -2.471714
     36          6           0       -4.073370   -2.540285   -2.774600
     37          6           0       -3.001427   -1.765231   -2.314631
     38          1           0        0.000162   -2.487948   -1.157826
     39          1           0       -0.018330    1.376934    1.317819
     40          1           0        3.902930    1.342431   -2.589656
     41          1           0        6.687049   -1.831029   -3.494584
     42          1           0        3.049288   -2.719174   -1.343048
     43          1           0        4.232150    0.898945    0.332279
     44          1           0        3.240496    5.070497    1.009924
     45          1           0        0.414858    2.460013   -0.959788
     46          1           0       -3.258284    1.509581    1.359771
     47          1           0       -3.926246    5.581625    0.102146
     48          1           0       -1.813573    2.839231   -2.501406
     49          1           0       -4.771827    0.659714   -0.671443
     50          1           0       -6.227668   -2.786114   -2.832059
     51          1           0       -1.975169   -2.029230   -2.587350
     52          6           0        3.002671   -0.876640    2.266615
     53          1           0        0.172572    0.173178    3.738550
     54          1           0       -1.556781   -1.906752    3.775020
     55          6           0       -3.248165   -2.258609    1.442378
     56          1           0        2.789569    0.198199    2.110575
     57          7           0        4.345711   -1.080518    1.650795
     58          6           0        5.396732   -0.388998    2.402387
     59          6           0        4.746278   -2.464814    1.397862
     60          1           0        6.301728   -0.322096    1.774772
     61          1           0        5.075078    0.631524    2.658460
     62          1           0        5.663250   -0.906887    3.349788
     63          1           0        5.595949   -2.467980    0.695317
     64          1           0        5.067968   -3.006279    2.315600
     65          1           0        3.923538   -3.026547    0.930689
     66          6           0        2.902691   -1.351784    6.599412
     67          6           0        3.196565   -2.459068    5.790991
     68          6           0        3.219664   -2.332428    4.394884
     69          6           0        2.945225   -1.094017    3.778573
     70          6           0        2.683252    0.014397    4.606723
     71          6           0        2.650584   -0.108958    6.002140
     72          1           0        2.882249   -1.454938    7.688886
     73          1           0        3.412193   -3.430120    6.248830
     74          1           0        3.457901   -3.208042    3.784946
     75          1           0        2.513964    0.995106    4.144232
     76          1           0        2.437500    0.767823    6.622337
     77          7           0       -4.264421   -2.056237    2.507665
     78          1           0       -3.679943   -2.036287    0.445360
     79          6           0       -5.440831   -2.898357    2.251716
     80          6           0       -4.698616   -0.659531    2.610225
     81          1           0       -5.959441   -2.635512    1.302045
     82          1           0       -5.148056   -3.958283    2.211759
     83          1           0       -6.157404   -2.766289    3.079659
     84          1           0       -5.183193   -0.278920    1.681648
     85          1           0       -5.437430   -0.579314    3.425080
     86          1           0       -3.849076   -0.007875    2.866600
     87          6           0       -1.879771   -6.385553    1.309855
     88          6           0       -2.241525   -5.716358    0.131780
     89          6           0       -2.699451   -4.392599    0.192706
     90          6           0       -2.794900   -3.716269    1.418844
     91          6           0       -2.458712   -4.403108    2.599912
     92          6           0       -1.998896   -5.725660    2.544648
     93          1           0       -1.519908   -7.418698    1.270351
     94          1           0       -2.978589   -3.877178   -0.728419
     95          1           0       -2.591531   -3.902595    3.563851
     96          6           0       -4.351554    3.818852    2.174304
     97          9           0       -5.088038    2.739214    2.567656
     98          9           0       -3.436288    4.050712    3.155895
     99          9           0       -5.179751    4.892234    2.125861
    100          6           0       -2.693254    5.434217   -2.298012
    101          9           0       -3.893828    5.743435   -2.861069
    102          9           0       -2.236053    6.566713   -1.691919
    103          9           0       -1.835581    5.116874   -3.294235
    104          6           0       -7.037230   -0.625334   -1.339796
    105          9           0       -7.970634   -1.266254   -2.085474
    106          9           0       -7.293396   -0.919926   -0.026955
    107          9           0       -7.225915    0.711938   -1.482326
    108          6           0       -3.781389   -3.745879   -3.636985
    109          9           0       -2.751816   -4.481401   -3.109934
    110          9           0       -4.856843   -4.567882   -3.741923
    111          9           0       -3.407813   -3.386280   -4.887771
    112          6           0        6.242647    0.840054   -3.850242
    113          9           0        7.550647    0.460988   -3.839437
    114          9           0        5.864811    0.953933   -5.148969
    115          9           0        6.166732    2.080101   -3.294370
    116          6           0        5.343006   -3.847875   -2.262460
    117          9           0        4.306744   -4.674655   -1.961512
    118          9           0        5.936756   -4.311370   -3.391864
    119          9           0        6.261210   -3.974447   -1.254198
    120          6           0        5.211809    3.241732    1.384249
    121          9           0        5.636914    4.519864    1.223007
    122          9           0        5.140502    3.013432    2.733072
    123          9           0        6.166006    2.415158    0.886551
    124          6           0        0.693994    4.980142   -0.045887
    125          9           0        0.251636    5.113451   -1.323681
    126          9           0       -0.394728    4.703850    0.730988
    127          9           0        1.191591    6.175283    0.354477
    128          1           0       -2.174734   -6.217038   -0.839558
    129          1           0       -1.740250   -6.248709    3.471495
    130          1           0       -0.191241   -4.220067    0.929900
    131          1           0        1.376878   -3.298565    2.920145
 ---------------------------------------------------------------------
 Rotational constants (GHZ):      0.0227663      0.0165177      0.0140073
 General basis read from cards:  (5D, 7F)
 ======================================================================================================
                                       Pseudopotential Parameters
 ======================================================================================================
  Center     Atomic      Valence      Angular      Power
  Number     Number     Electrons     Momentum     of R      Exponent        Coefficient   SO-Coeffient
 ======================================================================================================
    1         26           16
                                      F and up 
                                                     2        1.0000000        0.00000000    0.00000000
                                      S - F
                                                     2       20.9300000      253.74958800    0.00000000
                                                     2        9.4450000       37.92284500    0.00000000
                                      P - F
                                                     2       21.7600000      161.03681200    0.00000000
                                                     2        9.1780000       27.65129800    0.00000000
                                      D - F
                                                     2       25.9000000      -24.43127600    0.00000000
                                                     2        8.8350000       -1.43425100    0.00000000
    2         15
                                   No pseudopotential on this center.
    3         15
                                   No pseudopotential on this center.
    4          6
                                   No pseudopotential on this center.
    5          6
                                   No pseudopotential on this center.
    6          6
                                   No pseudopotential on this center.
    7          6
                                   No pseudopotential on this center.
    8          6
                                   No pseudopotential on this center.
    9          6
                                   No pseudopotential on this center.
   10          6
                                   No pseudopotential on this center.
   11          6
                                   No pseudopotential on this center.
   12          6
                                   No pseudopotential on this center.
   13          6
                                   No pseudopotential on this center.
   14          6
                                   No pseudopotential on this center.
   15          6
                                   No pseudopotential on this center.
   16          6
                                   No pseudopotential on this center.
   17          6
                                   No pseudopotential on this center.
   18          6
                                   No pseudopotential on this center.
   19          6
                                   No pseudopotential on this center.
   20          6
                                   No pseudopotential on this center.
   21          6
                                   No pseudopotential on this center.
   22          6
                                   No pseudopotential on this center.
   23          6
                                   No pseudopotential on this center.
   24          6
                                   No pseudopotential on this center.
   25          6
                                   No pseudopotential on this center.
   26          6
                                   No pseudopotential on this center.
   27          6
                                   No pseudopotential on this center.
   28          6
                                   No pseudopotential on this center.
   29          6
                                   No pseudopotential on this center.
   30          6
                                   No pseudopotential on this center.
   31          6
                                   No pseudopotential on this center.
   32          6
                                   No pseudopotential on this center.
   33          6
                                   No pseudopotential on this center.
   34          6
                                   No pseudopotential on this center.
   35          6
                                   No pseudopotential on this center.
   36          6
                                   No pseudopotential on this center.
   37          6
                                   No pseudopotential on this center.
   38          1
                                   No pseudopotential on this center.
   39          1
                                   No pseudopotential on this center.
   40          1
                                   No pseudopotential on this center.
   41          1
                                   No pseudopotential on this center.
   42          1
                                   No pseudopotential on this center.
   43          1
                                   No pseudopotential on this center.
   44          1
                                   No pseudopotential on this center.
   45          1
                                   No pseudopotential on this center.
   46          1
                                   No pseudopotential on this center.
   47          1
                                   No pseudopotential on this center.
   48          1
                                   No pseudopotential on this center.
   49          1
                                   No pseudopotential on this center.
   50          1
                                   No pseudopotential on this center.
   51          1
                                   No pseudopotential on this center.
   52          6
                                   No pseudopotential on this center.
   53          1
                                   No pseudopotential on this center.
   54          1
                                   No pseudopotential on this center.
   55          6
                                   No pseudopotential on this center.
   56          1
                                   No pseudopotential on this center.
   57          7
                                   No pseudopotential on this center.
   58          6
                                   No pseudopotential on this center.
   59          6
                                   No pseudopotential on this center.
   60          1
                                   No pseudopotential on this center.
   61          1
                                   No pseudopotential on this center.
   62          1
                                   No pseudopotential on this center.
   63          1
                                   No pseudopotential on this center.
   64          1
                                   No pseudopotential on this center.
   65          1
                                   No pseudopotential on this center.
   66          6
                                   No pseudopotential on this center.
   67          6
                                   No pseudopotential on this center.
   68          6
                                   No pseudopotential on this center.
   69          6
                                   No pseudopotential on this center.
   70          6
                                   No pseudopotential on this center.
   71          6
                                   No pseudopotential on this center.
   72          1
                                   No pseudopotential on this center.
   73          1
                                   No pseudopotential on this center.
   74          1
                                   No pseudopotential on this center.
   75          1
                                   No pseudopotential on this center.
   76          1
                                   No pseudopotential on this center.
   77          7
                                   No pseudopotential on this center.
   78          1
                                   No pseudopotential on this center.
   79          6
                                   No pseudopotential on this center.
   80          6
                                   No pseudopotential on this center.
   81          1
                                   No pseudopotential on this center.
   82          1
                                   No pseudopotential on this center.
   83          1
                                   No pseudopotential on this center.
   84          1
                                   No pseudopotential on this center.
   85          1
                                   No pseudopotential on this center.
   86          1
                                   No pseudopotential on this center.
   87          6
                                   No pseudopotential on this center.
   88          6
                                   No pseudopotential on this center.
   89          6
                                   No pseudopotential on this center.
   90          6
                                   No pseudopotential on this center.
   91          6
                                   No pseudopotential on this center.
   92          6
                                   No pseudopotential on this center.
   93          1
                                   No pseudopotential on this center.
   94          1
                                   No pseudopotential on this center.
   95          1
                                   No pseudopotential on this center.
   96          6
                                   No pseudopotential on this center.
   97          9
                                   No pseudopotential on this center.
   98          9
                                   No pseudopotential on this center.
   99          9
                                   No pseudopotential on this center.
  100          6
                                   No pseudopotential on this center.
  101          9
                                   No pseudopotential on this center.
  102          9
                                   No pseudopotential on this center.
  103          9
                                   No pseudopotential on this center.
  104          6
                                   No pseudopotential on this center.
  105          9
                                   No pseudopotential on this center.
  106          9
                                   No pseudopotential on this center.
  107          9
                                   No pseudopotential on this center.
  108          6
                                   No pseudopotential on this center.
  109          9
                                   No pseudopotential on this center.
  110          9
                                   No pseudopotential on this center.
  111          9
                                   No pseudopotential on this center.
  112          6
                                   No pseudopotential on this center.
  113          9
                                   No pseudopotential on this center.
  114          9
                                   No pseudopotential on this center.
  115          9
                                   No pseudopotential on this center.
  116          6
                                   No pseudopotential on this center.
  117          9
                                   No pseudopotential on this center.
  118          9
                                   No pseudopotential on this center.
  119          9
                                   No pseudopotential on this center.
  120          6
                                   No pseudopotential on this center.
  121          9
                                   No pseudopotential on this center.
  122          9
                                   No pseudopotential on this center.
  123          9
                                   No pseudopotential on this center.
  124          6
                                   No pseudopotential on this center.
  125          9
                                   No pseudopotential on this center.
  126          9
                                   No pseudopotential on this center.
  127          9
                                   No pseudopotential on this center.
  128          1
                                   No pseudopotential on this center.
  129          1
                                   No pseudopotential on this center.
  130          1
                                   No pseudopotential on this center.
  131          1
                                   No pseudopotential on this center.
 ======================================================================================================
 There are  3481 symmetry adapted cartesian basis functions of A   symmetry.
 There are  3035 symmetry adapted basis functions of A   symmetry.
  3035 basis functions,  4935 primitive gaussians,  3481 cartesian basis functions
   339 alpha electrons      339 beta electrons
       nuclear repulsion energy     20110.0160327733 Hartrees.
 NAtoms=  131 NActive=  131 NUniq=  131 SFac= 1.00D+00 NAtFMM=   60 NAOKFM=T Big=T
 Integral buffers will be    131072 words long.
 Raffenetti 2 integral format.
 Two-electron integral symmetry is turned on.
 Nuclear repulsion after empirical dispersion term =    20109.7926942638 Hartrees.
 One-electron integrals computed using PRISM.
   1 Symmetry operations used in ECPInt.
 ECPInt:  NShTT=  667590 NPrTT= 2100277 LenC2=  412416 LenP2D=  799202.
 LDataN:  DoStor=T MaxTD1= 6 Len=  172
 NBasis=  3035 RedAO= T EigKep=  3.53D-06  NBF=  3035
 NBsUse=  3035 1.00D-06 EigRej= -1.00D+00 NBFU=  3035
 ExpMin= 1.00D-02 ExpMax= 5.24D+04 ExpMxC= 1.79D+03 IAcc=3 IRadAn=         5 AccDes= 0.00D+00
 Harris functional with IExCor= 1009 and IRadAn=       5 diagonalized for initial guess.
 HarFok:  IExCor= 1009 AccDes= 0.00D+00 IRadAn=         5 IDoV= 1 UseB2=F ITyADJ=14
 ICtDFT=  3500011 ScaDFX=  1.000000  1.000000  1.000000  1.000000
 FoFCou: FMM=F IPFlag=           0 FMFlag=      100000 FMFlg1=        2001
         NFxFlg=           0 DoJE=T BraDBF=F KetDBF=T FulRan=T
         wScrn=  0.000000 ICntrl=     500 IOpCl=  0 I1Cent=   200000004 NGrid=           0
         NMat0=    1 NMatS0=      1 NMatT0=    0 NMatD0=    1 NMtDS0=    0 NMtDT0=    0
 Petite list used in FoFCou.
 Requested convergence on RMS density matrix=1.00D-08 within 128 cycles.
 Requested convergence on MAX density matrix=1.00D-06.
 Requested convergence on             energy=1.00D-06.
 No special actions if energy rises.
 EnCoef did     6 forward-backward iterations
 Restarting incremental Fock formation.
 SCF Done:  E(RPBE1PBE) =  -5620.86699300     A.U. after   27 cycles
            NFock= 27  Conv=0.29D-09     -V/T= 2.0138
 DoSCS=F DFT=T ScalE2(SS,OS)=  1.000000  1.000000
 Range of M.O.s used for correlation:     1  3035
 NBasis=  3035 NAE=   339 NBE=   339 NFC=     0 NFV=     0
 NROrb=   3035 NOA=   339 NOB=   339 NVA=  2696 NVB=  2696

 **** Warning!!: The largest alpha MO coefficient is  0.43163507D+02

          Differentiating once with respect to magnetic field using GIAOs.
          Electric field/nuclear overlap derivatives assumed to be zero.
 FoFCou: FMM=F IPFlag=           0 FMFlag=      100000 FMFlg1=        2001
         NFxFlg=           0 DoJE=F BraDBF=F KetDBF=T FulRan=T
         wScrn=  0.000000 ICntrl=    6100 IOpCl=  0 I1Cent=           7 NGrid=         131
         NMat0=    1 NMatS0=      1 NMatT0=    0 NMatD0=    1 NMtDS0=    0 NMtDT0=    0
 Symmetry not used in FoFCou.
   1 Symmetry operations used in ECPInt.
 ECPInt:  NShTT=  667590 NPrTT= 2100277 LenC2=  667591 LenP2D= 2100277.
 LDataN:  DoStor=T MaxTD1= 7 Len=  274
 FoFJK:  IHMeth= 1 ICntrl=    6127 DoSepK=F KAlg= 0 I1Cent=   0 FoldK=F
 IRaf=         1 NMat=   1 IRICut=       1 DoRegI=T DoRafI=F ISym2E= 0.
          There are     3 degrees of freedom in the 1st order CPHF.  IDoFFX=0 NUNeed=     3.
      3 vectors produced by pass  0 Test12= 3.05D-11 3.33D-08 XBig12= 5.49D+02 2.75D+00.
 AX will form     3 AO Fock derivatives at one time.
      3 vectors produced by pass  1 Test12= 3.05D-11 3.33D-08 XBig12= 2.78D+00 3.55D-01.
      3 vectors produced by pass  2 Test12= 3.05D-11 3.33D-08 XBig12= 6.14D-02 6.84D-02.
      3 vectors produced by pass  3 Test12= 3.05D-11 3.33D-08 XBig12= 1.32D-03 1.07D-02.
      3 vectors produced by pass  4 Test12= 3.05D-11 3.33D-08 XBig12= 1.92D-05 1.59D-03.
      3 vectors produced by pass  5 Test12= 3.05D-11 3.33D-08 XBig12= 7.99D-07 2.14D-04.
      3 vectors produced by pass  6 Test12= 3.05D-11 3.33D-08 XBig12= 5.62D-09 1.47D-05.
      3 vectors produced by pass  7 Test12= 3.05D-11 3.33D-08 XBig12= 4.79D-11 1.73D-06.
      3 vectors produced by pass  8 Test12= 3.05D-11 3.33D-08 XBig12= 1.04D-12 3.30D-07.
 InvSVY:  IOpt=1 It=  1 EMax= 3.55D-15
 Solved reduced A of dimension    27 with     3 vectors.
 Calculating GIAO nuclear magnetic shielding tensors.
 SCF GIAO Magnetic shielding tensor (ppm):
      1  Fe   Isotropic = -6114.4410   Anisotropy =  7795.0262
   XX= -4214.0667   YX= -3344.9529   ZX= -1973.8614
   XY= -3272.5329   YY= -6383.8907   ZY=  1522.9993
   XZ= -1945.1178   YZ=  1513.5149   ZZ= -7745.3655
   Eigenvalues: -8814.3177 -8611.2484  -917.7568
      2  P    Isotropic =   297.8383   Anisotropy =    52.9047
   XX=   302.9111   YX=   -28.2252   ZX=   -21.6124
   XY=   -26.9968   YY=   290.7022   ZY=    33.0600
   XZ=     1.3056   YZ=    -6.4072   ZZ=   299.9017
   Eigenvalues:   267.9339   292.4729   333.1081
      3  P    Isotropic =   310.7350   Anisotropy =    35.4947
   XX=   299.5300   YX=    -7.4500   ZX=   -46.3386
   XY=   -27.3372   YY=   319.8317   ZY=    -4.3918
   XZ=    -6.6432   YZ=   -16.2364   ZZ=   312.8432
   Eigenvalues:   270.6704   327.1364   334.3981
      4  C    Isotropic =   111.5759   Anisotropy =    79.1529
   XX=   127.1605   YX=   -39.7164   ZX=    17.7726
   XY=   -36.9582   YY=   123.1895   ZY=    20.1536
   XZ=     5.3187   YZ=    25.9606   ZZ=    84.3776
   Eigenvalues:    60.5941   109.7890   164.3445
      5  C    Isotropic =    98.0553   Anisotropy =    78.1544
   XX=   126.8281   YX=   -23.7238   ZX=   -29.4371
   XY=   -24.9164   YY=   118.1215   ZY=   -19.7222
   XZ=   -33.0070   YZ=    -5.5997   ZZ=    49.2162
   Eigenvalues:    33.2941   110.7134   150.1582
      6  C    Isotropic =   102.2522   Anisotropy =   105.0541
   XX=   139.7076   YX=   -39.6836   ZX=   -28.2242
   XY=   -47.8431   YY=    67.8211   ZY=    11.8880
   XZ=   -29.2706   YZ=     4.2397   ZZ=    99.2277
   Eigenvalues:    46.5785    87.8897   172.2883
      7  C    Isotropic =   104.7631   Anisotropy =    87.6452
   XX=   131.2658   YX=   -10.4161   ZX=   -41.2941
   XY=   -10.9066   YY=    97.0583   ZY=    50.3135
   XZ=   -24.5285   YZ=    31.8155   ZZ=    85.9652
   Eigenvalues:    45.8815   105.2147   163.1933
      8  C    Isotropic =    92.4156   Anisotropy =    81.7830
   XX=    78.4199   YX=   -33.6753   ZX=   -35.0628
   XY=   -22.4725   YY=   108.7855   ZY=    26.3751
   XZ=   -25.4579   YZ=    16.9480   ZZ=    90.0415
   Eigenvalues:    51.8012    78.5080   146.9376
      9  C    Isotropic =   105.5568   Anisotropy =    83.7684
   XX=   108.9116   YX=   -12.5543   ZX=   -40.9829
   XY=   -17.1455   YY=   107.6556   ZY=    41.1022
   XZ=   -18.7379   YZ=    35.7147   ZZ=   100.1031
   Eigenvalues:    61.1711    94.0968   161.4024
     10  C    Isotropic =    81.3136   Anisotropy =    95.0613
   XX=    66.9469   YX=   -46.2927   ZX=   -15.0146
   XY=   -33.2680   YY=   105.2176   ZY=    28.2243
   XZ=    -7.3307   YZ=    34.1784   ZZ=    71.7763
   Eigenvalues:    39.4780    59.7750   144.6877
     11  C    Isotropic =   108.0654   Anisotropy =    93.5472
   XX=   128.9924   YX=   -44.3515   ZX=     7.9266
   XY=   -31.9525   YY=   130.6969   ZY=    15.0988
   XZ=     1.6078   YZ=    37.7439   ZZ=    64.5069
   Eigenvalues:    50.7469   103.0191   170.4302
     12  C    Isotropic =   105.9994   Anisotropy =    99.1229
   XX=   137.7437   YX=   -40.6296   ZX=   -22.0522
   XY=   -43.5612   YY=   112.9702   ZY=   -13.9931
   XZ=   -36.5855   YZ=    -8.9578   ZZ=    67.2843
   Eigenvalues:    45.2861   100.6308   172.0813
     13  C    Isotropic =   108.2821   Anisotropy =    81.3036
   XX=   138.9915   YX=   -36.3232   ZX=    -8.2039
   XY=   -42.3302   YY=    61.9889   ZY=    22.8835
   XZ=   -17.4479   YZ=     0.3858   ZZ=   123.8660
   Eigenvalues:    45.0211   117.3407   162.4845
     14  C    Isotropic =    30.2811   Anisotropy =   203.8775
   XX=    14.3089   YX=    25.1140   ZX=    92.3399
   XY=    19.2483   YY=   -28.7666   ZY=    22.0406
   XZ=    88.9064   YZ=    23.8625   ZZ=   105.3010
   Eigenvalues:   -45.4791   -29.8771   166.1994
     15  C    Isotropic =    50.0668   Anisotropy =   189.5336
   XX=    57.5677   YX=    21.0713   ZX=    60.3522
   XY=    39.5424   YY=   -45.3867   ZY=    21.0286
   XZ=    61.6672   YZ=    25.7551   ZZ=   138.0193
   Eigenvalues:   -53.9177    27.6955   176.4225
     16  C    Isotropic =    46.8623   Anisotropy =   161.2950
   XX=    29.6632   YX=   -21.5921   ZX=    71.7017
   XY=   -18.2937   YY=     1.4176   ZY=    41.2625
   XZ=    67.1405   YZ=    42.1215   ZZ=   109.5061
   Eigenvalues:   -44.6630    30.8577   154.3923
     17  C    Isotropic =    58.1135   Anisotropy =   183.2587
   XX=    16.0321   YX=    34.0374   ZX=    82.0741
   XY=    30.6059   YY=    28.5087   ZY=    16.5458
   XZ=    84.4760   YZ=    20.0238   ZZ=   129.7997
   Eigenvalues:   -34.7889    28.8435   180.2860
     18  C    Isotropic =    47.7987   Anisotropy =   160.7393
   XX=    54.2116   YX=    29.4087   ZX=    44.6942
   XY=    31.6343   YY=   -35.6116   ZY=    27.2904
   XZ=    50.0012   YZ=    19.7655   ZZ=   124.7963
   Eigenvalues:   -45.5059    33.9438   154.9583
     19  C    Isotropic =    48.7969   Anisotropy =   194.8572
   XX=    33.9594   YX=    -4.9489   ZX=    76.8577
   XY=   -24.9625   YY=    -8.6535   ZY=    47.6702
   XZ=    88.4074   YZ=    57.5042   ZZ=   121.0847
   Eigenvalues:   -55.3205    23.0094   178.7017
     20  C    Isotropic =    37.3264   Anisotropy =   202.4951
   XX=    22.6620   YX=     8.9896   ZX=   -68.2598
   XY=    11.3251   YY=   -33.1194   ZY=   -51.6404
   XZ=   -76.7000   YZ=   -48.5626   ZZ=   122.4366
   Eigenvalues:   -50.4027    -9.9412   172.3231
     21  C    Isotropic =    37.9447   Anisotropy =   210.1082
   XX=    -3.5097   YX=    47.8522   ZX=   -57.4889
   XY=    44.9918   YY=   -27.8419   ZY=   -39.5090
   XZ=   -65.5144   YZ=   -25.5076   ZZ=   145.1857
   Eigenvalues:   -64.5348     0.3521   178.0169
     22  C    Isotropic =    45.5349   Anisotropy =   162.7151
   XX=   -15.0706   YX=     4.7956   ZX=   -68.9177
   XY=     1.5408   YY=    35.8912   ZY=   -32.2839
   XZ=   -74.1489   YZ=   -26.3624   ZZ=   115.7840
   Eigenvalues:   -47.5877    30.1807   154.0116
     23  C    Isotropic =    54.3982   Anisotropy =   191.2796
   XX=    43.8923   YX=     3.4319   ZX=   -57.4546
   XY=     0.4426   YY=   -21.1101   ZY=   -52.7361
   XZ=   -63.0600   YZ=   -56.6661   ZZ=   140.4125
   Eigenvalues:   -41.5503    22.8271   181.9180
     24  C    Isotropic =    46.9236   Anisotropy =   160.1972
   XX=    21.1554   YX=    45.3589   ZX=   -45.9341
   XY=    52.6852   YY=    -5.7384   ZY=   -23.0649
   XZ=   -48.2494   YZ=   -23.2244   ZZ=   125.3538
   Eigenvalues:   -43.8438    30.8928   153.7217
     25  C    Isotropic =    38.1517   Anisotropy =   190.7081
   XX=   -18.4850   YX=    -0.9276   ZX=   -89.8424
   XY=     7.4194   YY=    21.4871   ZY=   -39.7409
   XZ=   -88.3309   YZ=   -35.3728   ZZ=   111.4529
   Eigenvalues:   -66.2041    15.3688   165.2904
     26  C    Isotropic =    36.2700   Anisotropy =   206.1577
   XX=   119.2209   YX=    51.2058   ZX=    81.6623
   XY=    47.9900   YY=   -30.3411   ZY=    19.0246
   XZ=    70.5844   YZ=    16.0163   ZZ=    19.9302
   Eigenvalues:   -46.1286   -18.7698   173.7084
     27  C    Isotropic =    37.4809   Anisotropy =   203.5686
   XX=   142.0944   YX=    10.7902   ZX=    60.6892
   XY=    37.4922   YY=   -21.7486   ZY=    48.8774
   XZ=    64.1278   YZ=    52.6447   ZZ=    -7.9032
   Eigenvalues:   -69.0641     8.3135   173.1933
     28  C    Isotropic =    44.9797   Anisotropy =   165.3434
   XX=   102.6830   YX=    33.2704   ZX=    87.2556
   XY=    36.9194   YY=    36.9249   ZY=     1.9372
   XZ=    74.6368   YZ=     5.3389   ZZ=    -4.6687
   Eigenvalues:   -50.3108    30.0413   155.2087
     29  C    Isotropic =    52.6288   Anisotropy =   194.7222
   XX=   134.6539   YX=    64.4292   ZX=    58.8202
   XY=    58.2337   YY=   -20.0290   ZY=     8.6403
   XZ=    63.4889   YZ=     8.0619   ZZ=    43.2615
   Eigenvalues:   -43.5798    19.0226   182.4436
     30  C    Isotropic =    43.7635   Anisotropy =   168.1032
   XX=   124.1846   YX=    21.5274   ZX=    51.2646
   XY=    23.5643   YY=    -5.8810   ZY=    49.4411
   XZ=    55.7751   YZ=    48.9236   ZZ=    12.9869
   Eigenvalues:   -48.4882    23.9464   155.8323
     31  C    Isotropic =    45.9165   Anisotropy =   189.9783
   XX=   119.7159   YX=    30.3464   ZX=    90.8107
   XY=    42.1674   YY=    27.9641   ZY=     6.5261
   XZ=    87.6150   YZ=    -5.2979   ZZ=    -9.9305
   Eigenvalues:   -58.4833    23.6641   172.5687
     32  C    Isotropic =    40.7371   Anisotropy =   205.3385
   XX=   -29.9485   YX=   -18.0407   ZX=    -9.1364
   XY=   -23.5706   YY=    37.1449   ZY=  -100.9846
   XZ=    -6.2564   YZ=   -86.3141   ZZ=   115.0148
   Eigenvalues:   -49.4104    -6.0078   177.6294
     33  C    Isotropic =    39.0338   Anisotropy =   207.4634
   XX=     1.9800   YX=    13.7310   ZX=    16.5258
   XY=     9.2494   YY=    14.1276   ZY=  -102.3936
   XZ=     4.7467   YZ=  -120.8020   ZZ=   100.9937
   Eigenvalues:   -65.7350     5.4937   177.3427
     34  C    Isotropic =    45.4509   Anisotropy =   164.4134
   XX=   -36.6741   YX=    18.7569   ZX=    24.6978
   XY=    15.2103   YY=    61.1151   ZY=   -61.3656
   XZ=    17.4984   YZ=   -65.2382   ZZ=   111.9117
   Eigenvalues:   -47.2162    28.5090   155.0598
     35  C    Isotropic =    55.3739   Anisotropy =   190.5970
   XX=   -11.9371   YX=   -30.8454   ZX=    -8.2475
   XY=   -33.4691   YY=    52.0001   ZY=   -84.4809
   XZ=    -3.7062   YZ=   -85.2008   ZZ=   126.0587
   Eigenvalues:   -38.6208    22.3039   182.4385
     36  C    Isotropic =    45.8404   Anisotropy =   162.7996
   XX=    25.8044   YX=     6.5107   ZX=    12.9764
   XY=     9.3241   YY=    17.9993   ZY=   -91.3278
   XZ=    17.0757   YZ=   -89.4496   ZZ=    93.7174
   Eigenvalues:   -45.2828    28.4305   154.3734
     37  C    Isotropic =    41.0787   Anisotropy =   191.1524
   XX=   -54.0017   YX=    13.2411   ZX=    24.3736
   XY=    20.8896   YY=    69.9093   ZY=   -68.6066
   XZ=    21.8412   YZ=   -86.1934   ZZ=   107.3284
   Eigenvalues:   -64.6680    19.3904   168.5136
     38  H    Isotropic =    27.0062   Anisotropy =     6.6279
   XX=    29.4149   YX=     3.8310   ZX=     0.2749
   XY=     1.1622   YY=    26.4661   ZY=    -0.4072
   XZ=     4.1302   YZ=     0.3005   ZZ=    25.1377
   Eigenvalues:    23.6850    25.9088    31.4248
     39  H    Isotropic =    27.9138   Anisotropy =     8.7219
   XX=    30.2767   YX=     1.0088   ZX=     0.5717
   XY=     4.2316   YY=    27.2114   ZY=    -2.3064
   XZ=    -4.1661   YZ=    -5.8481   ZZ=    26.2532
   Eigenvalues:    22.6025    27.4105    33.7284
     40  H    Isotropic =    23.9473   Anisotropy =    15.3793
   XX=    27.6357   YX=     0.6650   ZX=    -7.6470
   XY=     1.5781   YY=    18.3144   ZY=    -1.1381
   XZ=    -7.0694   YZ=     1.7055   ZZ=    25.8918
   Eigenvalues:    17.7261    19.9156    34.2002
     41  H    Isotropic =    23.5405   Anisotropy =     9.6277
   XX=    21.5206   YX=     1.5516   ZX=    -3.0664
   XY=     1.6636   YY=    28.7078   ZY=    -2.4107
   XZ=    -2.4791   YZ=    -2.2522   ZZ=    20.3930
   Eigenvalues:    18.0609    22.6016    29.9589
     42  H    Isotropic =    23.6146   Anisotropy =    17.8700
   XX=    27.4876   YX=    -5.2362   ZX=    -7.4038
   XY=    -6.8681   YY=    21.8987   ZY=     5.6400
   XZ=    -4.5802   YZ=     4.0103   ZZ=    21.4575
   Eigenvalues:    16.8406    18.4753    35.5280
     43  H    Isotropic =    22.2083   Anisotropy =    10.0241
   XX=    20.7490   YX=     6.3107   ZX=     3.6493
   XY=     4.5247   YY=    23.7033   ZY=     0.7378
   XZ=     1.7013   YZ=     1.7822   ZZ=    22.1725
   Eigenvalues:    16.2622    21.4717    28.8910
     44  H    Isotropic =    23.1197   Anisotropy =    11.0267
   XX=    28.6726   YX=    -2.2243   ZX=     3.3734
   XY=    -2.7040   YY=    22.5789   ZY=    -0.5680
   XZ=     3.3362   YZ=    -0.7385   ZZ=    18.1077
   Eigenvalues:    17.1317    21.7566    30.4709
     45  H    Isotropic =    22.2602   Anisotropy =     9.6005
   XX=    22.8131   YX=    -2.6000   ZX=    -1.6762
   XY=    -0.5004   YY=    28.1518   ZY=    -0.7893
   XZ=     1.7957   YZ=    -1.4204   ZZ=    15.8157
   Eigenvalues:    15.7167    22.4034    28.6606
     46  H    Isotropic =    22.9051   Anisotropy =    15.7191
   XX=    24.0184   YX=    -6.7708   ZX=    -0.1387
   XY=    -6.5248   YY=    26.8279   ZY=     2.1294
   XZ=    -4.7917   YZ=     4.8263   ZZ=    17.8691
   Eigenvalues:    16.6667    18.6641    33.3845
     47  H    Isotropic =    23.0194   Anisotropy =     9.0863
   XX=    21.3244   YX=    -0.1751   ZX=    -3.6104
   XY=     0.0708   YY=    21.8217   ZY=    -3.0345
   XZ=    -4.2699   YZ=    -2.8260   ZZ=    25.9122
   Eigenvalues:    18.2784    21.7028    29.0770
     48  H    Isotropic =    22.7033   Anisotropy =    12.2483
   XX=    19.5691   YX=    -0.5998   ZX=     1.0264
   XY=    -0.3720   YY=    29.6416   ZY=    -3.6030
   XZ=     0.6510   YZ=    -3.9051   ZZ=    18.8993
   Eigenvalues:    17.5062    19.7350    30.8689
     49  H    Isotropic =    23.3507   Anisotropy =    15.5530
   XX=    30.8251   YX=     6.7122   ZX=     3.0554
   XY=     3.0574   YY=    21.5784   ZY=    -0.3117
   XZ=     4.0475   YZ=     1.8346   ZZ=    17.6485
   Eigenvalues:    16.6885    19.6441    33.7193
     50  H    Isotropic =    23.0326   Anisotropy =     9.8626
   XX=    25.2129   YX=    -3.6093   ZX=    -0.9424
   XY=    -3.8375   YY=    23.0908   ZY=     4.1759
   XZ=    -1.4534   YZ=     4.4780   ZZ=    20.7941
   Eigenvalues:    17.1992    22.2910    29.6077
     51  H    Isotropic =    22.2409   Anisotropy =    11.6262
   XX=    20.0040   YX=     4.3333   ZX=     2.8287
   XY=     3.4315   YY=    23.7277   ZY=     3.4613
   XZ=     2.9416   YZ=     5.1261   ZZ=    22.9912
   Eigenvalues:    17.5499    19.1812    29.9917
     52  C    Isotropic =   116.0211   Anisotropy =    30.1885
   XX=   127.9829   YX=    -4.7081   ZX=    -8.1941
   XY=    -9.2079   YY=   103.8859   ZY=     5.5395
   XZ=   -12.6945   YZ=     3.0039   ZZ=   116.1945
   Eigenvalues:   101.8168   110.0997   136.1468
     53  H    Isotropic =    27.7509   Anisotropy =    10.7518
   XX=    31.2227   YX=    -1.4670   ZX=     6.0363
   XY=     1.4846   YY=    22.7370   ZY=     0.7434
   XZ=     3.0833   YZ=    -0.6095   ZZ=    29.2929
   Eigenvalues:    22.7361    25.5978    34.9187
     54  H    Isotropic =    27.5076   Anisotropy =     4.0120
   XX=    27.3251   YX=     3.3609   ZX=     3.2679
   XY=     2.0857   YY=    27.1560   ZY=    -2.0302
   XZ=     1.1010   YZ=    -3.0341   ZZ=    28.0418
   Eigenvalues:    22.5021    29.8385    30.1823
     55  C    Isotropic =   117.4074   Anisotropy =    41.8827
   XX=   124.8426   YX=    -8.1348   ZX=   -17.1469
   XY=   -16.7837   YY=   105.9646   ZY=     7.5571
   XZ=   -17.3712   YZ=     5.9744   ZZ=   121.4150
   Eigenvalues:    99.5345   107.3585   145.3292
     56  H    Isotropic =    27.2381   Anisotropy =     5.7059
   XX=    25.5573   YX=     0.9414   ZX=     0.9216
   XY=    -1.2726   YY=    29.0710   ZY=    -0.7438
   XZ=     1.1280   YZ=    -4.6354   ZZ=    27.0862
   Eigenvalues:    24.5859    26.0864    31.0421
     57  N    Isotropic =   202.8284   Anisotropy =    58.9417
   XX=   238.7903   YX=    19.3222   ZX=   -12.5179
   XY=    -0.5742   YY=   188.3839   ZY=    10.4305
   XZ=    -9.0435   YZ=    -3.0674   ZZ=   181.3109
   Eigenvalues:   176.6956   189.6667   242.1228
     58  C    Isotropic =   140.6860   Anisotropy =    54.5397
   XX=   145.6169   YX=    26.5300   ZX=    20.1910
   XY=    20.2063   YY=   144.5907   ZY=     9.6941
   XZ=    16.2279   YZ=     8.9422   ZZ=   131.8505
   Eigenvalues:   116.8695   128.1428   177.0458
     59  C    Isotropic =   145.3355   Anisotropy =    48.1133
   XX=   126.0926   YX=   -15.9461   ZX=    -0.2815
   XY=   -10.6594   YY=   171.0910   ZY=    12.1481
   XZ=     0.2345   YZ=     8.8933   ZZ=   138.8230
   Eigenvalues:   121.9463   136.6493   177.4110
     60  H    Isotropic =    29.5718   Anisotropy =     9.2412
   XX=    34.5416   YX=     3.0861   ZX=    -1.1162
   XY=     3.2288   YY=    27.1854   ZY=    -0.6638
   XZ=     0.6357   YZ=    -0.5417   ZZ=    26.9883
   Eigenvalues:    25.8149    27.1678    35.7326
     61  H    Isotropic =    29.3190   Anisotropy =    11.3833
   XX=    26.0641   YX=     6.2145   ZX=     0.0069
   XY=     1.6203   YY=    35.3489   ZY=     0.4982
   XZ=     2.9098   YZ=     0.8661   ZZ=    26.5441
   Eigenvalues:    24.0850    26.9642    36.9079
     62  H    Isotropic =    30.4179   Anisotropy =     7.5046
   XX=    33.3982   YX=     0.7376   ZX=     1.4132
   XY=     1.3535   YY=    25.7196   ZY=    -1.2482
   XZ=     3.7227   YZ=    -2.3634   ZZ=    32.1359
   Eigenvalues:    24.8949    30.9378    35.4210
     63  H    Isotropic =    29.9490   Anisotropy =    11.1053
   XX=    30.5435   YX=    -4.2597   ZX=    -3.0910
   XY=    -4.8877   YY=    26.8993   ZY=     3.8204
   XZ=    -3.9720   YZ=     1.0279   ZZ=    32.4043
   Eigenvalues:    23.7980    28.6965    37.3526
     64  H    Isotropic =    29.7405   Anisotropy =     9.6545
   XX=    28.9061   YX=    -4.7631   ZX=     0.2304
   XY=    -4.7236   YY=    30.6991   ZY=    -4.4157
   XZ=     0.0704   YZ=    -3.2943   ZZ=    29.6163
   Eigenvalues:    23.8523    29.1923    36.1768
     65  H    Isotropic =    29.4648   Anisotropy =     7.1017
   XX=    32.3864   YX=    -3.0640   ZX=     1.0492
   XY=    -2.4326   YY=    28.9669   ZY=     3.1465
   XZ=    -1.8264   YZ=     1.1680   ZZ=    27.0412
   Eigenvalues:    25.4020    28.7932    34.1993
     66  C    Isotropic =    51.8092   Anisotropy =   188.1797
   XX=   169.4900   YX=    32.4333   ZX=     6.1765
   XY=    30.4559   YY=    43.6394   ZY=     7.4087
   XZ=     8.5715   YZ=     9.3616   ZZ=   -57.7019
   Eigenvalues:   -58.4955    36.6607   177.2623
     67  C    Isotropic =    52.1047   Anisotropy =   186.2937
   XX=   164.6051   YX=    49.6910   ZX=    -2.9294
   XY=    47.4575   YY=   -30.3359   ZY=    37.1661
   XZ=    -2.0895   YZ=    38.5361   ZZ=    22.0450
   Eigenvalues:   -59.0667    39.0804   176.3005
     68  C    Isotropic =    50.7787   Anisotropy =   183.3414
   XX=   161.5732   YX=    42.7924   ZX=    27.4060
   XY=    47.2291   YY=   -22.9963   ZY=   -33.5739
   XZ=    16.4002   YZ=   -44.9713   ZZ=    13.7592
   Eigenvalues:   -59.1990    38.5287   173.0063
     69  C    Isotropic =    39.3016   Anisotropy =   193.5574
   XX=   158.7234   YX=    41.9270   ZX=    12.8778
   XY=    32.3542   YY=    17.0341   ZY=     7.7526
   XZ=     3.4425   YZ=    12.2516   ZZ=   -57.8528
   Eigenvalues:   -59.2189     8.7837   168.3398
     70  C    Isotropic =    47.9552   Anisotropy =   166.4534
   XX=   152.1838   YX=    34.3352   ZX=    -4.9105
   XY=    37.5737   YY=   -38.0845   ZY=    41.2445
   XZ=     0.0744   YZ=    36.3030   ZZ=    29.7664
   Eigenvalues:   -61.0553    45.9968   158.9241
     71  C    Isotropic =    50.7743   Anisotropy =   186.4015
   XX=   165.1359   YX=    42.2834   ZX=    15.2885
   XY=    44.3984   YY=   -19.9681   ZY=   -44.6253
   XZ=    18.0704   YZ=   -46.4417   ZZ=     7.1552
   Eigenvalues:   -62.7495    40.0306   175.0420
     72  H    Isotropic =    23.8371   Anisotropy =     3.6063
   XX=    20.6262   YX=    -1.1312   ZX=     0.5810
   XY=    -1.2885   YY=    25.9061   ZY=    -0.1222
   XZ=     0.4940   YZ=    -0.2470   ZZ=    24.9791
   Eigenvalues:    20.3114    24.9587    26.2413
     73  H    Isotropic =    23.7923   Anisotropy =     6.3420
   XX=    20.5691   YX=    -0.9559   ZX=     0.9644
   XY=    -0.8653   YY=    22.8357   ZY=     0.2924
   XZ=     0.2216   YZ=     0.0033   ZZ=    27.9719
   Eigenvalues:    20.2010    23.1556    28.0202
     74  H    Isotropic =    23.8564   Anisotropy =    10.9349
   XX=    21.7767   YX=     0.1423   ZX=     2.0457
   XY=    -0.5509   YY=    22.6273   ZY=    -5.6279
   XZ=     1.0301   YZ=    -5.5742   ZZ=    27.1653
   Eigenvalues:    18.6905    21.7324    31.1464
     75  H    Isotropic =    24.4797   Anisotropy =     9.1466
   XX=    21.5480   YX=     1.2681   ZX=    -0.1385
   XY=     0.3548   YY=    21.8688   ZY=     2.2554
   XZ=     0.0227   YZ=     2.1326   ZZ=    30.0223
   Eigenvalues:    20.6217    22.2399    30.5775
     76  H    Isotropic =    23.8789   Anisotropy =     7.5510
   XX=    20.1918   YX=    -0.3248   ZX=     0.8735
   XY=    -0.3528   YY=    23.0868   ZY=    -1.4185
   XZ=     0.9443   YZ=    -1.7817   ZZ=    28.3580
   Eigenvalues:    20.0821    22.6417    28.9129
     77  N    Isotropic =   191.7132   Anisotropy =    57.5974
   XX=   214.3738   YX=     1.5093   ZX=   -24.1305
   XY=    -4.1165   YY=   171.9692   ZY=     0.1538
   XZ=   -26.8564   YZ=    -6.4272   ZZ=   188.7966
   Eigenvalues:   169.1155   175.9126   230.1115
     78  H    Isotropic =    29.2414   Anisotropy =    14.4530
   XX=    24.7395   YX=     1.2405   ZX=     1.3239
   XY=    -1.1688   YY=    25.6899   ZY=    -6.3041
   XZ=     2.8810   YZ=    -1.8890   ZZ=    37.2947
   Eigenvalues:    23.7591    25.0883    38.8767
     79  C    Isotropic =   139.3602   Anisotropy =    61.8149
   XX=   157.7751   YX=    32.1288   ZX=     7.8660
   XY=    29.9466   YY=   136.6337   ZY=    -0.5930
   XZ=     5.6417   YZ=     1.3827   ZZ=   123.6717
   Eigenvalues:   113.1207   124.3897   180.5701
     80  C    Isotropic =   139.7990   Anisotropy =    54.2826
   XX=   123.0445   YX=   -18.1619   ZX=    -0.1673
   XY=   -13.0021   YY=   170.9881   ZY=     3.8171
   XZ=    -0.7887   YZ=     5.0483   ZZ=   125.3642
   Eigenvalues:   118.3294   125.0801   175.9874
     81  H    Isotropic =    30.1695   Anisotropy =     8.1604
   XX=    33.1689   YX=    -0.6026   ZX=     4.9256
   XY=     2.5459   YY=    26.0997   ZY=    -1.5914
   XZ=     1.5896   YZ=    -1.9023   ZZ=    31.2400
   Eigenvalues:    25.0488    29.8501    35.6098
     82  H    Isotropic =    29.5621   Anisotropy =     6.7250
   XX=    32.6805   YX=     0.2286   ZX=    -2.0637
   XY=     2.2174   YY=    31.2027   ZY=    -2.3717
   XZ=    -1.5808   YZ=    -1.2612   ZZ=    24.8031
   Eigenvalues:    24.0689    30.5719    34.0454
     83  H    Isotropic =    29.5219   Anisotropy =    12.1965
   XX=    33.5843   YX=     1.6644   ZX=    -5.1888
   XY=     3.9329   YY=    25.7580   ZY=    -2.6777
   XZ=    -4.3954   YZ=    -1.2688   ZZ=    29.2234
   Eigenvalues:    24.7599    26.1529    37.6529
     84  H    Isotropic =    29.6317   Anisotropy =     5.8987
   XX=    30.1579   YX=    -1.2979   ZX=     1.6939
   XY=    -3.6978   YY=    29.5490   ZY=    -4.9062
   XZ=     0.0136   YZ=     0.1293   ZZ=    29.1881
   Eigenvalues:    26.5187    28.8122    33.5641
     85  H    Isotropic =    29.3012   Anisotropy =    10.3671
   XX=    29.5048   YX=    -1.6659   ZX=    -4.8325
   XY=    -3.5599   YY=    28.3808   ZY=     2.1871
   XZ=    -5.2222   YZ=     2.0290   ZZ=    30.0181
   Eigenvalues:    24.6534    27.0377    36.2126
     86  H    Isotropic =    29.2197   Anisotropy =     7.6661
   XX=    32.0731   YX=    -1.0614   ZX=    -2.4059
   XY=    -2.1001   YY=    30.4376   ZY=     2.2047
   XZ=    -2.9487   YZ=     2.2275   ZZ=    25.1485
   Eigenvalues:    23.8205    29.5082    34.3305
     87  C    Isotropic =    52.2435   Anisotropy =   186.6122
   XX=   149.2952   YX=    72.8949   ZX=   -10.2125
   XY=    73.6802   YY=   -29.9084   ZY=    -9.6809
   XZ=   -10.2055   YZ=   -10.0594   ZZ=    37.3436
   Eigenvalues:   -56.4326    36.5113   176.6516
     88  C    Isotropic =    51.0992   Anisotropy =   188.7324
   XX=   159.0343   YX=    46.7345   ZX=    -9.0273
   XY=    47.9194   YY=    30.9074   ZY=   -45.7862
   XZ=    -6.3333   YZ=   -45.7974   ZZ=   -36.6441
   Eigenvalues:   -60.8086    37.1855   176.9208
     89  C    Isotropic =    49.3911   Anisotropy =   173.3664
   XX=   145.2994   YX=    46.7662   ZX=   -35.3725
   XY=    48.9426   YY=    30.9158   ZY=    29.0080
   XZ=   -30.7330   YZ=    33.3763   ZZ=   -28.0419
   Eigenvalues:   -54.2741    37.4787   164.9687
     90  C    Isotropic =    29.1881   Anisotropy =   206.7584
   XX=   138.3745   YX=    78.3015   ZX=   -17.0531
   XY=    69.9557   YY=   -40.6496   ZY=   -12.1914
   XZ=   -14.7737   YZ=    -8.9219   ZZ=   -10.1607
   Eigenvalues:   -67.7262   -11.7366   167.0270
     91  C    Isotropic =    52.0840   Anisotropy =   191.9628
   XX=   163.9037   YX=    44.1513   ZX=    -2.5689
   XY=    52.5910   YY=    27.3972   ZY=   -38.6306
   XZ=     0.8196   YZ=   -38.2270   ZZ=   -35.0488
   Eigenvalues:   -55.3394    31.5322   180.0592
     92  C    Isotropic =    50.4238   Anisotropy =   189.2101
   XX=   155.1196   YX=    52.2152   ZX=   -28.9733
   XY=    55.8278   YY=    30.6549   ZY=    33.3188
   XZ=   -30.3151   YZ=    34.2969   ZZ=   -34.5030
   Eigenvalues:   -60.4883    35.1959   176.5639
     93  H    Isotropic =    23.7971   Anisotropy =     3.7302
   XX=    20.3395   YX=    -0.1498   ZX=     0.7941
   XY=    -0.1329   YY=    25.2608   ZY=    -0.4760
   XZ=     0.9117   YZ=    -0.7128   ZZ=    25.7911
   Eigenvalues:    20.2087    24.8987    26.2839
     94  H    Isotropic =    24.2449   Anisotropy =     6.0561
   XX=    19.7174   YX=    -0.7056   ZX=     1.5063
   XY=    -2.6510   YY=    27.9502   ZY=     2.3854
   XZ=     3.6669   YZ=    -1.5490   ZZ=    25.0671
   Eigenvalues:    18.3650    26.0873    28.2823
     95  H    Isotropic =    23.5676   Anisotropy =     9.7132
   XX=    21.9532   YX=    -0.6595   ZX=     0.4852
   XY=    -1.5918   YY=    26.7223   ZY=    -5.3108
   XZ=     1.2499   YZ=    -4.4615   ZZ=    22.0272
   Eigenvalues:    18.9474    21.7122    30.0431
     96  C    Isotropic =    48.4140   Anisotropy =    15.9349
   XX=    46.7592   YX=    -2.6701   ZX=     1.1066
   XY=    -3.0545   YY=    58.0294   ZY=    -2.8524
   XZ=    -0.6019   YZ=    -2.0614   ZZ=    40.4536
   Eigenvalues:    40.1135    46.0914    59.0373
     97  F    Isotropic =   238.7983   Anisotropy =   145.5338
   XX=   256.6809   YX=    62.8608   ZX=    -4.4802
   XY=    51.6382   YY=   266.3189   ZY=   -50.3647
   XZ=   -15.5937   YZ=   -61.0454   ZZ=   193.3950
   Eigenvalues:   158.8135   221.7605   335.8208
     98  F    Isotropic =   221.4803   Anisotropy =   147.5208
   XX=   184.1740   YX=    12.6318   ZX=    83.3937
   XY=    11.9234   YY=   215.9040   ZY=    15.4717
   XZ=    81.9732   YZ=    15.2119   ZZ=   264.3629
   Eigenvalues:   132.3139   212.2995   319.8275
     99  F    Isotropic =   252.0347   Anisotropy =   132.3953
   XX=   284.2901   YX=   -51.9606   ZX=    25.6155
   XY=   -46.5697   YY=   296.7729   ZY=    14.1575
   XZ=     8.1869   YZ=    26.6489   ZZ=   175.0411
   Eigenvalues:   165.8183   249.9876   340.2983
    100  C    Isotropic =    48.9297   Anisotropy =    12.2219
   XX=    50.0601   YX=    -3.4627   ZX=    -2.5167
   XY=    -3.4211   YY=    47.9204   ZY=     6.1526
   XZ=    -2.8296   YZ=     5.9432   ZZ=    48.8087
   Eigenvalues:    42.2224    47.4891    57.0777
    101  F    Isotropic =   223.9057   Anisotropy =   151.2661
   XX=   260.7996   YX=   -60.6308   ZX=    59.5699
   XY=   -64.9653   YY=   188.4519   ZY=     2.4487
   XZ=    61.8928   YZ=     1.4259   ZZ=   222.4658
   Eigenvalues:   137.1712   209.7963   324.7498
    102  F    Isotropic =   232.0522   Anisotropy =   149.6615
   XX=   223.6060   YX=    32.7011   ZX=    12.9281
   XY=    35.7135   YY=   295.4277   ZY=    66.1765
   XZ=     5.0293   YZ=    53.6741   ZZ=   177.1230
   Eigenvalues:   151.7001   212.6300   331.8266
    103  F    Isotropic =   256.7948   Anisotropy =   115.8259
   XX=   290.7497   YX=    -1.4333   ZX=   -33.0135
   XY=    12.0665   YY=   186.2733   ZY=    30.6001
   XZ=   -43.5946   YZ=    41.7700   ZZ=   293.3613
   Eigenvalues:   172.7481   263.6242   334.0120
    104  C    Isotropic =    48.7625   Anisotropy =    15.1341
   XX=    46.1410   YX=     4.4357   ZX=     6.6912
   XY=     4.3348   YY=    52.5744   ZY=     3.2394
   XZ=     6.2893   YZ=     4.6038   ZZ=    47.5721
   Eigenvalues:    40.2834    47.1522    58.8519
    105  F    Isotropic =   253.8729   Anisotropy =   129.7666
   XX=   261.9121   YX=    63.8018   ZX=    71.9452
   XY=    52.4431   YY=   238.2274   ZY=   -10.3064
   XZ=    54.3878   YZ=    -1.8177   ZZ=   261.4791
   Eigenvalues:   166.1710   255.0637   340.3840
    106  F    Isotropic =   213.6413   Anisotropy =   141.6696
   XX=   155.8153   YX=    33.2571   ZX=   -44.3189
   XY=    36.0529   YY=   191.5707   ZY=    -4.7252
   XZ=   -42.7827   YZ=    -5.6152   ZZ=   293.5380
   Eigenvalues:   127.1561   205.6803   308.0877
    107  F    Isotropic =   237.8986   Anisotropy =   142.3299
   XX=   173.2120   YX=   -43.8994   ZX=    24.4687
   XY=   -28.9337   YY=   323.3688   ZY=    -8.8776
   XZ=    17.8234   YZ=    -3.8131   ZZ=   217.1149
   Eigenvalues:   158.4909   222.4196   332.7851
    108  C    Isotropic =    48.2512   Anisotropy =    14.4733
   XX=    55.9567   YX=     4.0899   ZX=     3.5862
   XY=     3.5300   YY=    44.1268   ZY=    -1.2258
   XZ=     3.7431   YZ=    -0.5194   ZZ=    44.6701
   Eigenvalues:    41.5598    45.2937    57.9001
    109  F    Isotropic =   232.5350   Anisotropy =   148.9680
   XX=   279.0884   YX=   -51.1590   ZX=    27.3795
   XY=   -59.4433   YY=   232.0735   ZY=   -57.7279
   XZ=    18.5337   YZ=   -44.6302   ZZ=   186.4432
   Eigenvalues:   152.0035   213.7545   331.8470
    110  F    Isotropic =   252.2989   Anisotropy =   129.6439
   XX=   267.7155   YX=    65.0422   ZX=    31.1106
   XY=    82.4995   YY=   260.4047   ZY=   -28.1333
   XZ=    37.3287   YZ=   -17.8482   ZZ=   228.7765
   Eigenvalues:   164.7276   253.4410   338.7282
    111  F    Isotropic =   223.8699   Anisotropy =   141.2712
   XX=   223.6076   YX=    11.5246   ZX=   -29.5893
   XY=     8.6426   YY=   140.2679   ZY=   -12.6819
   XZ=   -28.0235   YZ=   -14.0540   ZZ=   307.7342
   Eigenvalues:   138.4524   215.1065   318.0507
    112  C    Isotropic =    48.7724   Anisotropy =    14.1503
   XX=    51.0046   YX=    -6.3235   ZX=    -1.9315
   XY=    -6.1376   YY=    50.2387   ZY=     3.7208
   XZ=    -2.6449   YZ=     3.6269   ZZ=    45.0739
   Eigenvalues:    42.9535    45.1578    58.2060
    113  F    Isotropic =   247.5834   Anisotropy =   139.2483
   XX=   334.2254   YX=   -40.2429   ZX=    12.2414
   XY=   -21.7463   YY=   185.1986   ZY=    32.8289
   XZ=     0.7653   YZ=    28.8005   ZZ=   223.3263
   Eigenvalues:   162.6616   239.6730   340.4156
    114  F    Isotropic =   223.3077   Anisotropy =   144.0468
   XX=   171.4092   YX=   -42.9029   ZX=    10.6042
   XY=   -43.6529   YY=   185.3225   ZY=   -22.6510
   XZ=    10.7158   YZ=   -22.2117   ZZ=   313.1915
   Eigenvalues:   134.2922   216.2920   319.3389
    115  F    Isotropic =   245.5328   Anisotropy =   138.3919
   XX=   200.3301   YX=    -4.6198   ZX=    37.8737
   XY=   -15.2639   YY=   317.0657   ZY=    57.1907
   XZ=    26.8680   YZ=    41.7341   ZZ=   219.2026
   Eigenvalues:   165.6991   233.1052   337.7941
    116  C    Isotropic =    48.3071   Anisotropy =    14.7153
   XX=    52.8835   YX=     2.8192   ZX=    -7.4972
   XY=     3.7244   YY=    44.2282   ZY=     2.1437
   XZ=    -6.6668   YZ=     0.8509   ZZ=    47.8095
   Eigenvalues:    40.2658    46.5382    58.1173
    117  F    Isotropic =   252.6984   Anisotropy =   128.2484
   XX=   260.4825   YX=    73.5326   ZX=    -7.7439
   XY=    94.8349   YY=   243.4347   ZY=   -11.5515
   XZ=    -3.6470   YZ=   -10.6682   ZZ=   254.1779
   Eigenvalues:   167.1177   252.7802   338.1973
    118  F    Isotropic =   241.8893   Anisotropy =   143.8849
   XX=   247.6655   YX=   -15.4737   ZX=   -40.4722
   XY=   -16.8324   YY=   195.6619   ZY=    76.1049
   XZ=   -38.6616   YZ=    55.4059   ZZ=   282.3405
   Eigenvalues:   159.9776   227.8777   337.8125
    119  F    Isotropic =   217.4780   Anisotropy =   151.2331
   XX=   260.6482   YX=   -20.7106   ZX=    52.1525
   XY=   -21.5253   YY=   143.0893   ZY=   -40.6656
   XZ=    52.5046   YZ=   -42.6920   ZZ=   248.6965
   Eigenvalues:   128.5505   205.5835   318.3001
    120  C    Isotropic =    48.5854   Anisotropy =    14.6146
   XX=    44.8296   YX=    -1.0876   ZX=    -3.3516
   XY=    -1.9842   YY=    57.9635   ZY=     1.2415
   XZ=    -2.7056   YZ=     1.4122   ZZ=    42.9631
   Eigenvalues:    40.7258    46.7019    58.3285
    121  F    Isotropic =   245.4852   Anisotropy =   137.8902
   XX=   198.6747   YX=    64.7989   ZX=   -39.0409
   XY=    44.7492   YY=   313.7653   ZY=    -3.7542
   XZ=   -24.7997   YZ=    -0.3268   ZZ=   224.0156
   Eigenvalues:   162.8814   236.1622   337.4120
    122  F    Isotropic =   216.2991   Anisotropy =   146.9132
   XX=   133.7117   YX=   -20.1939   ZX=    20.5317
   XY=   -20.4627   YY=   204.9794   ZY=   -11.2452
   XZ=    21.5179   YZ=   -10.0744   ZZ=   310.2062
   Eigenvalues:   126.6084   208.0477   314.2413
    123  F    Isotropic =   243.5607   Anisotropy =   129.1100
   XX=   260.4865   YX=   -66.6528   ZX=   -60.8338
   XY=   -56.7496   YY=   247.4672   ZY=    -5.2102
   XZ=   -45.4756   YZ=    -5.0229   ZZ=   222.7282
   Eigenvalues:   162.1829   238.8651   329.6340
    124  C    Isotropic =    49.6239   Anisotropy =    17.2334
   XX=    50.2925   YX=     8.3951   ZX=     3.7368
   XY=     8.2437   YY=    51.4996   ZY=     2.3561
   XZ=     4.5057   YZ=     3.9702   ZZ=    47.0796
   Eigenvalues:    42.3222    45.4367    61.1129
    125  F    Isotropic =   229.5743   Anisotropy =   133.1854
   XX=   216.2615   YX=    19.8215   ZX=    56.7067
   XY=    16.8045   YY=   189.1266   ZY=   -41.4613
   XZ=    53.4867   YZ=   -29.9693   ZZ=   283.3349
   Eigenvalues:   152.2316   218.1267   318.3646
    126  F    Isotropic =   224.2859   Anisotropy =   150.2110
   XX=   292.8603   YX=    32.6725   ZX=   -58.7105
   XY=    24.7271   YY=   162.3878   ZY=    23.2802
   XZ=   -54.5267   YZ=    26.1753   ZZ=   217.6097
   Eigenvalues:   136.6803   211.7508   324.4266
    127  F    Isotropic =   257.0020   Anisotropy =   125.2074
   XX=   195.9338   YX=    45.4153   ZX=   -15.0884
   XY=    65.2556   YY=   313.7347   ZY=    29.2302
   XZ=   -13.4498   YZ=    23.2512   ZZ=   261.3374
   Eigenvalues:   168.2350   262.2972   340.4736
    128  H    Isotropic =    23.6614   Anisotropy =     7.7631
   XX=    20.3154   YX=    -1.3922   ZX=     1.8055
   XY=    -1.4787   YY=    27.6626   ZY=    -1.4845
   XZ=     2.3118   YZ=    -2.2817   ZZ=    23.0061
   Eigenvalues:    19.1832    22.9641    28.8368
    129  H    Isotropic =    23.7332   Anisotropy =     4.9706
   XX=    20.6564   YX=    -0.3452   ZX=    -0.2849
   XY=    -0.8350   YY=    26.9922   ZY=     0.0527
   XZ=    -0.3486   YZ=    -0.0591   ZZ=    23.5509
   Eigenvalues:    20.5685    23.5841    27.0469
    130  H    Isotropic =    29.8862   Anisotropy =    18.3459
   XX=    36.8503   YX=     8.3957   ZX=    -1.2366
   XY=     7.3340   YY=    29.9018   ZY=    -1.5812
   XZ=    -0.2499   YZ=    -2.1922   ZZ=    22.9066
   Eigenvalues:    22.2270    25.3149    42.1168
    131  H    Isotropic =    27.6590   Anisotropy =     7.8093
   XX=    27.8530   YX=     5.3366   ZX=     6.4301
   XY=     2.4487   YY=    26.3524   ZY=    -0.8773
   XZ=     2.0707   YZ=    -3.1115   ZZ=    28.7715
   Eigenvalues:    20.7711    29.3407    32.8652
 End of Minotr F.D. properties file   721 does not exist.
 End of Minotr F.D. properties file   722 does not exist.
 End of Minotr F.D. properties file   788 does not exist.
 Hyperfine terms turned off by default for NAtoms > 100.

 **********************************************************************

            Population analysis using the SCF density.

 **********************************************************************

 Orbital symmetries:
       Occupied  (A) (A) (A) (A) (A) (A) (A) (A) (A) (A) (A) (A)
                 (A) (A) (A) (A) (A) (A) (A) (A) (A) (A) (A) (A)
                 (A) (A) (A) (A) (A) (A) (A) (A) (A) (A) (A) (A)
                 (A) (A) (A) (A) (A) (A) (A) (A) (A) (A) (A) (A)
                 (A) (A) (A) (A) (A) (A) (A) (A) (A) (A) (A) (A)
                 (A) (A) (A) (A) (A) (A) (A) (A) (A) (A) (A) (A)
                 (A) (A) (A) (A) (A) (A) (A) (A) (A) (A) (A) (A)
                 (A) (A) (A) (A) (A) (A) (A) (A) (A) (A) (A) (A)
                 (A) (A) (A) (A) (A) (A) (A) (A) (A) (A) (A) (A)
                 (A) (A) (A) (A) (A) (A) (A) (A) (A) (A) (A) (A)
                 (A) (A) (A) (A) (A) (A) (A) (A) (A) (A) (A) (A)
                 (A) (A) (A) (A) (A) (A) (A) (A) (A) (A) (A) (A)
                 (A) (A) (A) (A) (A) (A) (A) (A) (A) (A) (A) (A)
                 (A) (A) (A) (A) (A) (A) (A) (A) (A) (A) (A) (A)
                 (A) (A) (A) (A) (A) (A) (A) (A) (A) (A) (A) (A)
                 (A) (A) (A) (A) (A) (A) (A) (A) (A) (A) (A) (A)
                 (A) (A) (A) (A) (A) (A) (A) (A) (A) (A) (A) (A)
                 (A) (A) (A) (A) (A) (A) (A) (A) (A) (A) (A) (A)
                 (A) (A) (A) (A) (A) (A) (A) (A) (A) (A) (A) (A)
                 (A) (A) (A) (A) (A) (A) (A) (A) (A) (A) (A) (A)
                 (A) (A) (A) (A) (A) (A) (A) (A) (A) (A) (A) (A)
                 (A) (A) (A) (A) (A) (A) (A) (A) (A) (A) (A) (A)
                 (A) (A) (A) (A) (A) (A) (A) (A) (A) (A) (A) (A)
                 (A) (A) (A) (A) (A) (A) (A) (A) (A) (A) (A) (A)
                 (A) (A) (A) (A) (A) (A) (A) (A) (A) (A) (A) (A)
                 (A) (A) (A) (A) (A) (A) (A) (A) (A) (A) (A) (A)
                 (A) (A) (A) (A) (A) (A) (A) (A) (A) (A) (A) (A)
                 (A) (A) (A) (A) (A) (A) (A) (A) (A) (A) (A) (A)
                 (A) (A) (A)
       Virtual   (A) (A) (A) (A) (A) (A) (A) (A) (A) (A) (A) (A)
                 (A) (A) (A) (A) (A) (A) (A) (A) (A) (A) (A) (A)
                 (A) (A) (A) (A) (A) (A) (A) (A) (A) (A) (A) (A)
                 (A) (A) (A) (A) (A) (A) (A) (A) (A) (A) (A) (A)
                 (A) (A) (A) (A) (A) (A) (A) (A) (A) (A) (A) (A)
                 (A) (A) (A) (A) (A) (A) (A) (A) (A) (A) (A) (A)
                 (A) (A) (A) (A) (A) (A) (A) (A) (A) (A) (A) (A)
                 (A) (A) (A) (A) (A) (A) (A) (A) (A) (A) (A) (A)
                 (A) (A) (A) (A) (A) (A) (A) (A) (A) (A) (A) (A)
                 (A) (A) (A) (A) (A) (A) (A) (A) (A) (A) (A) (A)
                 (A) (A) (A) (A) (A) (A) (A) (A) (A) (A) (A) (A)
                 (A) (A) (A) (A) (A) (A) (A) (A) (A) (A) (A) (A)
                 (A) (A) (A) (A) (A) (A) (A) (A) (A) (A) (A) (A)
                 (A) (A) (A) (A) (A) (A) (A) (A) (A) (A) (A) (A)
                 (A) (A) (A) (A) (A) (A) (A) (A) (A) (A) (A) (A)
                 (A) (A) (A) (A) (A) (A) (A) (A) (A) (A) (A) (A)
                 (A) (A) (A) (A) (A) (A) (A) (A) (A) (A) (A) (A)
                 (A) (A) (A) (A) (A) (A) (A) (A) (A) (A) (A) (A)
                 (A) (A) (A) (A) (A) (A) (A) (A) (A) (A) (A) (A)
                 (A) (A) (A) (A) (A) (A) (A) (A) (A) (A) (A) (A)
                 (A) (A) (A) (A) (A) (A) (A) (A) (A) (A) (A) (A)
                 (A) (A) (A) (A) (A) (A) (A) (A) (A) (A) (A) (A)
                 (A) (A) (A) (A) (A) (A) (A) (A) (A) (A) (A) (A)
                 (A) (A) (A) (A) (A) (A) (A) (A) (A) (A) (A) (A)
                 (A) (A) (A) (A) (A) (A) (A) (A) (A) (A) (A) (A)
                 (A) (A) (A) (A) (A) (A) (A) (A) (A) (A) (A) (A)
                 (A) (A) (A) (A) (A) (A) (A) (A) (A) (A) (A) (A)
                 (A) (A) (A) (A) (A) (A) (A) (A) (A) (A) (A) (A)
                 (A) (A) (A) (A) (A) (A) (A) (A) (A) (A) (A) (A)
                 (A) (A) (A) (A) (A) (A) (A) (A) (A) (A) (A) (A)
                 (A) (A) (A) (A) (A) (A) (A) (A) (A) (A) (A) (A)
                 (A) (A) (A) (A) (A) (A) (A) (A) (A) (A) (A) (A)
                 (A) (A) (A) (A) (A) (A) (A) (A) (A) (A) (A) (A)
                 (A) (A) (A) (A) (A) (A) (A) (A) (A) (A) (A) (A)
                 (A) (A) (A) (A) (A) (A) (A) (A) (A) (A) (A) (A)
                 (A) (A) (A) (A) (A) (A) (A) (A) (A) (A) (A) (A)
                 (A) (A) (A) (A) (A) (A) (A) (A) (A) (A) (A) (A)
                 (A) (A) (A) (A) (A) (A) (A) (A) (A) (A) (A) (A)
                 (A) (A) (A) (A) (A) (A) (A) (A) (A) (A) (A) (A)
                 (A) (A) (A) (A) (A) (A) (A) (A) (A) (A) (A) (A)
                 (A) (A) (A) (A) (A) (A) (A) (A) (A) (A) (A) (A)
                 (A) (A) (A) (A) (A) (A) (A) (A) (A) (A) (A) (A)
                 (A) (A) (A) (A) (A) (A) (A) (A) (A) (A) (A) (A)
                 (A) (A) (A) (A) (A) (A) (A) (A) (A) (A) (A) (A)
                 (A) (A) (A) (A) (A) (A) (A) (A) (A) (A) (A) (A)
                 (A) (A) (A) (A) (A) (A) (A) (A) (A) (A) (A) (A)
                 (A) (A) (A) (A) (A) (A) (A) (A) (A) (A) (A) (A)
                 (A) (A) (A) (A) (A) (A) (A) (A) (A) (A) (A) (A)
                 (A) (A) (A) (A) (A) (A) (A) (A) (A) (A) (A) (A)
                 (A) (A) (A) (A) (A) (A) (A) (A) (A) (A) (A) (A)
                 (A) (A) (A) (A) (A) (A) (A) (A) (A) (A) (A) (A)
                 (A) (A) (A) (A) (A) (A) (A) (A) (A) (A) (A) (A)
                 (A) (A) (A) (A) (A) (A) (A) (A) (A) (A) (A) (A)
                 (A) (A) (A) (A) (A) (A) (A) (A) (A) (A) (A) (A)
                 (A) (A) (A) (A) (A) (A) (A) (A) (A) (A) (A) (A)
                 (A) (A) (A) (A) (A) (A) (A) (A) (A) (A) (A) (A)
                 (A) (A) (A) (A) (A) (A) (A) (A) (A) (A) (A) (A)
                 (A) (A) (A) (A) (A) (A) (A) (A) (A) (A) (A) (A)
                 (A) (A) (A) (A) (A) (A) (A) (A) (A) (A) (A) (A)
                 (A) (A) (A) (A) (A) (A) (A) (A) (A) (A) (A) (A)
                 (A) (A) (A) (A) (A) (A) (A) (A) (A) (A) (A) (A)
                 (A) (A) (A) (A) (A) (A) (A) (A) (A) (A) (A) (A)
                 (A) (A) (A) (A) (A) (A) (A) (A) (A) (A) (A) (A)
[...]
  2361. RY*(  25) C 108                  0.00000     2.92663   
  2362. RY*(  26) C 108                  0.00000     2.91608   
  2363. RY*(   1) F 109                  0.00076     3.28173   
  2364. RY*(   2) F 109                  0.00058     1.08264   
  2365. RY*(   3) F 109                  0.00050     1.09602   
  2366. RY*(   4) F 109                  0.00029     2.50131   
  2367. RY*(   5) F 109                  0.00018     3.06240   
  2368. RY*(   6) F 109                  0.00011     3.21567   
  2369. RY*(   7) F 109                  0.00006     2.58163   
  2370. RY*(   8) F 109                  0.00002     2.65034   
  2371. RY*(   9) F 109                  0.00001     3.78567   
  2372. RY*(  10) F 109                  0.00002     3.11649   
  2373. RY*(  11) F 109                  0.00000     8.31678   
  2374. RY*(  12) F 109                  0.00001     2.93333   
  2375. RY*(  13) F 109                  0.00000     7.94572   
  2376. RY*(  14) F 109                  0.00001     3.78322   
  2377. RY*(  15) F 109                  0.00000     8.14181   
  2378. RY*(  16) F 109                  0.00001     3.20617   
  2379. RY*(  17) F 109                  0.00000     8.11171   
  2380. RY*(  18) F 109                  0.00000    55.02168   
  2381. RY*(  19) F 109                  0.00000     7.96158   
  2382. RY*(  20) F 109                  0.00000     6.78791   
  2383. RY*(  21) F 109                  0.00000     6.88761   
  2384. RY*(  22) F 109                  0.00000     6.78036   
  2385. RY*(  23) F 109                  0.00000     6.83627   
  2386. RY*(  24) F 109                  0.00000     6.78948   
  2387. RY*(  25) F 109                  0.00000     6.82620   
  2388. RY*(  26) F 109                  0.00000     6.82276   
  2389. RY*(   1) F 110                  0.00073     4.01862   
  2390. RY*(   2) F 110                  0.00049     1.15876   
  2391. RY*(   3) F 110                  0.00041     1.12823   
  2392. RY*(   4) F 110                  0.00023     2.53607   
  2393. RY*(   5) F 110                  0.00015     2.91994   
  2394. RY*(   6) F 110                  0.00008     2.75443   
  2395. RY*(   7) F 110                  0.00005     2.92945   
  2396. RY*(   8) F 110                  0.00004     2.36280   
  2397. RY*(   9) F 110                  0.00000     3.09685   
  2398. RY*(  10) F 110                  0.00001     2.94533   
  2399. RY*(  11) F 110                  0.00000     8.36182   
  2400. RY*(  12) F 110                  0.00001     2.38789   
  2401. RY*(  13) F 110                  0.00000     8.05629   
  2402. RY*(  14) F 110                  0.00000    55.49536   
  2403. RY*(  15) F 110                  0.00000     8.09322   
  2404. RY*(  16) F 110                  0.00001     3.10722   
  2405. RY*(  17) F 110                  0.00000     8.04012   
  2406. RY*(  18) F 110                  0.00001     3.51293   
  2407. RY*(  19) F 110                  0.00000     8.24535   
  2408. RY*(  20) F 110                  0.00000     6.85151   
  2409. RY*(  21) F 110                  0.00000     6.86529   
  2410. RY*(  22) F 110                  0.00000     6.84757   
  2411. RY*(  23) F 110                  0.00000     6.81404   
  2412. RY*(  24) F 110                  0.00000     6.81590   
  2413. RY*(  25) F 110                  0.00000     6.90069   
  2414. RY*(  26) F 110                  0.00000     6.86116   
  2415. RY*(   1) F 111                  0.00075     3.68972   
  2416. RY*(   2) F 111                  0.00049     1.10069   
  2417. RY*(   3) F 111                  0.00039     1.15845   
  2418. RY*(   4) F 111                  0.00024     2.93482   
  2419. RY*(   5) F 111                  0.00013     2.86335   
  2420. RY*(   6) F 111                  0.00005     2.99322   
  2421. RY*(   7) F 111                  0.00005     1.96525   
  2422. RY*(   8) F 111                  0.00003     2.69687   
  2423. RY*(   9) F 111                  0.00000     2.76443   
  2424. RY*(  10) F 111                  0.00001     3.72432   
  2425. RY*(  11) F 111                  0.00000     7.82218   
  2426. RY*(  12) F 111                  0.00000     3.21007   
  2427. RY*(  13) F 111                  0.00000     8.27557   
  2428. RY*(  14) F 111                  0.00000    55.47341   
  2429. RY*(  15) F 111                  0.00000     7.66424   
  2430. RY*(  16) F 111                  0.00000     2.20261   
  2431. RY*(  17) F 111                  0.00000     8.27563   
  2432. RY*(  18) F 111                  0.00001     4.22976   
  2433. RY*(  19) F 111                  0.00000     8.32668   
  2434. RY*(  20) F 111                  0.00000     6.90422   
  2435. RY*(  21) F 111                  0.00000     6.90025   
  2436. RY*(  22) F 111                  0.00000     6.73344   
  2437. RY*(  23) F 111                  0.00000     6.90755   
  2438. RY*(  24) F 111                  0.00000     6.70069   
  2439. RY*(  25) F 111                  0.00000     6.82168   
  2440. RY*(  26) F 111                  0.00000     6.81841   
  2857. RY*(   1) H 128                  0.00037     1.23227   
  2858. RY*(   2) H 128                  0.00019     1.70957   
  2859. RY*(   3) H 128                  0.00015     2.16255   
  2860. RY*(   4) H 128                  0.00009     2.71758   
  2861. RY*(   5) H 128                  0.00001     3.08388   
  2862. RY*(   1) H 129                  0.00034     1.16401   
  2863. RY*(   2) H 129                  0.00019     1.68879   
  2864. RY*(   3) H 129                  0.00013     2.15308   
  2865. RY*(   4) H 129                  0.00008     2.73082   
  2866. RY*(   5) H 129                  0.00001     3.06524   
  2881. BD*(   1) P   3 - C   9          0.04005     0.19519   
  2882. BD*(   1) P   3 - C  26          0.03929     0.18953   
  2883. BD*(   1) P   3 - C  32          0.04279     0.18898   
  2895. BD*(   1) C   9 - C  10          0.04333     0.41608   
  2896. BD*(   1) C   9 - C  13          0.05103     0.37513   
  2897. BD*(   2) C   9 - C  13          0.50958     0.01266  2899(v),270(v),2896(g)
                                                    263(r),266(r),2882(v),666(g)
                                                    565(g),2905(g),563(g)
                                                    2881(g),673(g),2883(v)
                                                    682(g),2935(r),2950(r)
                                                    403(v),2877(r),672(g)
                                                    2900(v),2892(r),264(r)
                                                    346(r),267(r),355(r),373(r)
                                                    359(r),350(r),356(r),2922(r)
                                                    2981(r),353(r)
  2898. BD*(   1) C  10 - C  11          0.04298     0.41438   
  2899. BD*(   2) C  10 - C  11          0.44273     0.02215  2897(v),3005(r),270(v)
                                                    2898(g),263(r),266(r)
                                                    2967(v),2965(v),2877(r)
                                                    2900(g),2892(r),592(g)
                                                    3009(r),623(g),265(r)
                                                    2887(r),264(r),365(r),372(r)
  2900. BD*(   1) C  10 - C  55          0.03573     0.35510   
  2901. BD*(   1) C  11 - C  12          0.02878     0.43805   
  2902. BD*(   1) C  11 - H  54          0.01515     0.40033   
  2903. BD*(   1) C  12 - C  13          0.03070     0.42622   
  2904. BD*(   1) C  12 - H  53          0.01753     0.39875   
  2905. BD*(   1) C  13 - H  39          0.01715     0.39882   
  2934. BD*(   1) C  26 - C  27          0.02949     0.49164   
  2935. BD*(   2) C  26 - C  27          0.34028    -0.01431  2940(v),2945(v),2883(v)
                                                    2952(r),2950(r),2922(r)
                                                    1006(g),1031(g),1032(g)
  2936. BD*(   1) C  26 - C  31          0.02285     0.48956   
  2937. BD*(   1) C  27 - C  28          0.02466     0.49544   
  2938. BD*(   1) C  27 - H  46          0.01705     0.39668   
  2939. BD*(   1) C  28 - C  29          0.01977     0.49408   
  2940. BD*(   2) C  28 - C  29          0.33177    -0.01250  2945(v),2935(v),3013(v)
                                                    1083(g),3012(v),3014(v)
  2941. BD*(   1) C  28 - C  96          0.06696     0.29450   
  2942. BD*(   1) C  29 - C  30          0.01949     0.48875   
  2943. BD*(   1) C  29 - H  47          0.01199     0.37307   
  2944. BD*(   1) C  30 - C  31          0.02212     0.49097   
  2945. BD*(   2) C  30 - C  31          0.33167    -0.01206  2940(v),2935(v),3015(v)
                                                    3016(v),1135(g),2933(r)
  2946. BD*(   1) C  30 - C 100          0.06759     0.29348   
  2947. BD*(   1) C  31 - H  48          0.01553     0.37195   
  2948. BD*(   1) C  32 - C  33          0.02996     0.48955   
  2949. BD*(   1) C  32 - C  37          0.02216     0.48358   
  2950. BD*(   2) C  32 - C  37          0.33987    -0.02166  2952(v),2957(v),1291(g)
                                                    2881(v),2935(r),1162(g)
  2951. BD*(   1) C  33 - C  34          0.02368     0.48365   
  2952. BD*(   2) C  33 - C  34          0.33310    -0.01906  2950(v),2957(v),3019(v)
                                                    2935(r),3020(v)
  2953. BD*(   1) C  33 - H  49          0.01638     0.37925   
  2954. BD*(   1) C  34 - C  35          0.01994     0.48502   
  2955. BD*(   1) C  34 - C 104          0.06696     0.28732   
  2956. BD*(   1) C  35 - C  36          0.02002     0.48199   
  2957. BD*(   2) C  35 - C  36          0.34595    -0.02436  2950(v),2952(v),3023(v)
                                                    3021(v),1239(g)
  2958. BD*(   1) C  35 - H  50          0.01241     0.36932   
  2959. BD*(   1) C  36 - C  37          0.02282     0.48002   
  2960. BD*(   1) C  36 - C 108          0.06691     0.28459   
  2961. BD*(   1) C  37 - H  51          0.01536     0.36603   
  2965. BD*(   1) C  55 - N  77          0.03800     0.30837   
  2966. BD*(   1) C  55 - H  78          0.04445     0.33931   
  2967. BD*(   1) C  55 - C  90          0.03298     0.36664   
  2990. BD*(   1) N  77 - C  79          0.01308     0.32868   
  2991. BD*(   1) N  77 - C  80          0.01426     0.33145   
  2992. BD*(   1) C  79 - H  81          0.02968     0.34904   
  2993. BD*(   1) C  79 - H  82          0.01021     0.37418   
  2994. BD*(   1) C  79 - H  83          0.00966     0.36168   
  2995. BD*(   1) C  80 - H  84          0.03135     0.34605   
  2996. BD*(   1) C  80 - H  85          0.01019     0.36406   
  2997. BD*(   1) C  80 - H  86          0.01089     0.37717   
  2998. BD*(   1) C  87 - C  88          0.01453     0.52550   
  2999. BD*(   2) C  87 - C  88          0.33038     0.01459  3009(v),3005(v),1856(g)
                                                    1882(g)
  3000. BD*(   1) C  87 - C  92          0.01483     0.52140   
  3001. BD*(   1) C  87 - H  93          0.01326     0.39799   
  3002. BD*(   1) C  88 - C  89          0.01454     0.52928   
  3003. BD*(   1) C  88 - H 128          0.01344     0.40047   
  3004. BD*(   1) C  89 - C  90          0.02359     0.53335   
  3005. BD*(   2) C  89 - C  90          0.34394     0.02399  3009(v),2999(v),2899(r)
                                                    1908(g),2900(v),2965(v)
                                                    2887(r),2892(r)
  3006. BD*(   1) C  89 - H  94          0.01815     0.40781   
  3007. BD*(   1) C  90 - C  91          0.02666     0.52222   
  3008. BD*(   1) C  91 - C  92          0.01429     0.53407   
  3009. BD*(   2) C  91 - C  92          0.32049     0.01787  2999(v),3005(v),1986(g)
  3010. BD*(   1) C  91 - H  95          0.01575     0.40474   
  3011. BD*(   1) C  92 - H 129          0.01365     0.39542   
  3012. BD*(   1) C  96 - F  97          0.09380     0.19045   
  3013. BD*(   1) C  96 - F  98          0.09829     0.19504   
  3014. BD*(   1) C  96 - F  99          0.08834     0.19867   
  3015. BD*(   1) C 100 - F 101          0.09797     0.19798   
  3016. BD*(   1) C 100 - F 102          0.09542     0.19632   
  3017. BD*(   1) C 100 - F 103          0.08638     0.20514   
  3018. BD*(   1) C 104 - F 105          0.08741     0.19336   
  3019. BD*(   1) C 104 - F 106          0.10117     0.18088  2952(v),2239(g)
  3020. BD*(   1) C 104 - F 107          0.09183     0.19241   
  3021. BD*(   1) C 108 - F 109          0.09766     0.17571   
  3022. BD*(   1) C 108 - F 110          0.08776     0.18924   
  3023. BD*(   1) C 108 - F 111          0.09517     0.19444   
       -------------------------------
              Total Lewis  323.63212  ( 97.8210%)
        Valence non-Lewis    6.55698  (  1.9819%)
        Rydberg non-Lewis    0.65201  (  0.1971%)
       -------------------------------
            Total unit  2  330.84111  (100.0000%)
           Charge unit  2    0.15889
 1\1\GINC-NC218\SP\RPBE1PBE\Gen\C60H42F24Fe1N2P2\MACKK4\02-Dec-2021\0\\
 # PBE1PBE gen pseudo=read int=(grid=ultrafine) empiricaldispersion=GD3
 BJ pop=nbo guess=read geom=check\\M003_1_1 title\\0,1\Fe,0,-0.02075736
 06,-1.5194394682,1.6919914869\P,0,1.7968366948,-0.0940627556,-0.772003
 0544\P,0,-1.7813040832,0.2962586294,-0.540408089\C,0,1.5041010016,-1.4
 370879802,0.413507368\C,0,0.5790102525,-2.4850681115,0.0169591343\C,0,
 0.4937642092,-3.4376653067,1.0770747517\C,0,1.3395579276,-2.9934968575
 ,2.1366134057\C,0,1.9930336576,-1.7655953092,1.7521710319\C,0,-1.53212
 60093,-0.3034273015,1.1749879567\C,0,-2.0521093477,-1.4184344104,1.968
 3978652\C,0,-1.3698699998,-1.3769036316,3.2372536842\C,0,-0.4731706603
 ,-0.2667138973,3.2624426306\C,0,-0.5608573411,0.3968830774,1.999667207
 \C,0,3.3569110089,-0.6197881073,-1.5889513095\C,0,4.1911857913,0.32546
 59728,-2.2115980999\C,0,5.3881221066,-0.0886393078,-2.8097193364\C,0,5
 .7593951853,-1.4391435213,-2.8028453554\C,0,4.9174834089,-2.3781592284
 ,-2.1938659114\C,0,3.7162172925,-1.975206726,-1.5957058752\C,0,2.28827
 41552,1.4834683279,0.0478196018\C,0,3.5568599819,1.6700729785,0.630849
 5347\C,0,3.9000658093,2.9263014889,1.1509783485\C,0,2.9924005826,3.996
 4128,1.1097091679\C,0,1.7384197924,3.8077374418,0.5231068755\C,0,1.394
 9003997,2.5633068546,-0.0248449615\C,0,-2.4446961691,1.9848633194,-0.1
 835497607\C,0,-3.1131524359,2.2083331754,1.0314577294\C,0,-3.645816855
 8,3.471083748,1.3249927161\C,0,-3.4985245802,4.526132674,0.4196457866\
 C,0,-2.8233224259,4.302966022,-0.7893676356\C,0,-2.3013135266,3.042056
 2238,-1.1017324213\C,0,-3.2242291351,-0.6290025952,-1.2072251307\C,0,-
 4.5420562427,-0.2584457565,-0.9063142857\C,0,-5.6117521986,-1.02042606
 64,-1.3991153977\C,0,-5.3774520577,-2.1459563686,-2.1976806792\C,0,-4.
 058257435,-2.4941346655,-2.5200013374\C,0,-2.9842839041,-1.7362410994,
 -2.0367626576\H,0,0.0229547163,-2.5001652282,-0.9218672111\H,0,0.01551
 98827,1.2703590342,1.6953005963\H,0,3.9180418596,1.3821098209,-2.22944
 94187\H,0,6.6984471375,-1.7545908176,-3.2645910547\H,0,3.0712066641,-2
 .7232085787,-1.1300845113\H,0,4.2613325365,0.8308240485,0.6724466302\H
 ,0,3.2720798905,4.9740350812,1.5088758841\H,0,0.4375817738,2.437222974
 9,-0.5426668488\H,0,-3.2242224743,1.400124203,1.7576069345\H,0,-3.8990
 280494,5.5157016651,0.6548851914\H,0,-1.7982790213,2.8724323293,-2.058
 5216319\H,0,-4.7472957693,0.6255000612,-0.296442845\H,0,-6.2127554106,
 -2.7384886148,-2.5762396928\H,0,-1.959288764,-1.9895652338,-2.32397039
 13\C,0,3.0414881692,-1.0156595859,2.5455330668\H,0,0.2182515921,-0.022
 1628235,4.0688423216\H,0,-1.5104824358,-2.1026762054,4.036499379\C,0,-
 3.2129386178,-2.3685359112,1.7005285259\H,0,2.8274218222,0.0641398146,
 2.4304336535\N,0,4.3816069695,-1.1960750378,1.9161782048\C,0,5.4360721
 531,-0.5324675695,2.6878426677\C,0,4.7812421471,-2.5698992256,1.610232
 1374\H,0,6.338040085,-0.4420199695,2.0588222221\H,0,5.1154380854,0.477
 7453943,2.9830743283\H,0,5.7072269555,-1.0849920705,3.6141256135\H,0,5
 .6275416327,-2.5467169772,0.9040024444\H,0,5.1074317604,-3.1448630624,
 2.5057373874\H,0,3.9563908197,-3.1142567085,1.126505591\C,0,2.96234193
 17,-1.651003682,6.8581844182\C,0,3.2525705489,-2.7274721295,6.00790896
 23\C,0,3.268962008,-2.5491978585,4.6173566779\C,0,2.991323187,-1.28891
 30092,4.0486591422\C,0,2.7330894499,-0.2120343153,4.9185392063\C,0,2.7
 071252129,-0.3870042269,6.3085695525\H,0,2.9471352781,-1.7944494418,7.
 943175017\H,0,3.4705855213,-3.7147337457,6.4284294339\H,0,3.5044559962
 ,-3.4015276545,3.9742717847\H,0,2.5613895665,0.7850680162,4.4935068156
 \H,0,2.4968325405,0.4661210452,6.9618284859\N,0,-4.2241253242,-2.20614
 83095,2.7774205016\H,0,-3.6495278811,-2.1096008474,0.7145023787\C,0,-5
 .4015747917,-3.0386593134,2.4960740206\C,0,-4.6581100318,-0.81436575,2
 .9337184046\H,0,-5.9247779132,-2.7410161886,1.5592778642\H,0,-5.108778
 05,-4.0962664938,2.4154852109\H,0,-6.1142041433,-2.9376222616,3.331752
 9543\H,0,-5.147203719,-0.3998063187,2.0222019599\H,0,-5.3930325606,-0.
 7646685608,3.7545040344\H,0,-3.8074868378,-0.1723290694,3.2099967765\C
 ,0,-1.8443504957,-6.4872161763,1.4086946318\C,0,-2.2118746461,-5.77498
 20269,0.257957039\C,0,-2.6697750209,-4.4545627468,0.3700608949\C,0,-2.
 7594930597,-3.8241502877,1.6208523378\C,0,-2.4175156988,-4.5541370243,
 2.7740488571\C,0,-1.9576992099,-5.8735587063,2.6676380987\H,0,-1.48446
 98523,-7.5180516989,1.32923028\H,0,-2.9534233704,-3.9054834658,-0.5299
 958103\H,0,-2.5458227569,-4.0897222991,3.7564893877\C,0,-4.3140545318,
 3.6772222596,2.6623318644\F,0,-5.0484269434,2.5834751162,3.0189340915\
 F,0,-3.3941480769,3.8729148049,3.6474564394\F,0,-5.1426927668,4.751346
 2693,2.6576372779\C,0,-2.6775067167,5.4577676351,-1.7549461098\F,0,-3.
 8808251602,5.7871717038,-2.3004239814\F,0,-2.2176418689,6.5672114798,-
 1.1095099204\F,0,-1.824546351,5.1778706813,-2.7663245249\C,0,-7.015608
 7069,-0.6347749408,-1.0011129441\F,0,-7.9524398736,-1.2479910247,-1.76
 55543656\F,0,-7.2654284475,-0.9778906568,0.3011229326\F,0,-7.205246664
 7,0.7067867421,-1.093107701\C,0,-3.7701608422,-3.6668470089,-3.4278359
 699\F,0,-2.7379273559,-4.4209935299,-2.9333141295\F,0,-4.8459363922,-4
 .4848089141,-3.5580137108\F,0,-3.4026484446,-3.2610225263,-4.666212738
 2\C,0,6.2518023941,0.927662519,-3.5189374129\F,0,7.5599158629,0.548955
 6913,-3.5284270945\F,0,5.8677312924,1.0894245591,-4.8107353851\F,0,6.1
 782946118,2.1462407016,-2.9171573929\C,0,5.3607290189,-3.8162035444,-2
 .1016162313\F,0,4.3260872833,-4.6539593993,-1.8265561571\F,0,5.9491615
 177,-4.2373212096,-3.2502365275\F,0,6.2837736926,-3.9796846775,-1.1031
 311175\C,0,5.2455360531,3.1334122701,1.8057866851\F,0,5.6696028794,4.4
 168013279,1.6899714969\F,0,5.1807314025,2.8552805248,3.1455521704\F,0,
 6.1975089301,2.3262037505,1.2732613454\C,0,0.7205731742,4.9218781489,0
 .4626138854\F,0,0.2720776346,5.1022568272,-0.8072384463\F,0,-0.3643616
 003,4.6165845517,1.2339111219\F,0,1.2198364092,6.1015585353,0.90459315
 92\H,0,-2.1496312958,-6.2393147584,-0.7315684459\H,0,-1.6945136283,-6.
 4304813264,3.5732289559\H,0,-0.1581013333,-4.3084983329,1.101154777\H,
 0,1.4193370649,-3.4607500889,3.1166584236\\Version=ES64L-G09RevE.01\St
 ate=1-A\HF=-5620.866993\RMSD=5.903e-09\Dipole=-0.4946788,-1.464543,1.6
 452632\Quadrupole=-15.7313309,3.2078538,12.5234771,4.1366979,12.180631
 3,-6.913458\PG=C01 [X(C60H42F24Fe1N2P2)]\\@


 MAN IS A SINGULAR CREATURE.  HE HAS A SET OF GIFTS
 WHICH MAKE HIM UNIQUE AMONG THE ANIMALS: SO THAT, 
 UNLIKE THEM, HE IS NOT A FIGURE IN THE LANDSCAPE --
 HE IS A SHAPER OF THE LANDSCAPE.

                       -- JACOB BRONOWSKI
 Job cpu time:       0 days 13 hours 43 minutes 12.0 seconds.
 File lengths (MBytes):  RWF=   4716 Int=      0 D2E=      0 Chk=    648 Scr=      1
 Normal termination of Gaussian 09 at Thu Dec  2 10:27:07 2021.
