 Entering Gaussian System, Link 0=g09
 Input=M003_1_5_SPE_NoPd.com
 Output=M003_1_5_SPE_NoPd.log
 Initial command:
 /gstore/apps/gaussian/g09.e01-foss-2017a/g09/l1.exe "/local/22791171/Gau-4068.inp" -scrdir="/local/22791171/"
 Entering Link 1 = /gstore/apps/gaussian/g09.e01-foss-2017a/g09/l1.exe PID=      4069.
  
 Copyright (c) 1988,1990,1992,1993,1995,1998,2003,2009,2015,
            Gaussian, Inc.  All Rights Reserved.
  
 This is part of the Gaussian(R) 09 program.  It is based on
 the Gaussian(R) 03 system (copyright 2003, Gaussian, Inc.),
 the Gaussian(R) 98 system (copyright 1998, Gaussian, Inc.),
 the Gaussian(R) 94 system (copyright 1995, Gaussian, Inc.),
 the Gaussian 92(TM) system (copyright 1992, Gaussian, Inc.),
 the Gaussian 90(TM) system (copyright 1990, Gaussian, Inc.),
 the Gaussian 88(TM) system (copyright 1988, Gaussian, Inc.),
 the Gaussian 86(TM) system (copyright 1986, Carnegie Mellon
 University), and the Gaussian 82(TM) system (copyright 1983,
 Carnegie Mellon University). Gaussian is a federally registered
 trademark of Gaussian, Inc.
  
 This software contains proprietary and confidential information,
 including trade secrets, belonging to Gaussian, Inc.
  
 This software is provided under written license and may be
 used, copied, transmitted, or stored only in accord with that
 written license.
  
 The following legend is applicable only to US Government
 contracts under FAR:
  
                    RESTRICTED RIGHTS LEGEND
  
 Use, reproduction and disclosure by the US Government is
 subject to restrictions as set forth in subparagraphs (a)
 and (c) of the Commercial Computer Software - Restricted
 Rights clause in FAR 52.227-19.
  
 Gaussian, Inc.
 340 Quinnipiac St., Bldg. 40, Wallingford CT 06492
  
  
 ---------------------------------------------------------------
 Warning -- This program may not be used in any manner that
 competes with the business of Gaussian, Inc. or will provide
 assistance to any competitor of Gaussian, Inc.  The licensee
 of this program is prohibited from giving any competitor of
 Gaussian, Inc. access to this program.  By using this program,
 the user acknowledges that Gaussian, Inc. is engaged in the
 business of creating and licensing software in the field of
 computational chemistry and represents and warrants to the
 licensee that it is not a competitor of Gaussian, Inc. and that
 it will not use this program in any manner prohibited above.
 ---------------------------------------------------------------
  

 Cite this work as:
 Gaussian 09, Revision E.01,
 M. J. Frisch, G. W. Trucks, H. B. Schlegel, G. E. Scuseria, 
 M. A. Robb, J. R. Cheeseman, G. Scalmani, V. Barone, B. Mennucci, 
 G. A. Petersson, H. Nakatsuji, M. Caricato, X. Li, H. P. Hratchian, 
 A. F. Izmaylov, J. Bloino, G. Zheng, J. L. Sonnenberg, M. Hada, 
 M. Ehara, K. Toyota, R. Fukuda, J. Hasegawa, M. Ishida, T. Nakajima, 
 Y. Honda, O. Kitao, H. Nakai, T. Vreven, J. A. Montgomery, Jr., 
 J. E. Peralta, F. Ogliaro, M. Bearpark, J. J. Heyd, E. Brothers, 
 K. N. Kudin, V. N. Staroverov, T. Keith, R. Kobayashi, J. Normand, 
 K. Raghavachari, A. Rendell, J. C. Burant, S. S. Iyengar, J. Tomasi, 
 M. Cossi, N. Rega, J. M. Millam, M. Klene, J. E. Knox, J. B. Cross, 
 V. Bakken, C. Adamo, J. Jaramillo, R. Gomperts, R. E. Stratmann, 
 O. Yazyev, A. J. Austin, R. Cammi, C. Pomelli, J. W. Ochterski, 
 R. L. Martin, K. Morokuma, V. G. Zakrzewski, G. A. Voth, 
 P. Salvador, J. J. Dannenberg, S. Dapprich, A. D. Daniels, 
 O. Farkas, J. B. Foresman, J. V. Ortiz, J. Cioslowski, 
 and D. J. Fox, Gaussian, Inc., Wallingford CT, 2013.
 
 ******************************************
 Gaussian 09:  ES64L-G09RevE.01 30-Nov-2015
                 1-Dec-2021 
 ******************************************
 %nprocs=14
 Will use up to   14 processors via shared memory.
 %mem=128GB
 %chk=M003_1_5_SPE_NoPd.chk
 ----------------------------------------------------------------------
 # PBE1PBE gen pseudo=read int=(grid=ultrafine) empiricaldispersion=GD3
 BJ nmr=giao
 ----------------------------------------------------------------------
 1/38=1/1;
 2/12=2,17=6,18=5,40=1/2;
 3/5=7,11=2,16=1,17=8,25=1,30=1,74=-13,75=-5,124=41/1,2,8,3;
 4//1;
 5/5=2,38=5/2;
 8/6=1,10=90,11=11/1;
 10/13=100,45=16/2;
 6/7=2,8=2,9=2,10=2,28=1/1;
 99/9=1/99;
 --------------
 M003_1_5 title
 --------------
 Symbolic Z-matrix:
 Charge =  0 Multiplicity = 1
 Fe                    0.03339  -1.60513   1.73047 
 P                     1.79895  -0.12567  -0.81451 
 P                    -1.76244   0.28711  -0.44172 
 C                     1.53773  -1.43025   0.42359 
 C                     0.66577  -2.54147   0.07041 
 C                     0.6826   -3.48365   1.14709 
 C                     1.52721  -2.96416   2.17324 
 C                     2.09153  -1.71206   1.74396 
 C                    -1.52822  -0.44018   1.22538 
 C                    -2.0158   -1.6532    1.88129 
 C                    -1.41781  -1.68212   3.19183 
 C                    -0.61125  -0.52279   3.37713 
 C                    -0.65561   0.24001   2.17026 
 C                     3.27485  -0.75868  -1.71479 
 C                     3.5654   -2.13028  -1.68759 
 C                     4.70966  -2.62189  -2.33297 
 C                     5.56382  -1.75625  -3.02319 
 C                     5.25951  -0.3883   -3.06958 
 C                     4.12161   0.11414  -2.42663 
 C                     2.42205   1.40562   0.00377 
 C                     3.77799   1.60418   0.32636 
 C                     4.17968   2.76934   0.99281 
 C                     3.24086   3.74567   1.3568 
 C                     1.89607   3.55584   1.0202 
 C                     1.49298   2.40573   0.32456 
 C                    -2.3841    1.95689   0.04804 
 C                    -2.13426   3.09047  -0.7458 
 C                    -2.59068   4.34647  -0.32429 
 C                    -3.30153   4.48826   0.87504 
 C                    -3.55732   3.35601   1.657 
 C                    -3.09624   2.09709   1.25204 
 C                    -3.20981  -0.57439  -1.17729 
 C                    -4.52865  -0.22684  -0.85843 
 C                    -5.59323  -0.95881  -1.40618 
 C                    -5.35115  -2.03061  -2.27332 
 C                    -4.02926  -2.35346  -2.61258 
 C                    -2.96184  -1.62348  -2.07821 
 H                     0.08085  -2.61392  -0.8481 
 H                    -0.13458   1.18089   1.99849 
 H                     2.91337  -2.82626  -1.15497 
 H                     6.46041  -2.13919  -3.51592 
 H                     3.90376   1.18234  -2.47406 
 H                     4.53044   0.85946   0.05459 
 H                     3.55623   4.64363   1.89286 
 H                     0.44828   2.28972   0.02031 
 H                    -1.59551   2.98759  -1.69252 
 H                    -3.64465   5.47351   1.20072 
 H                    -3.28724   1.22903   1.88717 
 H                    -4.73955   0.61598  -0.19496 
 H                    -6.18327  -2.60038  -2.69247 
 H                    -1.93387  -1.85198  -2.37622 
 C                     3.1815   -0.97239   2.50486 
 H                    -0.00845  -0.29381   4.25348 
 H                    -1.55616  -2.48873   3.91017 
 C                    -3.10537  -2.63519   1.47018 
 H                     3.5178   -0.12838   1.86578 
 N                     4.31588  -1.88772   2.76832 
 C                     4.80225  -2.52176   1.54136 
 C                     5.41984  -1.15166   3.39704 
 H                     5.65121  -3.17926   1.78983 
 H                     4.01712  -3.14339   1.08687 
 H                     5.1537   -1.78715   0.77756 
 H                     6.25406  -1.849     3.57854 
 H                     5.7953   -0.31346   2.76509 
 H                     5.09919  -0.73272   4.36282 
 C                     1.62391   0.79459   6.1565 
 C                     1.96998  -0.56664   6.12835 
 C                     2.48968  -1.14031   4.95987 
 C                     2.66681  -0.36035   3.80295 
 C                     2.34344   1.00558   3.84676 
 C                     1.81776   1.58164   5.01173 
 H                     1.21417   1.23977   7.06873 
 H                     1.8373   -1.18356   7.02333 
 H                     2.78859  -2.19316   4.93948 
 H                     2.49573   1.62223   2.95644 
 H                     1.56205   2.64642   5.02344 
 N                    -4.18413  -2.60562   2.49267 
 H                    -3.49641  -2.32722   0.48001 
 C                    -5.30999  -3.44533   2.06366 
 C                    -4.6819   -1.25333   2.76594 
 H                    -5.79652  -3.07096   1.13437 
 H                    -4.97008  -4.47784   1.89217 
 H                    -6.06907  -3.45717   2.86376 
 H                    -5.1593   -0.77195   1.88284 
 H                    -5.44533  -1.31631   3.55962 
 H                    -3.86995  -0.6079    3.1349 
 C                    -1.49792  -6.64895   0.99572 
 C                    -1.78128  -5.85848  -0.12752 
 C                    -2.31845  -4.57392   0.03755 
 C                    -2.57103  -4.05741   1.31845 
 C                    -2.31265  -4.86661   2.44007 
 C                    -1.77486  -6.15078   2.27985 
 H                    -1.07768  -7.65235   0.87315 
 H                    -2.54335  -3.96818  -0.84346 
 H                    -2.56744  -4.48961   3.43535 
 C                    -2.34746   5.5644   -1.18773 
 F                    -3.42987   5.83331  -1.96616 
 F                    -2.11875   6.6677   -0.42213 
 F                    -1.28166   5.39677  -2.0074 
 C                    -4.25397   3.47892   2.99026 
 F                    -5.00053   2.37108   3.26205 
 F                    -3.35328   3.60948   4.00395 
 F                    -5.07584   4.5581    3.03529 
 C                    -7.00334  -0.61511  -0.99141 
 F                    -7.1789    0.72764  -0.89181 
 F                    -7.92389  -1.09897  -1.86173 
 F                    -7.29274  -1.1436    0.23822 
 C                    -3.74404  -3.45201  -3.60956 
 F                    -4.75904  -4.35298  -3.66927 
 F                    -3.55604  -2.95812  -4.85667 
 F                    -2.60606  -4.13509  -3.27341 
 C                     5.05527  -4.08101  -2.17456 
 F                     5.91971  -4.50997  -3.12761 
 F                     5.64435  -4.31068  -0.96054 
 F                     3.94638  -4.86665  -2.22615 
 C                     6.13647   0.55307  -3.86227 
 F                     5.68883   0.69203  -5.13575 
 F                     6.16369   1.79257  -3.30173 
 F                     7.4187    0.09976  -3.92857 
 C                     5.62169   2.90892   1.42066 
 F                     5.98591   4.20871   1.55229 
 F                     5.82114   2.30695   2.63077 
 F                     6.46461   2.31803   0.53578 
 C                     0.84569   4.57548   1.39108 
 F                     1.31767   5.50183   2.26152 
 F                     0.37834   5.22952   0.29713 
 F                    -0.22542   3.9614    1.98055 
 H                    -1.59449  -6.23861  -1.1372 
 H                    -1.5777   -6.7702    3.16128 
 H                     0.09252  -4.39591   1.20541 
 H                     1.7045   -3.41786   3.14786 
 
 Stoichiometry    C60H42F24FeN2P2
 Framework group  C1[X(C60H42F24FeN2P2)]
 Deg. of freedom   387
 Full point group                 C1      NOp   1
 Largest Abelian subgroup         C1      NOp   1
 Largest concise Abelian subgroup C1      NOp   1
                         Standard orientation:                         
 ---------------------------------------------------------------------
 Center     Atomic      Atomic             Coordinates (Angstroms)
 Number     Number       Type             X           Y           Z
 ---------------------------------------------------------------------
      1         26           0       -0.108580   -1.046914    1.768188
      2         15           0        1.818750   -0.380003   -0.992894
      3         15           0       -1.749008    0.132664   -0.959742
      4          6           0        1.466737   -1.265279    0.554831
      5          6           0        0.594004   -2.428991    0.491993
      6          6           0        0.535139   -3.015539    1.795736
      7          6           0        1.333225   -2.221044    2.672128
      8          6           0        1.943467   -1.150427    1.929254
      9          6           0       -1.618411   -0.076419    0.857472
     10          6           0       -2.163448   -1.043643    1.809720
     11          6           0       -1.637267   -0.689919    3.103532
     12          6           0       -0.819901    0.470921    2.988313
     13          6           0       -0.784960    0.847945    1.611004
     14          6           0        3.328505   -1.252153   -1.584076
     15          6           0        3.591038   -2.556684   -1.141696
     16          6           0        4.758712   -3.218290   -1.549557
     17          6           0        5.664966   -2.594235   -2.412446
     18          6           0        5.389656   -1.298757   -2.872868
     19          6           0        4.228677   -0.627519   -2.470122
     20          6           0        2.426085    1.321965   -0.622577
     21          6           0        3.766297    1.602686   -0.295347
     22          6           0        4.153757    2.910705    0.024147
     23          6           0        3.215507    3.953139    0.033691
     24          6           0        1.887340    3.676647   -0.308820
     25          6           0        1.500333    2.374505   -0.660668
     26          6           0       -2.364171    1.874251   -1.014258
     27          6           0       -2.050600    2.725802   -2.088554
     28          6           0       -2.504994    4.051301   -2.078209
     29          6           0       -3.276323    4.539096   -1.014761
     30          6           0       -3.595173    3.685360    0.047474
     31          6           0       -3.137063    2.361885    0.054038
     32          6           0       -3.170963   -0.902489   -1.493224
     33          6           0       -4.498163   -0.473620   -1.365051
     34          6           0       -5.545561   -1.330990   -1.735197
     35          6           0       -5.277749   -2.609977   -2.236945
     36          6           0       -3.945950   -3.021206   -2.391620
     37          6           0       -2.895031   -2.169644   -2.033508
     38          1           0        0.057912   -2.765161   -0.397181
     39          1           0       -0.237660    1.696269    1.202290
     40          1           0        2.898268   -3.065037   -0.467271
     41          1           0        6.579249   -3.106688   -2.720323
     42          1           0        4.034039    0.380758   -2.839231
     43          1           0        4.517941    0.809156   -0.294952
     44          1           0        3.518690    4.967744    0.301683
     45          1           0        0.471439    2.177307   -0.976745
     46          1           0       -1.463906    2.349464   -2.931921
     47          1           0       -3.617615    5.577374   -1.010543
     48          1           0       -3.378329    1.717745    0.902733
     49          1           0       -4.728271    0.526800   -0.989251
     50          1           0       -6.096878   -3.275250   -2.518371
     51          1           0       -1.857093   -2.477837   -2.193009
     52          6           0        3.004926   -0.223480    2.502122
     53          1           0       -0.260728    0.944426    3.792619
     54          1           0       -1.829261   -1.251118    4.016760
     55          6           0       -3.247890   -2.100147    1.641524
     56          1           0        3.391012    0.396143    1.664926
     57          7           0        4.105935   -1.024762    3.085040
     58          6           0        4.645262   -1.990833    2.125970
     59          6           0        5.188381   -0.139919    3.533549
     60          1           0        5.467011   -2.549197    2.603184
     61          1           0        3.873952   -2.716138    1.828594
     62          1           0        5.051083   -1.512318    1.202451
     63          1           0        5.998254   -0.755905    3.957591
     64          1           0        5.613066    0.476126    2.707085
     65          1           0        4.824428    0.543711    4.315361
     66          6           0        1.287620    2.537200    5.385224
     67          6           0        1.608754    1.226269    5.774883
     68          6           0        2.179369    0.334937    4.855948
     69          6           0        2.433091    0.742403    3.533916
     70          6           0        2.133874    2.062351    3.159127
     71          6           0        1.557529    2.954962    4.073674
     72          1           0        0.838091    3.230505    6.103190
     73          1           0        1.416550    0.898077    6.801793
     74          1           0        2.458865   -0.678691    5.160428
     75          1           0        2.345400    2.391591    2.137866
     76          1           0        1.321855    3.977350    3.759876
     77          7           0       -4.379174   -1.770414    2.547918
     78          1           0       -3.579329   -2.093918    0.584028
     79          6           0       -5.496167   -2.695978    2.319083
     80          6           0       -4.865077   -0.396035    2.386287
     81          1           0       -5.924950   -2.608215    1.294931
     82          1           0       -5.167251   -3.734399    2.475683
     83          1           0       -6.297156   -2.471625    3.043370
     84          1           0       -5.285181   -0.192460    1.375559
     85          1           0       -5.671035   -0.222454    3.119108
     86          1           0       -4.061947    0.326983    2.596582
     87          6           0       -1.693931   -6.081451    2.450083
     88          6           0       -1.901559   -5.652916    1.130965
     89          6           0       -2.422281   -4.374825    0.883535
     90          6           0       -2.733326   -3.505985    1.941675
     91          6           0       -2.550912   -3.952834    3.263275
     92          6           0       -2.029826   -5.229142    3.515270
     93          1           0       -1.286882   -7.077929    2.649484
     94          1           0       -2.588043   -4.052350   -0.147097
     95          1           0       -2.851492   -3.300864    4.089239
     96          6           0       -2.192696    4.963207   -3.243938
     97          9           0       -3.226489    4.995688   -4.127172
     98          9           0       -1.984438    6.241466   -2.821568
     99          9           0       -1.087850    4.560730   -3.917148
    100          6           0       -4.359859    4.194188    1.245111
    101          9           0       -5.140861    3.215980    1.785188
    102          9           0       -3.512514    4.612938    2.226185
    103          9           0       -5.162286    5.241507    0.926751
    104          6           0       -6.969091   -0.877549   -1.519516
    105          9           0       -7.124177    0.436149   -1.825875
    106          9           0       -7.850673   -1.592249   -2.261820
    107          9           0       -7.334023   -1.023003   -0.207757
    108          6           0       -3.628609   -4.363820   -3.007102
    109          9           0       -4.655903   -5.240350   -2.859137
    110          9           0       -3.364634   -4.256304   -4.331228
    111          9           0       -2.523494   -4.921747   -2.422273
    112          6           0        5.067514   -4.568330   -0.953247
    113          9           0        5.973511   -5.259205   -1.689068
    114          9           0        5.586153   -4.434776    0.306430
    115          9           0        3.948238   -5.331960   -0.836491
    116          6           0        6.325618   -0.632268   -3.854385
    117          9           0        5.949645   -0.870308   -5.136350
    118          9           0        6.346306    0.716844   -3.678982
    119          9           0        7.600707   -1.088408   -3.712636
    120          6           0        5.573133    3.165556    0.473971
    121          9           0        5.954428    4.446163    0.241417
    122          9           0        5.695909    2.942894    1.816304
    123          9           0        6.450914    2.339788   -0.150772
    124          6           0        0.838160    4.762806   -0.311675
    125          9           0        1.280307    5.901856    0.276228
    126          9           0        0.442684    5.069879   -1.573500
    127          9           0       -0.274513    4.350448    0.369331
    128          1           0       -1.668150   -6.311926    0.288315
    129          1           0       -1.892039   -5.564513    4.548714
    130          1           0       -0.074469   -3.869466    2.083851
    131          1           0        1.449324   -2.370658    3.745111
 ---------------------------------------------------------------------
 Rotational constants (GHZ):      0.0230916      0.0172124      0.0141536
 General basis read from cards:  (5D, 7F)
 ======================================================================================================
                                       Pseudopotential Parameters
 ======================================================================================================
  Center     Atomic      Valence      Angular      Power
  Number     Number     Electrons     Momentum     of R      Exponent        Coefficient   SO-Coeffient
 ======================================================================================================
    1         26           16
                                      F and up 
                                                     2        1.0000000        0.00000000    0.00000000
                                      S - F
                                                     2       20.9300000      253.74958800    0.00000000
                                                     2        9.4450000       37.92284500    0.00000000
                                      P - F
                                                     2       21.7600000      161.03681200    0.00000000
                                                     2        9.1780000       27.65129800    0.00000000
                                      D - F
                                                     2       25.9000000      -24.43127600    0.00000000
                                                     2        8.8350000       -1.43425100    0.00000000
    2         15
                                   No pseudopotential on this center.
    3         15
                                   No pseudopotential on this center.
    4          6
                                   No pseudopotential on this center.
    5          6
                                   No pseudopotential on this center.
    6          6
                                   No pseudopotential on this center.
    7          6
                                   No pseudopotential on this center.
    8          6
                                   No pseudopotential on this center.
    9          6
                                   No pseudopotential on this center.
   10          6
                                   No pseudopotential on this center.
   11          6
                                   No pseudopotential on this center.
   12          6
                                   No pseudopotential on this center.
   13          6
                                   No pseudopotential on this center.
   14          6
                                   No pseudopotential on this center.
   15          6
                                   No pseudopotential on this center.
   16          6
                                   No pseudopotential on this center.
   17          6
                                   No pseudopotential on this center.
   18          6
                                   No pseudopotential on this center.
   19          6
                                   No pseudopotential on this center.
   20          6
                                   No pseudopotential on this center.
   21          6
                                   No pseudopotential on this center.
   22          6
                                   No pseudopotential on this center.
   23          6
                                   No pseudopotential on this center.
   24          6
                                   No pseudopotential on this center.
   25          6
                                   No pseudopotential on this center.
   26          6
                                   No pseudopotential on this center.
   27          6
                                   No pseudopotential on this center.
   28          6
                                   No pseudopotential on this center.
   29          6
                                   No pseudopotential on this center.
   30          6
                                   No pseudopotential on this center.
   31          6
                                   No pseudopotential on this center.
   32          6
                                   No pseudopotential on this center.
   33          6
                                   No pseudopotential on this center.
   34          6
                                   No pseudopotential on this center.
   35          6
                                   No pseudopotential on this center.
   36          6
                                   No pseudopotential on this center.
   37          6
                                   No pseudopotential on this center.
   38          1
                                   No pseudopotential on this center.
   39          1
                                   No pseudopotential on this center.
   40          1
                                   No pseudopotential on this center.
   41          1
                                   No pseudopotential on this center.
   42          1
                                   No pseudopotential on this center.
   43          1
                                   No pseudopotential on this center.
   44          1
                                   No pseudopotential on this center.
   45          1
                                   No pseudopotential on this center.
   46          1
                                   No pseudopotential on this center.
   47          1
                                   No pseudopotential on this center.
   48          1
                                   No pseudopotential on this center.
   49          1
                                   No pseudopotential on this center.
   50          1
                                   No pseudopotential on this center.
   51          1
                                   No pseudopotential on this center.
   52          6
                                   No pseudopotential on this center.
   53          1
                                   No pseudopotential on this center.
   54          1
                                   No pseudopotential on this center.
   55          6
                                   No pseudopotential on this center.
   56          1
                                   No pseudopotential on this center.
   57          7
                                   No pseudopotential on this center.
   58          6
                                   No pseudopotential on this center.
   59          6
                                   No pseudopotential on this center.
   60          1
                                   No pseudopotential on this center.
   61          1
                                   No pseudopotential on this center.
   62          1
                                   No pseudopotential on this center.
   63          1
                                   No pseudopotential on this center.
   64          1
                                   No pseudopotential on this center.
   65          1
                                   No pseudopotential on this center.
   66          6
                                   No pseudopotential on this center.
   67          6
                                   No pseudopotential on this center.
   68          6
                                   No pseudopotential on this center.
   69          6
                                   No pseudopotential on this center.
   70          6
                                   No pseudopotential on this center.
   71          6
                                   No pseudopotential on this center.
   72          1
                                   No pseudopotential on this center.
   73          1
                                   No pseudopotential on this center.
   74          1
                                   No pseudopotential on this center.
   75          1
                                   No pseudopotential on this center.
   76          1
                                   No pseudopotential on this center.
   77          7
                                   No pseudopotential on this center.
   78          1
                                   No pseudopotential on this center.
   79          6
                                   No pseudopotential on this center.
   80          6
                                   No pseudopotential on this center.
   81          1
                                   No pseudopotential on this center.
   82          1
                                   No pseudopotential on this center.
   83          1
                                   No pseudopotential on this center.
   84          1
                                   No pseudopotential on this center.
   85          1
                                   No pseudopotential on this center.
   86          1
                                   No pseudopotential on this center.
   87          6
                                   No pseudopotential on this center.
   88          6
                                   No pseudopotential on this center.
   89          6
                                   No pseudopotential on this center.
   90          6
                                   No pseudopotential on this center.
   91          6
                                   No pseudopotential on this center.
   92          6
                                   No pseudopotential on this center.
   93          1
                                   No pseudopotential on this center.
   94          1
                                   No pseudopotential on this center.
   95          1
                                   No pseudopotential on this center.
   96          6
                                   No pseudopotential on this center.
   97          9
                                   No pseudopotential on this center.
   98          9
                                   No pseudopotential on this center.
   99          9
                                   No pseudopotential on this center.
  100          6
                                   No pseudopotential on this center.
  101          9
                                   No pseudopotential on this center.
  102          9
                                   No pseudopotential on this center.
  103          9
                                   No pseudopotential on this center.
  104          6
                                   No pseudopotential on this center.
  105          9
                                   No pseudopotential on this center.
  106          9
                                   No pseudopotential on this center.
  107          9
                                   No pseudopotential on this center.
  108          6
                                   No pseudopotential on this center.
  109          9
                                   No pseudopotential on this center.
  110          9
                                   No pseudopotential on this center.
  111          9
                                   No pseudopotential on this center.
  112          6
                                   No pseudopotential on this center.
  113          9
                                   No pseudopotential on this center.
  114          9
                                   No pseudopotential on this center.
  115          9
                                   No pseudopotential on this center.
  116          6
                                   No pseudopotential on this center.
  117          9
                                   No pseudopotential on this center.
  118          9
                                   No pseudopotential on this center.
  119          9
                                   No pseudopotential on this center.
  120          6
                                   No pseudopotential on this center.
  121          9
                                   No pseudopotential on this center.
  122          9
                                   No pseudopotential on this center.
  123          9
                                   No pseudopotential on this center.
  124          6
                                   No pseudopotential on this center.
  125          9
                                   No pseudopotential on this center.
  126          9
                                   No pseudopotential on this center.
  127          9
                                   No pseudopotential on this center.
  128          1
                                   No pseudopotential on this center.
  129          1
                                   No pseudopotential on this center.
  130          1
                                   No pseudopotential on this center.
  131          1
                                   No pseudopotential on this center.
 ======================================================================================================
 There are  3481 symmetry adapted cartesian basis functions of A   symmetry.
 There are  3035 symmetry adapted basis functions of A   symmetry.
  3035 basis functions,  4935 primitive gaussians,  3481 cartesian basis functions
   339 alpha electrons      339 beta electrons
       nuclear repulsion energy     20264.1015698215 Hartrees.
 NAtoms=  131 NActive=  131 NUniq=  131 SFac= 1.00D+00 NAtFMM=   60 NAOKFM=T Big=T
 Integral buffers will be    131072 words long.
 Raffenetti 2 integral format.
 Two-electron integral symmetry is turned on.
 Nuclear repulsion after empirical dispersion term =    20263.8749218119 Hartrees.
 One-electron integrals computed using PRISM.
   1 Symmetry operations used in ECPInt.
 ECPInt:  NShTT=  667590 NPrTT= 2100277 LenC2=  417460 LenP2D=  809970.
 LDataN:  DoStor=T MaxTD1= 6 Len=  172
 NBasis=  3035 RedAO= T EigKep=  3.06D-06  NBF=  3035
 NBsUse=  3035 1.00D-06 EigRej= -1.00D+00 NBFU=  3035
 ExpMin= 1.00D-02 ExpMax= 5.24D+04 ExpMxC= 1.79D+03 IAcc=3 IRadAn=         5 AccDes= 0.00D+00
 Harris functional with IExCor= 1009 and IRadAn=       5 diagonalized for initial guess.
 HarFok:  IExCor= 1009 AccDes= 0.00D+00 IRadAn=         5 IDoV= 1 UseB2=F ITyADJ=14
 ICtDFT=  3500011 ScaDFX=  1.000000  1.000000  1.000000  1.000000
 FoFCou: FMM=F IPFlag=           0 FMFlag=      100000 FMFlg1=        2001
         NFxFlg=           0 DoJE=T BraDBF=F KetDBF=T FulRan=T
         wScrn=  0.000000 ICntrl=     500 IOpCl=  0 I1Cent=   200000004 NGrid=           0
         NMat0=    1 NMatS0=      1 NMatT0=    0 NMatD0=    1 NMtDS0=    0 NMtDT0=    0
 Petite list used in FoFCou.
 Requested convergence on RMS density matrix=1.00D-08 within 128 cycles.
 Requested convergence on MAX density matrix=1.00D-06.
 Requested convergence on             energy=1.00D-06.
 No special actions if energy rises.
 EnCoef did     6 forward-backward iterations
 Restarting incremental Fock formation.
 SCF Done:  E(RPBE1PBE) =  -5620.86944479     A.U. after   25 cycles
            NFock= 25  Conv=0.83D-09     -V/T= 2.0138
 DoSCS=F DFT=T ScalE2(SS,OS)=  1.000000  1.000000
 Range of M.O.s used for correlation:     1  3035
 NBasis=  3035 NAE=   339 NBE=   339 NFC=     0 NFV=     0
 NROrb=   3035 NOA=   339 NOB=   339 NVA=  2696 NVB=  2696

 **** Warning!!: The largest alpha MO coefficient is  0.38417096D+02

          Differentiating once with respect to magnetic field using GIAOs.
          Electric field/nuclear overlap derivatives assumed to be zero.
 FoFCou: FMM=F IPFlag=           0 FMFlag=      100000 FMFlg1=        2001
         NFxFlg=           0 DoJE=F BraDBF=F KetDBF=T FulRan=T
         wScrn=  0.000000 ICntrl=    6100 IOpCl=  0 I1Cent=           7 NGrid=         131
         NMat0=    1 NMatS0=      1 NMatT0=    0 NMatD0=    1 NMtDS0=    0 NMtDT0=    0
 Symmetry not used in FoFCou.
   1 Symmetry operations used in ECPInt.
 ECPInt:  NShTT=  667590 NPrTT= 2100277 LenC2=  667591 LenP2D= 2100277.
 LDataN:  DoStor=T MaxTD1= 7 Len=  274
 FoFJK:  IHMeth= 1 ICntrl=    6127 DoSepK=F KAlg= 0 I1Cent=   0 FoldK=F
 IRaf=         1 NMat=   1 IRICut=       1 DoRegI=T DoRafI=F ISym2E= 0.
          There are     3 degrees of freedom in the 1st order CPHF.  IDoFFX=0 NUNeed=     3.
      3 vectors produced by pass  0 Test12= 3.05D-11 3.33D-08 XBig12= 5.45D+02 2.70D+00.
 AX will form     3 AO Fock derivatives at one time.
      3 vectors produced by pass  1 Test12= 3.05D-11 3.33D-08 XBig12= 2.97D+00 4.38D-01.
      3 vectors produced by pass  2 Test12= 3.05D-11 3.33D-08 XBig12= 1.10D-01 9.97D-02.
      3 vectors produced by pass  3 Test12= 3.05D-11 3.33D-08 XBig12= 2.29D-03 7.75D-03.
      3 vectors produced by pass  4 Test12= 3.05D-11 3.33D-08 XBig12= 2.97D-05 1.39D-03.
      3 vectors produced by pass  5 Test12= 3.05D-11 3.33D-08 XBig12= 1.36D-06 2.17D-04.
      3 vectors produced by pass  6 Test12= 3.05D-11 3.33D-08 XBig12= 8.02D-09 2.60D-05.
      3 vectors produced by pass  7 Test12= 3.05D-11 3.33D-08 XBig12= 6.29D-11 2.11D-06.
      3 vectors produced by pass  8 Test12= 3.05D-11 3.33D-08 XBig12= 5.60D-13 2.53D-07.
 InvSVY:  IOpt=1 It=  1 EMax= 7.11D-15
 Solved reduced A of dimension    27 with     3 vectors.
 Calculating GIAO nuclear magnetic shielding tensors.
 SCF GIAO Magnetic shielding tensor (ppm):
      1  Fe   Isotropic = -6360.3056   Anisotropy =  8100.5913
   XX= -3647.3736   YX= -3665.3941   ZX=  -960.9603
   XY= -3671.9881   YY= -6623.6329   ZY=   870.8396
   XZ= -1010.3070   YZ=   869.4233   ZZ= -8809.9103
   Eigenvalues: -9232.7133 -8888.2921  -959.9114
      2  P    Isotropic =   302.0390   Anisotropy =    56.2614
   XX=   300.8453   YX=   -25.8468   ZX=    -9.1471
   XY=   -34.4365   YY=   308.2250   ZY=    29.9388
   XZ=    -2.7579   YZ=    -3.0839   ZZ=   297.0466
   Eigenvalues:   273.2134   293.3569   339.5466
      3  P    Isotropic =   313.7735   Anisotropy =    33.3123
   XX=   303.1760   YX=    -7.9194   ZX=   -47.7274
   XY=   -24.5623   YY=   321.2651   ZY=    -5.3850
   XZ=    -2.3067   YZ=   -20.1984   ZZ=   316.8794
   Eigenvalues:   274.8777   330.4612   335.9817
      4  C    Isotropic =   110.0551   Anisotropy =    82.6281
   XX=   121.0232   YX=   -39.4936   ZX=    22.2726
   XY=   -34.5528   YY=   133.9320   ZY=     6.6357
   XZ=     8.9565   YZ=    12.7298   ZZ=    75.2101
   Eigenvalues:    62.8967   102.1281   165.1405
      5  C    Isotropic =   104.0989   Anisotropy =    73.1281
   XX=   135.3002   YX=   -26.5207   ZX=   -19.2144
   XY=   -29.1837   YY=   108.5334   ZY=   -44.0625
   XZ=   -21.5705   YZ=   -26.0021   ZZ=    68.4631
   Eigenvalues:    37.6773   121.7685   152.8510
      6  C    Isotropic =   102.9796   Anisotropy =   104.5570
   XX=   148.9170   YX=   -37.9782   ZX=   -16.6497
   XY=   -48.2991   YY=    67.0479   ZY=    17.6143
   XZ=   -13.8474   YZ=    14.4771   ZZ=    92.9740
   Eigenvalues:    46.7359    89.5188   172.6843
      7  C    Isotropic =   106.5463   Anisotropy =    95.9762
   XX=   134.2469   YX=   -24.5629   ZX=   -44.0788
   XY=   -19.9617   YY=   114.9202   ZY=    42.4728
   XZ=   -25.5738   YZ=    20.5307   ZZ=    70.4716
   Eigenvalues:    48.1009   101.0075   170.5304
      8  C    Isotropic =    84.3841   Anisotropy =    95.6523
   XX=    72.4485   YX=   -42.7664   ZX=   -29.2580
   XY=   -27.4255   YY=   121.8787   ZY=    22.3714
   XZ=   -13.7859   YZ=    15.3749   ZZ=    58.8251
   Eigenvalues:    42.3950    62.6050   148.1523
      9  C    Isotropic =   104.4414   Anisotropy =    85.9378
   XX=   113.5913   YX=   -24.3632   ZX=   -41.1116
   XY=   -22.5783   YY=   115.3234   ZY=    33.2487
   XZ=   -17.2613   YZ=    29.6176   ZZ=    84.4096
   Eigenvalues:    60.6065    90.9846   161.7333
     10  C    Isotropic =    83.1943   Anisotropy =    95.4804
   XX=    70.4409   YX=   -54.7755   ZX=    -8.0119
   XY=   -36.1264   YY=   113.6758   ZY=    16.4573
   XZ=    -1.5894   YZ=    22.4389   ZZ=    65.4660
   Eigenvalues:    39.9107    62.8243   146.8479
     11  C    Isotropic =   108.3855   Anisotropy =    94.6932
   XX=   132.5151   YX=   -45.4271   ZX=    22.1788
   XY=   -30.9074   YY=   133.8212   ZY=     0.8323
   XZ=    12.8792   YZ=    21.5366   ZZ=    58.8202
   Eigenvalues:    49.5608   104.0814   171.5143
     12  C    Isotropic =   103.4430   Anisotropy =   103.6485
   XX=   152.4817   YX=   -34.7191   ZX=    -3.9644
   XY=   -44.5455   YY=    94.2380   ZY=   -22.3289
   XZ=   -18.0548   YZ=   -19.8719   ZZ=    63.6092
   Eigenvalues:    44.5157    93.2713   172.5420
     13  C    Isotropic =   108.1892   Anisotropy =    77.9172
   XX=   147.3246   YX=   -28.5670   ZX=     3.7517
   XY=   -39.5848   YY=    59.3683   ZY=    26.4996
   XZ=    -7.1951   YZ=     5.5784   ZZ=   117.8747
   Eigenvalues:    44.7719   119.6617   160.1340
     14  C    Isotropic =    32.8352   Anisotropy =   200.9735
   XX=    19.5288   YX=    48.1827   ZX=    85.8263
   XY=    41.7101   YY=    -9.9184   ZY=    49.5123
   XZ=    78.9055   YZ=    44.3598   ZZ=    88.8951
   Eigenvalues:   -45.0043   -23.3077   166.8175
     15  C    Isotropic =    45.8936   Anisotropy =   198.5294
   XX=    30.8100   YX=    16.6599   ZX=    80.1190
   XY=     2.8263   YY=    26.9934   ZY=    70.4578
   XZ=    99.3230   YZ=    80.0690   ZZ=    79.8774
   Eigenvalues:   -59.5411    18.9754   178.2466
     16  C    Isotropic =    46.7092   Anisotropy =   161.7437
   XX=    58.8116   YX=    36.7153   ZX=    36.9491
   XY=    37.7709   YY=   -15.1623   ZY=    68.1257
   XZ=    44.1151   YZ=    59.6822   ZZ=    96.4785
   Eigenvalues:   -47.4427    33.0320   154.5384
     17  C    Isotropic =    58.4743   Anisotropy =   183.7832
   XX=    21.8746   YX=    57.2399   ZX=    69.6549
   XY=    55.1372   YY=    39.8907   ZY=    38.7897
   XZ=    72.1290   YZ=    42.8378   ZZ=   113.6577
   Eigenvalues:   -33.6880    28.1145   180.9964
     18  C    Isotropic =    46.9317   Anisotropy =   160.7720
   XX=    27.7624   YX=     0.1524   ZX=    77.6302
   XY=     2.0307   YY=    33.2394   ZY=    59.2639
   XZ=    71.5370   YZ=    60.4670   ZZ=    79.7932
   Eigenvalues:   -43.3919    30.0740   154.1130
     19  C    Isotropic =    49.1636   Anisotropy =   190.2681
   XX=    60.1418   YX=    32.1376   ZX=    56.1731
   XY=    49.7066   YY=   -22.9940   ZY=    65.7598
   XZ=    51.2959   YZ=    69.7167   ZZ=   110.3430
   Eigenvalues:   -54.4865    25.9683   176.0090
     20  C    Isotropic =    38.5058   Anisotropy =   202.6305
   XX=    -3.9202   YX=    -2.1325   ZX=   -40.6899
   XY=    -6.7473   YY=   -37.5269   ZY=   -29.1748
   XZ=   -53.4835   YZ=   -32.2796   ZZ=   156.9646
   Eigenvalues:   -46.3979   -11.6775   173.5928
     21  C    Isotropic =    40.6818   Anisotropy =   204.8195
   XX=   -17.0558   YX=    42.4965   ZX=   -26.8642
   XY=    38.2811   YY=   -27.6995   ZY=   -35.1906
   XZ=   -44.5477   YZ=    -5.0870   ZZ=   166.8008
   Eigenvalues:   -63.4506     8.2679   177.2281
     22  C    Isotropic =    46.7204   Anisotropy =   162.6596
   XX=   -28.9169   YX=    -3.7601   ZX=   -45.9941
   XY=    -8.9671   YY=    30.2172   ZY=   -28.8141
   XZ=   -48.6978   YZ=   -19.8055   ZZ=   138.8608
   Eigenvalues:   -43.4899    28.4909   155.1601
     23  C    Isotropic =    54.6652   Anisotropy =   191.3090
   XX=    27.2607   YX=    -6.3353   ZX=   -37.3575
   XY=    -7.0497   YY=   -24.6778   ZY=   -43.4226
   XZ=   -44.8758   YZ=   -50.4912   ZZ=   161.4127
   Eigenvalues:   -40.1092    21.9002   182.2045
     24  C    Isotropic =    46.1682   Anisotropy =   160.8998
   XX=     2.4187   YX=    39.5252   ZX=   -24.5295
   XY=    46.2888   YY=    -5.6898   ZY=   -25.5331
   XZ=   -25.4995   YZ=   -26.7141   ZZ=   141.7758
   Eigenvalues:   -44.7697    29.8396   153.4347
     25  C    Isotropic =    39.2809   Anisotropy =   193.0629
   XX=   -45.0290   YX=   -15.2679   ZX=   -58.4558
   XY=    -6.9515   YY=    13.1775   ZY=   -33.5577
   XZ=   -53.9936   YZ=   -18.4754   ZZ=   149.6944
   Eigenvalues:   -64.1556    14.0089   167.9895
     26  C    Isotropic =    35.8252   Anisotropy =   206.6222
   XX=   106.8574   YX=    53.2160   ZX=    85.0974
   XY=    49.8166   YY=   -29.0139   ZY=    29.0286
   XZ=    74.4435   YZ=    25.6122   ZZ=    29.6321
   Eigenvalues:   -46.3442   -19.7535   173.5733
     27  C    Isotropic =    44.7604   Anisotropy =   190.0239
   XX=   103.2649   YX=    41.3389   ZX=    97.2142
   XY=    51.0940   YY=    21.5023   ZY=     0.4718
   XZ=    92.7098   YZ=   -10.5893   ZZ=     9.5141
   Eigenvalues:   -60.3658    23.2041   171.4430
     28  C    Isotropic =    43.9391   Anisotropy =   167.8296
   XX=   114.7197   YX=    16.8682   ZX=    63.2272
   XY=    20.0744   YY=     6.7892   ZY=    50.7749
   XZ=    66.3263   YZ=    47.3845   ZZ=    10.3084
   Eigenvalues:   -48.3032    24.2951   155.8255
     29  C    Isotropic =    52.9178   Anisotropy =   194.3609
   XX=   131.3101   YX=    61.4774   ZX=    57.7840
   XY=    55.8025   YY=   -23.0651   ZY=    20.1430
   XZ=    64.0429   YZ=    21.7312   ZZ=    50.5084
   Eigenvalues:   -42.8157    19.0773   182.4917
     30  C    Isotropic =    44.9942   Anisotropy =   166.2582
   XX=    91.8048   YX=    42.9252   ZX=    91.5922
   XY=    43.4287   YY=    31.6837   ZY=    -3.6058
   XZ=    77.9497   YZ=    -0.2505   ZZ=    11.4940
   Eigenvalues:   -50.2434    29.3929   155.8330
     31  C    Isotropic =    36.8169   Anisotropy =   204.9270
   XX=   130.6146   YX=     7.4454   ZX=    76.7135
   XY=    33.6797   YY=    -9.5892   ZY=    48.7163
   XZ=    78.4948   YZ=    50.0583   ZZ=   -10.5748
   Eigenvalues:   -70.0243     7.0400   173.4349
     32  C    Isotropic =    41.2000   Anisotropy =   204.5153
   XX=   -27.3273   YX=   -17.1658   ZX=   -16.7444
   XY=   -20.0824   YY=     4.2843   ZY=   -81.1482
   XZ=   -11.1399   YZ=   -64.7559   ZZ=   146.6431
   Eigenvalues:   -49.5457    -4.3977   177.5435
     33  C    Isotropic =    40.0554   Anisotropy =   207.0184
   XX=     3.1239   YX=    21.2207   ZX=     5.4432
   XY=    13.4303   YY=   -24.2919   ZY=   -76.6559
   XZ=    -3.6712   YZ=   -95.2104   ZZ=   141.3343
   Eigenvalues:   -64.7401     6.8387   178.0677
     34  C    Isotropic =    44.7520   Anisotropy =   165.5368
   XX=   -39.8419   YX=    25.0061   ZX=    10.8592
   XY=    21.2900   YY=    38.5718   ZY=   -45.9429
   XZ=     3.4058   YZ=   -49.5323   ZZ=   135.5261
   Eigenvalues:   -48.4869    27.6331   155.1099
     35  C    Isotropic =    54.6226   Anisotropy =   191.0006
   XX=   -12.2387   YX=   -28.5408   ZX=   -10.9756
   XY=   -30.3905   YY=    22.1784   ZY=   -65.8495
   XZ=    -6.2542   YZ=   -67.8164   ZZ=   153.9280
   Eigenvalues:   -39.7199    21.6313   181.9563
     36  C    Isotropic =    45.7746   Anisotropy =   163.2712
   XX=    24.5287   YX=    12.6984   ZX=     6.3164
   XY=    15.2988   YY=   -13.9303   ZY=   -70.4155
   XZ=     9.0184   YZ=   -66.6533   ZZ=   126.7252
   Eigenvalues:   -45.3972    28.0989   154.6220
     37  C    Isotropic =    41.4376   Anisotropy =   190.2542
   XX=   -54.9070   YX=    20.6045   ZX=    10.7649
   XY=    28.5241   YY=    43.2578   ZY=   -53.7338
   XZ=     7.2979   YZ=   -73.2729   ZZ=   135.9621
   Eigenvalues:   -63.9605    19.9997   168.2738
     38  H    Isotropic =    27.3410   Anisotropy =     6.7897
   XX=    29.5448   YX=     4.2187   ZX=    -1.3208
   XY=     2.3654   YY=    27.0911   ZY=    -1.4055
   XZ=     3.4945   YZ=    -0.0519   ZZ=    25.3871
   Eigenvalues:    23.8321    26.3234    31.8674
     39  H    Isotropic =    28.1667   Anisotropy =     4.5280
   XX=    29.4460   YX=     0.7473   ZX=     3.7928
   XY=     4.5475   YY=    26.4522   ZY=    -0.4945
   XZ=    -2.4459   YZ=    -4.1127   ZZ=    28.6020
   Eigenvalues:    23.7734    29.5414    31.1854
     40  H    Isotropic =    23.5855   Anisotropy =    18.5700
   XX=    27.3211   YX=    -7.2931   ZX=    -6.5392
   XY=    -7.6746   YY=    25.1769   ZY=     5.1630
   XZ=    -2.7826   YZ=     2.9506   ZZ=    18.2586
   Eigenvalues:    16.1022    18.6888    35.9656
     41  H    Isotropic =    23.3948   Anisotropy =     9.9050
   XX=    21.7289   YX=     1.0384   ZX=    -3.7689
   XY=     1.1305   YY=    26.5803   ZY=    -4.1550
   XZ=    -3.1430   YZ=    -4.2930   ZZ=    21.8752
   Eigenvalues:    17.6693    22.5169    29.9981
     42  H    Isotropic =    23.2950   Anisotropy =    14.6823
   XX=    27.2303   YX=    -1.0168   ZX=    -6.8394
   XY=    -0.6906   YY=    18.3921   ZY=     1.1123
   XZ=    -6.8979   YZ=     3.5378   ZZ=    24.2627
   Eigenvalues:    17.1019    19.6999    33.0832
     43  H    Isotropic =    22.5458   Anisotropy =    12.0089
   XX=    21.9540   YX=     7.3500   ZX=     0.1489
   XY=     5.3914   YY=    24.6678   ZY=     2.5383
   XZ=    -1.6901   YZ=     5.2412   ZZ=    21.0156
   Eigenvalues:    15.1025    21.9832    30.5518
     44  H    Isotropic =    23.1009   Anisotropy =    10.1728
   XX=    29.2728   YX=    -1.6519   ZX=     0.7706
   XY=    -2.1832   YY=    22.4371   ZY=    -0.7481
   XZ=     1.3058   YZ=    -0.4474   ZZ=    17.5928
   Eigenvalues:    17.4621    21.9579    29.8828
     45  H    Isotropic =    22.3401   Anisotropy =     8.1669
   XX=    22.9265   YX=    -2.7845   ZX=    -0.0657
   XY=    -0.1834   YY=    26.9546   ZY=    -0.8321
   XZ=     2.4419   YZ=    -2.3925   ZZ=    17.1391
   Eigenvalues:    16.7325    22.5030    27.7847
     46  H    Isotropic =    22.7129   Anisotropy =    11.7456
   XX=    19.5005   YX=     0.2358   ZX=     0.7241
   XY=     0.3394   YY=    27.9940   ZY=    -4.9325
   XZ=     0.7017   YZ=    -5.1136   ZZ=    20.6442
   Eigenvalues:    17.7585    19.8369    30.5433
     47  H    Isotropic =    22.9941   Anisotropy =     9.1248
   XX=    22.1229   YX=    -0.5449   ZX=    -4.2036
   XY=    -0.4230   YY=    21.0631   ZY=    -2.2078
   XZ=    -4.7095   YZ=    -2.0965   ZZ=    25.7962
   Eigenvalues:    18.1797    21.7253    29.0773
     48  H    Isotropic =    22.9689   Anisotropy =    15.1502
   XX=    24.2233   YX=    -6.8045   ZX=     2.1854
   XY=    -6.6398   YY=    27.7491   ZY=     0.5946
   XZ=    -2.3239   YZ=     2.9963   ZZ=    16.9344
   Eigenvalues:    16.3940    19.4437    33.0691
     49  H    Isotropic =    23.3688   Anisotropy =    15.4892
   XX=    30.6952   YX=     6.5612   ZX=     2.6186
   XY=     3.6951   YY=    21.5704   ZY=    -0.6723
   XZ=     4.2185   YZ=     1.6574   ZZ=    17.8408
   Eigenvalues:    16.7951    19.6163    33.6950
     50  H    Isotropic =    23.0609   Anisotropy =     9.8157
   XX=    25.3213   YX=    -4.0024   ZX=     0.0767
   XY=    -4.2466   YY=    24.5019   ZY=     3.1442
   XZ=    -0.3150   YZ=     3.4341   ZZ=    19.3597
   Eigenvalues:    17.3048    22.2733    29.6047
     51  H    Isotropic =    22.2607   Anisotropy =    11.5532
   XX=    19.7844   YX=     4.3752   ZX=     1.7589
   XY=     3.6562   YY=    25.5082   ZY=     3.2531
   XZ=     1.8632   YZ=     4.9918   ZZ=    21.4896
   Eigenvalues:    17.6715    19.1478    29.9629
     52  C    Isotropic =   115.9985   Anisotropy =    42.2174
   XX=   127.4167   YX=   -18.2944   ZX=     4.4822
   XY=   -22.4428   YY=   114.8207   ZY=    -9.4837
   XZ=     1.7030   YZ=    -9.1299   ZZ=   105.7582
   Eigenvalues:    95.9872   107.8649   144.1435
     53  H    Isotropic =    30.5821   Anisotropy =    17.5771
   XX=    36.1092   YX=     6.2556   ZX=     6.7520
   XY=     5.9274   YY=    25.5121   ZY=     2.7531
   XZ=     5.1057   YZ=     2.3292   ZZ=    30.1251
   Eigenvalues:    22.7328    26.7134    42.3002
     54  H    Isotropic =    27.4749   Anisotropy =     4.4778
   XX=    25.8979   YX=     4.9654   ZX=     1.8253
   XY=     2.3163   YY=    27.4972   ZY=    -1.1750
   XZ=     1.1341   YZ=    -1.6534   ZZ=    29.0295
   Eigenvalues:    22.3471    29.6174    30.4601
     55  C    Isotropic =   118.6109   Anisotropy =    41.9539
   XX=   132.0112   YX=    -8.7609   ZX=   -15.6269
   XY=   -18.6100   YY=   107.6399   ZY=     7.0330
   XZ=   -13.6667   YZ=     5.8897   ZZ=   116.1817
   Eigenvalues:   101.5000   107.7527   146.5802
     56  H    Isotropic =    27.9908   Anisotropy =    12.7879
   XX=    24.0113   YX=     3.5287   ZX=     0.9352
   XY=     0.2217   YY=    29.0324   ZY=    -4.0401
   XZ=     2.1144   YZ=    -8.8918   ZZ=    30.9286
   Eigenvalues:    21.2959    26.1604    36.5160
     57  N    Isotropic =   192.2048   Anisotropy =    55.7337
   XX=   217.9826   YX=    -9.8899   ZX=    18.8890
   XY=   -16.6975   YY=   174.8631   ZY=    -8.2334
   XZ=    16.1956   YZ=    -4.5392   ZZ=   183.7688
   Eigenvalues:   170.7947   176.4591   229.3607
     58  C    Isotropic =   137.2222   Anisotropy =    58.5125
   XX=   120.5861   YX=   -15.3317   ZX=   -15.0666
   XY=   -12.8213   YY=   145.7356   ZY=    24.3303
   XZ=   -12.3939   YZ=    23.1516   ZZ=   145.3450
   Eigenvalues:   113.6347   121.8014   176.2306
     59  C    Isotropic =   138.4410   Anisotropy =    63.4457
   XX=   150.4850   YX=    30.6975   ZX=    18.4951
   XY=    27.3798   YY=   136.2117   ZY=    10.0914
   XZ=    17.3663   YZ=     8.0556   ZZ=   128.6264
   Eigenvalues:   111.9566   122.6283   180.7382
     60  H    Isotropic =    29.6550   Anisotropy =     9.7980
   XX=    30.5985   YX=    -5.1326   ZX=     2.5660
   XY=    -6.2157   YY=    30.1601   ZY=     0.5408
   XZ=     0.7508   YZ=     0.0046   ZZ=    28.2065
   Eigenvalues:    24.2345    28.5435    36.1870
     61  H    Isotropic =    29.7237   Anisotropy =     7.6201
   XX=    32.7515   YX=    -2.5842   ZX=     1.4428
   XY=    -3.3837   YY=    29.5439   ZY=     3.5503
   XZ=    -1.1568   YZ=     2.2679   ZZ=    26.8757
   Eigenvalues:    24.5978    29.7695    34.8038
     62  H    Isotropic =    31.0511   Anisotropy =     8.3839
   XX=    30.5527   YX=    -0.1812   ZX=    -0.4531
   XY=    -3.0450   YY=    26.7474   ZY=     4.1949
   XZ=    -1.9056   YZ=    -0.2201   ZZ=    35.8531
   Eigenvalues:    25.9269    30.5860    36.6404
     63  H    Isotropic =    29.6570   Anisotropy =    12.3542
   XX=    34.0037   YX=    -1.9857   ZX=     5.2872
   XY=     0.3760   YY=    25.9733   ZY=    -0.3000
   XZ=     6.2161   YZ=    -1.6221   ZZ=    28.9941
   Eigenvalues:    25.0608    26.0170    37.8932
     64  H    Isotropic =    30.1362   Anisotropy =     8.3749
   XX=    31.9615   YX=     3.9028   ZX=    -1.9079
   XY=     3.7213   YY=    30.7474   ZY=    -3.5792
   XZ=     2.2940   YZ=    -2.7626   ZZ=    27.6995
   Eigenvalues:    24.8817    29.8073    35.7194
     65  H    Isotropic =    29.4377   Anisotropy =     6.9343
   XX=    32.2393   YX=    -0.6166   ZX=     1.8202
   XY=     1.2934   YY=    25.9247   ZY=     3.6208
   XZ=     2.4708   YZ=     2.2671   ZZ=    30.1492
   Eigenvalues:    24.3506    29.9020    34.0606
     66  C    Isotropic =    52.7204   Anisotropy =   186.4814
   XX=   136.1531   YX=    64.0116   ZX=    61.7989
   XY=    63.7926   YY=    10.9036   ZY=   -26.3489
   XZ=    61.2513   YZ=   -26.5122   ZZ=    11.1046
   Eigenvalues:   -56.3057    37.4256   177.0413
     67  C    Isotropic =    50.6806   Anisotropy =   188.5102
   XX=   149.7716   YX=    33.7999   ZX=    49.1815
   XY=    34.4669   YY=    38.9312   ZY=    40.6419
   XZ=    51.7557   YZ=    39.2147   ZZ=   -36.6608
   Eigenvalues:   -59.6310    35.3188   176.3541
     68  C    Isotropic =    52.7573   Anisotropy =   191.0192
   XX=   152.9234   YX=    55.4607   ZX=    25.6937
   XY=    64.7384   YY=   -29.4089   ZY=    32.1608
   XZ=    30.2430   YZ=    33.1677   ZZ=    34.7574
   Eigenvalues:   -53.9579    32.1265   180.1034
     69  C    Isotropic =    30.1771   Anisotropy =   206.7005
   XX=   127.4142   YX=    62.8979   ZX=    67.0104
   XY=    61.1186   YY=   -21.1721   ZY=    -5.8676
   XZ=    60.6486   YZ=   -12.0240   ZZ=   -15.7108
   Eigenvalues:   -67.9857    -9.4604   167.9774
     70  C    Isotropic =    51.1412   Anisotropy =   173.2168
   XX=   144.1601   YX=    23.1449   ZX=    48.3178
   XY=    28.7916   YY=    38.5585   ZY=    39.0263
   XZ=    50.0383   YZ=    33.2557   ZZ=   -29.2949
   Eigenvalues:   -51.7425    38.5471   166.6191
     71  C    Isotropic =    51.5641   Anisotropy =   188.4000
   XX=   148.3015   YX=    56.9649   ZX=    30.9022
   XY=    59.1815   YY=   -37.1443   ZY=    37.2895
   XZ=    30.5559   YZ=    37.3977   ZZ=    43.5351
   Eigenvalues:   -61.4921    39.0203   177.1641
     72  H    Isotropic =    24.0599   Anisotropy =     4.6989
   XX=    20.3628   YX=    -0.4415   ZX=    -0.0576
   XY=    -0.2717   YY=    24.7469   ZY=    -0.5695
   XZ=    -0.3200   YZ=    -0.5172   ZZ=    27.0700
   Eigenvalues:    20.3259    24.6612    27.1925
     73  H    Isotropic =    23.8614   Anisotropy =     4.6157
   XX=    20.8615   YX=    -1.5056   ZX=    -0.1375
   XY=    -1.6550   YY=    24.9122   ZY=     1.3943
   XZ=    -0.4853   YZ=     1.1244   ZZ=    25.8104
   Eigenvalues:    20.3154    24.3303    26.9385
     74  H    Isotropic =    23.6085   Anisotropy =     9.8046
   XX=    21.6591   YX=    -0.3881   ZX=    -0.8528
   XY=    -0.2935   YY=    19.5280   ZY=     2.2794
   XZ=    -2.2395   YZ=     0.6834   ZZ=    29.6385
   Eigenvalues:    19.3088    21.3719    30.1449
     75  H    Isotropic =    26.7878   Anisotropy =     6.6033
   XX=    22.9318   YX=    -0.4024   ZX=    -1.8999
   XY=    -0.8113   YY=    26.7550   ZY=    -1.4770
   XZ=    -1.9975   YZ=     0.2198   ZZ=    30.6765
   Eigenvalues:    22.3457    26.8276    31.1900
     76  H    Isotropic =    24.3286   Anisotropy =     8.0998
   XX=    21.0255   YX=    -0.5563   ZX=    -1.1785
   XY=     0.0319   YY=    23.1261   ZY=     1.4696
   XZ=    -1.7312   YZ=     2.5873   ZZ=    28.8341
   Eigenvalues:    20.7577    22.4995    29.7285
     77  N    Isotropic =   192.7962   Anisotropy =    58.2409
   XX=   220.4647   YX=     2.3740   ZX=   -21.9549
   XY=    -5.2659   YY=   172.8976   ZY=     0.6072
   XZ=   -23.6505   YZ=    -6.7897   ZZ=   185.0263
   Eigenvalues:   169.9361   176.8291   231.6235
     78  H    Isotropic =    29.3834   Anisotropy =    14.7499
   XX=    24.1546   YX=     1.0966   ZX=    -0.0799
   XY=    -0.7541   YY=    25.1364   ZY=    -3.7633
   XZ=     2.6349   YZ=    -0.0104   ZZ=    38.8593
   Eigenvalues:    23.9308    25.0028    39.2167
     79  C    Isotropic =   139.4657   Anisotropy =    61.8055
   XX=   153.9225   YX=    33.7848   ZX=     5.9962
   XY=    32.1350   YY=   139.0079   ZY=     0.3288
   XZ=     4.1877   YZ=     2.1815   ZZ=   125.4668
   Eigenvalues:   112.2959   125.4319   180.6694
     80  C    Isotropic =   141.2405   Anisotropy =    52.8121
   XX=   126.7181   YX=   -19.7321   ZX=     2.3738
   XY=   -14.2410   YY=   170.2244   ZY=    -4.1224
   XZ=     1.9385   YZ=    -3.5535   ZZ=   126.7791
   Eigenvalues:   120.7618   126.5112   176.4486
     81  H    Isotropic =    30.3492   Anisotropy =     7.9385
   XX=    32.3028   YX=     0.5468   ZX=     5.0124
   XY=     2.9368   YY=    26.0730   ZY=    -0.1435
   XZ=     1.1771   YZ=    -1.2149   ZZ=    32.6719
   Eigenvalues:    25.2916    30.1145    35.6415
     82  H    Isotropic =    29.5370   Anisotropy =     6.5220
   XX=    32.6965   YX=     0.3046   ZX=    -0.9872
   XY=     2.4074   YY=    30.5365   ZY=    -3.1101
   XZ=    -0.7343   YZ=    -2.4631   ZZ=    25.3781
   Eigenvalues:    24.1529    30.5732    33.8851
     83  H    Isotropic =    29.5315   Anisotropy =    12.0692
   XX=    34.2050   YX=     1.3042   ZX=    -4.7845
   XY=     3.7911   YY=    25.3810   ZY=    -1.9829
   XZ=    -4.3991   YZ=    -0.8382   ZZ=    29.0085
   Eigenvalues:    24.6836    26.3333    37.5777
     84  H    Isotropic =    29.7565   Anisotropy =     6.2433
   XX=    30.3184   YX=    -0.8757   ZX=     2.4224
   XY=    -3.1508   YY=    27.9819   ZY=    -4.9647
   XZ=     0.9236   YZ=     0.3705   ZZ=    30.9692
   Eigenvalues:    26.4090    28.9417    33.9187
     85  H    Isotropic =    29.4314   Anisotropy =    10.3919
   XX=    30.8088   YX=    -2.3798   ZX=    -4.5247
   XY=    -4.4048   YY=    28.6336   ZY=     1.9752
   XZ=    -4.4028   YZ=     1.9802   ZZ=    28.8517
   Eigenvalues:    25.0831    26.8517    36.3593
     86  H    Isotropic =    29.4058   Anisotropy =     7.3644
   XX=    33.2462   YX=    -0.8810   ZX=    -1.6741
   XY=    -2.0636   YY=    30.6998   ZY=     1.1071
   XZ=    -1.5697   YZ=     1.3672   ZZ=    24.2714
   Eigenvalues:    23.8456    30.0564    34.3154
     87  C    Isotropic =    52.1735   Anisotropy =   186.0876
   XX=   142.5831   YX=    80.6938   ZX=    -8.2193
   XY=    81.7569   YY=   -20.2326   ZY=    12.5512
   XZ=    -8.2675   YZ=    12.3998   ZZ=    34.1700
   Eigenvalues:   -56.2089    36.4975   176.2319
     88  C    Isotropic =    50.9058   Anisotropy =   189.3004
   XX=   152.5419   YX=    60.8191   ZX=    11.7898
   XY=    63.0309   YY=    19.7171   ZY=   -47.4237
   XZ=    13.4860   YZ=   -47.4843   ZZ=   -19.5417
   Eigenvalues:   -61.5316    37.1429   177.1060
     89  C    Isotropic =    49.8866   Anisotropy =   174.5230
   XX=   147.8053   YX=    44.8992   ZX=   -18.2673
   XY=    48.0331   YY=    47.3064   ZY=    21.1857
   XZ=   -14.8178   YZ=    24.8251   ZZ=   -45.4521
   Eigenvalues:   -54.6703    38.0948   166.2352
     90  C    Isotropic =    29.7719   Anisotropy =   204.9255
   XX=   132.2269   YX=    86.0307   ZX=   -11.4724
   XY=    78.1536   YY=   -32.5577   ZY=     1.6817
   XZ=    -6.5143   YZ=     7.3411   ZZ=   -10.3537
   Eigenvalues:   -67.4888    -9.5845   166.3889
     91  C    Isotropic =    52.2112   Anisotropy =   191.4667
   XX=   154.8122   YX=    58.3936   ZX=    18.7494
   XY=    68.1496   YY=    19.4108   ZY=   -37.6808
   XZ=    20.0934   YZ=   -39.6966   ZZ=   -17.5894
   Eigenvalues:   -55.1421    31.9201   179.8556
     92  C    Isotropic =    50.3585   Anisotropy =   188.8889
   XX=   154.9373   YX=    50.6845   ZX=   -10.6928
   XY=    54.1644   YY=    47.5066   ZY=    25.3803
   XZ=   -12.4259   YZ=    25.9501   ZZ=   -51.3684
   Eigenvalues:   -60.5028    35.2939   176.2844
     93  H    Isotropic =    23.7811   Anisotropy =     3.7042
   XX=    20.3272   YX=    -0.4126   ZX=    -0.2157
   XY=    -0.3060   YY=    24.9771   ZY=    -0.4669
   XZ=     0.0034   YZ=    -0.5702   ZZ=    26.0392
   Eigenvalues:    20.2958    24.7970    26.2506
     94  H    Isotropic =    23.9423   Anisotropy =     5.8067
   XX=    20.0624   YX=    -0.8406   ZX=     1.3439
   XY=    -2.4671   YY=    27.4555   ZY=     2.1005
   XZ=     3.9210   YZ=    -1.2059   ZZ=    24.3089
   Eigenvalues:    18.4866    25.5268    27.8134
     95  H    Isotropic =    23.4445   Anisotropy =    10.0784
   XX=    21.3793   YX=    -0.4437   ZX=     0.3327
   XY=    -1.1173   YY=    24.7295   ZY=    -6.0713
   XZ=     1.6340   YZ=    -4.9375   ZZ=    24.2248
   Eigenvalues:    18.9540    21.2161    30.1635
     96  C    Isotropic =    48.9213   Anisotropy =    12.4477
   XX=    49.7647   YX=    -4.4953   ZX=    -1.1284
   XY=    -4.2777   YY=    51.4839   ZY=     5.5110
   XZ=    -1.4784   YZ=     4.9896   ZZ=    45.5153
   Eigenvalues:    42.2626    47.2815    57.2198
     97  F    Isotropic =   221.7225   Anisotropy =   147.9019
   XX=   227.2085   YX=   -43.6260   ZX=    73.7859
   XY=   -44.6907   YY=   182.1686   ZY=     9.3976
   XZ=    74.1584   YZ=     8.7553   ZZ=   255.7904
   Eigenvalues:   132.5449   212.2989   320.3238
     98  F    Isotropic =   241.0759   Anisotropy =   143.6453
   XX=   226.9152   YX=    16.2644   ZX=    24.4399
   XY=    15.7126   YY=   324.2041   ZY=    47.0844
   XZ=    13.1072   YZ=    29.0703   ZZ=   172.1085
   Eigenvalues:   159.8230   226.5654   336.8395
     99  F    Isotropic =   251.1189   Anisotropy =   125.0662
   XX=   308.3304   YX=   -16.8910   ZX=   -33.4706
   XY=    -1.0856   YY=   197.5492   ZY=    41.4372
   XZ=   -46.9954   YZ=    46.9816   ZZ=   247.4770
   Eigenvalues:   170.4665   248.3938   334.4963
    100  C    Isotropic =    48.5393   Anisotropy =    15.5224
   XX=    47.0435   YX=    -1.2815   ZX=     1.7717
   XY=    -1.6789   YY=    56.6603   ZY=    -6.0094
   XZ=     0.0792   YZ=    -5.5093   ZZ=    41.9141
   Eigenvalues:    39.9091    46.8213    58.8875
    101  F    Isotropic =   242.6135   Anisotropy =   141.7083
   XX=   265.6106   YX=    66.8713   ZX=   -10.0874
   XY=    51.5366   YY=   243.0373   ZY=   -54.4678
   XZ=   -19.3312   YZ=   -64.9693   ZZ=   219.1925
   Eigenvalues:   161.7199   229.0349   337.0856
    102  F    Isotropic =   220.8917   Anisotropy =   147.7802
   XX=   171.9300   YX=    27.8593   ZX=    73.0627
   XY=    27.6250   YY=   223.2106   ZY=    25.5016
   XZ=    71.0107   YZ=    25.3366   ZZ=   267.5344
   Eigenvalues:   131.4511   211.8121   319.4118
    103  F    Isotropic =   250.2227   Anisotropy =   135.1403
   XX=   276.9838   YX=   -48.7180   ZX=    43.1515
   XY=   -44.9522   YY=   297.8121   ZY=   -14.2724
   XZ=    25.2752   YZ=    -2.9065   ZZ=   175.8723
   Eigenvalues:   165.1176   245.2344   340.3162
    104  C    Isotropic =    48.7338   Anisotropy =    14.8657
   XX=    45.1920   YX=     4.8960   ZX=     5.7203
   XY=     4.8212   YY=    54.1835   ZY=     2.3846
   XZ=     5.2676   YZ=     3.8271   ZZ=    46.8260
   Eigenvalues:    40.2129    47.3443    58.6443
    105  F    Isotropic =   241.2706   Anisotropy =   139.8639
   XX=   170.5737   YX=   -37.5977   ZX=    24.6445
   XY=   -21.8453   YY=   322.5712   ZY=   -23.8940
   XZ=    14.9065   YZ=   -20.5084   ZZ=   230.6668
   Eigenvalues:   161.3803   227.9183   334.5132
    106  F    Isotropic =   251.5744   Anisotropy =   132.9241
   XX=   253.0847   YX=    70.8154   ZX=    64.0153
   XY=    58.4315   YY=   232.8982   ZY=    -0.7106
   XZ=    47.6274   YZ=     9.9133   ZZ=   268.7403
   Eigenvalues:   165.4733   249.0595   340.1904
    107  F    Isotropic =   212.4316   Anisotropy =   139.8886
   XX=   164.2970   YX=    27.4532   ZX=   -58.0929
   XY=    29.4051   YY=   191.8392   ZY=     8.3316
   XZ=   -59.3982   YZ=     7.9468   ZZ=   281.1586
   Eigenvalues:   126.6260   204.9781   305.6906
    108  C    Isotropic =    48.3037   Anisotropy =    14.4801
   XX=    56.1020   YX=     4.1750   ZX=     3.2956
   XY=     3.8528   YY=    43.9522   ZY=    -1.2576
   XZ=     3.2124   YZ=    -0.2809   ZZ=    44.8570
   Eigenvalues:    41.6840    45.2700    57.9571
    109  F    Isotropic =   248.9310   Anisotropy =   134.1774
   XX=   260.4103   YX=    70.2817   ZX=    13.7963
   XY=    88.1490   YY=   255.3363   ZY=   -36.9699
   XZ=    14.1384   YZ=   -24.2258   ZZ=   231.0463
   Eigenvalues:   163.5662   244.8441   338.3826
    110  F    Isotropic =   222.2077   Anisotropy =   141.6324
   XX=   218.8786   YX=     8.3808   ZX=   -23.4762
   XY=     6.9660   YY=   138.9282   ZY=    22.2332
   XZ=   -22.4694   YZ=    22.7268   ZZ=   308.8164
   Eigenvalues:   134.6335   215.3604   316.6293
    111  F    Isotropic =   237.6161   Anisotropy =   143.8707
   XX=   290.0891   YX=   -42.3912   ZX=    33.7962
   XY=   -54.5146   YY=   205.9838   ZY=   -58.7232
   XZ=    25.6977   YZ=   -43.2583   ZZ=   216.7754
   Eigenvalues:   157.6093   221.7091   333.5299
    112  C    Isotropic =    48.5204   Anisotropy =    15.9446
   XX=    54.3339   YX=    -1.6034   ZX=    -7.1537
   XY=    -0.5853   YY=    45.1426   ZY=     5.0080
   XZ=    -7.1916   YZ=     3.1858   ZZ=    46.0847
   Eigenvalues:    40.0032    46.4078    59.1502
    113  F    Isotropic =   253.3159   Anisotropy =   133.1307
   XX=   282.7031   YX=   -38.5069   ZX=   -21.6035
   XY=   -47.1613   YY=   234.1316   ZY=    79.4058
   XZ=   -19.9429   YZ=    58.7003   ZZ=   243.1130
   Eigenvalues:   166.5768   251.3012   342.0697
    114  F    Isotropic =   218.2841   Anisotropy =   151.0643
   XX=   223.6787   YX=    -9.8878   ZX=    37.3467
   XY=    -6.6080   YY=   128.7431   ZY=   -12.7559
   XZ=    38.7417   YZ=   -12.9817   ZZ=   302.4307
   Eigenvalues:   127.4589   208.3999   318.9937
    115  F    Isotropic =   243.2621   Anisotropy =   141.6529
   XX=   268.2947   YX=    73.0816   ZX=   -20.0427
   XY=    91.0227   YY=   239.3931   ZY=    15.9707
   XZ=   -21.7660   YZ=     9.6457   ZZ=   222.0984
   Eigenvalues:   161.5504   230.5385   337.6973
    116  C    Isotropic =    48.7640   Anisotropy =    13.8801
   XX=    50.0898   YX=    -6.3442   ZX=     0.5867
   XY=    -6.4504   YY=    52.7282   ZY=     1.5592
   XZ=    -0.1975   YZ=     1.4704   ZZ=    43.4740
   Eigenvalues:    42.8079    45.4666    58.0174
    117  F    Isotropic =   223.4741   Anisotropy =   143.5039
   XX=   165.7493   YX=   -36.8215   ZX=    21.6181
   XY=   -37.5985   YY=   189.2055   ZY=    13.8609
   XZ=    21.4768   YZ=    14.3104   ZZ=   315.4675
   Eigenvalues:   134.8049   216.4741   319.1434
    118  F    Isotropic =   244.6928   Anisotropy =   138.5597
   XX=   198.8249   YX=    16.9420   ZX=    39.0877
   XY=     3.3681   YY=   334.7490   ZY=    18.9749
   XZ=    30.1095   YZ=     4.2917   ZZ=   200.5044
   Eigenvalues:   165.0514   231.9610   337.0659
    119  F    Isotropic =   247.3847   Anisotropy =   138.6005
   XX=   328.2270   YX=   -44.4918   ZX=    28.2359
   XY=   -30.1653   YY=   210.3377   ZY=    35.9030
   XZ=    11.7154   YZ=    33.0015   ZZ=   203.5893
   Eigenvalues:   162.5966   239.7725   339.7850
    120  C    Isotropic =    49.0334   Anisotropy =    13.9922
   XX=    44.7100   YX=    -0.9409   ZX=    -5.3755
   XY=    -1.6833   YY=    58.1054   ZY=     0.5441
   XZ=    -3.1234   YZ=     1.2147   ZZ=    44.2849
   Eigenvalues:    40.2386    48.5001    58.3616
    121  F    Isotropic =   249.4377   Anisotropy =   136.9913
   XX=   192.1296   YX=    62.1431   ZX=   -36.2924
   XY=    43.4750   YY=   317.0286   ZY=   -11.5872
   XZ=   -21.2806   YZ=   -11.6693   ZZ=   239.1549
   Eigenvalues:   165.3503   242.1976   340.7652
    122  F    Isotropic =   218.2186   Anisotropy =   143.6982
   XX=   147.2216   YX=   -22.1718   ZX=    40.7279
   XY=   -25.5951   YY=   205.1372   ZY=    -8.3591
   XZ=    40.6611   YZ=    -7.4801   ZZ=   302.2969
   Eigenvalues:   130.9929   209.6455   314.0173
    123  F    Isotropic =   245.7594   Anisotropy =   135.7081
   XX=   248.8618   YX=   -69.4940   ZX=   -66.8002
   XY=   -57.0007   YY=   245.7165   ZY=     4.3956
   XZ=   -50.0541   YZ=     9.7237   ZZ=   242.6997
   Eigenvalues:   163.9940   237.0527   336.2314
    124  C    Isotropic =    49.3584   Anisotropy =    16.9378
   XX=    50.5217   YX=     8.7581   ZX=     2.9437
   XY=     8.8684   YY=    51.3977   ZY=     1.7902
   XZ=     2.8975   YZ=     2.4271   ZZ=    46.1557
   Eigenvalues:    42.0081    45.4167    60.6502
    125  F    Isotropic =   254.5437   Anisotropy =   126.7739
   XX=   186.8329   YX=    40.5245   ZX=    -9.7082
   XY=    56.7968   YY=   306.0355   ZY=    40.4212
   XZ=     0.8159   YZ=    31.4382   ZZ=   270.7626
   Eigenvalues:   166.7778   257.7936   339.0596
    126  F    Isotropic =   222.5463   Anisotropy =   136.7443
   XX=   206.4381   YX=    15.2679   ZX=    62.5963
   XY=    13.3209   YY=   199.0474   ZY=   -52.1831
   XZ=    62.0509   YZ=   -47.6231   ZZ=   262.1533
   Eigenvalues:   137.7721   216.1576   313.7092
    127  F    Isotropic =   230.6171   Anisotropy =   151.3479
   XX=   295.4572   YX=    48.5505   ZX=   -55.4774
   XY=    36.9536   YY=   168.4342   ZY=     7.5593
   XZ=   -48.4025   YZ=     1.9357   ZZ=   227.9600
   Eigenvalues:   149.3189   211.0168   331.5157
    128  H    Isotropic =    23.6500   Anisotropy =     7.2908
   XX=    20.4131   YX=    -1.1374   ZX=     1.4751
   XY=    -1.1625   YY=    26.7557   ZY=    -2.0722
   XZ=     2.1047   YZ=    -2.6720   ZZ=    23.7811
   Eigenvalues:    19.6373    22.8021    28.5105
    129  H    Isotropic =    23.6874   Anisotropy =     5.0114
   XX=    20.7838   YX=    -1.1620   ZX=    -0.7800
   XY=    -1.4472   YY=    26.6258   ZY=    -0.8059
   XZ=    -0.6268   YZ=    -0.7970   ZZ=    23.6526
   Eigenvalues:    20.2846    23.7492    27.0283
    130  H    Isotropic =    30.0197   Anisotropy =    18.2366
   XX=    36.5028   YX=     8.6924   ZX=    -1.1456
   XY=     7.7353   YY=    29.5261   ZY=    -2.5043
   XZ=    -0.4520   YZ=    -2.5983   ZZ=    24.0303
   Eigenvalues:    22.2586    25.6231    42.1775
    131  H    Isotropic =    27.4660   Anisotropy =     4.0518
   XX=    26.3662   YX=     4.7562   ZX=     1.4230
   XY=     2.5519   YY=    26.6075   ZY=    -0.6594
   XZ=     0.1008   YZ=    -1.1386   ZZ=    29.4245
   Eigenvalues:    22.6284    29.6025    30.1672
 End of Minotr F.D. properties file   721 does not exist.
 End of Minotr F.D. properties file   722 does not exist.
 End of Minotr F.D. properties file   788 does not exist.
 Hyperfine terms turned off by default for NAtoms > 100.

 **********************************************************************

            Population analysis using the SCF density.

 **********************************************************************

 Orbital symmetries:
       Occupied  (A) (A) (A) (A) (A) (A) (A) (A) (A) (A) (A) (A)
                 (A) (A) (A) (A) (A) (A) (A) (A) (A) (A) (A) (A)
                 (A) (A) (A) (A) (A) (A) (A) (A) (A) (A) (A) (A)
                 (A) (A) (A) (A) (A) (A) (A) (A) (A) (A) (A) (A)
                 (A) (A) (A) (A) (A) (A) (A) (A) (A) (A) (A) (A)
                 (A) (A) (A) (A) (A) (A) (A) (A) (A) (A) (A) (A)
                 (A) (A) (A) (A) (A) (A) (A) (A) (A) (A) (A) (A)
                 (A) (A) (A) (A) (A) (A) (A) (A) (A) (A) (A) (A)
                 (A) (A) (A) (A) (A) (A) (A) (A) (A) (A) (A) (A)
                 (A) (A) (A) (A) (A) (A) (A) (A) (A) (A) (A) (A)
                 (A) (A) (A) (A) (A) (A) (A) (A) (A) (A) (A) (A)
                 (A) (A) (A) (A) (A) (A) (A) (A) (A) (A) (A) (A)
                 (A) (A) (A) (A) (A) (A) (A) (A) (A) (A) (A) (A)
                 (A) (A) (A) (A) (A) (A) (A) (A) (A) (A) (A) (A)
                 (A) (A) (A) (A) (A) (A) (A) (A) (A) (A) (A) (A)
                 (A) (A) (A) (A) (A) (A) (A) (A) (A) (A) (A) (A)
                 (A) (A) (A) (A) (A) (A) (A) (A) (A) (A) (A) (A)
                 (A) (A) (A) (A) (A) (A) (A) (A) (A) (A) (A) (A)
                 (A) (A) (A) (A) (A) (A) (A) (A) (A) (A) (A) (A)
                 (A) (A) (A) (A) (A) (A) (A) (A) (A) (A) (A) (A)
                 (A) (A) (A) (A) (A) (A) (A) (A) (A) (A) (A) (A)
                 (A) (A) (A) (A) (A) (A) (A) (A) (A) (A) (A) (A)
                 (A) (A) (A) (A) (A) (A) (A) (A) (A) (A) (A) (A)
                 (A) (A) (A) (A) (A) (A) (A) (A) (A) (A) (A) (A)
                 (A) (A) (A) (A) (A) (A) (A) (A) (A) (A) (A) (A)
                 (A) (A) (A) (A) (A) (A) (A) (A) (A) (A) (A) (A)
                 (A) (A) (A) (A) (A) (A) (A) (A) (A) (A) (A) (A)
                 (A) (A) (A) (A) (A) (A) (A) (A) (A) (A) (A) (A)
                 (A) (A) (A)
       Virtual   (A) (A) (A) (A) (A) (A) (A) (A) (A) (A) (A) (A)
                 (A) (A) (A) (A) (A) (A) (A) (A) (A) (A) (A) (A)
                 (A) (A) (A) (A) (A) (A) (A) (A) (A) (A) (A) (A)
                 (A) (A) (A) (A) (A) (A) (A) (A) (A) (A) (A) (A)
                 (A) (A) (A) (A) (A) (A) (A) (A) (A) (A) (A) (A)
                 (A) (A) (A) (A) (A) (A) (A) (A) (A) (A) (A) (A)
                 (A) (A) (A) (A) (A) (A) (A) (A) (A) (A) (A) (A)
                 (A) (A) (A) (A) (A) (A) (A) (A) (A) (A) (A) (A)
                 (A) (A) (A) (A) (A) (A) (A) (A) (A) (A) (A) (A)
                 (A) (A) (A) (A) (A) (A) (A) (A) (A) (A) (A) (A)
                 (A) (A) (A) (A) (A) (A) (A) (A) (A) (A) (A) (A)
                 (A) (A) (A) (A) (A) (A) (A) (A) (A) (A) (A) (A)
                 (A) (A) (A) (A) (A) (A) (A) (A) (A) (A) (A) (A)
                 (A) (A) (A) (A) (A) (A) (A) (A) (A) (A) (A) (A)
                 (A) (A) (A) (A) (A) (A) (A) (A) (A) (A) (A) (A)
                 (A) (A) (A) (A) (A) (A) (A) (A) (A) (A) (A) (A)
                 (A) (A) (A) (A) (A) (A) (A) (A) (A) (A) (A) (A)
                 (A) (A) (A) (A) (A) (A) (A) (A) (A) (A) (A) (A)
                 (A) (A) (A) (A) (A) (A) (A) (A) (A) (A) (A) (A)
                 (A) (A) (A) (A) (A) (A) (A) (A) (A) (A) (A) (A)
                 (A) (A) (A) (A) (A) (A) (A) (A) (A) (A) (A) (A)
                 (A) (A) (A) (A) (A) (A) (A) (A) (A) (A) (A) (A)
                 (A) (A) (A) (A) (A) (A) (A) (A) (A) (A) (A) (A)
                 (A) (A) (A) (A) (A) (A) (A) (A) (A) (A) (A) (A)
                 (A) (A) (A) (A) (A) (A) (A) (A) (A) (A) (A) (A)
                 (A) (A) (A) (A) (A) (A) (A) (A) (A) (A) (A) (A)
                 (A) (A) (A) (A) (A) (A) (A) (A) (A) (A) (A) (A)
                 (A) (A) (A) (A) (A) (A) (A) (A) (A) (A) (A) (A)
                 (A) (A) (A) (A) (A) (A) (A) (A) (A) (A) (A) (A)
                 (A) (A) (A) (A) (A) (A) (A) (A) (A) (A) (A) (A)
                 (A) (A) (A) (A) (A) (A) (A) (A) (A) (A) (A) (A)
                 (A) (A) (A) (A) (A) (A) (A) (A) (A) (A) (A) (A)
                 (A) (A) (A) (A) (A) (A) (A) (A) (A) (A) (A) (A)
                 (A) (A) (A) (A) (A) (A) (A) (A) (A) (A) (A) (A)
                 (A) (A) (A) (A) (A) (A) (A) (A) (A) (A) (A) (A)
                 (A) (A) (A) (A) (A) (A) (A) (A) (A) (A) (A) (A)
                 (A) (A) (A) (A) (A) (A) (A) (A) (A) (A) (A) (A)
                 (A) (A) (A) (A) (A) (A) (A) (A) (A) (A) (A) (A)
                 (A) (A) (A) (A) (A) (A) (A) (A) (A) (A) (A) (A)
                 (A) (A) (A) (A) (A) (A) (A) (A) (A) (A) (A) (A)
                 (A) (A) (A) (A) (A) (A) (A) (A) (A) (A) (A) (A)
                 (A) (A) (A) (A) (A) (A) (A) (A) (A) (A) (A) (A)
                 (A) (A) (A) (A) (A) (A) (A) (A) (A) (A) (A) (A)
                 (A) (A) (A) (A) (A) (A) (A) (A) (A) (A) (A) (A)
                 (A) (A) (A) (A) (A) (A) (A) (A) (A) (A) (A) (A)
                 (A) (A) (A) (A) (A) (A) (A) (A) (A) (A) (A) (A)
                 (A) (A) (A) (A) (A) (A) (A) (A) (A) (A) (A) (A)
                 (A) (A) (A) (A) (A) (A) (A) (A) (A) (A) (A) (A)
                 (A) (A) (A) (A) (A) (A) (A) (A) (A) (A) (A) (A)
                 (A) (A) (A) (A) (A) (A) (A) (A) (A) (A) (A) (A)
                 (A) (A) (A) (A) (A) (A) (A) (A) (A) (A) (A) (A)
                 (A) (A) (A) (A) (A) (A) (A) (A) (A) (A) (A) (A)
                 (A) (A) (A) (A) (A) (A) (A) (A) (A) (A) (A) (A)
                 (A) (A) (A) (A) (A) (A) (A) (A) (A) (A) (A) (A)
                 (A) (A) (A) (A) (A) (A) (A) (A) (A) (A) (A) (A)
                 (A) (A) (A) (A) (A) (A) (A) (A) (A) (A) (A) (A)
                 (A) (A) (A) (A) (A) (A) (A) (A) (A) (A) (A) (A)
                 (A) (A) (A) (A) (A) (A) (A) (A) (A) (A) (A) (A)
                 (A) (A) (A) (A) (A) (A) (A) (A) (A) (A) (A) (A)
                 (A) (A) (A) (A) (A) (A) (A) (A) (A) (A) (A) (A)
                 (A) (A) (A) (A) (A) (A) (A) (A) (A) (A) (A) (A)
                 (A) (A) (A) (A) (A) (A) (A) (A) (A) (A) (A) (A)
                 (A) (A) (A) (A) (A) (A) (A) (A) (A) (A) (A) (A)
[...]
  2360. RY*(  24) C 108                  0.00000     3.36568   
  2361. RY*(  25) C 108                  0.00000     2.66303   
  2362. RY*(  26) C 108                  0.00000     3.07889   
  2363. RY*(   1) F 109                  0.00074     3.97425   
  2364. RY*(   2) F 109                  0.00050     1.14643   
  2365. RY*(   3) F 109                  0.00041     1.11670   
  2366. RY*(   4) F 109                  0.00023     2.52854   
  2367. RY*(   5) F 109                  0.00015     2.91830   
  2368. RY*(   6) F 109                  0.00006     2.67585   
  2369. RY*(   7) F 109                  0.00006     2.70132   
  2370. RY*(   8) F 109                  0.00004     2.53834   
  2371. RY*(   9) F 109                  0.00000     3.13339   
  2372. RY*(  10) F 109                  0.00001     3.01268   
  2373. RY*(  11) F 109                  0.00000     8.48111   
  2374. RY*(  12) F 109                  0.00000    55.48879   
  2375. RY*(  13) F 109                  0.00000     8.09950   
  2376. RY*(  14) F 109                  0.00001     2.21139   
  2377. RY*(  15) F 109                  0.00000     8.18509   
  2378. RY*(  16) F 109                  0.00001     3.94989   
  2379. RY*(  17) F 109                  0.00000     7.97232   
  2380. RY*(  18) F 109                  0.00001     2.98156   
  2381. RY*(  19) F 109                  0.00000     8.06312   
  2382. RY*(  20) F 109                  0.00000     6.87430   
  2383. RY*(  21) F 109                  0.00000     6.79277   
  2384. RY*(  22) F 109                  0.00000     6.84391   
  2385. RY*(  23) F 109                  0.00000     6.84032   
  2386. RY*(  24) F 109                  0.00000     6.86191   
  2387. RY*(  25) F 109                  0.00000     6.88865   
  2388. RY*(  26) F 109                  0.00000     6.78939   
  2389. RY*(   1) F 110                  0.00075     3.71954   
  2390. RY*(   2) F 110                  0.00047     1.11869   
  2391. RY*(   3) F 110                  0.00039     1.13051   
  2392. RY*(   4) F 110                  0.00024     2.87827   
  2393. RY*(   5) F 110                  0.00013     2.86587   
  2394. RY*(   6) F 110                  0.00005     2.13150   
  2395. RY*(   7) F 110                  0.00004     2.85065   
  2396. RY*(   8) F 110                  0.00004     2.71933   
  2397. RY*(   9) F 110                  0.00002     3.82646   
  2398. RY*(  10) F 110                  0.00000    55.47659   
  2399. RY*(  11) F 110                  0.00000     7.96420   
  2400. RY*(  12) F 110                  0.00000     3.68291   
  2401. RY*(  13) F 110                  0.00000     8.14796   
  2402. RY*(  14) F 110                  0.00000     3.21373   
  2403. RY*(  15) F 110                  0.00000     7.61238   
  2404. RY*(  16) F 110                  0.00000     2.24529   
  2405. RY*(  17) F 110                  0.00000     8.25467   
  2406. RY*(  18) F 110                  0.00000     3.20017   
  2407. RY*(  19) F 110                  0.00000     8.39232   
  2408. RY*(  20) F 110                  0.00000     6.81406   
  2409. RY*(  21) F 110                  0.00000     6.85955   
  2410. RY*(  22) F 110                  0.00000     6.81338   
  2411. RY*(  23) F 110                  0.00000     6.88933   
  2412. RY*(  24) F 110                  0.00000     6.68189   
  2413. RY*(  25) F 110                  0.00000     6.83583   
  2414. RY*(  26) F 110                  0.00000     6.82507   
  2415. RY*(   1) F 111                  0.00073     3.69491   
  2416. RY*(   2) F 111                  0.00057     1.07420   
  2417. RY*(   3) F 111                  0.00049     1.08975   
  2418. RY*(   4) F 111                  0.00024     2.54763   
  2419. RY*(   5) F 111                  0.00017     2.83738   
  2420. RY*(   6) F 111                  0.00009     3.17332   
  2421. RY*(   7) F 111                  0.00006     2.44000   
  2422. RY*(   8) F 111                  0.00003     2.61673   
  2423. RY*(   9) F 111                  0.00001     3.27972   
  2424. RY*(  10) F 111                  0.00001     3.35613   
  2425. RY*(  11) F 111                  0.00000     8.24534   
  2426. RY*(  12) F 111                  0.00001     2.36856   
  2427. RY*(  13) F 111                  0.00000     8.27663   
  2428. RY*(  14) F 111                  0.00000    55.15119   
  2429. RY*(  15) F 111                  0.00000     8.24250   
  2430. RY*(  16) F 111                  0.00001     3.22930   
  2431. RY*(  17) F 111                  0.00000     8.24206   
  2432. RY*(  18) F 111                  0.00001     3.81194   
  2433. RY*(  19) F 111                  0.00000     8.02416   
  2434. RY*(  20) F 111                  0.00000     6.73272   
  2435. RY*(  21) F 111                  0.00000     6.85232   
  2436. RY*(  22) F 111                  0.00000     6.82150   
  2437. RY*(  23) F 111                  0.00000     6.92973   
  2438. RY*(  24) F 111                  0.00000     6.80722   
  2439. RY*(  25) F 111                  0.00000     6.85361   
  2440. RY*(  26) F 111                  0.00000     6.83416   
  2857. RY*(   1) H 128                  0.00036     1.21172   
  2858. RY*(   2) H 128                  0.00019     1.71016   
  2859. RY*(   3) H 128                  0.00014     2.16650   
  2860. RY*(   4) H 128                  0.00009     2.71293   
  2861. RY*(   5) H 128                  0.00001     3.07754   
  2862. RY*(   1) H 129                  0.00034     1.17290   
  2863. RY*(   2) H 129                  0.00018     1.67848   
  2864. RY*(   3) H 129                  0.00014     2.15279   
  2865. RY*(   4) H 129                  0.00008     2.72979   
  2866. RY*(   5) H 129                  0.00001     3.06573   
  2881. BD*(   1) P   3 - C   9          0.04098     0.19667   
  2882. BD*(   1) P   3 - C  26          0.03792     0.18992   
  2883. BD*(   1) P   3 - C  32          0.04270     0.19005   
  2895. BD*(   1) C   9 - C  10          0.04208     0.42021   
  2896. BD*(   1) C   9 - C  13          0.05177     0.38121   
  2897. BD*(   2) C   9 - C  13          0.51407     0.01594  2899(v),270(v),2978(r)
                                                    2896(g),263(r),266(r),666(g)
                                                    2882(v),2905(g),565(g)
                                                    673(g),2883(v),563(g)
                                                    2881(g),682(g),2950(r)
                                                    2945(r),569(g),403(v)
                                                    2900(v),2892(r),346(r)
                                                    2877(r),267(r),356(r)
                                                    2887(r),351(r),264(r),360(r)
                                                    374(r),373(r)
  2898. BD*(   1) C  10 - C  11          0.04358     0.41823   
  2899. BD*(   2) C  10 - C  11          0.44871     0.02427  2897(v),3005(r),270(v)
                                                    2898(g),263(r),266(r)
                                                    2877(r),2892(r),2967(v)
                                                    2965(v),2900(g),592(g)
                                                    2887(r),621(g),265(r),264(r)
                                                    2986(r),372(r)
  2900. BD*(   1) C  10 - C  55          0.03566     0.35686   
  2901. BD*(   1) C  11 - C  12          0.02802     0.45072   
  2902. BD*(   1) C  11 - H  54          0.01540     0.40218   
  2903. BD*(   1) C  12 - C  13          0.03008     0.43486   
  2904. BD*(   1) C  12 - H  53          0.01757     0.41970   
  2905. BD*(   1) C  13 - H  39          0.01721     0.40425   
  2934. BD*(   1) C  26 - C  27          0.02302     0.48990   
  2935. BD*(   2) C  26 - C  27          0.34565    -0.01647  2940(v),2945(v),2883(v)
                                                    1031(g),2952(r),2922(r)
                                                    2950(r)
  2936. BD*(   1) C  26 - C  31          0.03013     0.48993   
  2937. BD*(   1) C  27 - C  28          0.02223     0.48777   
  2938. BD*(   1) C  27 - H  46          0.01547     0.37082   
  2939. BD*(   1) C  28 - C  29          0.01946     0.48958   
  2940. BD*(   2) C  28 - C  29          0.33693    -0.01462  2935(v),2945(v),3012(v)
                                                    1083(g),3013(v)
  2941. BD*(   1) C  28 - C  96          0.06767     0.29218   
  2942. BD*(   1) C  29 - C  30          0.01986     0.49154   
  2943. BD*(   1) C  29 - H  47          0.01209     0.37279   
  2944. BD*(   1) C  30 - C  31          0.02465     0.49631   
  2945. BD*(   2) C  30 - C  31          0.33415    -0.01037  2940(v),2935(v),3016(v)
                                                    3015(v),3017(v)
  2946. BD*(   1) C  30 - C 100          0.06708     0.29399   
  2947. BD*(   1) C  31 - H  48          0.01656     0.39479   
  2948. BD*(   1) C  32 - C  33          0.03018     0.49199   
  2949. BD*(   1) C  32 - C  37          0.02213     0.48225   
  2950. BD*(   2) C  32 - C  37          0.34422    -0.02178  2957(v),2952(v),2929(r)
                                                    2881(v),1291(g),2935(r)
                                                    1162(g)
  2951. BD*(   1) C  33 - C  34          0.02365     0.48357   
  2952. BD*(   2) C  33 - C  34          0.33519    -0.01895  2950(v),2957(v),3020(v)
                                                    3018(v),2935(r)
  2953. BD*(   1) C  33 - H  49          0.01633     0.37910   
  2954. BD*(   1) C  34 - C  35          0.01983     0.48493   
  2955. BD*(   1) C  34 - C 104          0.06698     0.28728   
  2956. BD*(   1) C  35 - C  36          0.02002     0.48174   
  2957. BD*(   2) C  35 - C  36          0.34667    -0.02398  2950(v),2952(v),3022(v)
                                                    1239(g),3023(v),3021(v)
  2958. BD*(   1) C  35 - H  50          0.01228     0.36855   
  2959. BD*(   1) C  36 - C  37          0.02289     0.48230   
  2960. BD*(   1) C  36 - C 108          0.06702     0.28455   
  2961. BD*(   1) C  37 - H  51          0.01539     0.36665   
  2965. BD*(   1) C  55 - N  77          0.03811     0.30898   
  2966. BD*(   1) C  55 - H  78          0.04427     0.34158   
  2967. BD*(   1) C  55 - C  90          0.03318     0.36749   
  2990. BD*(   1) N  77 - C  79          0.01305     0.33010   
  2991. BD*(   1) N  77 - C  80          0.01427     0.33192   
  2992. BD*(   1) C  79 - H  81          0.03011     0.35081   
  2993. BD*(   1) C  79 - H  82          0.01030     0.37461   
  2994. BD*(   1) C  79 - H  83          0.00977     0.36219   
  2995. BD*(   1) C  80 - H  84          0.03122     0.34910   
  2996. BD*(   1) C  80 - H  85          0.01045     0.36368   
  2997. BD*(   1) C  80 - H  86          0.01072     0.37879   
  2998. BD*(   1) C  87 - C  88          0.01444     0.52614   
  2999. BD*(   2) C  87 - C  88          0.33049     0.01570  3009(v),3005(v),1856(g)
                                                    1882(g)
  3000. BD*(   1) C  87 - C  92          0.01485     0.52261   
  3001. BD*(   1) C  87 - H  93          0.01323     0.39920   
  3002. BD*(   1) C  88 - C  89          0.01444     0.53013   
  3003. BD*(   1) C  88 - H 128          0.01341     0.40010   
  3004. BD*(   1) C  89 - C  90          0.02363     0.53341   
  3005. BD*(   2) C  89 - C  90          0.34511     0.02470  3009(v),2999(v),2899(r)
                                                    1908(g),2900(v),2965(v)
                                                    2887(r),2892(r)
  3006. BD*(   1) C  89 - H  94          0.01789     0.40585   
  3007. BD*(   1) C  90 - C  91          0.02660     0.52315   
  3008. BD*(   1) C  91 - C  92          0.01438     0.53532   
  3009. BD*(   2) C  91 - C  92          0.32241     0.01873  2999(v),3005(v),1986(g)
  3010. BD*(   1) C  91 - H  95          0.01591     0.40657   
  3011. BD*(   1) C  92 - H 129          0.01370     0.39697   
  3012. BD*(   1) C  96 - F  97          0.09840     0.19822   
  3013. BD*(   1) C  96 - F  98          0.09282     0.19567   
  3014. BD*(   1) C  96 - F  99          0.08849     0.20161   
  3015. BD*(   1) C 100 - F 101          0.09250     0.19188   
  3016. BD*(   1) C 100 - F 102          0.09856     0.19480   
  3017. BD*(   1) C 100 - F 103          0.08927     0.19804   
  3018. BD*(   1) C 104 - F 105          0.09098     0.19247   
  3019. BD*(   1) C 104 - F 106          0.08806     0.19333   
  3020. BD*(   1) C 104 - F 107          0.10131     0.18153  2952(v),2239(g)
  3021. BD*(   1) C 108 - F 109          0.08889     0.18921   
  3022. BD*(   1) C 108 - F 110          0.09580     0.19449   
  3023. BD*(   1) C 108 - F 111          0.09571     0.17737   
       -------------------------------
              Total Lewis  323.59524  ( 97.8102%)
        Valence non-Lewis    6.59026  (  1.9920%)
        Rydberg non-Lewis    0.65434  (  0.1978%)
       -------------------------------
            Total unit  2  330.83984  (100.0000%)
           Charge unit  2    0.16016
 1\1\GINC-NC205\SP\RPBE1PBE\Gen\C60H42F24Fe1N2P2\MACKK4\02-Dec-2021\0\\
 # PBE1PBE gen pseudo=read int=(grid=ultrafine) empiricaldispersion=GD3
 BJ pop=nbo guess=read geom=check\\M003_1_5 title\\0,1\Fe,0,0.033389378
 3,-1.6051346135,1.730468819\P,0,1.7989460779,-0.1256660063,-0.81451244
 07\P,0,-1.7624406981,0.2871063537,-0.441724656\C,0,1.5377256851,-1.430
 2520319,0.4235905305\C,0,0.6657731436,-2.541465774,0.0704050654\C,0,0.
 6826014698,-3.4836489003,1.1470924345\C,0,1.5272118439,-2.9641553577,2
 .1732449789\C,0,2.0915295727,-1.712060153,1.7439642252\C,0,-1.52821873
 37,-0.4401821272,1.2253773373\C,0,-2.015795831,-1.6531982856,1.8812909
 29\C,0,-1.4178074885,-1.6821155677,3.1918295579\C,0,-0.6112464506,-0.5
 227888324,3.3771253991\C,0,-0.6556134441,0.2400061064,2.1702606603\C,0
 ,3.2748474706,-0.7586848122,-1.7147928785\C,0,3.5653971306,-2.13027750
 64,-1.687593543\C,0,4.7096630271,-2.6218929504,-2.3329677578\C,0,5.563
 8177032,-1.7562543322,-3.0231894164\C,0,5.2595085212,-0.388302062,-3.0
 695756554\C,0,4.1216119569,0.1141433308,-2.4266312256\C,0,2.4220524835
 ,1.4056222527,0.0037651721\C,0,3.7779872214,1.6041800314,0.3263617284\
 C,0,4.1796804902,2.7693442272,0.9928064808\C,0,3.2408621023,3.74566521
 39,1.3568000894\C,0,1.8960734078,3.5558355948,1.0202025721\C,0,1.49297
 84399,2.4057333814,0.3245563748\C,0,-2.3841024815,1.9568946246,0.04803
 69358\C,0,-2.1342625485,3.0904669234,-0.7457967577\C,0,-2.5906787103,4
 .3464702204,-0.3242883979\C,0,-3.301531823,4.4882594905,0.8750426673\C
 ,0,-3.5573224304,3.3560133431,1.6570049667\C,0,-3.0962404868,2.0970872
 788,1.2520352954\C,0,-3.2098061285,-0.5743853645,-1.1772949022\C,0,-4.
 5286518795,-0.2268417847,-0.8584265885\C,0,-5.5932305752,-0.958806217,
 -1.4061803462\C,0,-5.3511484167,-2.0306052668,-2.2733152136\C,0,-4.029
 2627646,-2.3534644621,-2.6125830415\C,0,-2.9618375363,-1.6234795566,-2
 .0782052073\H,0,0.0808486404,-2.6139219988,-0.8480989554\H,0,-0.134576
 8806,1.1808855186,1.9984875867\H,0,2.913374331,-2.8262551534,-1.154974
 383\H,0,6.4604095067,-2.1391945054,-3.5159247356\H,0,3.9037608358,1.18
 23382231,-2.4740613578\H,0,4.5304384959,0.8594559931,0.0545872587\H,0,
 3.5562274591,4.6436309861,1.8928630617\H,0,0.4482800343,2.2897232047,0
 .0203146637\H,0,-1.5955147091,2.9875942486,-1.6925158031\H,0,-3.644652
 6561,5.4735111648,1.2007196902\H,0,-3.2872405594,1.2290257792,1.887170
 1814\H,0,-4.7395481619,0.6159828598,-0.1949629419\H,0,-6.183269442,-2.
 6003793656,-2.6924732318\H,0,-1.9338712701,-1.8519809803,-2.3762172625
 \C,0,3.1814956762,-0.9723928257,2.5048641912\H,0,-0.0084500853,-0.2938
 0708,4.2534779467\H,0,-1.5561557955,-2.4887320286,3.9101747267\C,0,-3.
 1053749463,-2.6351912566,1.4701791378\H,0,3.5177976056,-0.1283761619,1
 .8657781786\N,0,4.3158824728,-1.8877219618,2.7683173285\C,0,4.80225088
 95,-2.5217611424,1.5413617187\C,0,5.4198383086,-1.151663329,3.39704404
 74\H,0,5.651207648,-3.1792648395,1.7898300383\H,0,4.0171161236,-3.1433
 883511,1.0868696404\H,0,5.1537041778,-1.7871528677,0.7775641738\H,0,6.
 2540610887,-1.8489980807,3.5785429138\H,0,5.7952956766,-0.3134648598,2
 .7650902511\H,0,5.0991947459,-0.7327246403,4.3628183046\C,0,1.62390787
 11,0.7945888639,6.1565031007\C,0,1.9699826834,-0.566638477,6.128347565
 1\C,0,2.4896815385,-1.1403068979,4.9598728378\C,0,2.6668068892,-0.3603
 535479,3.802949874\C,0,2.3434354997,1.0055793939,3.8467633744\C,0,1.81
 7763437,1.5816411746,5.0117280868\H,0,1.2141727008,1.2397674003,7.0687
 296874\H,0,1.8372985375,-1.1835644118,7.0233303015\H,0,2.7885931079,-2
 .1931623046,4.9394763578\H,0,2.4957292197,1.6222270229,2.9564435661\H,
 0,1.5620510464,2.6464239453,5.0234360238\N,0,-4.1841299072,-2.60562403
 97,2.492672339\H,0,-3.4964117074,-2.3272220708,0.4800104058\C,0,-5.309
 985626,-3.4453293826,2.0636598989\C,0,-4.6819036596,-1.253332619,2.765
 9376723\H,0,-5.7965179201,-3.0709575066,1.1343723505\H,0,-4.9700779495
 ,-4.4778405124,1.8921651241\H,0,-6.0690676453,-3.4571678271,2.86376293
 88\H,0,-5.1593011563,-0.7719504228,1.8828380914\H,0,-5.4453334827,-1.3
 163111903,3.5596220725\H,0,-3.8699450397,-0.6078995637,3.134903856\C,0
 ,-1.4979168788,-6.6489545732,0.995717004\C,0,-1.7812821923,-5.85847609
 72,-0.1275246343\C,0,-2.3184531242,-4.57391901,0.0375501958\C,0,-2.571
 0327432,-4.0574088939,1.3184542154\C,0,-2.3126533992,-4.8666067607,2.4
 400666487\C,0,-1.774863209,-6.1507818085,2.2798521376\H,0,-1.077676126
 3,-7.6523465157,0.8731539069\H,0,-2.5433519616,-3.9681842873,-0.843458
 1703\H,0,-2.5674359975,-4.4896127044,3.4353512235\C,0,-2.3474605822,5.
 5643968982,-1.1877274114\F,0,-3.4298714868,5.8333066502,-1.9661604463\
 F,0,-2.1187546523,6.6676976595,-0.4221335755\F,0,-1.2816607364,5.39677
 16624,-2.0073962772\C,0,-4.2539683473,3.4789211166,2.9902583566\F,0,-5
 .0005314161,2.3710809112,3.2620511254\F,0,-3.353279135,3.6094813656,4.
 0039477156\F,0,-5.0758374979,4.5580973809,3.0352908021\C,0,-7.00333718
 04,-0.6151081113,-0.9914075878\F,0,-7.1789044658,0.7276380757,-0.89180
 95845\F,0,-7.9238866568,-1.0989697521,-1.8617322682\F,0,-7.2927371685,
 -1.1436024543,0.2382197791\C,0,-3.7440362645,-3.4520131657,-3.60956459
 89\F,0,-4.7590409155,-4.3529750262,-3.6692691219\F,0,-3.5560366421,-2.
 9581162661,-4.8566706732\F,0,-2.6060560001,-4.1350852094,-3.2734078472
 \C,0,5.0552729091,-4.0810066696,-2.1745639317\F,0,5.9197145277,-4.5099
 744428,-3.1276109617\F,0,5.6443461358,-4.3106781855,-0.9605410362\F,0,
 3.9463755476,-4.8666461357,-2.2261501704\C,0,6.1364724151,0.5530708223
 ,-3.8622679322\F,0,5.6888297169,0.6920267627,-5.1357511907\F,0,6.16369
 23279,1.7925693553,-3.3017329795\F,0,7.4187047509,0.0997585478,-3.9285
 702922\C,0,5.6216856295,2.9089241952,1.4206590834\F,0,5.9859094652,4.2
 087066991,1.5522948172\F,0,5.8211361443,2.3069528273,2.6307669067\F,0,
 6.4646120219,2.3180292443,0.5357787632\C,0,0.8456894905,4.5754782378,1
 .3910801981\F,0,1.3176669199,5.5018321374,2.2615203233\F,0,0.378343787
 5,5.2295185279,0.2971348798\F,0,-0.2254249041,3.96140124,1.9805496337\
 H,0,-1.5944919871,-6.2386140648,-1.1371963624\H,0,-1.5777019591,-6.770
 2017966,3.1612785174\H,0,0.0925162703,-4.3959102294,1.2054147512\H,0,1
 .7044992421,-3.4178637271,3.1478595856\\Version=ES64L-G09RevE.01\State
 =1-A\HF=-5620.8694448\RMSD=4.023e-09\Dipole=-0.4165238,-1.0362126,1.11
 99506\Quadrupole=-13.024277,3.7161377,9.3081392,5.1002593,7.8229451,-5
 .0307368\PG=C01 [X(C60H42F24Fe1N2P2)]\\@


     "IF I COULD JUST GET IT ON PAPER"
 LIFE AND INK, THEY RUN OUT AT THE SAME TIME,
 OR SO SAID MY OLD FRIEND THE SQUID.
     -- JIMMY BUFFETT, 1981
 Job cpu time:       1 days  5 hours 11 minutes 32.2 seconds.
 File lengths (MBytes):  RWF=   4716 Int=      0 D2E=      0 Chk=    648 Scr=      1
 Normal termination of Gaussian 09 at Thu Dec  2 11:52:44 2021.
